/*--------------------------------*- C++ -*----------------------------------*\
| =========                 |                                                 |
| \\      /  F ield         | OpenFOAM: The Open Source CFD Toolbox           |
|  \\    /   O peration     | Version:  v2012                                 |
|   \\  /    A nd           | Website:  www.openfoam.com                      |
|    \\/     M anipulation  |                                                 |
\*---------------------------------------------------------------------------*/
FoamFile
{
    version     2.0;
    format      ascii;
    class       surfaceVectorField;
    location    "4.3";
    object      Uf_0;
}
// * * * * * * * * * * * * * * * * * * * * * * * * * * * * * * * * * * * * * //

dimensions      [0 1 -1 0 0 0 0];


internalField   nonuniform List<vector> 
296
(
(-0.0196582652576 -0.0205081581251 6.30665949698e-21)
(-0.0181970169556 -0.0193976296111 1.65669716574e-20)
(-0.0200871796236 -0.0230392754294 8.04375089274e-21)
(-0.0185869240089 -0.0219807263384 2.50654433416e-20)
(-0.020656511464 -0.0254962707389 8.62058158261e-21)
(-0.0190787695926 -0.0246443515209 2.82590128031e-20)
(-0.021380085655 -0.0276445706957 9.28632404775e-21)
(-0.0199268113363 -0.0271768609898 2.96313739155e-20)
(-0.0219414881647 -0.0291185895969 1.01561857424e-20)
(-0.0210991719345 -0.0289332175154 3.50394352109e-20)
(-0.0220381706864 -0.0302498192388 9.65050646873e-21)
(-0.021702940591 -0.0296987398828 3.49382536884e-20)
(-0.0220494130492 -0.0317328633436 6.67401294085e-21)
(-0.0213071216959 -0.0303686798621 3.21735193581e-20)
(-0.0220627291207 -0.0345221711131 3.82058287222e-21)
(-0.0206831106464 -0.0319376295235 1.27509606043e-20)
(-0.0201600034681 -0.0392138434626 5.90351739428e-21)
(-0.0193691643228 -0.0367366834465 6.74602228615e-21)
(-0.0151371172768 -0.0448627326426 6.13050652549e-21)
(-0.0153462386113 -0.0441326227122 8.34464133759e-21)
(-0.0112853844558 -0.049204407766 3.33651635346e-21)
(-0.00975023500926 -0.0447817169934 3.27535248768e-21)
(-0.00632537893457 -0.0507360573252 4.73293275849e-21)
(-0.0148589651764 -0.0477854599064 2.96352053103e-21)
(-0.00759361135149 -0.0538252508042 2.84377800077e-21)
(-0.0180237662366 -0.00266307043573 9.51172111979e-22)
(-0.0171608534697 -0.00146507558751 1.62025445389e-21)
(-0.0171425313655 -0.0052457549817 3.18163950542e-22)
(-0.0162606643473 -0.00397192767768 5.92357543531e-22)
(-0.0165027318473 -0.0078043551918 3.32860653239e-22)
(-0.0154407186891 -0.00651187207175 4.25233449602e-22)
(-0.0149928179822 -0.00909270150606 1.17055202747e-21)
(-0.0163903038837 -0.0156075560612 9.19502651093e-21)
(-0.0149317340999 -0.014360688552 1.45092057383e-20)
(-0.0167039222951 -0.0182591667069 2.07737457124e-20)
(-0.0151704702782 -0.0170891575244 4.06288022684e-20)
(-0.0170861532152 -0.0209020708266 3.5325755502e-20)
(-0.015554569559 -0.0197946609457 8.53080978287e-20)
(-0.0175325621138 -0.0236172234092 4.5280705252e-20)
(-0.0158720006369 -0.0225711463156 1.28662302964e-19)
(-0.018316718023 -0.0263663143343 4.9269805136e-20)
(-0.0163296182343 -0.0256531950348 1.44642300891e-19)
(-0.0196459098292 -0.0286291095506 5.53844850786e-20)
(-0.0176636645585 -0.0287106071899 1.571475653e-19)
(-0.0209048486915 -0.0296077470069 5.98215031569e-20)
(-0.0201198994084 -0.0304184526238 1.96315852024e-19)
(-0.0210485138977 -0.0298576653813 5.74612665778e-20)
(-0.0214521709469 -0.0301235280986 1.92502999125e-19)
(-0.0199697533929 -0.0307293512055 3.82504670215e-20)
(-0.0204344726173 -0.0295685410854 1.58168721274e-19)
(-0.0180059845779 -0.033696771056 1.56764000182e-20)
(-0.0177147904615 -0.0307373288044 6.01026309579e-20)
(-0.0146933896196 -0.0391335386486 9.18714622946e-21)
(-0.0139317834804 -0.0362122601694 2.22937554599e-20)
(-0.0102001060302 -0.0447751881819 5.48948729978e-21)
(-0.00970438246333 -0.0443297721393 2.01258993168e-20)
(-0.00963962157701 -0.0487916310874 2.90235666525e-21)
(-0.00573385976993 -0.0458885075607 1.44019056537e-20)
(-0.00868513492567 -0.0552376702471 1.07436577331e-21)
(-0.00841198511656 -0.0455152239268 1.44409753358e-20)
(-0.00715155919404 -0.0565676821544 2.08457246729e-21)
(-0.0154104614948 -0.00265273083973 1.26143988544e-21)
(-0.0145085226737 -0.00145778388152 1.91097304007e-21)
(-0.0145718126754 -0.00523744746448 6.99427042591e-22)
(-0.0136765170202 -0.00394726547735 9.58947638388e-22)
(-0.0139376830256 -0.00780597325353 1.26292482383e-21)
(-0.0128729605163 -0.00647669805354 1.31201224563e-21)
(-0.0136214130167 -0.0104009810374 4.45712181449e-21)
(-0.0123987637621 -0.00906543774147 4.53363055643e-21)
(-0.0135574403805 -0.0130661461262 1.55657719074e-20)
(-0.0121922691181 -0.0117090971095 1.79407796206e-20)
(-0.0136844245949 -0.0158137907763 4.59429814958e-20)
(-0.0121849307242 -0.0144981625582 6.29740188358e-20)
(-0.0139842199353 -0.0186313101958 1.05163154385e-19)
(-0.0123536268783 -0.0174604466422 1.78970166977e-19)
(-0.0142953558431 -0.0214884039072 1.78644645291e-19)
(-0.0126979258904 -0.0204158222279 3.73850194192e-19)
(-0.0146089127927 -0.0246097236994 2.28023898603e-19)
(-0.0127508694176 -0.0235643714757 5.57363477596e-19)
(-0.0156211690344 -0.0280386901967 2.52520061055e-19)
(-0.0129005466425 -0.0274167791892 6.22030656143e-19)
(-0.0180783688746 -0.030745290576 2.98078932245e-19)
(-0.0149566612402 -0.0316019454194 6.80193556976e-19)
(-0.020748673946 -0.0311101206608 3.28997347991e-19)
(-0.019754402221 -0.0335847124357 8.8195173791e-19)
(-0.0210104081843 -0.0298321771532 2.93210453821e-19)
(-0.0227292495934 -0.0314939727234 8.39265335018e-19)
(-0.0182877421315 -0.0297443710684 1.8002088521e-19)
(-0.0205213363179 -0.0288853929039 6.51642806076e-19)
(-0.0137390262058 -0.0326386770049 6.67199863996e-20)
(-0.014819618697 -0.0295919007972 2.47196382464e-19)
(-0.00905191469971 -0.0382618332378 3.32325085472e-20)
(-0.00830804816321 -0.0350407923601 9.26409813761e-20)
(-0.00551671344678 -0.0438892508039 2.90383176707e-20)
(-0.00407678552763 -0.0435476016136 7.04917304002e-20)
(-0.00559906096061 -0.0477360302898 2.59405243243e-20)
(-0.00188568437243 -0.0461427301314 5.63016577439e-20)
(-0.00696580556124 -0.0516848725047 1.54511820298e-20)
(-0.00446349112412 -0.0424720274263 5.60224954021e-20)
(-0.00612597717853 -0.0549233710172 1.0519703215e-20)
(-0.0128067615185 -0.00261428213105 1.60848079302e-21)
(-0.0118947783401 -0.00143668221371 2.0023568958e-21)
(-0.0120048184561 -0.00518965890651 1.57153284142e-21)
(-0.0111017999595 -0.00388765754549 1.52353299509e-21)
(-0.0113607157772 -0.00773614984148 4.58271797822e-21)
(-0.0103272575667 -0.006378476237 3.94771865772e-21)
(-0.010974685011 -0.0103516790706 1.80172883625e-20)
(-0.00978412213924 -0.00894401766866 1.63314419384e-20)
(-0.0107863398249 -0.013106481898 6.53490265489e-20)
(-0.00943836462588 -0.0116088344367 6.5956531895e-20)
(-0.0107411059449 -0.0160927808191 1.96001204317e-19)
(-0.00919945452339 -0.014567353074 2.35263035904e-19)
(-0.0108895340949 -0.0192551157298 4.47657206785e-19)
(-0.00919196565494 -0.0180180467884 6.68158090236e-19)
(-0.0109713945896 -0.0224991304356 7.52569026498e-19)
(-0.00945436169571 -0.0216369802937 1.38652065208e-18)
(-0.0108574079775 -0.026331159586 9.51370235136e-19)
(-0.0089190220018 -0.0254714821804 2.04520480284e-18)
(-0.0120204459001 -0.0309684041225 1.04970415206e-18)
(-0.00826318392426 -0.0301835686012 2.15726764868e-18)
(-0.0163944739704 -0.0347004983883 1.26406636264e-18)
(-0.0112241631299 -0.0359815894839 2.21359248182e-18)
(-0.0217241359689 -0.0344029764801 1.39221972494e-18)
(-0.0200512721723 -0.0387789963128 2.86287029856e-18)
(-0.0223570916598 -0.0302342637539 1.19769768727e-18)
(-0.0268971426908 -0.0340793679731 2.66239998263e-18)
(-0.017172138236 -0.0289061426452 7.1881830333e-19)
(-0.0218485850003 -0.0282808183969 1.96310441984e-18)
(-0.00959790708671 -0.0313785889094 2.7311737744e-19)
(-0.0123463786857 -0.0291196563138 7.7749321725e-19)
(-0.00358322413597 -0.0364856118769 1.29900203229e-19)
(-0.00320049879009 -0.0339839730737 3.12969649332e-19)
(-0.000833927794803 -0.0416323053767 9.77550704733e-20)
(0.00107009069808 -0.0423939724607 2.11195377441e-19)
(-0.0012172685355 -0.0453077749262 8.63836288217e-20)
(0.00178958623796 -0.0456513989514 1.781176471e-19)
(-0.00356031572505 -0.0497739372661 5.10910165873e-20)
(4.00555199071e-06 -0.0396494453779 1.75849144835e-19)
(-0.0012128879645 -0.0509110550267 3.60528481769e-20)
(-0.0102376842537 -0.00257305923346 1.91740909787e-21)
(-0.0093223451054 -0.00141295894684 1.90074637545e-21)
(-0.00947017235578 -0.00508913546086 3.89971881138e-21)
(-0.00858643441629 -0.00379664124982 2.77964453209e-21)
(-0.00880408646997 -0.00760079931486 1.56964426179e-20)
(-0.00781638583241 -0.0062194370217 1.10506076911e-20)
(-0.00831584802776 -0.0101899743884 6.42706854709e-20)
(-0.00719580013307 -0.0087373286883 4.89112445449e-20)
(-0.00793235835641 -0.0130330478705 2.3587054125e-19)
(-0.00659615046769 -0.0113994226389 1.98100587685e-19)
(-0.00759928702677 -0.0164106155059 7.07419921823e-19)
(-0.00582268045156 -0.0145295721285 7.11833090123e-19)
(-0.00751709158021 -0.020353633118 1.60702153553e-18)
(-0.00524960083421 -0.0189184298972 2.03393872285e-18)
(-0.00735529966213 -0.0247287629148 2.67915642842e-18)
(-0.00507967629723 -0.0240041148444 4.10432694397e-18)
(-0.00651702454331 -0.0292917527513 3.25110221638e-18)
(-0.00435623248367 -0.028283821588 5.8885457166e-18)
(-0.00757998072119 -0.0348935666188 3.32115597844e-18)
(-0.00266128235848 -0.0326050149574 5.93937710063e-18)
(-0.0145184834989 -0.0401194176436 3.81239641774e-18)
(-0.00599794930031 -0.0388802522056 5.14885756115e-18)
(-0.0244097595194 -0.0397386983264 4.13305055625e-18)
(-0.0204314113144 -0.0435430366259 6.38165722154e-18)
(-0.0259113756686 -0.030953991131 3.4278067152e-18)
(-0.0356811428169 -0.0368949126141 5.61558568757e-18)
(-0.0170507769086 -0.0289636791861 2.02177933376e-18)
(-0.0238381394949 -0.0280018287438 3.8414675387e-18)
(-0.00609915172123 -0.0312209416459 8.17345489141e-19)
(-0.0100883756078 -0.0303055319029 1.70955905493e-18)
(0.00127286511595 -0.0355345413983 3.94264823544e-19)
(0.0011136389225 -0.0342972023723 7.50751861174e-19)
(0.00340685049489 -0.0394739516231 2.91557954068e-19)
(0.00500968658207 -0.041727964796 4.97422638423e-19)
(0.00268389910948 -0.0420592164915 2.67583163114e-19)
(0.00437673494611 -0.0449573239049 4.13634414076e-19)
(0.00121097634009 -0.0450723907314 1.60810976425e-19)
(0.00301776337266 -0.0374334058585 4.0903675702e-19)
(0.00143798078873 -0.0427472918823 7.99903104284e-20)
(-0.00773686102843 -0.00250072121385 2.76298180967e-21)
(-0.00682224543288 -0.00138566539452 1.91718083589e-21)
(-0.00699166594917 -0.00493631673708 9.93053341183e-21)
(-0.00615150929682 -0.00366147118905 5.70269956897e-21)
(-0.0062464596802 -0.00737873650328 4.42654096182e-20)
(-0.00537468956314 -0.00595437252491 2.63175356693e-20)
(-0.00553020882963 -0.00997117538147 1.82741146759e-19)
(-0.00460412600178 -0.00836189377386 1.15340223124e-19)
(-0.00482475826843 -0.0129413560208 6.74063136558e-19)
(-0.00362673705583 -0.0110087034328 4.53289616695e-19)
(-0.00428562586052 -0.0167898446781 2.03835189115e-18)
(-0.00197490107348 -0.0142312456142 1.58134964379e-18)
(-0.00383771951492 -0.0222675825437 4.53124413128e-18)
(0.000227549023076 -0.0190563449802 4.54944949548e-18)
(-0.00282211706683 -0.0282442447216 7.31371623214e-18)
(0.000896535141882 -0.0254832074119 9.4802977393e-18)
(-0.000517028327881 -0.0313523633743 8.57682060084e-18)
(-0.00124832371799 -0.029655740295 1.41659189259e-17)
(-2.26855336559e-05 -0.0360073373298 7.76707868334e-18)
(0.00199375871189 -0.0305542638219 1.4269362212e-17)
(-0.00844054080175 -0.0411717067597 7.71811836495e-18)
(-0.000833264021209 -0.0303126297152 9.78857762313e-18)
(-0.0288658877316 -0.0427922163126 7.86419235286e-18)
(-0.0188104012187 -0.0450157142666 1.06968408859e-17)
(-0.0340391414959 -0.0323106072876 6.02924651107e-18)
(-0.046162211967 -0.0381131646624 7.18943968846e-18)
(-0.0179813188488 -0.0305098205393 3.52924725986e-18)
(-0.0256382346692 -0.029951809591 4.99960230581e-18)
(-0.00362843850381 -0.0329029424675 1.64296542696e-18)
(-0.0076944888226 -0.0335270830059 2.49166854968e-18)
(0.00459774499251 -0.0358072311329 8.53909676053e-19)
(0.0040184984126 -0.0365517555138 1.23995960984e-18)
(0.00594221567637 -0.0380964787483 6.19499098431e-19)
(0.00729911252574 -0.042023840574 8.77185533397e-19)
(0.00485420171463 -0.0386320153771 5.55088007982e-19)
(0.00491497564787 -0.0445205238832 7.3085782558e-19)
(0.00383616232156 -0.0402673718422 3.28216091023e-19)
(0.00465583443155 -0.0359837723687 7.2198098926e-19)
(0.00319527271869 -0.0324286053385 1.33259819876e-19)
(-0.00531716826612 -0.00240627319472 4.85689859518e-21)
(-0.0044164899761 -0.00134319243396 2.4761190684e-21)
(-0.00460305984038 -0.00468305771606 2.20897018265e-20)
(-0.00387526006386 -0.00344887244902 1.10301543636e-20)
(-0.00369092849767 -0.00691764915713 9.73923491749e-20)
(-0.0031406694491 -0.00545206097796 5.12471660059e-20)
(-0.00234428046365 -0.0093778966967 3.8588869306e-19)
(-0.00214448265339 -0.00734208214476 2.1206585869e-19)
(-0.00014734048326 -0.0124015804293 1.36057612393e-18)
(-0.000603661401043 -0.00908665623015 7.74595752591e-19)
(0.00291433691738 -0.016516036882 4.09244724812e-18)
(0.00213898709291 -0.010606839605 2.48892466741e-18)
(0.00499953300361 -0.0219005125731 9.4985031035e-18)
(0.00561150179167 -0.0118495346674 6.45603924572e-18)
(0.00238361183658 -0.027789137419 1.63325004331e-17)
(0.00678475444491 -0.0151484247296 1.24939330927e-17)
(0.000885971967909 -0.029037498278 1.98584605371e-17)
(0.000387779168093 -0.0270436486798 1.62908611518e-17)
(-0.0157332933038 -0.0278767097393 1.27673001441e-17)
(-0.0433159349005 -0.0466869126186 1.00220882215e-17)
(-0.042449478414 -0.0336049344556 6.1597954832e-18)
(-0.0172326852002 -0.0336563493943 3.96202359564e-18)
(-0.000440320431256 -0.0364146109959 2.08866273256e-18)
(0.00680044804544 -0.0379669331071 1.26323546718e-18)
(0.00649268451887 -0.0380739259986 9.88544260547e-19)
(0.00476198170168 -0.0358632905001 8.97750806858e-19)
(0.0041073303654 -0.0339414973555 5.27024718113e-19)
(-0.00307554725594 -0.00225565013978 8.64937483682e-21)
(-0.00216117821217 -0.00130847601071 4.00201790446e-21)
(-0.00255148611408 -0.00426145795296 4.01876185431e-20)
(-0.00186978801649 -0.00326166662232 1.79738021662e-20)
(-0.00182747653752 -0.00591561647506 1.65920675521e-19)
(-0.00148687511706 -0.00500593650364 8.26121309349e-20)
(-0.000685916427373 -0.00705333323672 6.00772918221e-19)
(-0.00100716341091 -0.00642140664403 3.3377698595e-19)
(0.00133487417167 -0.00750021989061 1.90294429607e-18)
(-0.000157191499139 -0.00717320136694 1.11502364904e-18)
(0.00428673437634 -0.00663628761837 4.85251666501e-18)
(0.00127463106778 -0.00686908423623 3.5071194318e-18)
(0.00678525639194 -0.00398627270913 9.45146923494e-18)
(0.00296106415113 -0.00486156166868 8.81748443936e-18)
(0.00279827408504 -0.00318514144336 1.8448873364e-17)
(-0.000998714037195 -0.00219058885872 1.33264452339e-20)
(2.9339134499e-05 -0.00130068475072 5.38800948978e-21)
(-0.000819581852328 -0.00408607262161 6.03983145581e-20)
(2.56147310893e-05 -0.00320220927066 2.18859090131e-20)
(-0.000588398904396 -0.00559902347021 2.50468441364e-19)
(2.59555498576e-05 -0.00488547106725 9.92295882166e-20)
(-0.000316180158977 -0.006635322092 8.48027716774e-19)
(2.8956959009e-05 -0.00625901754961 4.0138904818e-19)
(8.13987307823e-05 -0.00682866222894 2.71919878477e-18)
(3.5906284944e-05 -0.00690662309815 1.29502586024e-18)
(0.000533370140769 -0.00559595393648 7.47208720615e-18)
(4.16090042375e-05 -0.0064915650347 4.14380844558e-18)
(-4.02892081817e-06 -0.00269533957269 1.78148885684e-17)
(6.00430725547e-05 -0.00464552516554 1.079852597e-17)
(0.000102647708615 -0.00149853327188 2.48199093796e-17)
(0.00105193004579 -0.00218756480494 1.3947473269e-20)
(0.00221709805196 -0.00130504617034 5.18309874091e-21)
(0.000869760295766 -0.00407829761014 6.07171826716e-20)
(0.00191650571199 -0.00325274439244 1.86919095105e-20)
(0.000642000593448 -0.00558940656566 2.50150195033e-19)
(0.00153714583645 -0.00499500368335 8.28082861877e-20)
(0.000378656314568 -0.00662434643728 8.48387191648e-19)
(0.00106385961568 -0.0064105414597 3.33219131991e-19)
(-2.56680954693e-06 -0.00681491578588 2.71963552105e-18)
(0.000226299840139 -0.00716369761475 1.11540820182e-18)
(-0.000425492858471 -0.00558274964959 7.47024720943e-18)
(-0.00119092465462 -0.00685816616842 3.50678565929e-18)
(0.00017974452061 -0.00268746625353 1.78035467812e-17)
(-0.00283581939099 -0.00483372947828 8.81541255673e-18)
(-0.0025852288775 -0.0032030750932 1.84378302743e-17)
(0.00312675397923 -0.00224694115057 9.9275349824e-21)
(0.00260171745535 -0.0042485249257 4.07830130266e-20)
(0.00187926660157 -0.00590422450697 1.65877223145e-19)
(0.000743594262684 -0.00704381880887 6.00240142158e-19)
(-0.00126573048154 -0.00749016288079 1.90255834006e-18)
(-0.00418577830612 -0.00662179913406 4.85195100659e-18)
(-0.00660760599611 -0.00398033505511 9.44969604983e-18)
)
;

boundaryField
{
    back
    {
        type            calculated;
        value           uniform (0 0 0);
    }
    sides
    {
        type            calculated;
        value           nonuniform List<vector> 0();
    }
    bottom
    {
        type            calculated;
        value           uniform (0 0 0);
    }
    front
    {
        type            calculated;
        value           uniform (0 0 0);
    }
    atmosphere
    {
        type            calculated;
        value           nonuniform List<vector> 7((0 -0.0427155754895 0) (0 -0.0556791832115 0) (0 -0.0527097823642 0) (0 -0.0546860221751 0) (0 -0.0477204394232 0) (0 -0.0420210105992 0) (0 -0.0300005540802 0));
    }
    floatingObject
    {
        type            calculated;
        value           nonuniform List<vector> 8((0 -1.66533453694e-15 2.08166817117e-16) (0 0 2.08166817117e-16) (0 0 0) (0 -3.33066907388e-15 2.08166817117e-16) (4.16333634234e-16 0 0) (0 0 2.08166817117e-16) (0 0 2.08166817117e-16) (0 0 0));
    }
    procBoundary3to4
    {
        type            processor;
        value           nonuniform List<vector> 
13
(
(-0.0207362057927 -0.0190840648949 2.99711148932e-21)
(-0.021117527084 -0.0215727889092 4.44319644324e-21)
(-0.0215357921232 -0.0240530603573 4.99562908224e-21)
(-0.0198235623056 -0.00145136564958 1.50788128576e-21)
(-0.0188426794653 -0.00396134826188 4.12424369341e-22)
(-0.0179983762945 -0.00649368433091 1.30894670326e-22)
(-0.0175555789463 -0.009048142863 2.98974770101e-22)
(-0.0175643262042 -0.0142068502281 2.95757987102e-21)
(-0.0192905351244 -0.017967909667 3.76537310216e-21)
(-0.0178210381836 -0.0168173594206 7.97214715711e-21)
(-0.016224015772 -0.0103684858254 1.01641283539e-21)
(-0.0162175931392 -0.0129729506852 3.24641645332e-21)
(-0.0148558958571 -0.0116940703609 4.30298262241e-21)
)
;
    }
    procBoundary3to5
    {
        type            processor;
        value           nonuniform List<vector> 10((-0.0220754219075 -0.0264065712244 5.17583853717e-21) (-0.0225740199669 -0.0283442530159 5.86357629738e-21) (-0.0228353731714 -0.0298088109263 6.4735775052e-21) (-0.022791636025 -0.0312482662996 5.7567946517e-21) (-0.0234738485906 -0.0331352458103 3.74142899505e-21) (-0.0240619027093 -0.0368808450176 3.13311734103e-21) (-0.0209955640121 -0.0431587328522 8.84829324941e-21) (-0.014090597069 -0.0431718063833 4.26618405209e-21) (-0.0163932832084 -0.0468918284619 4.50582161291e-21) (0.000425803412749 -0.034186225927 8.86073379477e-21));
    }
    procBoundary3to6
    {
        type            processor;
        value           nonuniform List<vector> 8((-0.0592437458637 -0.0309450417673 6.1932680122e-18) (-0.0255862165443 -0.0325557625617 4.52821915206e-18) (-0.00493553388637 -0.0387178207629 2.64116958443e-18) (0.00557134076893 -0.0405294676061 1.60047546956e-18) (0.00740628138158 -0.0434060038434 1.24975555993e-18) (0.00270899452938 -0.0444773905738 1.0788770017e-18) (0.00273612908096 -0.035572710131 1.06684022733e-18) (-0.000741758306371 -0.0220419682045 2.17463612212e-19));
    }
    procBoundary3to8
    {
        type            processor;
        value           nonuniform List<vector> 8((0.00446436361089 -0.0013355179474 3.75278242706e-21) (0.00391834576142 -0.00343364836329 1.17153676428e-20) (0.00319298512577 -0.00543592248481 5.13688097183e-20) (0.00220343726439 -0.00732630232132 2.1142911695e-19) (0.000672402520504 -0.0090725234144 7.74193295986e-19) (-0.00205977363868 -0.0105885880443 2.49087176279e-18) (-0.00547805315574 -0.0118145696122 6.46328962699e-18) (-0.00656599952295 -0.0151392851756 1.25033832074e-17));
    }
}


// ************************************************************************* //
