/*--------------------------------*- C++ -*----------------------------------*\
| =========                 |                                                 |
| \\      /  F ield         | OpenFOAM: The Open Source CFD Toolbox           |
|  \\    /   O peration     | Version:  v2012                                 |
|   \\  /    A nd           | Website:  www.openfoam.com                      |
|    \\/     M anipulation  |                                                 |
\*---------------------------------------------------------------------------*/
FoamFile
{
    version     2.0;
    format      ascii;
    class       volScalarField;
    location    "4.3";
    object      alpha.water;
}
// * * * * * * * * * * * * * * * * * * * * * * * * * * * * * * * * * * * * * //

dimensions      [0 0 0 0 0 0 0];


internalField   nonuniform List<scalar> 
166
(
0.999999924426
0.999999932786
0.999999890909
0.999999892019
0.999999807076
0.999999448413
0.999998931542
0.999998267607
0.999997435935
0.999996249944
0.999994416344
0.999991872173
0.999989699842
0.9999895956
0.999992509305
0.999992278097
0.999989988747
0.714311092971
0.0377452654488
-5.02968831995e-20
1.00000010277
1.00000021232
1.00000026642
1.00000020377
0.999999970948
0.999999563638
0.99999905532
0.999998365096
0.999997505294
0.999996229512
0.999994063822
0.999993997062
0.999991918429
0.999989410523
0.999991025526
0.999995719092
0.999992806593
0.727624081757
0.0458456962559
-1.16223335241e-19
1.00000040785
1.00000046163
1.00000039828
1.00000020245
0.99999985468
0.9999993856
0.999998855777
0.999998253081
0.999997720974
0.999997540789
0.999996959196
0.999996961415
0.99999679347
0.999991679325
0.999994745467
0.999998204533
0.999996151618
0.736278324535
0.0532377877643
-2.68011951901e-20
1.00000056132
1.00000055449
1.00000041481
1.0000001412
0.999999707467
0.999999141353
0.999998469147
0.999997718281
0.999997012922
0.999996594697
0.99999695092
0.999995586388
0.999995959889
0.999997418788
0.999997473752
0.999999474673
0.999998204542
0.739499273793
0.0588855262826
-2.73468314124e-12
1.00000058782
1.00000053277
1.0000003829
1.00000012649
0.999999707265
0.999999126125
0.999998420115
0.999997507047
0.999996511973
0.999995393133
0.999995380937
0.999995381183
0.99999538103
0.999998334105
0.999998373048
0.999999983136
0.999999492064
0.744275060347
0.0635679575183
-1.81415932952e-11
1.00000053139
1.00000051846
1.00000044333
1.00000020923
0.999999874025
0.999999350148
0.999998764278
0.999998011235
0.999997309656
0.999997034185
0.999997183659
0.999998019027
0.999996152577
0.999995744923
0.999999137039
1
0.999999983136
0.748551712339
0.0686255944491
-6.0753788106e-10
1.00000053919
1.00000057306
1.00000041604
1.00000043636
1.00000015739
0.999999880866
0.999999442811
0.99999898846
0.999998683482
0.999998720594
0.999999453614
0.999999823319
0.999998064188
0.999995550861
1.00000023492
1.00000177919
1
0.750197266514
0.0725378163348
-2.69251793799e-08
1.00000045143
1.00000051732
1.00000063578
1.00000063798
1.00000061777
1.00000032931
1.00000009896
0.9999999509
0.99999984631
0.999999997053
1
0.999999953161
0.999996538993
0.999995660284
1.00000171848
1.00000302083
1
0.750597270512
0.0722337889916
-1.90132517509e-08
1.00000048653
1.00000082931
1.00000074154
1.00000088263
1.00000116818
1.0000019905
)
;

boundaryField
{
    back
    {
        type            zeroGradient;
    }
    sides
    {
        type            zeroGradient;
    }
    bottom
    {
        type            zeroGradient;
    }
    front
    {
        type            zeroGradient;
    }
    atmosphere
    {
        type            inletOutlet;
        inletValue      uniform 0;
        value           uniform 0;
    }
    floatingObject
    {
        type            zeroGradient;
    }
    procBoundary9to6
    {
        type            processor;
        value           nonuniform List<scalar> 4(0.999991125837 0.699619583416 0.0309176185376 -3.88743545208e-20);
    }
    procBoundary9to7
    {
        type            processor;
        value           nonuniform List<scalar> 
16
(
0.999999752923
0.999999733196
0.999999701683
0.999999709145
0.999999733557
0.999999646573
0.999999519477
0.999999444997
0.999999252233
0.999998862808
0.999998541695
0.99999853067
0.999997749614
0.999994511669
0.999992600012
0.999992666047
)
;
    }
    procBoundary9to10
    {
        type            processor;
        value           nonuniform List<scalar> 
15
(
1.00000066715
1.00000077927
1.00000065244
1.00000039258
1.0000003746
1.00000043422
1.00000107335
1.00000223304
1.00000075683
1.00000066715
1.00000087807
1.00000075683
1.0000015338
1.00000167546
1.00000190592
)
;
    }
    procBoundary9to11
    {
        type            processor;
        value           nonuniform List<scalar> 9(1.00000195789 0.999999616272 0.999999562843 1.00000395343 1.0000047404 1.00000234358 0.751489287427 0.0709543044016 -2.39825708174e-08);
    }
}


// ************************************************************************* //
