/*--------------------------------*- C++ -*----------------------------------*\
| =========                 |                                                 |
| \\      /  F ield         | OpenFOAM: The Open Source CFD Toolbox           |
|  \\    /   O peration     | Version:  v2012                                 |
|   \\  /    A nd           | Website:  www.openfoam.com                      |
|    \\/     M anipulation  |                                                 |
\*---------------------------------------------------------------------------*/
FoamFile
{
    version     2.0;
    format      ascii;
    class       surfaceScalarField;
    location    "4.3";
    object      alphaPhi0.water;
}
// * * * * * * * * * * * * * * * * * * * * * * * * * * * * * * * * * * * * * //

dimensions      [0 3 -1 0 0 0 0];
oriented        oriented;


internalField   nonuniform List<scalar> 
300
(
-4.29701381664e-06
0.000265025723985
-8.84792751673e-06
0.000261197427254
-1.37702791829e-05
0.000258568440979
-1.9101940846e-05
0.000259266694739
-2.49023091473e-05
0.00026269466025
-3.12803411341e-05
0.000268019858764
-3.83885862476e-05
0.000274777489371
-4.64177198082e-05
0.000282804542487
-5.55992707775e-05
0.000292075174537
-6.62196677412e-05
0.000302598956241
-7.86302543976e-05
0.000314432179637
-9.34869036848e-05
0.000327873451777
-0.000111440137985
0.000342929157326
-0.000133590464134
0.00036014711355
-0.000161462810317
0.000379145912748
-0.000199774632875
0.000399341833765
-0.000248578793916
0.000418036162583
-9.39116083528e-05
0.00032644305452
-4.84110359937e-08
1.74478858667e-05
-4.45929495579e-08
-3.14610875925e-06
0.000268171895011
-6.62169271226e-06
0.000264673216586
-1.04204063052e-05
0.0002623675297
-1.46228315267e-05
0.000263469652315
-1.92727071416e-05
0.000267345182919
-2.44811257592e-05
0.000273229208662
-3.03880396771e-05
0.000280685732081
-3.71975752289e-05
0.000289616024631
-4.51177447887e-05
0.000299998216776
-5.44565199055e-05
0.000311941976148
-6.55813325126e-05
0.000325563467104
-7.87493176738e-05
0.000341049210049
-9.47235412563e-05
0.000358912392967
-0.000114404328415
0.000379834519308
-0.000139585856488
0.0004043339225
-0.000172735883829
0.00043250166506
-0.000216390233645
0.000461702715611
-9.01669958366e-05
0.000371358515482
-5.89968281943e-08
2.84862019582e-05
-3.48604661349e-12
-1.97109914269e-06
0.000270143208801
-4.1998982734e-06
0.000266902277534
-6.80006807974e-06
0.00026496800097
-9.73120661063e-06
0.000266401151203
-1.30869573038e-05
0.000270701380053
-1.69701711669e-05
0.000277113066386
-2.1487810324e-05
0.000285204363493
-2.68466988685e-05
0.000294976432786
-3.32188244809e-05
0.000306372411585
-4.08884498459e-05
0.000319614356059
-5.01590322546e-05
0.000334838498488
-6.12830699284e-05
0.00035217764232
-7.48508586215e-05
0.000372486571618
-9.15832455748e-05
0.000396575419855
-0.000112909305736
0.000425665782466
-0.000140918507457
0.00046052280457
-0.00017891654057
0.000499712038923
-8.14583683198e-05
0.000411506314193
-2.88494759928e-08
4.12798888706e-05
-1.90854869419e-08
-6.24443483526e-07
0.000270767858989
-1.57446418011e-06
0.000267852485901
-2.82324600386e-06
0.000266216940651
-4.42222740555e-06
0.000268000281117
-6.39190713526e-06
0.000272671290987
-8.80922243006e-06
0.000279530842406
-1.18122793713e-05
0.000288208305658
-1.54744406539e-05
0.000298640071639
-2.00355354594e-05
0.000310935779213
-2.56638565625e-05
0.000325245224708
-3.27623374152e-05
0.000341940383936
-4.15760535075e-05
0.000360996974903
-5.22601824829e-05
0.00038317435477
-6.54520473422e-05
0.000409772835141
-8.26437497341e-05
0.000442861930123
-0.000105851945002
0.00048373667737
-0.000133914436644
0.000527786196722
-6.16843512589e-05
0.000438463307825
-3.31557370656e-08
5.14242154728e-05
-1.80636784053e-09
6.89031360647e-07
0.000270078924812
1.18373069962e-06
0.000267357808002
1.34539193271e-06
0.000266055211331
1.2042520214e-06
0.000268141274652
7.59360850793e-07
0.000273116038741
-4.49714038352e-08
0.000280335229647
-1.31024764826e-06
0.000289474083776
-3.16359054878e-06
0.000300494705126
-5.75496714161e-06
0.000313529667973
-9.27428175679e-06
0.000328769266465
-1.38530770715e-05
0.000346523982612
-1.97087382435e-05
0.000366856921191
-2.73670547306e-05
0.000390837043075
-3.74608524911e-05
0.000419869755117
-4.98266599364e-05
0.000455231231891
-6.69631919565e-05
0.000500874673926
-8.91536493782e-05
0.000549982575288
-4.43812133335e-05
0.00046293629894
-7.27640033591e-08
6.09823427261e-05
-1.04728610306e-09
2.14509824653e-06
0.000267933757191
4.04982689314e-06
0.0002654529285
5.68894263009e-06
0.000264415802185
7.08429308072e-06
0.000266745193782
8.23291705e-06
0.000271966418741
9.12877103078e-06
0.000279438338493
9.69600397846e-06
0.000288906144695
9.83865130669e-06
0.000300352050903
9.45829083311e-06
0.000313911070155
8.36495478972e-06
0.00032986464116
6.57715859169e-06
0.000348314912793
3.6575039997e-06
0.000369780585024
-7.64177390006e-07
0.000395263989309
-6.2940820048e-06
0.000425403384218
-1.46981548535e-05
0.000463638506407
-2.61485412194e-05
0.000512329027387
-3.42039446347e-05
0.000558036982016
-2.3153046826e-05
0.000481492311937
-2.23751374929e-09
7.13370949018e-05
3.05975889031e-09
3.61853055192e-06
0.000264315064775
7.01458733223e-06
0.000262056535697
1.01603694672e-05
0.000261268536116
1.3127717767e-05
0.00026377604638
1.59547012441e-05
0.000269137063927
1.86241002031e-05
0.000276766327899
2.11095158848e-05
0.000286418039629
2.33418149645e-05
0.000298118089341
2.52320597206e-05
0.000312020373281
2.68216040413e-05
0.000328276094994
2.78381332131e-05
0.000347300810019
2.80311713496e-05
0.00036959128992
2.76272300791e-05
0.000395672200171
2.59384565844e-05
0.000427095713036
2.23294932759e-05
0.0004672519107
1.85865708751e-05
0.000516078031001
1.03988216478e-05
0.00056622894832
3.56814851824e-07
0.00049189426515
-2.62746205136e-07
7.86137057677e-05
-2.49952269891e-07
5.10532510599e-06
0.000259209220551
9.99948184021e-06
0.000257160942667
1.4694549148e-05
0.000256571785229
1.92713970685e-05
2.37926193526e-05
2.82898143537e-05
3.27630683435e-05
3.71036487315e-05
4.15206889382e-05
4.57801848791e-05
4.97950732192e-05
5.36366996911e-05
5.69887637274e-05
5.94818065525e-05
6.17412657736e-05
6.40176517814e-05
6.36401315302e-05
2.17284266385e-05
-3.6513191038e-07
6.58119223967e-06
0.000252627489551
1.29923650869e-05
0.000244566878022
0.000235067740759
)
;

boundaryField
{
    back
    {
        type            calculated;
        value           uniform 0;
    }
    sides
    {
        type            calculated;
        value           nonuniform List<scalar> 0();
    }
    bottom
    {
        type            calculated;
        value           uniform 0;
    }
    front
    {
        type            calculated;
        value           uniform 0;
    }
    atmosphere
    {
        type            calculated;
        value           nonuniform List<scalar> 8(-3.87503118762e-10 -1.0266567705e-07 -8.87092562964e-09 -4.53809447752e-08 -7.32130744977e-08 -6.33684084895e-09 -9.30463339229e-09 -8.75090701643e-08);
    }
    floatingObject
    {
        type            calculated;
        value           nonuniform List<scalar> 0();
    }
    procBoundary9to6
    {
        type            processor;
        value           nonuniform List<scalar> 4(-0.00036922161939 -0.00028161136506 -1.1018048438e-05 -3.63133383476e-09);
    }
    procBoundary9to7
    {
        type            processor;
        value           nonuniform List<scalar> 
16
(
-0.000260728968316
-0.000256646537967
-0.000253645787137
-0.000253934337643
-0.000256893111093
-0.000261640143065
-0.000267666984508
-0.000274772486417
-0.000282889742718
-0.000291973286622
-0.000302015305739
-0.000313008467877
-0.000324966207211
-0.000337987255159
-0.00035126575487
-0.000361016863857
)
;
    }
    procBoundary9to10
    {
        type            processor;
        value           nonuniform List<scalar> 
15
(
0.000259196295411
0.000264612569136
0.000272265423753
0.000281941463316
0.000293774744293
0.000307601941874
0.000324017259928
0.000343288233337
0.000250748970827
1.92405994008e-05
0.000250321296754
8.06066381956e-06
9.49910387192e-06
1.08380940602e-05
0.000224229862257
)
;
    }
    procBoundary9to11
    {
        type            processor;
        value           nonuniform List<scalar> 9(0.000365752903615 0.000392323530578 0.000424607702298 0.000464996914079 0.00051380516611 0.000566610580437 0.00049529253558 8.40352451925e-05 -3.2474601518e-07);
    }
}


// ************************************************************************* //
