/*--------------------------------*- C++ -*----------------------------------*\
| =========                 |                                                 |
| \\      /  F ield         | OpenFOAM: The Open Source CFD Toolbox           |
|  \\    /   O peration     | Version:  v2012                                 |
|   \\  /    A nd           | Website:  www.openfoam.com                      |
|    \\/     M anipulation  |                                                 |
\*---------------------------------------------------------------------------*/
FoamFile
{
    version     2.0;
    format      ascii;
    class       volScalarField;
    location    "4.3";
    object      p;
}
// * * * * * * * * * * * * * * * * * * * * * * * * * * * * * * * * * * * * * //

dimensions      [1 -1 -2 0 0 0 0];


internalField   nonuniform List<scalar> 
166
(
8413.87811964
7924.38015818
7435.01183199
6945.77356845
6456.66646375
5967.69382545
5478.85993373
4990.16963836
4501.62823532
4013.24137151
3525.01448484
3036.95198376
2549.05750086
2061.3280418
1573.76628313
1086.14339296
598.943327318
183.841568425
0.0982032540845
-9.58528646909
8416.48289787
7927.00509303
7437.67200479
6948.48657676
6459.45184598
5970.57292051
5481.85670069
4993.31159316
4504.94765424
4016.77687759
3528.81433717
3041.07831427
2553.58993059
2066.37541187
1579.481994
1092.81028727
606.931284708
190.547606486
2.00787902843
-9.59795299335
8418.94163835
7929.48646494
7440.18425264
6951.04643065
6462.07755652
5973.28424869
5484.67602904
4996.26471498
4508.06475701
4020.09295463
3532.37063348
3044.93283778
2557.810659
2071.0483295
1584.71603185
1098.79795255
613.729447505
195.876987812
3.78780479841
-9.6035964093
8421.23539818
7931.81508997
7442.53213501
6953.43494373
6464.52377151
5975.80539959
5487.29189808
4998.99859592
4510.94356049
4023.14751865
3535.62527399
3048.44375032
2561.62998368
2075.23239989
1589.31607034
1103.91479715
619.10170292
199.74952364
5.20950452999
-9.60106035172
8423.37319384
7933.95001039
7444.69869298
6955.63708978
6466.77325711
5978.11675087
5489.68147412
5001.48556542
4513.5522675
4025.91372615
3538.52144811
3051.55865367
2564.98686352
2078.86787315
1593.26067615
1108.27010379
623.519719352
203.300330694
6.38313885013
-9.59846576549
8425.321903
7935.90388873
7446.67240452
6957.63825278
6468.81067771
5980.20090077
5491.82395339
5003.69913542
4515.84991939
4028.30339176
3541.0808891
3054.25139172
2567.84709299
2081.92156729
1596.5131087
1112.02623223
626.537835278
206.611915996
7.60753350978
-9.60374176652
8427.07813517
7937.66557455
7448.44599138
6959.42899528
6470.62456344
5982.04437782
5493.70436974
5005.62456266
4517.83004807
4030.34992455
3543.21880183
3056.48303973
2570.18172286
2084.34634985
1598.96838622
1114.00928512
628.742572229
208.33667679
8.57692730393
-9.6097284198
8428.63648842
7939.22750526
7450.01213798
6961.00183483
6472.20574872
5983.63654435
5495.31019888
5007.2477096
4519.47484847
4032.02378359
3544.93171646
3058.24377335
2571.9996008
2086.23118518
1600.93701174
1116.10187563
631.639401169
209.088590826
8.50513868729
-9.61595894684
8429.99412895
7940.58561809
7451.36784094
8431.15305101
8432.11887644
8432.89736798
)
;

boundaryField
{
    back
    {
        type            calculated;
        value           nonuniform List<scalar> 
166
(
8413.87811964
7924.38015818
7435.01183199
6945.77356845
6456.66646375
5967.69382545
5478.85993373
4990.16963836
4501.62823532
4013.24137151
3525.01448484
3036.95198376
2549.05750086
2061.3280418
1573.76628313
1086.14339296
598.943327318
183.841568425
0.0982032540845
-9.58528646909
8416.48289787
7927.00509303
7437.67200479
6948.48657676
6459.45184598
5970.57292051
5481.85670069
4993.31159316
4504.94765424
4016.77687759
3528.81433717
3041.07831427
2553.58993059
2066.37541187
1579.481994
1092.81028727
606.931284708
190.547606486
2.00787902843
-9.59795299335
8418.94163835
7929.48646494
7440.18425264
6951.04643065
6462.07755652
5973.28424869
5484.67602904
4996.26471498
4508.06475701
4020.09295463
3532.37063348
3044.93283778
2557.810659
2071.0483295
1584.71603185
1098.79795255
613.729447505
195.876987812
3.78780479841
-9.6035964093
8421.23539818
7931.81508997
7442.53213501
6953.43494373
6464.52377151
5975.80539959
5487.29189808
4998.99859592
4510.94356049
4023.14751865
3535.62527399
3048.44375032
2561.62998368
2075.23239989
1589.31607034
1103.91479715
619.10170292
199.74952364
5.20950452999
-9.60106035172
8423.37319384
7933.95001039
7444.69869298
6955.63708978
6466.77325711
5978.11675087
5489.68147412
5001.48556542
4513.5522675
4025.91372615
3538.52144811
3051.55865367
2564.98686352
2078.86787315
1593.26067615
1108.27010379
623.519719352
203.300330694
6.38313885013
-9.59846576549
8425.321903
7935.90388873
7446.67240452
6957.63825278
6468.81067771
5980.20090077
5491.82395339
5003.69913542
4515.84991939
4028.30339176
3541.0808891
3054.25139172
2567.84709299
2081.92156729
1596.5131087
1112.02623223
626.537835278
206.611915996
7.60753350978
-9.60374176652
8427.07813517
7937.66557455
7448.44599138
6959.42899528
6470.62456344
5982.04437782
5493.70436974
5005.62456266
4517.83004807
4030.34992455
3543.21880183
3056.48303973
2570.18172286
2084.34634985
1598.96838622
1114.00928512
628.742572229
208.33667679
8.57692730393
-9.6097284198
8428.63648842
7939.22750526
7450.01213798
6961.00183483
6472.20574872
5983.63654435
5495.31019888
5007.2477096
4519.47484847
4032.02378359
3544.93171646
3058.24377335
2571.9996008
2086.23118518
1600.93701174
1116.10187563
631.639401169
209.088590826
8.50513868729
-9.61595894684
8429.99412895
7940.58561809
7451.36784094
8431.15305101
8432.11887644
8432.89736798
)
;
    }
    sides
    {
        type            calculated;
        value           nonuniform List<scalar> 0();
    }
    bottom
    {
        type            calculated;
        value           nonuniform List<scalar> 
12
(
8658.68665116
8661.29147301
8663.7502881
8666.04408546
8668.18188759
8670.13058296
8671.88681704
8673.44514883
8674.80279794
8675.96181687
8676.92771214
8677.70640478
)
;
    }
    front
    {
        type            calculated;
        value           nonuniform List<scalar> 
166
(
8413.87811964
7924.38015818
7435.01183199
6945.77356845
6456.66646375
5967.69382545
5478.85993373
4990.16963836
4501.62823532
4013.24137151
3525.01448484
3036.95198376
2549.05750086
2061.3280418
1573.76628313
1086.14339296
598.943327318
183.841568425
0.0982032540845
-9.58528646909
8416.48289787
7927.00509303
7437.67200479
6948.48657676
6459.45184598
5970.57292051
5481.85670069
4993.31159316
4504.94765424
4016.77687759
3528.81433717
3041.07831427
2553.58993059
2066.37541187
1579.481994
1092.81028727
606.931284708
190.547606486
2.00787902843
-9.59795299335
8418.94163835
7929.48646494
7440.18425264
6951.04643065
6462.07755652
5973.28424869
5484.67602904
4996.26471498
4508.06475701
4020.09295463
3532.37063348
3044.93283778
2557.810659
2071.0483295
1584.71603185
1098.79795255
613.729447505
195.876987812
3.78780479841
-9.6035964093
8421.23539818
7931.81508997
7442.53213501
6953.43494373
6464.52377151
5975.80539959
5487.29189808
4998.99859592
4510.94356049
4023.14751865
3535.62527399
3048.44375032
2561.62998368
2075.23239989
1589.31607034
1103.91479715
619.10170292
199.74952364
5.20950452999
-9.60106035172
8423.37319384
7933.95001039
7444.69869298
6955.63708978
6466.77325711
5978.11675087
5489.68147412
5001.48556542
4513.5522675
4025.91372615
3538.52144811
3051.55865367
2564.98686352
2078.86787315
1593.26067615
1108.27010379
623.519719352
203.300330694
6.38313885013
-9.59846576549
8425.321903
7935.90388873
7446.67240452
6957.63825278
6468.81067771
5980.20090077
5491.82395339
5003.69913542
4515.84991939
4028.30339176
3541.0808891
3054.25139172
2567.84709299
2081.92156729
1596.5131087
1112.02623223
626.537835278
206.611915996
7.60753350978
-9.60374176652
8427.07813517
7937.66557455
7448.44599138
6959.42899528
6470.62456344
5982.04437782
5493.70436974
5005.62456266
4517.83004807
4030.34992455
3543.21880183
3056.48303973
2570.18172286
2084.34634985
1598.96838622
1114.00928512
628.742572229
208.33667679
8.57692730393
-9.6097284198
8428.63648842
7939.22750526
7450.01213798
6961.00183483
6472.20574872
5983.63654435
5495.31019888
5007.2477096
4519.47484847
4032.02378359
3544.93171646
3058.24377335
2571.9996008
2086.23118518
1600.93701174
1116.10187563
631.639401169
209.088590826
8.50513868729
-9.61595894684
8429.99412895
7940.58561809
7451.36784094
8431.15305101
8432.11887644
8432.89736798
)
;
    }
    atmosphere
    {
        type            calculated;
        value           nonuniform List<scalar> 8(-9.81432768538 -9.81523781201 -9.81481030232 -9.81273696967 -9.81179783893 -9.81114657497 -9.81069828538 -9.81056341374);
    }
    floatingObject
    {
        type            calculated;
        value           nonuniform List<scalar> 0();
    }
    procBoundary9to6
    {
        type            processor;
        value           nonuniform List<scalar> 4(590.665538616 177.216292119 -1.51908520964 -9.5759900592);
    }
    procBoundary9to7
    {
        type            processor;
        value           nonuniform List<scalar> 
16
(
8411.14467592
7921.62648829
7432.22075066
6942.92631736
6453.74264265
5964.67130464
5475.71417374
4986.87276691
4498.14773511
4009.53810097
3521.03975734
3032.64372263
2544.3322669
2056.0737836
1567.81850325
1079.2447088
)
;
    }
    procBoundary9to10
    {
        type            processor;
        value           nonuniform List<scalar> 
15
(
6962.35242285
6473.54941541
5984.97109278
5496.63392272
5008.55873741
4520.77256947
4033.30911922
3546.20996786
7941.74125849
6962.35242285
7452.51273179
7941.74125849
7942.69854121
7943.46695721
8433.50192491
)
;
    }
    procBoundary9to11
    {
        type            processor;
        value           nonuniform List<scalar> 9(3059.52021145 2573.29098381 2087.56253929 1602.34712042 1117.63641271 633.334788592 209.323826921 8.14726785358 -9.6607203013);
    }
}


// ************************************************************************* //
