/*--------------------------------*- C++ -*----------------------------------*\
| =========                 |                                                 |
| \\      /  F ield         | OpenFOAM: The Open Source CFD Toolbox           |
|  \\    /   O peration     | Version:  v2012                                 |
|   \\  /    A nd           | Website:  www.openfoam.com                      |
|    \\/     M anipulation  |                                                 |
\*---------------------------------------------------------------------------*/
FoamFile
{
    version     2.0;
    format      ascii;
    class       volVectorField;
    location    "4.3";
    object      U_0;
}
// * * * * * * * * * * * * * * * * * * * * * * * * * * * * * * * * * * * * * //

dimensions      [0 1 -1 0 0 0 0];


internalField   nonuniform List<vector> 
166
(
(0.0542383625062 -0.000337707818793 -4.13224359698e-22)
(0.053426010924 -0.0011546605467 -2.41411702871e-22)
(0.0528834230813 -0.00199556050113 -1.18986657346e-22)
(0.0530188439802 -0.00290670156038 4.12653709123e-23)
(0.0537078812492 -0.00390867348144 2.22187487694e-23)
(0.0547800172595 -0.00500857230648 6.23387577339e-24)
(0.0561394276244 -0.00623142617875 -1.29645021068e-24)
(0.0577537509887 -0.00761219024039 -3.58750804537e-25)
(0.0596153621426 -0.00919118612496 5.3160901041e-25)
(0.0617285828804 -0.0110177394357 3.55501503473e-24)
(0.0641041107557 -0.0131548857241 -4.41319652072e-24)
(0.0667848543258 -0.0156997940164 1.9102705692e-23)
(0.0697815791896 -0.0187567156072 1.54248167612e-23)
(0.0731995024594 -0.0224374680319 -1.75736917773e-23)
(0.0769549130414 -0.0272469096391 -1.92115006486e-21)
(0.0806553371017 -0.0328095829874 1.11553081285e-21)
(0.0844474357156 -0.0448878399666 -8.61585694206e-21)
(0.0915796112631 -0.0362579622057 -1.20538370018e-20)
(0.102086213553 -0.0661337371478 -1.46349620445e-20)
(0.0847698502502 -0.0921425847162 -1.06835344932e-20)
(0.054873788266 -0.000219373675049 -4.31354466922e-22)
(0.0541166693446 -0.000804937918814 -2.28987321701e-22)
(0.0536404145411 -0.00140888770017 -9.615591992e-23)
(0.0538532757749 -0.0020825310223 1.32114623369e-23)
(0.0546281913792 -0.0028430433459 6.21322432092e-24)
(0.0558070376293 -0.00369583107261 -5.29897286978e-24)
(0.0573017391037 -0.004664243739 5.56654704017e-24)
(0.0590871230972 -0.0057820416239 2.17739060607e-24)
(0.0611649287579 -0.00708782406672 1.82001377692e-23)
(0.063551065637 -0.00862785625417 3.60017746604e-23)
(0.066267355585 -0.0104413617372 -7.936563964e-24)
(0.069374669209 -0.0126408249137 -5.65419089762e-23)
(0.0729354605955 -0.0153215426808 -1.78459683805e-22)
(0.0770921762051 -0.0185326275401 -7.65747541886e-22)
(0.081889751398 -0.0227417688171 -1.73267251151e-21)
(0.0872954588187 -0.0270809189436 1.13621604589e-21)
(0.0929567722446 -0.0376946562725 -5.70052692906e-21)
(0.101066174549 -0.028322919732 -1.18350028362e-20)
(0.1243185287 -0.0560255215898 -1.15235385182e-20)
(0.0988031755182 -0.0949885905592 -9.5011287149e-21)
(0.0552619752496 -8.50048609156e-05 -4.09287167418e-22)
(0.0545658403988 -0.000423607560024 -2.19831434963e-22)
(0.0541542467395 -0.000775208310809 -1.01665636291e-22)
(0.0544351033082 -0.00118861025263 -3.38490296326e-23)
(0.055290106965 -0.00168622268331 -1.75408982059e-23)
(0.0565667922688 -0.00226430040525 -6.48218363624e-24)
(0.058187126224 -0.00294562996803 1.9887518508e-24)
(0.0601326772376 -0.00376077621187 5.78461448981e-24)
(0.0624087962154 -0.00474412972991 8.87924806925e-24)
(0.0650432180734 -0.00593828463874 1.06892144747e-23)
(0.0680738031902 -0.00737504048257 -1.49628812627e-23)
(0.07153413694 -0.00914150753047 -1.09576378374e-22)
(0.0755718480872 -0.0113224795071 -3.33027290563e-22)
(0.0803301132605 -0.0139392117037 -1.06836358457e-21)
(0.086027805319 -0.0174023003392 -5.46483644135e-22)
(0.0927282711952 -0.0205078230619 -1.57925857978e-21)
(0.100094971218 -0.0303147897465 -4.00109605346e-21)
(0.109789046647 -0.0208708872832 -1.30734619985e-20)
(0.151371634808 -0.0459432780423 -2.81930107078e-20)
(0.11643387985 -0.088803913014 -1.9848450159e-20)
(0.0553919203649 5.7998226437e-05 -4.38617366818e-22)
(0.054748342027 -1.62388927443e-05 -2.40496756984e-22)
(0.0544030219946 -0.00010443186604 -1.58456416777e-22)
(0.0547465252882 -0.000238876894633 -6.87866483834e-23)
(0.0556734028056 -0.000448488128524 -3.9942215823e-23)
(0.057037169046 -0.000726616486687 -1.56764029376e-23)
(0.0587665095554 -0.00108884780025 -3.751878231e-24)
(0.0608463336637 -0.00156739742283 -1.39582061321e-24)
(0.0632949290698 -0.00218860156294 1.92627519888e-23)
(0.066142780504 -0.00298055416605 1.49643391582e-23)
(0.0694393750028 -0.00398796131748 -6.12610737972e-24)
(0.0732165707419 -0.00525394120523 -1.34745592829e-22)
(0.0776299092513 -0.00686240660678 -4.33842559937e-22)
(0.0828795580981 -0.00882916959214 -1.34046920646e-21)
(0.0893105798318 -0.0115428549984 -2.33723087216e-21)
(0.0970856940297 -0.0134297724315 -7.01870540958e-22)
(0.105830201236 -0.0221131267111 -4.04177755844e-21)
(0.117448439713 -0.0137446668444 -7.41432090285e-21)
(0.175440863604 -0.0364193340259 1.88553478371e-20)
(0.133104893358 -0.0662852170392 1.80501585373e-20)
(0.055253337894 0.000199845531644 -4.49251177769e-22)
(0.054651112719 0.000406600387167 -2.95398562259e-22)
(0.054367689968 0.000600992567892 -2.33324016864e-22)
(0.0547709295718 0.0007602138272 -1.0729732621e-22)
(0.0557566195137 0.000855946888032 -4.77142988567e-23)
(0.0571903446234 0.000898035850844 -6.79818862362e-24)
(0.059005923903 0.000873972482915 4.07640446136e-24)
(0.0611934122484 0.000763575093674 -1.19182946846e-23)
(0.0637808319406 0.000545617409834 6.83197160262e-24)
(0.0667988842178 0.000195292424636 -8.47573309417e-24)
(0.0702932724047 -0.000332073612632 -3.87886813308e-24)
(0.0743478000613 -0.00106205183278 -1.0955858308e-22)
(0.0790695094025 -0.00205023753405 -4.41883942544e-22)
(0.0846959126276 -0.00331125065968 -1.72463211814e-21)
(0.0917153035143 -0.00529276763289 -3.81611647796e-21)
(0.100525402732 -0.00619907943598 1.12018646218e-21)
(0.109905282869 -0.0135561792959 -9.23874253228e-21)
(0.122948162642 -0.00590796490626 -1.4063018834e-20)
(0.192224711257 -0.0260708010144 -3.15350998548e-21)
(0.152410580308 -0.0574114432977 4.78249990152e-21)
(0.0548251194333 0.000352379668324 -4.32910470171e-22)
(0.0542675394827 0.000846345385883 -2.5764757236e-22)
(0.0540394067793 0.00133295826861 -1.99499290413e-22)
(0.0544898964606 0.00179523428462 -6.34177414125e-23)
(0.0555195597317 0.00220779782422 -3.00256780451e-23)
(0.0570032202762 0.002585991015 -6.11907902157e-24)
(0.0588809449163 0.00292172145864 3.15187291501e-24)
(0.061149610487 0.00320108869336 -7.67660184715e-24)
(0.0638345867787 0.00340762025041 -8.38251811949e-24)
(0.0669737260141 0.00351901956255 -1.61932036121e-23)
(0.0706256445093 0.00352406428742 -7.28142555472e-23)
(0.0748790020458 0.00339045536209 -8.48100862738e-23)
(0.0798349024421 0.00303457995161 -2.73969755683e-22)
(0.0857762125775 0.00248881795984 -9.62522696701e-22)
(0.0932530498266 0.00137440894259 -3.15551992715e-21)
(0.10271328854 0.00121743635586 -1.62266447843e-22)
(0.112243446828 -0.00369631701125 -7.95551133328e-21)
(0.127411102383 0.0035103063724 -1.32884697194e-20)
(0.20871048795 -0.012022526387 -2.11689933833e-20)
(0.184405711882 -0.0453687871673 -1.87066515247e-20)
(0.0541070627974 0.000501885476952 -2.49473897375e-22)
(0.0535922376985 0.00129257700242 -7.78139126671e-23)
(0.0534110772051 0.00208027744264 -1.46433354952e-23)
(0.0538955873741 0.00285219100879 3.0318167152e-23)
(0.0549533540687 0.003591211922 3.49930348403e-25)
(0.0564646329051 0.00431616759501 4.14073621893e-24)
(0.0583759449572 0.00502412978941 -1.7635938966e-24)
(0.0606904666648 0.00570803132073 5.87907879016e-24)
(0.0634299888449 0.00635762617155 5.61757730601e-24)
(0.0666522054656 0.0069691644095 2.00587475864e-23)
(0.0704173285134 0.00753245060194 -5.9279432132e-23)
(0.0747890046279 0.0080043678176 -6.99739259526e-23)
(0.0799203670727 0.00834568460551 -2.22013416658e-22)
(0.0861182717491 0.00857233444841 -7.25110206544e-22)
(0.0939176712701 0.00824539188758 -2.37569496188e-21)
(0.103691602919 0.00872196165074 1.57826246502e-23)
(0.113676195585 0.00693720351817 -2.29656883277e-21)
(0.129939249331 0.0136611392239 -8.25207646742e-21)
(0.21997794507 0.00501292170787 1.37057704807e-20)
(0.230444816109 -0.0436497641908 1.83522843513e-20)
(0.0530907133657 0.000648959629524 -1.05216326888e-22)
(0.0526198119065 0.00173885882036 9.31041255987e-23)
(0.0524766990991 0.00282964768978 1.02519434839e-22)
(0.052982999906 0.00391560838479 7.11770415597e-23)
(0.0540502185998 0.00498434037878 2.58995320054e-24)
(0.0555639928326 0.00605994320534 -6.43148255457e-24)
(0.0574764658204 0.00714819591465 7.20817808835e-26)
(0.0597921432982 0.00824219730016 8.93393090043e-24)
(0.0625501353127 0.00935429241614 5.92313432656e-23)
(0.0658010053589 0.0104884479925 3.27273864176e-23)
(0.0696044498034 0.011624715982 -2.0818490042e-23)
(0.0740386209108 0.0127543121089 -4.71598820494e-23)
(0.0792864012892 0.013843534324 -2.22188350943e-22)
(0.08563309271 0.0148868935359 -8.65142187656e-22)
(0.0936299566212 0.0156009289427 -1.71514987835e-21)
(0.103496334566 0.017335640562 -6.14795345319e-21)
(0.113923604307 0.0178692829444 -9.63794166352e-21)
(0.130707197735 0.0230577776471 -9.96526619976e-21)
(0.234560519218 0.0200688446696 -1.63505295346e-20)
(0.287831470643 -0.0619050607589 -4.95906867559e-21)
(0.0517774288357 0.000802087487987 -3.40451465174e-23)
(0.0513461344006 0.00218399650043 1.45316672387e-22)
(0.0512343885269 0.00357277095517 9.84540959103e-23)
(0.0501754348649 0.000949645782009 7.4575512904e-24)
(0.048293368382 0.00108633739071 8.90562946703e-23)
(0.046145400824 0.00122151794181 2.51598872792e-22)
)
;

boundaryField
{
    back
    {
        type            noSlip;
    }
    sides
    {
        type            noSlip;
    }
    bottom
    {
        type            noSlip;
    }
    front
    {
        type            noSlip;
    }
    atmosphere
    {
        type            pressureInletOutletVelocity;
        value           nonuniform List<vector> 8((0 -0.0921425847162 0) (0 -0.0949885905592 0) (0 -0.088803913014 0) (0 -0.0662852170392 0) (0 -0.0574114432977 0) (0 -0.0453687871673 0) (0 -0.0436497641908 0) (0 -0.0619050607589 0));
    }
    floatingObject
    {
        type            movingWallVelocity;
        value           nonuniform List<vector> 0();
    }
    procBoundary9to6
    {
        type            processor;
        value           nonuniform List<vector> 4((0.0744263668523 -0.048996864954 2.17253495684e-21) (0.0798774747732 -0.0410106219447 -1.24523745361e-20) (0.0833670719894 -0.0736341357937 -2.79049190175e-20) (0.071444570749 -0.0986012813005 -1.71127015646e-20));
    }
    procBoundary9to7
    {
        type            processor;
        value           nonuniform List<vector> 
16
(
(0.0533773251442 -0.000446220986686 -3.53751698795e-22)
(0.0525138683375 -0.00147613201342 -2.26488035034e-22)
(0.0519007450768 -0.00253131869312 -1.2171118187e-22)
(0.0519571604183 -0.00365797340919 4.67986652873e-23)
(0.0525557985926 -0.00487637858976 2.26939632793e-23)
(0.0535165795967 -0.00619498079083 5.71382843847e-24)
(0.0547357969204 -0.00763949919541 -7.36798928298e-24)
(0.0561728114316 -0.00924389600974 -4.92336166171e-24)
(0.0578121395834 -0.0110476573476 7.77803407133e-24)
(0.0596467278404 -0.0131015509898 -9.38228286735e-24)
(0.0616711976557 -0.0154709763487 4.00254789823e-23)
(0.0638837949218 -0.0182426930069 9.02240296447e-23)
(0.0662821729006 -0.0215319198568 2.27848640483e-22)
(0.0688867085664 -0.0255091844749 -8.56781897595e-23)
(0.0714526524361 -0.0305156392756 -1.94030417691e-21)
(0.0731972127383 -0.03678198289 -2.22731768146e-22)
)
;
    }
    procBoundary9to10
    {
        type            processor;
        value           nonuniform List<vector> 
15
(
(0.0517499578699 0.00497064448594 5.39728446268e-23)
(0.0528077094112 0.00636609581849 -1.05525966267e-23)
(0.0543004649016 0.00778895758212 -1.07612444777e-23)
(0.056184438872 0.00925147454399 1.01785648962e-24)
(0.0584669252745 0.0107692089521 3.2972017882e-23)
(0.0611911434171 0.0123515227238 6.39725330475e-23)
(0.0643949871705 0.0140034855767 1.81462383431e-23)
(0.0681489396965 0.0157288217384 -1.09942492905e-23)
(0.0497754253474 0.00261574223409 1.41663909574e-22)
(0.0517499578699 0.00497064448594 5.39728446268e-23)
(0.0496906643364 0.00429983515386 2.67436106357e-23)
(0.0497754253474 0.00261574223409 1.41663909574e-22)
(0.0479224768243 0.00303200648902 1.49922491369e-22)
(0.0457987144422 0.00342923645808 3.36095236789e-22)
(0.0437411263875 0.00134590950898 5.43008252624e-22)
)
;
    }
    procBoundary9to11
    {
        type            processor;
        value           nonuniform List<vector> 9((0.0725671150717 0.0175453874651 -5.35409686181e-23) (0.0778074219007 0.0194413755895 -2.45347615253e-22) (0.0841689094636 0.0214605989699 -9.82810777731e-22) (0.0921435462703 0.0234404741049 -3.92725177269e-21) (0.101635121442 0.0267847865981 -5.3122458494e-21) (0.111658038741 0.0289992171015 -1.12885946814e-20) (0.129337183158 0.0328197720056 -1.09952271229e-20) (0.250502917954 0.031955435239 1.09961486291e-20) (0.497178567212 -0.0372184468676 1.15855781312e-20));
    }
}


// ************************************************************************* //
