/*--------------------------------*- C++ -*----------------------------------*\
| =========                 |                                                 |
| \\      /  F ield         | OpenFOAM: The Open Source CFD Toolbox           |
|  \\    /   O peration     | Version:  v2012                                 |
|   \\  /    A nd           | Website:  www.openfoam.com                      |
|    \\/     M anipulation  |                                                 |
\*---------------------------------------------------------------------------*/
FoamFile
{
    version     2.0;
    format      ascii;
    class       volScalarField;
    location    "1.8";
    object      rAU;
}
// * * * * * * * * * * * * * * * * * * * * * * * * * * * * * * * * * * * * * //

dimensions      [-1 3 1 0 0 0 0];


internalField   nonuniform List<scalar> 
164
(
9.64449449136e-06
9.58275622289e-06
9.57330596915e-06
9.57229744755e-06
9.57229734773e-06
9.57235549036e-06
9.57257565e-06
9.57292478131e-06
9.64456170516e-06
9.58249947427e-06
9.57321036652e-06
9.5722385922e-06
9.57210388539e-06
9.57219786413e-06
9.57254235779e-06
9.57286136717e-06
9.57334768735e-06
9.5739997577e-06
9.57655474197e-06
9.64434168792e-06
9.58234377787e-06
9.5730779435e-06
9.57208138774e-06
9.57198252963e-06
9.57216291977e-06
9.57234101262e-06
9.57259491626e-06
9.5728714346e-06
9.57332004462e-06
9.57459669704e-06
9.57439548339e-06
9.57943541163e-06
9.64441256228e-06
9.58231220119e-06
9.57305986094e-06
9.57210625195e-06
9.57192659806e-06
9.57200905982e-06
9.5720943649e-06
9.57236016211e-06
9.57296536138e-06
9.57374664707e-06
9.57431016566e-06
9.57567461805e-06
9.57901062462e-06
9.5765286166e-06
9.64460723208e-06
9.5823477585e-06
9.57307850169e-06
9.57213376427e-06
9.57192967596e-06
9.57194129481e-06
9.57215616135e-06
9.57239338504e-06
9.57251848813e-06
9.57267858705e-06
9.57328996915e-06
9.57411096866e-06
9.57664398514e-06
9.5783712302e-06
9.64473180767e-06
9.58234984983e-06
9.57312462055e-06
9.57224478501e-06
9.57197740857e-06
9.57197600745e-06
9.57205380089e-06
9.57207677952e-06
9.57193681895e-06
9.57180078514e-06
9.57180022376e-06
9.57240399713e-06
9.57354116332e-06
9.57870247618e-06
9.64468078022e-06
9.58240870666e-06
9.57325700182e-06
9.57231869907e-06
9.57202096565e-06
9.57194074115e-06
9.57191749479e-06
9.57182474132e-06
9.57165923427e-06
9.57136555575e-06
9.5704909385e-06
9.56888889022e-06
9.56460251337e-06
9.5699103961e-06
9.64504818559e-06
9.58267583216e-06
9.57343369498e-06
9.57246140592e-06
9.57209878568e-06
9.57199264525e-06
9.57193921579e-06
9.57178149189e-06
9.57144306001e-06
9.57076447298e-06
9.56927496981e-06
9.56591948804e-06
9.54620791113e-06
9.5239075844e-06
9.64577373059e-06
9.58287965066e-06
9.57362850685e-06
9.57263677797e-06
9.57221298395e-06
9.57204972549e-06
9.57186838573e-06
9.57160692131e-06
9.57118948536e-06
9.57035268532e-06
9.56882631101e-06
9.56576676102e-06
9.55474434179e-06
9.55528651415e-06
9.64562503213e-06
9.58292727339e-06
9.57374997025e-06
9.57284063631e-06
9.57239551507e-06
9.57217952283e-06
9.57198708873e-06
9.5717216579e-06
9.57123174459e-06
9.57041932225e-06
9.56921689811e-06
9.56664805257e-06
9.56118337845e-06
9.56266344122e-06
9.56627522981e-06
9.55845042485e-06
9.64573292374e-06
9.5832380946e-06
9.57404662984e-06
9.57312902775e-06
9.57270826664e-06
9.57251925347e-06
9.57232053403e-06
9.57196512141e-06
9.57137824006e-06
9.57067193077e-06
9.56974260686e-06
9.56743022776e-06
9.56438541711e-06
9.56702154507e-06
9.5692196901e-06
9.55843019502e-06
9.64590065822e-06
9.58342266348e-06
9.5744329191e-06
9.57342960309e-06
9.57290877849e-06
9.57261201305e-06
9.57230653829e-06
9.5718626191e-06
9.57146174775e-06
9.5709189037e-06
9.57021377164e-06
9.56865630614e-06
9.56722870264e-06
9.56984867036e-06
9.56895565273e-06
9.55443855683e-06
)
;

boundaryField
{
    back
    {
        type            calculated;
        value           nonuniform List<scalar> 
164
(
9.64449449136e-06
9.58275622289e-06
9.57330596915e-06
9.57229744755e-06
9.57229734773e-06
9.57235549036e-06
9.57257565e-06
9.57292478131e-06
9.64456170516e-06
9.58249947427e-06
9.57321036652e-06
9.5722385922e-06
9.57210388539e-06
9.57219786413e-06
9.57254235779e-06
9.57286136717e-06
9.57334768735e-06
9.5739997577e-06
9.57655474197e-06
9.64434168792e-06
9.58234377787e-06
9.5730779435e-06
9.57208138774e-06
9.57198252963e-06
9.57216291977e-06
9.57234101262e-06
9.57259491626e-06
9.5728714346e-06
9.57332004462e-06
9.57459669704e-06
9.57439548339e-06
9.57943541163e-06
9.64441256228e-06
9.58231220119e-06
9.57305986094e-06
9.57210625195e-06
9.57192659806e-06
9.57200905982e-06
9.5720943649e-06
9.57236016211e-06
9.57296536138e-06
9.57374664707e-06
9.57431016566e-06
9.57567461805e-06
9.57901062462e-06
9.5765286166e-06
9.64460723208e-06
9.5823477585e-06
9.57307850169e-06
9.57213376427e-06
9.57192967596e-06
9.57194129481e-06
9.57215616135e-06
9.57239338504e-06
9.57251848813e-06
9.57267858705e-06
9.57328996915e-06
9.57411096866e-06
9.57664398514e-06
9.5783712302e-06
9.64473180767e-06
9.58234984983e-06
9.57312462055e-06
9.57224478501e-06
9.57197740857e-06
9.57197600745e-06
9.57205380089e-06
9.57207677952e-06
9.57193681895e-06
9.57180078514e-06
9.57180022376e-06
9.57240399713e-06
9.57354116332e-06
9.57870247618e-06
9.64468078022e-06
9.58240870666e-06
9.57325700182e-06
9.57231869907e-06
9.57202096565e-06
9.57194074115e-06
9.57191749479e-06
9.57182474132e-06
9.57165923427e-06
9.57136555575e-06
9.5704909385e-06
9.56888889022e-06
9.56460251337e-06
9.5699103961e-06
9.64504818559e-06
9.58267583216e-06
9.57343369498e-06
9.57246140592e-06
9.57209878568e-06
9.57199264525e-06
9.57193921579e-06
9.57178149189e-06
9.57144306001e-06
9.57076447298e-06
9.56927496981e-06
9.56591948804e-06
9.54620791113e-06
9.5239075844e-06
9.64577373059e-06
9.58287965066e-06
9.57362850685e-06
9.57263677797e-06
9.57221298395e-06
9.57204972549e-06
9.57186838573e-06
9.57160692131e-06
9.57118948536e-06
9.57035268532e-06
9.56882631101e-06
9.56576676102e-06
9.55474434179e-06
9.55528651415e-06
9.64562503213e-06
9.58292727339e-06
9.57374997025e-06
9.57284063631e-06
9.57239551507e-06
9.57217952283e-06
9.57198708873e-06
9.5717216579e-06
9.57123174459e-06
9.57041932225e-06
9.56921689811e-06
9.56664805257e-06
9.56118337845e-06
9.56266344122e-06
9.56627522981e-06
9.55845042485e-06
9.64573292374e-06
9.5832380946e-06
9.57404662984e-06
9.57312902775e-06
9.57270826664e-06
9.57251925347e-06
9.57232053403e-06
9.57196512141e-06
9.57137824006e-06
9.57067193077e-06
9.56974260686e-06
9.56743022776e-06
9.56438541711e-06
9.56702154507e-06
9.5692196901e-06
9.55843019502e-06
9.64590065822e-06
9.58342266348e-06
9.5744329191e-06
9.57342960309e-06
9.57290877849e-06
9.57261201305e-06
9.57230653829e-06
9.5718626191e-06
9.57146174775e-06
9.5709189037e-06
9.57021377164e-06
9.56865630614e-06
9.56722870264e-06
9.56984867036e-06
9.56895565273e-06
9.55443855683e-06
)
;
    }
    sides
    {
        type            calculated;
        value           nonuniform List<scalar> 0();
    }
    bottom
    {
        type            calculated;
        value           nonuniform List<scalar> 
12
(
9.64449449136e-06
9.64456170516e-06
9.64434168792e-06
9.64441256228e-06
9.64460723208e-06
9.64473180767e-06
9.64468078022e-06
9.64504818559e-06
9.64577373059e-06
9.64562503213e-06
9.64573292374e-06
9.64590065822e-06
)
;
    }
    front
    {
        type            calculated;
        value           nonuniform List<scalar> 
164
(
9.64449449136e-06
9.58275622289e-06
9.57330596915e-06
9.57229744755e-06
9.57229734773e-06
9.57235549036e-06
9.57257565e-06
9.57292478131e-06
9.64456170516e-06
9.58249947427e-06
9.57321036652e-06
9.5722385922e-06
9.57210388539e-06
9.57219786413e-06
9.57254235779e-06
9.57286136717e-06
9.57334768735e-06
9.5739997577e-06
9.57655474197e-06
9.64434168792e-06
9.58234377787e-06
9.5730779435e-06
9.57208138774e-06
9.57198252963e-06
9.57216291977e-06
9.57234101262e-06
9.57259491626e-06
9.5728714346e-06
9.57332004462e-06
9.57459669704e-06
9.57439548339e-06
9.57943541163e-06
9.64441256228e-06
9.58231220119e-06
9.57305986094e-06
9.57210625195e-06
9.57192659806e-06
9.57200905982e-06
9.5720943649e-06
9.57236016211e-06
9.57296536138e-06
9.57374664707e-06
9.57431016566e-06
9.57567461805e-06
9.57901062462e-06
9.5765286166e-06
9.64460723208e-06
9.5823477585e-06
9.57307850169e-06
9.57213376427e-06
9.57192967596e-06
9.57194129481e-06
9.57215616135e-06
9.57239338504e-06
9.57251848813e-06
9.57267858705e-06
9.57328996915e-06
9.57411096866e-06
9.57664398514e-06
9.5783712302e-06
9.64473180767e-06
9.58234984983e-06
9.57312462055e-06
9.57224478501e-06
9.57197740857e-06
9.57197600745e-06
9.57205380089e-06
9.57207677952e-06
9.57193681895e-06
9.57180078514e-06
9.57180022376e-06
9.57240399713e-06
9.57354116332e-06
9.57870247618e-06
9.64468078022e-06
9.58240870666e-06
9.57325700182e-06
9.57231869907e-06
9.57202096565e-06
9.57194074115e-06
9.57191749479e-06
9.57182474132e-06
9.57165923427e-06
9.57136555575e-06
9.5704909385e-06
9.56888889022e-06
9.56460251337e-06
9.5699103961e-06
9.64504818559e-06
9.58267583216e-06
9.57343369498e-06
9.57246140592e-06
9.57209878568e-06
9.57199264525e-06
9.57193921579e-06
9.57178149189e-06
9.57144306001e-06
9.57076447298e-06
9.56927496981e-06
9.56591948804e-06
9.54620791113e-06
9.5239075844e-06
9.64577373059e-06
9.58287965066e-06
9.57362850685e-06
9.57263677797e-06
9.57221298395e-06
9.57204972549e-06
9.57186838573e-06
9.57160692131e-06
9.57118948536e-06
9.57035268532e-06
9.56882631101e-06
9.56576676102e-06
9.55474434179e-06
9.55528651415e-06
9.64562503213e-06
9.58292727339e-06
9.57374997025e-06
9.57284063631e-06
9.57239551507e-06
9.57217952283e-06
9.57198708873e-06
9.5717216579e-06
9.57123174459e-06
9.57041932225e-06
9.56921689811e-06
9.56664805257e-06
9.56118337845e-06
9.56266344122e-06
9.56627522981e-06
9.55845042485e-06
9.64573292374e-06
9.5832380946e-06
9.57404662984e-06
9.57312902775e-06
9.57270826664e-06
9.57251925347e-06
9.57232053403e-06
9.57196512141e-06
9.57137824006e-06
9.57067193077e-06
9.56974260686e-06
9.56743022776e-06
9.56438541711e-06
9.56702154507e-06
9.5692196901e-06
9.55843019502e-06
9.64590065822e-06
9.58342266348e-06
9.5744329191e-06
9.57342960309e-06
9.57290877849e-06
9.57261201305e-06
9.57230653829e-06
9.5718626191e-06
9.57146174775e-06
9.5709189037e-06
9.57021377164e-06
9.56865630614e-06
9.56722870264e-06
9.56984867036e-06
9.56895565273e-06
9.55443855683e-06
)
;
    }
    atmosphere
    {
        type            calculated;
        value           nonuniform List<scalar> 0();
    }
    floatingObject
    {
        type            calculated;
        value           nonuniform List<scalar> 0();
    }
    procBoundary7to6
    {
        type            processor;
        value           nonuniform List<scalar> 
11
(
9.54024733198e-06
9.55724510485e-06
9.568564905e-06
9.57183561727e-06
9.54725121486e-06
9.55702217222e-06
9.55702217222e-06
9.55976588726e-06
9.51148176637e-06
9.5073603122e-06
9.50035830676e-06
)
;
    }
    procBoundary7to8
    {
        type            processor;
        value           nonuniform List<scalar> 
17
(
9.64423211567e-06
9.58284565849e-06
9.57348996875e-06
9.57247577394e-06
9.57241958744e-06
9.57253626235e-06
9.57274974055e-06
9.57292742628e-06
9.57328680283e-06
9.57328680283e-06
9.57357848419e-06
9.57546734202e-06
9.57714454072e-06
9.57714454072e-06
9.58392354109e-06
9.58330902666e-06
9.58330902666e-06
)
;
    }
    procBoundary7to9
    {
        type            processor;
        value           nonuniform List<scalar> 
16
(
9.64672533719e-06
9.58405875758e-06
9.57487861975e-06
9.57379272529e-06
9.57317997058e-06
9.57278629168e-06
9.57242032918e-06
9.57211549969e-06
9.57178496929e-06
9.57123199561e-06
9.57066386489e-06
9.56962114729e-06
9.56905767006e-06
9.57126111656e-06
9.569211145e-06
9.54948580535e-06
)
;
    }
}


// ************************************************************************* //
