/*--------------------------------*- C++ -*----------------------------------*\
| =========                 |                                                 |
| \\      /  F ield         | OpenFOAM: The Open Source CFD Toolbox           |
|  \\    /   O peration     | Version:  v2012                                 |
|   \\  /    A nd           | Website:  www.openfoam.com                      |
|    \\/     M anipulation  |                                                 |
\*---------------------------------------------------------------------------*/
FoamFile
{
    version     2.0;
    format      ascii;
    class       volVectorField;
    location    "1.7";
    object      ddt0(rho,U);
}
// * * * * * * * * * * * * * * * * * * * * * * * * * * * * * * * * * * * * * //

dimensions      [1 -2 -2 0 0 0 0];


internalField   nonuniform List<vector> 
167
(
(220.736954793 16.9001318029 2.69944872416e-19)
(224.470709684 21.2179445355 1.14079526055e-20)
(229.217187888 25.137052165 4.45964800084e-21)
(234.996253661 28.5173686875 2.12381545812e-21)
(241.897559613 31.1987407041 -2.98766468566e-20)
(249.991049933 32.930999904 -1.15214503317e-20)
(259.343875906 33.4687802563 5.84012947877e-21)
(270.205732583 32.5324278459 6.11154281787e-20)
(212.128175387 8.35228185738 -9.23146580666e-19)
(212.401237785 14.0009982972 3.36836478257e-19)
(215.696841058 20.4413405194 -1.38146850418e-20)
(219.768243258 25.6975685997 5.54291482823e-21)
(224.937130277 30.6771925148 -8.48146526032e-23)
(231.309419259 35.2272726164 -4.32455631369e-21)
(238.970333982 39.1716377006 4.6215802308e-20)
(248.040859299 42.261889806 1.03711011862e-20)
(258.683605351 44.3175422279 -2.37855588388e-22)
(270.928546236 45.2377900044 6.3167999552e-20)
(285.57859029 44.6842390614 1.61468912632e-20)
(205.678917389 9.54405539503 3.46837875373e-19)
(205.130900284 16.0723625478 2.47894137808e-19)
(209.839445494 24.5237589369 8.01707597395e-19)
(213.99944612 30.518953492 -4.19525326526e-21)
(219.495744771 36.6916839058 2.76599081367e-20)
(226.336599425 42.554970718 -3.44799871782e-21)
(234.60860683 47.9326725188 -5.07857325869e-21)
(244.540659127 52.6496667299 5.6728115209e-21)
(256.378420153 56.3535977924 2.10883454032e-21)
(269.235745392 59.4076485344 4.00337737217e-20)
(285.619389315 61.5885589884 -1.05983301262e-20)
(196.598778131 9.56123635509 -1.32943456851e-18)
(199.369445377 18.7797486366 -3.49357310435e-20)
(202.580157261 29.5519992685 8.69504935131e-19)
(206.949259495 35.4122148187 -4.89002347027e-21)
(212.71786525 43.026176356 -2.47379441081e-20)
(219.878609524 50.3427086399 2.00307136965e-21)
(228.571461525 57.3759730388 3.6522995915e-20)
(238.976357167 64.0319870547 -4.61800208627e-20)
(251.292368927 69.0107842645 1.5470500649e-20)
(265.828397324 74.4610686313 1.48659450493e-20)
(185.600185533 5.4561249971 -5.88606676613e-19)
(187.485587794 12.5775283098 -9.21316220515e-19)
(192.28722907 22.6434560374 4.12355299175e-19)
(193.928014605 32.3314010643 1.67136681415e-19)
(198.579232351 40.7087789762 -3.25448067944e-21)
(204.534526311 49.62935736 1.2372515271e-20)
(211.897503305 58.4111608105 2.00682855236e-20)
(220.807800425 67.0346010559 4.89780343038e-20)
(231.443179026 75.3701445114 -5.09609301052e-20)
(243.979584056 83.1982388915 -1.74853369312e-20)
(259.828506326 91.0955516941 -4.45136010771e-21)
(176.111279996 5.85512498053 6.64068163518e-19)
(178.794983959 14.6670164731 -8.51876253222e-19)
(181.49414033 25.7849695255 5.33257141921e-19)
(184.266817533 36.0520990858 6.63479795201e-19)
(188.947876962 46.0615084388 -3.42573973719e-21)
(194.950475146 56.3504761705 1.07181853242e-20)
(202.39483998 66.6164519091 6.05975501748e-21)
(211.410596326 76.9222173475 -1.87547976502e-20)
(222.200800742 87.2047061204 1.49650844248e-20)
(235.050466234 97.3922414391 1.55844527208e-19)
(250.42672922 107.724974271 -7.53670746149e-21)
(165.461015466 6.45300197932 1.42366224673e-18)
(168.163403689 16.4972747973 -7.24225684908e-19)
(170.313299896 28.6598913555 1.18415153744e-18)
(173.370394414 39.9733369792 3.83097859555e-19)
(177.985468693 51.4318363854 -9.34615528347e-21)
(183.924014694 63.0823471969 4.89314951689e-20)
(191.303573377 74.8713430298 6.03019173927e-20)
(200.255915698 86.8383110225 4.70069182696e-20)
(210.932377838 99.0082585933 1.51986891741e-20)
(223.644589015 111.41965495 1.00732151525e-20)
(153.668727791 6.99068875989 1.80100857522e-19)
(156.204006036 18.160546486 -7.3883645495e-19)
(158.204748409 31.5133130785 1.06052831103e-19)
(161.226650426 43.8992818549 1.76366690407e-19)
(165.707477356 56.651446924 3.28878926842e-20)
(171.462620526 69.6769565081 2.16536039063e-20)
(178.626471487 82.949990164 1.84063096757e-20)
(187.306724331 96.5502626974 7.36368023001e-21)
(197.670915835 110.592664484 1.06230103931e-20)
(140.777544649 7.55056074819 4.83613969205e-20)
(143.161212957 19.7894168987 -5.92676971512e-19)
(144.959829745 34.1670030876 1.92010725573e-19)
(147.901914378 47.6401802147 6.30214172598e-19)
(152.161839793 61.7002392669 -1.86691937757e-19)
(157.631678984 76.0097182767 -7.02481059425e-21)
(164.40722371 90.7174665754 9.65231351954e-20)
(172.660657135 105.886685264 -4.37782248458e-20)
(182.496935828 121.645119824 9.20366785114e-20)
(126.876866745 8.06493194183 1.21770263846e-18)
(129.024816641 21.2208246864 -2.10864522802e-18)
(130.6337994 36.6933725122 4.29730437359e-19)
(133.47804255 51.2508082983 3.42272178148e-19)
(137.411531395 66.412207745 6.17958706816e-20)
(142.488395215 81.9327314757 8.86256127326e-20)
(148.771486571 97.9820087058 1.84946574953e-20)
(156.409896067 114.642460692 6.12228997588e-21)
(165.517533906 132.017294156 2.69128529193e-20)
(176.259454071 150.272233355 5.96776552497e-20)
(111.997279046 8.52477637337 3.98165986248e-19)
(113.893859076 22.5493577111 9.42451589309e-19)
(115.400441054 39.0142520552 6.28285522165e-19)
(117.948252512 54.549384217 8.57916832467e-19)
(121.518953581 70.7379697382 7.62253600439e-20)
(126.094999068 87.3797547218 -1.81382116154e-20)
(131.806649965 104.643426623 3.21570293805e-20)
(138.698112884 122.638600684 7.51614122965e-21)
(146.918182672 141.500642826 5.4554581465e-20)
(156.606021441 161.404092631 1.96042202254e-19)
(96.2692849052 8.94062956815 9.57519828318e-19)
(97.9266908461 23.7495730515 -1.50406712188e-18)
(99.2492938285 41.095219585 3.08329264583e-19)
(101.467305241 57.4838986899 2.91966922868e-19)
(104.591471688 74.5844645537 2.45922307858e-20)
(108.625558173 92.2300402066 5.47325615339e-20)
(113.627400359 110.58938296 1.19742369263e-20)
(119.667597021 129.758966044 1.66373536029e-20)
(126.858246065 149.932057186 3.38744647593e-20)
(135.325037844 171.292565971 1.78569869642e-20)
(79.8098788179 9.30086184168 1.15083189629e-18)
(81.2246508921 24.7822973396 -9.89667738652e-19)
(82.31919061 42.8555020083 4.48045642046e-19)
(84.1706228141 59.9915192681 2.93599769701e-19)
(86.8145805594 77.9207545756 1.88083683427e-20)
(90.22810496 96.4280046908 9.19254936543e-20)
(94.4300224576 115.694164867 6.55354909099e-21)
(99.5077016038 135.879628045 3.44836141605e-20)
(105.544367428 157.16981454 1.58657163471e-20)
(112.643287397 179.772493421 -3.33214934469e-20)
(62.6925187377 9.59155053882 2.33206340379e-19)
(63.9014466106 25.6601251274 -7.79736445817e-19)
(64.7270637239 44.3044710271 -1.23008940719e-19)
(66.1734124733 62.0822801257 3.20592786881e-19)
(68.3135707572 80.684385136 -1.55232625901e-18)
(71.0194826543 99.8817225896 -1.17614785163e-19)
(74.3567504451 119.906238265 -3.96853388738e-19)
(78.3801543492 140.916550647 -8.00589315822e-20)
(83.1573782057 163.11570204 3.77537923592e-19)
(88.7643647697 186.723637285 -8.169551502e-19)
(45.0568413154 9.9132817588 1.55428640847e-18)
(46.2456692253 26.4175078797 -1.22770786922e-18)
(46.8126708715 45.397028389 8.56480226911e-19)
(47.8534824027 63.7221014455 3.71341652984e-19)
(49.3341517689 82.8639651013 9.41819880536e-20)
(51.2672122297 102.574311556 1.28214208591e-19)
(53.6678385264 123.173924749 4.49093545731e-19)
(56.5658096194 144.817333954 1.10978620015e-19)
(60.0002448082 167.709150533 1.38198849604e-18)
(26.3070542 10.1414275687 3.78152338766e-19)
(27.4621762154 27.0723633542 8.28035483001e-19)
(27.6471007026 46.2347144342 4.47353456975e-19)
(28.213610264 64.8285318739 1.36805992617e-18)
(29.0852417995 84.2785297619 -2.61056826679e-19)
(30.2383119452 104.416448555 -1.58039379313e-18)
(31.6780650051 125.441119639 2.83329268103e-18)
(33.4203910789 147.525118423 -1.00674750958e-18)
(35.484265933 170.881235721 2.53982430883e-19)
(9.42511296746 9.34766851736 6.63987295614e-20)
(10.2786718365 26.3996291237 2.05652951107e-19)
(10.3127956135 45.7802825335 -5.80016218164e-19)
(10.4641014556 64.4772222929 -9.56050744953e-19)
(10.8078801776 83.8623778578 1.93370888656e-19)
(11.2145465227 103.878376939 -1.32386069799e-19)
(11.7138598488 124.816367329 -1.73777080591e-19)
(12.3190008859 146.823297334 -1.00652227484e-18)
(13.0375795736 170.1002638 2.73114065998e-19)
)
;

boundaryField
{
    back
    {
        type            calculated;
        value           uniform (0 0 0);
    }
    sides
    {
        type            calculated;
        value           uniform (0 0 0);
    }
    bottom
    {
        type            calculated;
        value           uniform (0 0 0);
    }
    front
    {
        type            calculated;
        value           uniform (0 0 0);
    }
    atmosphere
    {
        type            calculated;
        value           nonuniform List<vector> 0();
    }
    floatingObject
    {
        type            calculated;
        value           nonuniform List<vector> 0();
    }
    procBoundary10to9
    {
        type            processor;
        value           nonuniform List<vector> 
15
(
(224.802166859 13.744474238 1.5791354193e-19)
(228.185418783 17.1562682368 -3.4061027998e-20)
(232.462700728 20.1409254669 -1.97547895758e-20)
(237.593782194 22.5427959624 -1.76225714892e-21)
(243.627418737 24.1737326054 -5.43325706879e-20)
(250.611692433 24.8142262221 -1.44812310154e-19)
(258.559894718 24.104899873 -1.7221985297e-20)
(267.589855371 21.7352794188 -1.26241985775e-20)
(217.186179221 7.02060994475 -5.45986295235e-19)
(218.041132702 11.8818480899 3.67909501907e-19)
(218.041132702 11.8818480899 3.67909501907e-19)
(207.990553666 4.20869379878 3.08313154972e-19)
(202.141545286 5.39246845866 -6.32720030853e-19)
(194.634978786 5.77531019318 9.20297248128e-19)
(194.634978786 5.77531019318 9.20297248128e-19)
)
;
    }
    procBoundary10to11
    {
        type            processor;
        value           nonuniform List<vector> 
23
(
(282.864908902 29.6812707409 -1.22160436822e-19)
(282.864908902 29.6812707409 -1.22160436822e-19)
(302.90631172 42.2549318657 1.30116681389e-20)
(304.854694476 61.9889563344 -6.80665328455e-20)
(283.000460576 80.2325696613 9.77651927722e-20)
(283.000460576 80.2325696613 9.77651927722e-20)
(277.263491343 99.0157357597 1.75570527107e-20)
(268.170962792 118.324407945 1.85394572418e-19)
(238.620197572 124.198927618 -8.66834244915e-20)
(238.620197572 124.198927618 -8.66834244915e-20)
(209.937075468 125.076689238 -1.28444312619e-20)
(209.937075468 125.076689238 -1.28444312619e-20)
(194.079474747 138.089378367 1.26690397991e-19)
(194.079474747 138.089378367 1.26690397991e-19)
(188.831185341 169.58420992 5.68156492874e-20)
(167.935833224 182.558437875 3.09789326811e-20)
(145.218192688 194.076206154 1.08710806119e-20)
(120.9258524 203.947254907 3.26068123383e-20)
(95.2868618159 212.018951624 -1.25991338613e-19)
(64.0152348011 192.072257117 3.68087594929e-19)
(64.0152348011 192.072257117 3.68087594929e-19)
(37.8867747124 195.735983055 2.03613678504e-18)
(13.8696630447 194.859118087 -2.40854515121e-19)
)
;
    }
}


// ************************************************************************* //
