/*--------------------------------*- C++ -*----------------------------------*\
| =========                 |                                                 |
| \\      /  F ield         | OpenFOAM: The Open Source CFD Toolbox           |
|  \\    /   O peration     | Version:  v2012                                 |
|   \\  /    A nd           | Website:  www.openfoam.com                      |
|    \\/     M anipulation  |                                                 |
\*---------------------------------------------------------------------------*/
FoamFile
{
    version     2.0;
    format      ascii;
    class       volScalarField;
    location    "1.7";
    object      k_0;
}
// * * * * * * * * * * * * * * * * * * * * * * * * * * * * * * * * * * * * * //

dimensions      [0 2 -2 0 0 0 0];


internalField   nonuniform List<scalar> 
167
(
0.0105398173876
0.0105817316264
0.0106006795983
0.0106166744946
0.0106340239548
0.0106536872883
0.0106767999594
0.0107078862063
0.00987135617536
0.0103747866763
0.0105177034952
0.010559744147
0.0105791155088
0.0105956595935
0.0106136280252
0.0106339759832
0.0106579453995
0.0106905539143
0.0107502933283
0.00985062402819
0.0103525446354
0.0104950213477
0.0105372836723
0.0105571780869
0.0105743768862
0.0105930656715
0.0106142045408
0.0106391456946
0.010673413051
0.01073716513
0.00982908340164
0.010329655613
0.0104718098549
0.0105144037915
0.0105349320979
0.0105528941216
0.0105724114547
0.010594446334
0.0106204788211
0.0106565625543
0.00795149531595
0.00980678874371
0.0103061467043
0.010448124125
0.0104911787306
0.010512462105
0.0105313058432
0.0105517723025
0.0105748136721
0.0106020491977
0.0106401129845
0.00793139179905
0.00978384292146
0.0102821061874
0.0104240487094
0.0104677025697
0.0104898708817
0.0105097197664
0.010531249342
0.0105554136726
0.0105839683994
0.0106241447285
0.00791056035984
0.00976028358275
0.0102576237058
0.0103996836063
0.0104440845292
0.010467280554
0.0104882659038
0.0105109736577
0.0105363718049
0.0105663274821
0.00788903020747
0.00973617580185
0.0102327584237
0.0103751203197
0.0104204427893
0.0104448251545
0.0104670872266
0.0104910932275
0.0105178036163
0.00786681439236
0.00971154014933
0.010207565269
0.0103504389627
0.0103968712529
0.010422611051
0.010446294586
0.0104717086089
0.0104998181878
0.00784388262013
0.00968631145317
0.0101819434357
0.0103255376166
0.0103733079077
0.0104005878666
0.010425828041
0.0104527460259
0.0104823158708
0.0105169042478
0.007819982055
0.00965989998202
0.0101551965182
0.0102997446622
0.0103490669096
0.0103780564774
0.0104049576543
0.0104334296844
0.0104644602645
0.0105005852626
0.0077939923743
0.00963003853121
0.0101247012162
0.0102702787098
0.0103213187028
0.0103521253561
0.0103807248416
0.0104107128609
0.0104431064579
0.0104806080886
0.00776179818234
0.00958920032464
0.0100815360477
0.0102277645785
0.0102804913954
0.0103130884024
0.0103432669992
0.0103745616163
0.0104080320345
0.0104465462873
0.00770956327576
0.0095134560083
0.00999811786856
0.0101433823595
0.0101973279536
0.0102314190327
0.0102628055378
0.0102949397875
0.0103289344869
0.0103677822576
0.00759315839213
0.00933155413155
0.00979429699005
0.00993427465637
0.00998815635174
0.0100230930063
0.0100550702027
0.0100873610432
0.0101210990854
0.00727805102975
0.00883995245667
0.00924713906701
0.00937198480473
0.00942313966507
0.00945801172502
0.0094900557802
0.00952207927291
0.00955514595092
0.00628744812517
0.00724531467325
0.00750422504066
0.00758652921868
0.0076274052484
0.0076604013495
0.00769251579753
0.00772510942034
0.00775874781778
)
;

boundaryField
{
    back
    {
        type            kqRWallFunction;
        value           nonuniform List<scalar> 
167
(
0.0105398173876
0.0105817316264
0.0106006795983
0.0106166744946
0.0106340239548
0.0106536872883
0.0106767999594
0.0107078862063
0.00987135617536
0.0103747866763
0.0105177034952
0.010559744147
0.0105791155088
0.0105956595935
0.0106136280252
0.0106339759832
0.0106579453995
0.0106905539143
0.0107502933283
0.00985062402819
0.0103525446354
0.0104950213477
0.0105372836723
0.0105571780869
0.0105743768862
0.0105930656715
0.0106142045408
0.0106391456946
0.010673413051
0.01073716513
0.00982908340164
0.010329655613
0.0104718098549
0.0105144037915
0.0105349320979
0.0105528941216
0.0105724114547
0.010594446334
0.0106204788211
0.0106565625543
0.00795149531595
0.00980678874371
0.0103061467043
0.010448124125
0.0104911787306
0.010512462105
0.0105313058432
0.0105517723025
0.0105748136721
0.0106020491977
0.0106401129845
0.00793139179905
0.00978384292146
0.0102821061874
0.0104240487094
0.0104677025697
0.0104898708817
0.0105097197664
0.010531249342
0.0105554136726
0.0105839683994
0.0106241447285
0.00791056035984
0.00976028358275
0.0102576237058
0.0103996836063
0.0104440845292
0.010467280554
0.0104882659038
0.0105109736577
0.0105363718049
0.0105663274821
0.00788903020747
0.00973617580185
0.0102327584237
0.0103751203197
0.0104204427893
0.0104448251545
0.0104670872266
0.0104910932275
0.0105178036163
0.00786681439236
0.00971154014933
0.010207565269
0.0103504389627
0.0103968712529
0.010422611051
0.010446294586
0.0104717086089
0.0104998181878
0.00784388262013
0.00968631145317
0.0101819434357
0.0103255376166
0.0103733079077
0.0104005878666
0.010425828041
0.0104527460259
0.0104823158708
0.0105169042478
0.007819982055
0.00965989998202
0.0101551965182
0.0102997446622
0.0103490669096
0.0103780564774
0.0104049576543
0.0104334296844
0.0104644602645
0.0105005852626
0.0077939923743
0.00963003853121
0.0101247012162
0.0102702787098
0.0103213187028
0.0103521253561
0.0103807248416
0.0104107128609
0.0104431064579
0.0104806080886
0.00776179818234
0.00958920032464
0.0100815360477
0.0102277645785
0.0102804913954
0.0103130884024
0.0103432669992
0.0103745616163
0.0104080320345
0.0104465462873
0.00770956327576
0.0095134560083
0.00999811786856
0.0101433823595
0.0101973279536
0.0102314190327
0.0102628055378
0.0102949397875
0.0103289344869
0.0103677822576
0.00759315839213
0.00933155413155
0.00979429699005
0.00993427465637
0.00998815635174
0.0100230930063
0.0100550702027
0.0100873610432
0.0101210990854
0.00727805102975
0.00883995245667
0.00924713906701
0.00937198480473
0.00942313966507
0.00945801172502
0.0094900557802
0.00952207927291
0.00955514595092
0.00628744812517
0.00724531467325
0.00750422504066
0.00758652921868
0.0076274052484
0.0076604013495
0.00769251579753
0.00772510942034
0.00775874781778
)
;
    }
    sides
    {
        type            kqRWallFunction;
        value           nonuniform List<scalar> 9(0.00628744812517 0.00724531467325 0.00750422504066 0.00758652921868 0.0076274052484 0.0076604013495 0.00769251579753 0.00772510942034 0.00775874781778);
    }
    bottom
    {
        type            kqRWallFunction;
        value           nonuniform List<scalar> 
13
(
0.00795149531595
0.00793139179905
0.00791056035984
0.00788903020747
0.00786681439236
0.00784388262013
0.007819982055
0.0077939923743
0.00776179818234
0.00770956327576
0.00759315839213
0.00727805102975
0.00628744812517
)
;
    }
    front
    {
        type            kqRWallFunction;
        value           nonuniform List<scalar> 
167
(
0.0105398173876
0.0105817316264
0.0106006795983
0.0106166744946
0.0106340239548
0.0106536872883
0.0106767999594
0.0107078862063
0.00987135617536
0.0103747866763
0.0105177034952
0.010559744147
0.0105791155088
0.0105956595935
0.0106136280252
0.0106339759832
0.0106579453995
0.0106905539143
0.0107502933283
0.00985062402819
0.0103525446354
0.0104950213477
0.0105372836723
0.0105571780869
0.0105743768862
0.0105930656715
0.0106142045408
0.0106391456946
0.010673413051
0.01073716513
0.00982908340164
0.010329655613
0.0104718098549
0.0105144037915
0.0105349320979
0.0105528941216
0.0105724114547
0.010594446334
0.0106204788211
0.0106565625543
0.00795149531595
0.00980678874371
0.0103061467043
0.010448124125
0.0104911787306
0.010512462105
0.0105313058432
0.0105517723025
0.0105748136721
0.0106020491977
0.0106401129845
0.00793139179905
0.00978384292146
0.0102821061874
0.0104240487094
0.0104677025697
0.0104898708817
0.0105097197664
0.010531249342
0.0105554136726
0.0105839683994
0.0106241447285
0.00791056035984
0.00976028358275
0.0102576237058
0.0103996836063
0.0104440845292
0.010467280554
0.0104882659038
0.0105109736577
0.0105363718049
0.0105663274821
0.00788903020747
0.00973617580185
0.0102327584237
0.0103751203197
0.0104204427893
0.0104448251545
0.0104670872266
0.0104910932275
0.0105178036163
0.00786681439236
0.00971154014933
0.010207565269
0.0103504389627
0.0103968712529
0.010422611051
0.010446294586
0.0104717086089
0.0104998181878
0.00784388262013
0.00968631145317
0.0101819434357
0.0103255376166
0.0103733079077
0.0104005878666
0.010425828041
0.0104527460259
0.0104823158708
0.0105169042478
0.007819982055
0.00965989998202
0.0101551965182
0.0102997446622
0.0103490669096
0.0103780564774
0.0104049576543
0.0104334296844
0.0104644602645
0.0105005852626
0.0077939923743
0.00963003853121
0.0101247012162
0.0102702787098
0.0103213187028
0.0103521253561
0.0103807248416
0.0104107128609
0.0104431064579
0.0104806080886
0.00776179818234
0.00958920032464
0.0100815360477
0.0102277645785
0.0102804913954
0.0103130884024
0.0103432669992
0.0103745616163
0.0104080320345
0.0104465462873
0.00770956327576
0.0095134560083
0.00999811786856
0.0101433823595
0.0101973279536
0.0102314190327
0.0102628055378
0.0102949397875
0.0103289344869
0.0103677822576
0.00759315839213
0.00933155413155
0.00979429699005
0.00993427465637
0.00998815635174
0.0100230930063
0.0100550702027
0.0100873610432
0.0101210990854
0.00727805102975
0.00883995245667
0.00924713906701
0.00937198480473
0.00942313966507
0.00945801172502
0.0094900557802
0.00952207927291
0.00955514595092
0.00628744812517
0.00724531467325
0.00750422504066
0.00758652921868
0.0076274052484
0.0076604013495
0.00769251579753
0.00772510942034
0.00775874781778
)
;
    }
    atmosphere
    {
        type            inletOutlet;
        inletValue      nonuniform List<scalar> 0();
        value           nonuniform List<scalar> 0();
    }
    floatingObject
    {
        type            kqRWallFunction;
        value           nonuniform List<scalar> 0();
    }
    procBoundary10to9
    {
        type            processor;
        value           nonuniform List<scalar> 
15
(
0.0105612755039
0.0106031579412
0.010621772764
0.0106373157265
0.0106541491803
0.0106732315967
0.0106955885695
0.0107252941585
0.00989126186557
0.0103963311354
0.0103963311354
0.00800733507811
0.00798949202713
0.00797084915032
0.00797084915032
)
;
    }
    procBoundary10to11
    {
        type            processor;
        value           nonuniform List<scalar> 
23
(
0.010763847617
0.010763847617
0.0108948966931
0.0108925979721
0.0107246699609
0.0107246699609
0.0107129363164
0.0107019127029
0.0106087352586
0.0106087352586
0.0105492550189
0.0105492550189
0.0105328277356
0.0105328277356
0.0105663183942
0.0105522319096
0.0105342346279
0.0105016492771
0.0104234607312
0.0101593344231
0.0101593344231
0.00959208788858
0.00779511051848
)
;
    }
}


// ************************************************************************* //
