/*--------------------------------*- C++ -*----------------------------------*\
| =========                 |                                                 |
| \\      /  F ield         | OpenFOAM: The Open Source CFD Toolbox           |
|  \\    /   O peration     | Version:  v2012                                 |
|   \\  /    A nd           | Website:  www.openfoam.com                      |
|    \\/     M anipulation  |                                                 |
\*---------------------------------------------------------------------------*/
FoamFile
{
    version     2.0;
    format      ascii;
    class       volScalarField;
    location    "1.7";
    object      p_rgh;
}
// * * * * * * * * * * * * * * * * * * * * * * * * * * * * * * * * * * * * * //

dimensions      [1 -1 -2 0 0 0 0];


internalField   nonuniform List<scalar> 
167
(
8569.33517694
8568.35238814
8567.15621549
8565.76746078
8564.21478879
8562.53694011
8560.7844039
8559.02262961
8560.07165245
8559.5926473
8558.67952915
8557.51288598
8556.08624819
8554.41606157
8552.52727006
8550.45386114
8548.23978093
8545.93904213
8543.62006427
8549.89107267
8549.40997858
8548.2927789
8546.93328968
8545.25750505
8543.27908736
8541.01889138
8538.50370129
8535.7687052
8532.85560088
8529.81706309
8540.18948868
8539.48299339
8538.21581572
8536.66977597
8534.72903073
8532.41972203
8529.7600947
8526.76651532
8523.46456939
8519.88209617
8531.30117091
8530.81385885
8529.95029783
8528.57058743
8526.78966978
8524.56636775
8521.90912789
8518.82694399
8515.32916515
8511.42802925
8507.13801833
8522.39682002
8521.8708759
8520.88886205
8519.35648841
8517.34748675
8514.83525634
8511.82084743
8508.30464209
8504.28785156
8499.76920503
8494.75193153
8513.99890225
8513.42527031
8512.33234386
8510.64213864
8508.40639992
8505.60440205
8502.23085969
8498.27890679
8493.7388482
8488.60135635
8506.15818697
8505.53834541
8504.3368078
8502.48674153
8500.03008805
8496.9434236
8493.2162889
8488.83449777
8483.78050543
8498.92849447
8498.26090813
8496.95487781
8494.95306035
8492.28228218
8488.92109564
8484.85284103
8480.05675829
8474.50779698
8492.35817026
8491.64585228
8490.24456722
8488.09458752
8485.22286775
8481.60339698
8477.21377283
8472.02788726
8466.01226568
8459.12808333
8486.49560967
8485.74265017
8484.25251416
8481.96650011
8478.90957663
8475.05252334
8470.36781882
8464.8234276
8458.37939612
8450.98873273
8481.38508602
8480.5944802
8479.02547873
8476.61788911
8473.39545534
8469.32576768
8464.37746528
8458.51315222
8451.68731375
8443.84542941
8477.0642497
8476.24173199
8474.60438298
8472.09262009
8468.72703607
8464.47404124
8459.298154
8453.15847284
8446.00421244
8437.77440305
8473.5657448
8472.71781002
8471.02352665
8468.4271432
8464.94397261
8460.53977826
8455.17710115
8448.81163159
8441.38805101
8432.84188768
8470.91490829
8470.04393912
8468.3072426
8465.64631619
8462.07245234
8457.55305081
8452.04835836
8445.51120351
8437.88398898
8469.15570884
8468.27369043
8466.50699446
8463.80242028
8460.16970844
8455.57380678
8449.97379228
8443.32122337
8435.55679023
8468.27835684
8467.38890281
8465.60333521
8462.87809635
8459.21559137
8454.58300386
8448.93730387
8442.22861555
8434.39817625
)
;

boundaryField
{
    back
    {
        type            fixedFluxPressure;
        gradient        uniform 0;
        value           nonuniform List<scalar> 
167
(
8569.33517694
8568.35238814
8567.15621549
8565.76746078
8564.21478879
8562.53694011
8560.7844039
8559.02262961
8560.07165245
8559.5926473
8558.67952915
8557.51288598
8556.08624819
8554.41606157
8552.52727006
8550.45386114
8548.23978093
8545.93904213
8543.62006427
8549.89107267
8549.40997858
8548.2927789
8546.93328968
8545.25750505
8543.27908736
8541.01889138
8538.50370129
8535.7687052
8532.85560088
8529.81706309
8540.18948868
8539.48299339
8538.21581572
8536.66977597
8534.72903073
8532.41972203
8529.7600947
8526.76651532
8523.46456939
8519.88209617
8531.30117091
8530.81385885
8529.95029783
8528.57058743
8526.78966978
8524.56636775
8521.90912789
8518.82694399
8515.32916515
8511.42802925
8507.13801833
8522.39682002
8521.8708759
8520.88886205
8519.35648841
8517.34748675
8514.83525634
8511.82084743
8508.30464209
8504.28785156
8499.76920503
8494.75193153
8513.99890225
8513.42527031
8512.33234386
8510.64213864
8508.40639992
8505.60440205
8502.23085969
8498.27890679
8493.7388482
8488.60135635
8506.15818697
8505.53834541
8504.3368078
8502.48674153
8500.03008805
8496.9434236
8493.2162889
8488.83449777
8483.78050543
8498.92849447
8498.26090813
8496.95487781
8494.95306035
8492.28228218
8488.92109564
8484.85284103
8480.05675829
8474.50779698
8492.35817026
8491.64585228
8490.24456722
8488.09458752
8485.22286775
8481.60339698
8477.21377283
8472.02788726
8466.01226568
8459.12808333
8486.49560967
8485.74265017
8484.25251416
8481.96650011
8478.90957663
8475.05252334
8470.36781882
8464.8234276
8458.37939612
8450.98873273
8481.38508602
8480.5944802
8479.02547873
8476.61788911
8473.39545534
8469.32576768
8464.37746528
8458.51315222
8451.68731375
8443.84542941
8477.0642497
8476.24173199
8474.60438298
8472.09262009
8468.72703607
8464.47404124
8459.298154
8453.15847284
8446.00421244
8437.77440305
8473.5657448
8472.71781002
8471.02352665
8468.4271432
8464.94397261
8460.53977826
8455.17710115
8448.81163159
8441.38805101
8432.84188768
8470.91490829
8470.04393912
8468.3072426
8465.64631619
8462.07245234
8457.55305081
8452.04835836
8445.51120351
8437.88398898
8469.15570884
8468.27369043
8466.50699446
8463.80242028
8460.16970844
8455.57380678
8449.97379228
8443.32122337
8435.55679023
8468.27835684
8467.38890281
8465.60333521
8462.87809635
8459.21559137
8454.58300386
8448.93730387
8442.22861555
8434.39817625
)
;
    }
    sides
    {
        type            fixedFluxPressure;
        gradient        uniform 0;
        value           nonuniform List<scalar> 9(8468.27835684 8467.38890281 8465.60333521 8462.87809635 8459.21559137 8454.58300386 8448.93730387 8442.22861555 8434.39817625);
    }
    bottom
    {
        type            fixedFluxPressure;
        gradient        uniform 0;
        value           nonuniform List<scalar> 
13
(
8531.30117091
8522.39682002
8513.99890225
8506.15818697
8498.92849447
8492.35817026
8486.49560967
8481.38508602
8477.0642497
8473.5657448
8470.91490829
8469.15570884
8468.27835684
)
;
    }
    front
    {
        type            fixedFluxPressure;
        gradient        uniform 0;
        value           nonuniform List<scalar> 
167
(
8569.33517694
8568.35238814
8567.15621549
8565.76746078
8564.21478879
8562.53694011
8560.7844039
8559.02262961
8560.07165245
8559.5926473
8558.67952915
8557.51288598
8556.08624819
8554.41606157
8552.52727006
8550.45386114
8548.23978093
8545.93904213
8543.62006427
8549.89107267
8549.40997858
8548.2927789
8546.93328968
8545.25750505
8543.27908736
8541.01889138
8538.50370129
8535.7687052
8532.85560088
8529.81706309
8540.18948868
8539.48299339
8538.21581572
8536.66977597
8534.72903073
8532.41972203
8529.7600947
8526.76651532
8523.46456939
8519.88209617
8531.30117091
8530.81385885
8529.95029783
8528.57058743
8526.78966978
8524.56636775
8521.90912789
8518.82694399
8515.32916515
8511.42802925
8507.13801833
8522.39682002
8521.8708759
8520.88886205
8519.35648841
8517.34748675
8514.83525634
8511.82084743
8508.30464209
8504.28785156
8499.76920503
8494.75193153
8513.99890225
8513.42527031
8512.33234386
8510.64213864
8508.40639992
8505.60440205
8502.23085969
8498.27890679
8493.7388482
8488.60135635
8506.15818697
8505.53834541
8504.3368078
8502.48674153
8500.03008805
8496.9434236
8493.2162889
8488.83449777
8483.78050543
8498.92849447
8498.26090813
8496.95487781
8494.95306035
8492.28228218
8488.92109564
8484.85284103
8480.05675829
8474.50779698
8492.35817026
8491.64585228
8490.24456722
8488.09458752
8485.22286775
8481.60339698
8477.21377283
8472.02788726
8466.01226568
8459.12808333
8486.49560967
8485.74265017
8484.25251416
8481.96650011
8478.90957663
8475.05252334
8470.36781882
8464.8234276
8458.37939612
8450.98873273
8481.38508602
8480.5944802
8479.02547873
8476.61788911
8473.39545534
8469.32576768
8464.37746528
8458.51315222
8451.68731375
8443.84542941
8477.0642497
8476.24173199
8474.60438298
8472.09262009
8468.72703607
8464.47404124
8459.298154
8453.15847284
8446.00421244
8437.77440305
8473.5657448
8472.71781002
8471.02352665
8468.4271432
8464.94397261
8460.53977826
8455.17710115
8448.81163159
8441.38805101
8432.84188768
8470.91490829
8470.04393912
8468.3072426
8465.64631619
8462.07245234
8457.55305081
8452.04835836
8445.51120351
8437.88398898
8469.15570884
8468.27369043
8466.50699446
8463.80242028
8460.16970844
8455.57380678
8449.97379228
8443.32122337
8435.55679023
8468.27835684
8467.38890281
8465.60333521
8462.87809635
8459.21559137
8454.58300386
8448.93730387
8442.22861555
8434.39817625
)
;
    }
    atmosphere
    {
        type            totalPressure;
        rho             rho;
        psi             none;
        gamma           1;
        p0              nonuniform List<scalar> 0();
        value           nonuniform List<scalar> 0();
    }
    floatingObject
    {
        type            fixedFluxPressure;
        gradient        nonuniform List<scalar> 0();
        value           nonuniform List<scalar> 0();
    }
    procBoundary10to9
    {
        type            processor;
        value           nonuniform List<scalar> 
15
(
8580.21852747
8579.40285821
8578.41482247
8577.2765555
8576.01924396
8574.68378352
8573.32452896
8572.01128728
8570.53408646
8570.09294751
8570.09294751
8560.49586875
8550.4152769
8540.65299399
8540.65299399
)
;
    }
    procBoundary10to11
    {
        type            processor;
        value           nonuniform List<scalar> 
23
(
8557.33009045
8557.33009045
8541.36511701
8526.71511612
8516.05517501
8516.05517501
8502.4769193
8489.23267891
8482.85201109
8482.85201109
8478.03368573
8478.03368573
8468.17400319
8468.17400319
8451.32602279
8442.59409795
8434.92199966
8428.39717774
8423.09363429
8429.09716483
8429.09716483
8426.61115045
8425.37502042
)
;
    }
}


// ************************************************************************* //
