/*--------------------------------*- C++ -*----------------------------------*\
| =========                 |                                                 |
| \\      /  F ield         | OpenFOAM: The Open Source CFD Toolbox           |
|  \\    /   O peration     | Version:  v2012                                 |
|   \\  /    A nd           | Website:  www.openfoam.com                      |
|    \\/     M anipulation  |                                                 |
\*---------------------------------------------------------------------------*/
FoamFile
{
    version     2.0;
    format      ascii;
    class       volScalarField;
    location    "3.2";
    object      k;
}
// * * * * * * * * * * * * * * * * * * * * * * * * * * * * * * * * * * * * * //

dimensions      [0 2 -2 0 0 0 0];


internalField   nonuniform List<scalar> 
164
(
0.00306028869436
0.003809855054
0.00404342313653
0.00412455277013
0.00415323500551
0.00416584810162
0.0041746217916
0.00418328001015
0.0030620344702
0.00381268207757
0.00404678765381
0.00412822718719
0.00415712683269
0.00416993530262
0.00417891474599
0.00418780226379
0.00306307003397
0.00381470204809
0.00404928050452
0.00413105943817
0.00416023803211
0.00417330439461
0.00418255351411
0.00419174069271
0.00420196357782
0.00421378152913
0.0030633911831
0.00381577760176
0.00405079988169
0.0041329722926
0.00416250499925
0.00417590045032
0.00418548730976
0.00419504892169
0.00420568239193
0.00421793404879
0.0030628340412
0.00381575225806
0.00405124060682
0.0041338852162
0.00416386209344
0.00417766697996
0.00418766610536
0.00419767901003
0.00420881664275
0.00422161638739
0.00306164752926
0.00381447819089
0.00405043845722
0.00413369075991
0.00416422913343
0.00417853574162
0.0041890308966
0.00419957371727
0.00421131380313
0.00422477760168
0.00306002579496
0.0038118094925
0.00404823761953
0.00413222193093
0.00416348543573
0.0041784213821
0.00418950692032
0.00420066686649
0.0042131034357
0.00422736326242
0.00305743051326
0.00380779395883
0.00404465071597
0.00412947680547
0.00416159006318
0.0041772684086
0.00418904718048
0.00420093433439
0.00421416530724
0.0042293322098
0.00305371582012
0.00380233170955
0.00403961106098
0.00412538208497
0.00415846209525
0.0041749890129
0.0041875641952
0.00420028093433
0.00421442822654
0.00423066373707
0.00304881344255
0.00379534489007
0.00403302406867
0.00411983203354
0.00415400301669
0.00417149983899
0.00418498413299
0.00419863512342
0.00421380865821
0.00423123014361
0.0030426477961
0.00378672030692
0.0040247868725
0.00411273165667
0.00414812332697
0.00416672084864
0.00418123205576
0.00419592558047
0.00421222665745
0.00423090526647
0.0030351004443
0.00377635509581
0.00401482171898
0.00410400180951
0.00414074237369
0.00416057327598
0.0041762377413
0.00419209640686
0.0042096318529
0.0042296148879
0.00302613813041
0.00376429958782
0.00400309928646
0.00409358060554
0.00413178758146
0.00415298373255
0.00416993933659
0.00418710494271
0.00420601623714
0.00422744337433
0.0030156435051
0.00375053119412
0.0039896154373
0.00408143477649
0.00412120463302
0.00414389430279
0.00416228774965
0.0041809206441
0.00420138009867
0.00422445941732
0.00300353989809
0.00373501772835
0.00397435386318
0.00406755272445
0.00410896289908
0.00413326830459
0.00415326314318
0.00417352767398
0.00419571465679
0.00422056588404
0.00298981168139
0.003717852444
0.00395741972515
0.0040519802407
0.0040950820587
0.00412111732738
0.00414283318633
0.00416493665743
0.00418900481659
0.00421577059478
0.00297458721552
0.00369924833286
0.00393898998177
0.00403484650323
0.00407963388456
0.00410741651087
0.00413102798016
0.00406268788571
)
;

boundaryField
{
    back
    {
        type            kqRWallFunction;
        value           nonuniform List<scalar> 
164
(
0.00306028869436
0.003809855054
0.00404342313653
0.00412455277013
0.00415323500551
0.00416584810162
0.0041746217916
0.00418328001015
0.0030620344702
0.00381268207757
0.00404678765381
0.00412822718719
0.00415712683269
0.00416993530262
0.00417891474599
0.00418780226379
0.00306307003397
0.00381470204809
0.00404928050452
0.00413105943817
0.00416023803211
0.00417330439461
0.00418255351411
0.00419174069271
0.00420196357782
0.00421378152913
0.0030633911831
0.00381577760176
0.00405079988169
0.0041329722926
0.00416250499925
0.00417590045032
0.00418548730976
0.00419504892169
0.00420568239193
0.00421793404879
0.0030628340412
0.00381575225806
0.00405124060682
0.0041338852162
0.00416386209344
0.00417766697996
0.00418766610536
0.00419767901003
0.00420881664275
0.00422161638739
0.00306164752926
0.00381447819089
0.00405043845722
0.00413369075991
0.00416422913343
0.00417853574162
0.0041890308966
0.00419957371727
0.00421131380313
0.00422477760168
0.00306002579496
0.0038118094925
0.00404823761953
0.00413222193093
0.00416348543573
0.0041784213821
0.00418950692032
0.00420066686649
0.0042131034357
0.00422736326242
0.00305743051326
0.00380779395883
0.00404465071597
0.00412947680547
0.00416159006318
0.0041772684086
0.00418904718048
0.00420093433439
0.00421416530724
0.0042293322098
0.00305371582012
0.00380233170955
0.00403961106098
0.00412538208497
0.00415846209525
0.0041749890129
0.0041875641952
0.00420028093433
0.00421442822654
0.00423066373707
0.00304881344255
0.00379534489007
0.00403302406867
0.00411983203354
0.00415400301669
0.00417149983899
0.00418498413299
0.00419863512342
0.00421380865821
0.00423123014361
0.0030426477961
0.00378672030692
0.0040247868725
0.00411273165667
0.00414812332697
0.00416672084864
0.00418123205576
0.00419592558047
0.00421222665745
0.00423090526647
0.0030351004443
0.00377635509581
0.00401482171898
0.00410400180951
0.00414074237369
0.00416057327598
0.0041762377413
0.00419209640686
0.0042096318529
0.0042296148879
0.00302613813041
0.00376429958782
0.00400309928646
0.00409358060554
0.00413178758146
0.00415298373255
0.00416993933659
0.00418710494271
0.00420601623714
0.00422744337433
0.0030156435051
0.00375053119412
0.0039896154373
0.00408143477649
0.00412120463302
0.00414389430279
0.00416228774965
0.0041809206441
0.00420138009867
0.00422445941732
0.00300353989809
0.00373501772835
0.00397435386318
0.00406755272445
0.00410896289908
0.00413326830459
0.00415326314318
0.00417352767398
0.00419571465679
0.00422056588404
0.00298981168139
0.003717852444
0.00395741972515
0.0040519802407
0.0040950820587
0.00412111732738
0.00414283318633
0.00416493665743
0.00418900481659
0.00421577059478
0.00297458721552
0.00369924833286
0.00393898998177
0.00403484650323
0.00407963388456
0.00410741651087
0.00413102798016
0.00406268788571
)
;
    }
    sides
    {
        type            kqRWallFunction;
        value           nonuniform List<scalar> 0();
    }
    bottom
    {
        type            kqRWallFunction;
        value           nonuniform List<scalar> 
17
(
0.00306028869436
0.0030620344702
0.00306307003397
0.0030633911831
0.0030628340412
0.00306164752926
0.00306002579496
0.00305743051326
0.00305371582012
0.00304881344255
0.0030426477961
0.0030351004443
0.00302613813041
0.0030156435051
0.00300353989809
0.00298981168139
0.00297458721552
)
;
    }
    front
    {
        type            kqRWallFunction;
        value           nonuniform List<scalar> 
164
(
0.00306028869436
0.003809855054
0.00404342313653
0.00412455277013
0.00415323500551
0.00416584810162
0.0041746217916
0.00418328001015
0.0030620344702
0.00381268207757
0.00404678765381
0.00412822718719
0.00415712683269
0.00416993530262
0.00417891474599
0.00418780226379
0.00306307003397
0.00381470204809
0.00404928050452
0.00413105943817
0.00416023803211
0.00417330439461
0.00418255351411
0.00419174069271
0.00420196357782
0.00421378152913
0.0030633911831
0.00381577760176
0.00405079988169
0.0041329722926
0.00416250499925
0.00417590045032
0.00418548730976
0.00419504892169
0.00420568239193
0.00421793404879
0.0030628340412
0.00381575225806
0.00405124060682
0.0041338852162
0.00416386209344
0.00417766697996
0.00418766610536
0.00419767901003
0.00420881664275
0.00422161638739
0.00306164752926
0.00381447819089
0.00405043845722
0.00413369075991
0.00416422913343
0.00417853574162
0.0041890308966
0.00419957371727
0.00421131380313
0.00422477760168
0.00306002579496
0.0038118094925
0.00404823761953
0.00413222193093
0.00416348543573
0.0041784213821
0.00418950692032
0.00420066686649
0.0042131034357
0.00422736326242
0.00305743051326
0.00380779395883
0.00404465071597
0.00412947680547
0.00416159006318
0.0041772684086
0.00418904718048
0.00420093433439
0.00421416530724
0.0042293322098
0.00305371582012
0.00380233170955
0.00403961106098
0.00412538208497
0.00415846209525
0.0041749890129
0.0041875641952
0.00420028093433
0.00421442822654
0.00423066373707
0.00304881344255
0.00379534489007
0.00403302406867
0.00411983203354
0.00415400301669
0.00417149983899
0.00418498413299
0.00419863512342
0.00421380865821
0.00423123014361
0.0030426477961
0.00378672030692
0.0040247868725
0.00411273165667
0.00414812332697
0.00416672084864
0.00418123205576
0.00419592558047
0.00421222665745
0.00423090526647
0.0030351004443
0.00377635509581
0.00401482171898
0.00410400180951
0.00414074237369
0.00416057327598
0.0041762377413
0.00419209640686
0.0042096318529
0.0042296148879
0.00302613813041
0.00376429958782
0.00400309928646
0.00409358060554
0.00413178758146
0.00415298373255
0.00416993933659
0.00418710494271
0.00420601623714
0.00422744337433
0.0030156435051
0.00375053119412
0.0039896154373
0.00408143477649
0.00412120463302
0.00414389430279
0.00416228774965
0.0041809206441
0.00420138009867
0.00422445941732
0.00300353989809
0.00373501772835
0.00397435386318
0.00406755272445
0.00410896289908
0.00413326830459
0.00415326314318
0.00417352767398
0.00419571465679
0.00422056588404
0.00298981168139
0.003717852444
0.00395741972515
0.0040519802407
0.0040950820587
0.00412111732738
0.00414283318633
0.00416493665743
0.00418900481659
0.00421577059478
0.00297458721552
0.00369924833286
0.00393898998177
0.00403484650323
0.00407963388456
0.00410741651087
0.00413102798016
0.00406268788571
)
;
    }
    atmosphere
    {
        type            inletOutlet;
        inletValue      nonuniform List<scalar> 0();
        value           nonuniform List<scalar> 0();
    }
    floatingObject
    {
        type            kqRWallFunction;
        value           nonuniform List<scalar> 0();
    }
    procBoundary4to0
    {
        type            processor;
        value           nonuniform List<scalar> 8(0.00305781406198 0.00380621710323 0.0040392305988 0.00412009590623 0.0041486182379 0.0041610908869 0.00416971458327 0.00417820560474);
    }
    procBoundary4to3
    {
        type            processor;
        value           nonuniform List<scalar> 
13
(
0.00415516222931
0.004181419496
0.00421035384263
0.00295798636889
0.00367953851274
0.00391930839551
0.00401635422286
0.00409226647226
0.00415516222931
0.00411776502976
0.00401635422286
0.00409226647226
0.00404442494921
)
;
    }
    procBoundary4to5
    {
        type            processor;
        value           nonuniform List<scalar> 
18
(
0.00419293291067
0.00419769837264
0.00419769837264
0.00420919485237
0.00422846011403
0.00423297240451
0.00423717603204
0.00424104039422
0.00424454215506
0.00424763393295
0.00425039807278
0.00425256424432
0.00425374949905
0.004253738335
0.00425303984591
0.00425194697212
0.00424996203686
0.00424651219
)
;
    }
}


// ************************************************************************* //
