/*--------------------------------*- C++ -*----------------------------------*\
| =========                 |                                                 |
| \\      /  F ield         | OpenFOAM: The Open Source CFD Toolbox           |
|  \\    /   O peration     | Version:  v2012                                 |
|   \\  /    A nd           | Website:  www.openfoam.com                      |
|    \\/     M anipulation  |                                                 |
\*---------------------------------------------------------------------------*/
FoamFile
{
    version     2.0;
    format      ascii;
    class       volScalarField;
    location    "3.2";
    object      p_rgh;
}
// * * * * * * * * * * * * * * * * * * * * * * * * * * * * * * * * * * * * * //

dimensions      [1 -1 -2 0 0 0 0];


internalField   nonuniform List<scalar> 
164
(
8640.95780603
8640.86993488
8640.71353798
8640.48622872
8640.190648
8639.83254946
8639.42123149
8638.97001159
8641.06124084
8640.96777475
8640.7956172
8640.54231851
8640.20949815
8639.80060929
8639.32177843
8638.78221125
8641.24746032
8641.14724306
8640.95744538
8640.67479362
8640.29930176
8639.83128807
8639.27288079
8638.62793257
8637.90379146
8637.10957328
8641.52545189
8641.41868277
8641.21075624
8640.8973209
8640.47654691
8639.94493081
8639.30004982
8638.53909707
8637.66027948
8636.66283898
8641.9049897
8641.79237553
8641.56697272
8641.22410853
8640.75904578
8640.16402345
8639.43215231
8638.55327191
8637.51480774
8636.30483383
8642.39185062
8642.27622486
8642.03647523
8641.66819371
8641.16475006
8640.51183656
8639.699663
8638.71003626
8637.51844921
8636.10221059
8642.99574781
8642.87777497
8642.62874627
8642.24181483
8641.70807913
8641.0115757
8640.133604
8639.04874634
8637.72455231
8636.12358528
8643.72334921
8643.60571776
8643.35258349
8642.95616167
8642.40565969
8641.68203428
8640.76034858
8639.60794459
8638.1831978
8636.4364817
8644.573894
8644.46133744
8644.21182984
8643.81788651
8643.26741343
8642.53856231
8641.60191743
8640.41798085
8638.93723328
8637.10011446
8645.54353339
8645.44114358
8645.20469154
8644.82749334
8644.29702039
8643.58958702
8642.67231496
8641.50057765
8640.01917655
8638.15992047
8646.62451504
8646.53710561
8646.32393417
8645.97916007
8645.49084841
8644.8343415
8643.97498002
8642.86563126
8641.44761648
8639.64550379
8647.80327455
8647.73583658
8647.55635806
8647.26003764
8646.83661051
8646.26182053
8645.50107304
8644.50764226
8643.22233077
8641.56832085
8649.06097989
8649.01830486
8648.88232277
8648.64982979
8648.31330184
8647.85037577
8647.22872534
8646.40460259
8645.32083588
8643.90392009
8650.37418262
8650.360226
8650.27611717
8650.12109528
8649.89119435
8649.56766684
8649.12246022
8648.51820606
8647.70181326
8646.60670743
8651.71489862
8651.73234691
8651.70640454
8651.63953081
8651.53222309
8651.3709501
8651.13575862
8650.79328773
8650.30523843
8649.60463174
8653.05031399
8653.10087208
8653.13702358
8653.16612838
8653.19199613
8653.21200735
8653.2057753
8653.16141663
8653.03941804
8652.7991271
8654.34700034
8654.42980408
8654.53075279
8654.65609536
8654.82517776
8655.02710402
8655.26765873
8656.37152021
)
;

boundaryField
{
    back
    {
        type            fixedFluxPressure;
        gradient        uniform 0;
        value           nonuniform List<scalar> 
164
(
8640.95780603
8640.86993488
8640.71353798
8640.48622872
8640.190648
8639.83254946
8639.42123149
8638.97001159
8641.06124084
8640.96777475
8640.7956172
8640.54231851
8640.20949815
8639.80060929
8639.32177843
8638.78221125
8641.24746032
8641.14724306
8640.95744538
8640.67479362
8640.29930176
8639.83128807
8639.27288079
8638.62793257
8637.90379146
8637.10957328
8641.52545189
8641.41868277
8641.21075624
8640.8973209
8640.47654691
8639.94493081
8639.30004982
8638.53909707
8637.66027948
8636.66283898
8641.9049897
8641.79237553
8641.56697272
8641.22410853
8640.75904578
8640.16402345
8639.43215231
8638.55327191
8637.51480774
8636.30483383
8642.39185062
8642.27622486
8642.03647523
8641.66819371
8641.16475006
8640.51183656
8639.699663
8638.71003626
8637.51844921
8636.10221059
8642.99574781
8642.87777497
8642.62874627
8642.24181483
8641.70807913
8641.0115757
8640.133604
8639.04874634
8637.72455231
8636.12358528
8643.72334921
8643.60571776
8643.35258349
8642.95616167
8642.40565969
8641.68203428
8640.76034858
8639.60794459
8638.1831978
8636.4364817
8644.573894
8644.46133744
8644.21182984
8643.81788651
8643.26741343
8642.53856231
8641.60191743
8640.41798085
8638.93723328
8637.10011446
8645.54353339
8645.44114358
8645.20469154
8644.82749334
8644.29702039
8643.58958702
8642.67231496
8641.50057765
8640.01917655
8638.15992047
8646.62451504
8646.53710561
8646.32393417
8645.97916007
8645.49084841
8644.8343415
8643.97498002
8642.86563126
8641.44761648
8639.64550379
8647.80327455
8647.73583658
8647.55635806
8647.26003764
8646.83661051
8646.26182053
8645.50107304
8644.50764226
8643.22233077
8641.56832085
8649.06097989
8649.01830486
8648.88232277
8648.64982979
8648.31330184
8647.85037577
8647.22872534
8646.40460259
8645.32083588
8643.90392009
8650.37418262
8650.360226
8650.27611717
8650.12109528
8649.89119435
8649.56766684
8649.12246022
8648.51820606
8647.70181326
8646.60670743
8651.71489862
8651.73234691
8651.70640454
8651.63953081
8651.53222309
8651.3709501
8651.13575862
8650.79328773
8650.30523843
8649.60463174
8653.05031399
8653.10087208
8653.13702358
8653.16612838
8653.19199613
8653.21200735
8653.2057753
8653.16141663
8653.03941804
8652.7991271
8654.34700034
8654.42980408
8654.53075279
8654.65609536
8654.82517776
8655.02710402
8655.26765873
8656.37152021
)
;
    }
    sides
    {
        type            fixedFluxPressure;
        gradient        nonuniform List<scalar> 0();
        value           nonuniform List<scalar> 0();
    }
    bottom
    {
        type            fixedFluxPressure;
        gradient        uniform 0;
        value           nonuniform List<scalar> 
17
(
8640.95780603
8641.06124084
8641.24746032
8641.52545189
8641.9049897
8642.39185062
8642.99574781
8643.72334921
8644.573894
8645.54353339
8646.62451504
8647.80327455
8649.06097989
8650.37418262
8651.71489862
8653.05031399
8654.34700034
)
;
    }
    front
    {
        type            fixedFluxPressure;
        gradient        uniform 0;
        value           nonuniform List<scalar> 
164
(
8640.95780603
8640.86993488
8640.71353798
8640.48622872
8640.190648
8639.83254946
8639.42123149
8638.97001159
8641.06124084
8640.96777475
8640.7956172
8640.54231851
8640.20949815
8639.80060929
8639.32177843
8638.78221125
8641.24746032
8641.14724306
8640.95744538
8640.67479362
8640.29930176
8639.83128807
8639.27288079
8638.62793257
8637.90379146
8637.10957328
8641.52545189
8641.41868277
8641.21075624
8640.8973209
8640.47654691
8639.94493081
8639.30004982
8638.53909707
8637.66027948
8636.66283898
8641.9049897
8641.79237553
8641.56697272
8641.22410853
8640.75904578
8640.16402345
8639.43215231
8638.55327191
8637.51480774
8636.30483383
8642.39185062
8642.27622486
8642.03647523
8641.66819371
8641.16475006
8640.51183656
8639.699663
8638.71003626
8637.51844921
8636.10221059
8642.99574781
8642.87777497
8642.62874627
8642.24181483
8641.70807913
8641.0115757
8640.133604
8639.04874634
8637.72455231
8636.12358528
8643.72334921
8643.60571776
8643.35258349
8642.95616167
8642.40565969
8641.68203428
8640.76034858
8639.60794459
8638.1831978
8636.4364817
8644.573894
8644.46133744
8644.21182984
8643.81788651
8643.26741343
8642.53856231
8641.60191743
8640.41798085
8638.93723328
8637.10011446
8645.54353339
8645.44114358
8645.20469154
8644.82749334
8644.29702039
8643.58958702
8642.67231496
8641.50057765
8640.01917655
8638.15992047
8646.62451504
8646.53710561
8646.32393417
8645.97916007
8645.49084841
8644.8343415
8643.97498002
8642.86563126
8641.44761648
8639.64550379
8647.80327455
8647.73583658
8647.55635806
8647.26003764
8646.83661051
8646.26182053
8645.50107304
8644.50764226
8643.22233077
8641.56832085
8649.06097989
8649.01830486
8648.88232277
8648.64982979
8648.31330184
8647.85037577
8647.22872534
8646.40460259
8645.32083588
8643.90392009
8650.37418262
8650.360226
8650.27611717
8650.12109528
8649.89119435
8649.56766684
8649.12246022
8648.51820606
8647.70181326
8646.60670743
8651.71489862
8651.73234691
8651.70640454
8651.63953081
8651.53222309
8651.3709501
8651.13575862
8650.79328773
8650.30523843
8649.60463174
8653.05031399
8653.10087208
8653.13702358
8653.16612838
8653.19199613
8653.21200735
8653.2057753
8653.16141663
8653.03941804
8652.7991271
8654.34700034
8654.42980408
8654.53075279
8654.65609536
8654.82517776
8655.02710402
8655.26765873
8656.37152021
)
;
    }
    atmosphere
    {
        type            totalPressure;
        rho             rho;
        psi             none;
        gamma           1;
        p0              nonuniform List<scalar> 0();
        value           nonuniform List<scalar> 0();
    }
    floatingObject
    {
        type            fixedFluxPressure;
        gradient        nonuniform List<scalar> 0();
        value           nonuniform List<scalar> 0();
    }
    procBoundary4to0
    {
        type            processor;
        value           nonuniform List<scalar> 8(8640.92908711 8640.84559594 8640.70210533 8640.49594384 8640.23020687 8639.91203213 8639.55239406 8639.16702146);
    }
    procBoundary4to3
    {
        type            processor;
        value           nonuniform List<scalar> 
13
(
8655.53742379
8655.81145748
8656.0715751
8655.57150505
8655.6853064
8655.84629563
8656.07161803
8656.76741187
8655.53742379
8657.24548585
8656.07161803
8656.76741187
8657.78587922
)
;
    }
    procBoundary4to5
    {
        type            processor;
        value           nonuniform List<scalar> 
18
(
8638.49762328
8638.19621652
8638.19621652
8637.58233565
8636.26662784
8635.55117113
8634.9091276
8634.42834244
8634.19851239
8634.308558
8634.83076435
8635.83250026
8637.36529911
8639.44210217
8642.04647996
8645.13448628
8648.61349316
8652.39147582
)
;
    }
}


// ************************************************************************* //
