/*--------------------------------*- C++ -*----------------------------------*\
| =========                 |                                                 |
| \\      /  F ield         | OpenFOAM: The Open Source CFD Toolbox           |
|  \\    /   O peration     | Version:  v2012                                 |
|   \\  /    A nd           | Website:  www.openfoam.com                      |
|    \\/     M anipulation  |                                                 |
\*---------------------------------------------------------------------------*/
FoamFile
{
    version     2.0;
    format      ascii;
    class       surfaceVectorField;
    location    "3.2";
    object      Uf;
}
// * * * * * * * * * * * * * * * * * * * * * * * * * * * * * * * * * * * * * //

dimensions      [0 1 -1 0 0 0 0];


internalField   nonuniform List<vector> 
300
(
(0.0525683056586 -0.00111384596914 -1.66457801764e-22)
(0.0522109738973 -0.000508930707674 -2.55443283981e-22)
(0.0542206395224 -0.00229924111758 -5.39325353573e-23)
(0.0540637130876 -0.00152365191321 -3.08130819917e-23)
(0.0555216646613 -0.00356849863163 5.94289270208e-24)
(0.0555973225554 -0.00267990412357 -7.57212985093e-23)
(0.0565485574123 -0.00493136393731 4.21872692121e-23)
(0.05675469669 -0.00388186901343 3.69338037673e-23)
(0.0575199632163 -0.00640271418671 5.7052155516e-24)
(0.0577527879885 -0.00520053488561 1.68769607595e-24)
(0.0585910854976 -0.00800709500081 -5.28777493434e-24)
(0.0588182500846 -0.00664097627914 -5.48777342264e-24)
(0.0598147161131 -0.00977450185121 -8.95158423438e-24)
(0.0600433407661 -0.00823263757205 -1.20087794748e-23)
(0.0614445140392 -0.0100102903569 -4.84457535952e-24)
(0.0536123101939 -0.00090384039767 -1.1979856421e-22)
(0.0531148023243 -0.000397792143358 -2.35136308078e-22)
(0.0553442588401 -0.0018799943134 -5.26018451436e-23)
(0.0550398513992 -0.00119560686337 1.16573244448e-23)
(0.0567355488546 -0.00294354022155 -4.4730387444e-23)
(0.0566608493137 -0.00212834924981 -2.73005641742e-23)
(0.0578643487641 -0.00410195514246 -3.56576936883e-24)
(0.0579130880592 -0.00311050008902 8.41283086474e-24)
(0.0589579322419 -0.00537273243303 -9.50529289829e-24)
(0.0590235368182 -0.00421120605187 -5.02742155796e-24)
(0.0601792547168 -0.00678126924877 -1.22087779632e-23)
(0.0602267503892 -0.00543653484119 -3.07298554001e-24)
(0.0615876855095 -0.00836005048651 -7.90177059999e-24)
(0.061622081621 -0.00681807108413 -7.63652433249e-24)
(0.063235786412 -0.00839206654906 1.26346121777e-24)
(0.0544334725094 -0.000672487749758 -1.03680419423e-22)
(0.0537872739017 -0.000279808055355 -2.27429055721e-22)
(0.0562468773735 -0.00141878164695 3.69586054142e-23)
(0.0557861244493 -0.000835464593542 7.10790016333e-23)
(0.0577292428426 -0.00224774271972 2.58426541346e-23)
(0.0574897855965 -0.00151705053348 6.48282790086e-23)
(0.0589626694614 -0.00317163442233 6.9511786756e-24)
(0.0588369508193 -0.00225065342923 4.99902104896e-23)
(0.0601824899246 -0.00420956948347 1.40488580032e-24)
(0.0600614391547 -0.00310253897765 1.60112987611e-23)
(0.0615595476524 -0.00538880389556 1.49926809065e-24)
(0.0614059493811 -0.00407898738311 7.6685030333e-24)
(0.0631602857029 -0.00674227942773 1.52870748528e-24)
(0.062975521504 -0.00521202518247 -1.38918911724e-24)
(0.065000601322 -0.00830988912136 1.28240238252e-23)
(0.0648033667787 -0.00654052607149 1.36805766461e-24)
(0.0670792743343 -0.0101370020374 2.38041498612e-23)
(0.0668919635159 -0.00810599943257 2.65034962472e-23)
(0.0692443286726 -0.00995680641329 2.69509512946e-23)
(0.0550125140355 -0.000427164151031 -5.26696346649e-23)
(0.0542144154813 -0.000140539022477 -7.88033854377e-23)
(0.0569020531399 -0.000912957456539 9.89486752276e-23)
(0.0562718894534 -0.000435667871251 2.16397024087e-22)
(0.0584726974013 -0.00147638220887 8.89758353635e-23)
(0.058053177679 -0.000842743877094 1.39432775502e-22)
(0.0598115507225 -0.0021369280356 5.90503305751e-23)
(0.0594974601296 -0.00129991007972 1.08015126045e-22)
(0.0611587982307 -0.00291004375886 2.22749159941e-23)
(0.0608345160502 -0.00187363909317 4.66800603726e-23)
(0.062692868388 -0.0038238007718 4.7800458254e-24)
(0.0623196686575 -0.00256809502655 2.19811466774e-23)
(0.0644880088032 -0.00490909768728 -1.54983893791e-24)
(0.0640607867347 -0.00341358308118 -2.19839627372e-24)
(0.0665638544562 -0.00621357445558 1.50475300866e-23)
(0.0661078309733 -0.00445433777174 -2.74606952902e-25)
(0.0689257607688 -0.00777326676218 2.96502976806e-23)
(0.0684516836758 -0.00573137344239 2.44639965307e-23)
(0.0711148348634 -0.00728582584754 2.13722806719e-23)
(0.0553372782742 -0.000143155100787 1.90263273314e-22)
(0.054357540279 1.4957194081e-05 7.99134211581e-23)
(0.057289649072 -0.000354342801213 2.56881124361e-22)
(0.0564830401219 1.03138854098e-06 3.04223395245e-22)
(0.0589412918099 -0.000637249680085 1.58472066183e-22)
(0.0583360428273 -0.000106748317514 1.92778026997e-22)
(0.0603806994857 -0.00100076548454 9.56448558426e-23)
(0.0598609308531 -0.000260633942715 1.4786066791e-22)
(0.0618537475188 -0.00147787375632 4.63862910559e-23)
(0.0613115787682 -0.000525593330585 7.23024067795e-23)
(0.0635419073309 -0.0020935214207 1.50027045783e-23)
(0.0629352757044 -0.000906413957067 3.81044078154e-23)
(0.0655262848659 -0.00287921021683 -9.23164288713e-25)
(0.0648464475303 -0.00142794807432 7.04453031931e-24)
(0.0678324304941 -0.00386733290186 9.14185949115e-24)
(0.0670959580119 -0.00213918194157 4.2302257708e-25)
(0.070471050145 -0.00510380513507 1.61859795219e-23)
(0.069688218637 -0.00308133884258 1.62048654591e-23)
(0.0726498881102 -0.00428606223532 1.93721520648e-23)
(0.0553625940704 0.00015586155456 1.93873543089e-22)
(0.0542016400585 0.000167206770183 1.31943654589e-22)
(0.0573848163079 0.00025403901771 2.40120297881e-22)
(0.0563848163543 0.00046655535813 3.22359377014e-22)
(0.0591117687061 0.000277836926667 1.82166628724e-22)
(0.0583121936996 0.00068323317503 2.08321658151e-22)
(0.0606421165201 0.000226359407745 1.24518218847e-22)
(0.0599123544853 0.00085903067015 1.63535523809e-22)
(0.0622341664077 7.78230853257e-05 6.40205235389e-23)
(0.0614600628125 0.00093599230284 9.26616207507e-23)
(0.0640731078954 -0.00019999156992 3.01462335564e-23)
(0.0632130470317 0.000902564345357 6.1348363141e-23)
(0.0662380258107 -0.00064607149779 8.3907171851e-24)
(0.0652925032508 0.00073657828066 3.61611809386e-23)
(0.0687640676555 -0.00127634936735 7.48602854502e-24)
(0.0677262574175 0.000394937082596 7.86473867898e-24)
(0.0716646722696 -0.00215842923183 1.93910380019e-23)
(0.0705703968576 -0.000169243786701 1.54113192751e-23)
(0.0737990184939 -0.000981981706768 2.60649421009e-23)
(0.0550834046195 0.000469144638788 2.60429488514e-22)
(0.0537324481688 0.000329103219627 1.45026588398e-22)
(0.05715459561 0.000899463905135 2.90560737285e-22)
(0.0559544414952 0.000962124554761 3.09156969891e-22)
(0.0589506837311 0.0012780088831 1.89690553236e-22)
(0.0579335880803 0.00152447832127 1.94071586655e-22)
(0.0605671818854 0.00157878626496 1.31678925712e-22)
(0.0596115145323 0.00205451459391 1.54185914602e-22)
(0.0622688960177 0.00178554715183 8.99894603528e-23)
(0.0612532430885 0.00250319877526 1.21004916591e-22)
(0.0642494553302 0.00187064895204 6.73633105232e-23)
(0.0631278992947 0.00285135868675 9.75742175414e-23)
(0.0665897343016 0.00180589409414 3.56352024325e-23)
(0.0653572374687 0.00307449335406 7.40594648187e-23)
(0.069326829627 0.0015406015736 1.57900294091e-23)
(0.067991587944 0.00313813562215 4.12690170578e-23)
(0.0724762160612 0.00105569634999 2.20852233741e-23)
(0.0710554343381 0.00299094537641 1.89824284204e-23)
(0.0745544773813 0.00260544088872 3.16881745714e-23)
(0.0544632975288 0.000810737750377 1.93754069776e-22)
(0.0529216548008 0.000511523251539 1.3877385147e-22)
(0.0565759928298 0.00159122621755 2.12667819261e-22)
(0.0551738885342 0.0014881602502 2.56577092264e-22)
(0.0584292750799 0.00233285193563 1.5856694802e-22)
(0.0571918926495 0.00241608409368 1.67271392811e-22)
(0.0601254707216 0.00301115968706 1.4351190548e-22)
(0.058933135692 0.00332426961459 1.44669963896e-22)
(0.0619286523839 0.00360302845034 1.28589673779e-22)
(0.0606613088007 0.00416937681317 1.41569127936e-22)
(0.0640366213865 0.00409030687197 1.04270371837e-22)
(0.0626405717559 0.00492724690177 1.09408863125e-22)
(0.0665391560542 0.00444507850237 7.96932794439e-23)
(0.0650024475186 0.00557462618418 9.58981348106e-23)
(0.0694751486555 0.00462466266887 4.4461416069e-23)
(0.0678120557613 0.00607998533531 9.12002382704e-23)
(0.0728694843684 0.00458709439824 2.85853796176e-23)
(0.0710931639811 0.00639346549169 7.42111776267e-23)
(0.0748718115953 0.00647781351677 4.93875995827e-23)
(0.0534876977636 0.00116935483159 2.01596873958e-22)
(0.051752236712 0.000698810276426 1.92299858719e-22)
(0.0556316756901 0.002317731288 2.11180665813e-22)
(0.0540254394418 0.00203717388685 2.26741181743e-22)
(0.0575297864861 0.00343680969081 1.53374408687e-22)
(0.0560727359522 0.00334989971906 1.62884473703e-22)
(0.0592910728297 0.00451054302948 1.42727186352e-22)
(0.057859322682 0.00465722281855 1.52197862686e-22)
(0.0611793634416 0.00552167869079 1.22388317281e-22)
(0.0596501000958 0.00592037934076 1.42179389296e-22)
(0.0633985021399 0.00644689116205 1.01036626098e-22)
(0.0617153052091 0.00711455381682 1.01188126179e-22)
(0.0660477258544 0.00724970239316 1.07405093637e-22)
(0.0641996173928 0.00822185898876 8.79789216015e-23)
(0.0691713808606 0.00789669152369 1.20949999828e-22)
(0.0671651276702 0.00920986564754 1.05764972063e-22)
(0.0728019389527 0.00834557915486 9.50133975917e-23)
(0.0706444585499 0.0100321898659 1.16233074549e-22)
(0.0746790099416 0.0106414954392 6.33631740421e-23)
(0.0521436465223 0.00153508951669 2.17444166504e-22)
(0.0502170773935 0.000886711418082 2.37216517973e-22)
(0.0543046075481 0.00306684050131 1.78444989633e-22)
(0.0524936087736 0.00259991185839 8.31305160499e-23)
(0.0562315306339 0.00458714012887 1.61707927702e-22)
(0.0545523499943 0.00431189709877 1.09663270691e-22)
(0.0580380716467 0.00608055945055 1.5165006563e-22)
(0.0563658146272 0.00603425574344 1.29608302989e-22)
(0.0599916920914 0.00752909474097 1.20979198194e-22)
(0.0582014824209 0.00773519987151 1.36139901154e-22)
(0.0623032621454 0.00891553097448 8.81304216818e-23)
(0.0603288066051 0.00939321963242 1.02821871402e-22)
(0.0650802727915 0.0102089227262 8.63388000273e-23)
(0.0629062013018 0.0109965756083 7.74419763657e-23)
(0.0683756245999 0.0113775796343 1.01048046784e-22)
(0.065996533353 0.0125116349662 8.34062584573e-23)
(0.0722295115828 0.0123638649023 8.45828509995e-23)
(0.0696583648914 0.0138967580039 8.25067954586e-23)
(0.0739308514639 0.0151066095648 5.21466402839e-23)
(0.0504184010687 0.00190691561025 1.02902867518e-22)
(0.0483100869974 0.00107824087909 1.5843993968e-22)
(0.0525791825372 0.00382988647549 1.43487971075e-23)
(0.0505705527046 0.00316917965146 -1.48305519872e-22)
(0.0545159823949 0.0057641613472 7.75636459774e-23)
(0.0526179814236 0.00528655450224 -8.37452088324e-23)
(0.0563459717045 0.00769278423948 1.14098138513e-22)
(0.0544370931326 0.00743377170641 4.7149528664e-23)
(0.0583411895698 0.00960203937294 1.17982574362e-22)
(0.0562921329428 0.0095906936258 1.40346432029e-22)
(0.0607173932433 0.0114767759014 9.21334260861e-23)
(0.0584539949157 0.0117366778625 1.20964663846e-22)
(0.0635860550126 0.0132999032236 7.45094347957e-23)
(0.061083037976 0.0138648453027 9.39866793009e-23)
(0.0670158718095 0.0150371150668 6.48650071321e-23)
(0.0642593766025 0.0159512553973 7.76010290165e-23)
(0.071066371508 0.0166523822356 5.0070584743e-23)
(0.0680432860507 0.0179626498161 7.90687728235e-23)
(0.0725197857857 0.0198665341777 9.01331104532e-23)
(0.0483132724973 0.00228417070506 -9.27684477107e-23)
(0.0460258388534 0.00126596126931 8.67121024695e-23)
(0.0504508537578 0.0045972958595 -2.46399525812e-22)
(0.0482573391159 0.00373379423454 -4.25042984381e-22)
(0.0523731263667 0.00694727326643 -1.14159326146e-22)
(0.0502679041608 0.00625665773619 -3.61700151448e-22)
(0.0542010874615 0.00931890545343 7.3397822181e-23)
(0.0520653521187 0.00883290374497 -7.82050778726e-23)
(0.056207058759 0.0117073419145 1.43328521513e-22)
(0.0539035880746 0.0114564789526 1.51778768726e-22)
(0.0586081886799 0.0140981075651 1.22817917061e-22)
(0.0560631374386 0.0141060929152 1.4610331926e-22)
(0.0615217385049 0.0164826380486 9.70782735217e-23)
(0.0586984545557 0.0167803142984 1.20098795379e-22)
(0.0650286780649 0.0188421894855 9.1804794708e-23)
(0.0618998650413 0.0194701796791 9.18619903579e-23)
(0.0692057337386 0.021143667865 1.19131298534e-22)
(0.0657419827938 0.0221555274384 1.15205311308e-22)
(0.0703060723541 0.0248186999078 1.38214577467e-22)
(0.0458319166156 0.00264554709987 -2.455624342e-22)
(0.0433802152902 0.00144289950941 1.39548039326e-22)
(0.0479206511093 0.00535116456865 -5.40343610016e-22)
(0.0455516336977 0.00427854628454 -6.51718274989e-22)
(0.0498000373222 0.00811895246796 -3.25745903174e-22)
(0.0475000131806 0.00719882694687 -5.9455977829e-22)
(0.0515943836087 0.0109399846559 1.75868672788e-25)
(0.0492442029444 0.0102028677536 -1.87603713053e-22)
(0.0535704198439 0.0138107902492 1.54553566473e-22)
(0.0510326615122 0.0132935928804 1.42281025303e-22)
(0.0559468702371 0.0167352961418 1.43384197579e-22)
(0.0531385240848 0.016453484103 1.71134560495e-22)
(0.058849282086 0.0197013129151 1.14882512215e-22)
(0.0557323688201 0.0196891176024 1.72797337298e-22)
(0.0623616410141 0.0227097505698 1.15262506958e-22)
(0.0588914515029 0.0230007325418 1.38654744706e-22)
(0.0665601745179 0.0257418411529 1.34288590241e-22)
(0.0627100565 0.0263796203354 1.73772862009e-22)
(0.0672664767369 0.0298192999868 1.48897052927e-22)
(0.0429765896714 0.0029879750411 -2.66607801462e-22)
(0.0403921703431 0.00161091035676 3.68310074562e-22)
(0.0449903524661 0.00606905771808 -7.05934443263e-22)
(0.0424704698323 0.00479020705604 -6.68619648678e-22)
(0.046794836848 0.00924563426146 -4.56417588168e-22)
(0.0443233370881 0.00808882441782 -6.55851960241e-22)
(0.0485188330349 0.0125114887963 -4.54985564221e-23)
(0.0459782312707 0.0115104649544 -2.26496289872e-22)
(0.05042234577 0.0158713402314 1.58862019325e-22)
(0.0476726870989 0.015061404644 1.25394546469e-22)
(0.0527246654386 0.019328648389 2.00547700214e-22)
(0.0496811061172 0.0187313168411 1.77453106759e-22)
(0.055557163337 0.0228974531281 1.96569569788e-22)
(0.0521634920861 0.0225347433533 1.91893181346e-22)
(0.0590086637899 0.026563940732 1.97165099757e-22)
(0.0552250012023 0.0264792337153 1.74940926449e-22)
(0.0631529145994 0.0303217132058 1.88381324694e-22)
(0.0589524961174 0.0305603175759 2.08025064028e-22)
(0.0634049308795 0.034775755718 1.76336404126e-22)
(0.0397642227711 0.0033099562271 -3.37017726538e-23)
(0.0370821658694 0.00176590917456 1.03439386415e-21)
(0.0416743416776 0.00675223258953 -6.18537165657e-22)
(0.0390281287895 0.00525905195987 -3.36019505991e-22)
(0.0433709320432 0.0103054802376 -4.25930661946e-22)
(0.0407699985899 0.00890658697809 -4.29557079676e-22)
(0.0449814754672 0.0140005287932 -5.56031869809e-23)
(0.0422830634172 0.0127196568358 -1.29279179273e-22)
(0.0467635025563 0.0178363246253 1.43985633903e-22)
(0.0438367753729 0.0167145587532 1.42227082417e-22)
(0.0489348117749 0.0218346323608 1.68798587891e-22)
(0.0456826954287 0.0208849761478 1.75584403142e-22)
(0.0516340915134 0.0260018538132 1.70264538007e-22)
(0.0479962651002 0.0252555797604 1.80592684355e-22)
(0.054958005524 0.0303364806012 1.85800890721e-22)
(0.0508904825981 0.029840115534 2.10086262965e-22)
(0.0589784850443 0.0348414620323 1.9598014346e-22)
(0.0544479266584 0.0346285812788 2.59292045334e-22)
(0.0587293325997 0.0396113923301 2.43632397377e-22)
(0.0362388956382 0.00359845859441 7.3207613081e-22)
(0.0334836836682 0.00189399557508 1.70880809834e-21)
(0.0380061987321 0.00735309416191 -1.4703942001e-22)
(0.0352734447011 0.00566444953784 1.16603534333e-22)
(0.0395555336564 0.011275698823 -1.32905597003e-22)
(0.0368472984562 0.00962424517985 -1.23284227036e-22)
(0.0410024956349 0.0153588113517 6.85510901246e-23)
(0.0381998799309 0.0137883021098 1.89878431297e-23)
(0.0426013079075 0.0196547233836 1.73825851655e-22)
(0.0395407425401 0.0181961932778 1.88481900746e-22)
(0.0445725626151 0.0241817006144 1.87378499605e-22)
(0.0411557249551 0.0228496084322 2.27171406303e-22)
(0.0470654242754 0.0289508046868 2.20414409312e-22)
(0.0432271845156 0.0277838609684 3.73814000192e-22)
(0.0501900998897 0.0339717337405 2.83577417578e-22)
(0.0540175592362 0.0392181634072 3.0694429925e-22)
(0.0324412397303 0.00384008305816 1.09333550187e-21)
(0.0340282663052 0.00785557424937 1.40358727308e-22)
(0.0353843238982 0.0120737330749 2.86092130976e-23)
(0.0366105439828 0.0165311185902 1.38918653751e-22)
(0.0379530411612 0.0212562898053 2.41827455394e-22)
(0.0348156238742 0.0194408368855 3.25076900785e-22)
(0.0396450961021 0.0263026043141 4.1360690689e-22)
)
;

boundaryField
{
    back
    {
        type            calculated;
        value           uniform (0 0 0);
    }
    sides
    {
        type            calculated;
        value           nonuniform List<vector> 0();
    }
    bottom
    {
        type            calculated;
        value           uniform (0 0 0);
    }
    front
    {
        type            calculated;
        value           uniform (0 0 0);
    }
    atmosphere
    {
        type            calculated;
        value           nonuniform List<vector> 0();
    }
    floatingObject
    {
        type            calculated;
        value           nonuniform List<vector> 0();
    }
    procBoundary4to0
    {
        type            processor;
        value           nonuniform List<vector> 8((0.0510971448741 -0.000615752396673 -2.96310837938e-22) (0.0528783385329 -0.00181926657466 -3.12370721769e-23) (0.0543280903623 -0.00316921916732 -1.90304520619e-23) (0.0553918636454 -0.00456386011415 8.54966631107e-23) (0.0562814788234 -0.00607146378493 2.23901269646e-23) (0.0572139225846 -0.00769546633838 -5.82820182463e-25) (0.0582760001016 -0.00946152220699 -1.08887759703e-23) (0.0594834017209 -0.0114032136346 -1.00805274374e-23));
    }
    procBoundary4to3
    {
        type            processor;
        value           nonuniform List<vector> 
13
(
(0.0458698121055 0.0330162632906 6.31120452343e-22)
(0.0492018097875 0.0385093774985 9.0538532539e-22)
(0.0532555770569 0.0442038350746 9.96309598116e-22)
(0.0296436006089 0.00198889865014 1.78604355317e-21)
(0.031257916456 0.00598234911761 2.7802435544e-22)
(0.032629132996 0.0102035537526 -2.88253194444e-24)
(0.0337423797369 0.0146656687982 1.0590604725e-22)
(0.036109389709 0.0245544044771 6.5009243445e-22)
(0.0418528977404 0.0316874400883 7.84520043222e-22)
(0.0378424646498 0.0300514359803 1.75004648941e-21)
(0.0318426930654 0.0174525633614 2.92064294284e-22)
(0.0328376818666 0.0225689145182 7.33341879841e-22)
(0.0296991911997 0.0203651338005 1.10480150133e-21)
)
;
    }
    procBoundary4to5
    {
        type            processor;
        value           nonuniform List<vector> 
18
(
(0.0611974546281 -0.0117356893172 -4.2821742992e-24)
(0.0631947509369 -0.0101513644541 5.32471855494e-24)
(0.0650648777834 -0.0101979721168 1.68852811624e-23)
(0.0671045216161 -0.0122858039759 1.7054752332e-23)
(0.0693929711036 -0.0122768023764 2.59297039848e-23)
(0.0715824256464 -0.00964370898966 3.72290889462e-23)
(0.0734576730077 -0.00663874775419 3.07838038386e-23)
(0.0749547074165 -0.00330740130642 4.20761494215e-23)
(0.0760499817175 0.000300441037471 4.67200549102e-23)
(0.0767333648796 0.00427000274445 2.65305850778e-24)
(0.0769589868163 0.00853865204965 -1.78332903989e-23)
(0.076684090952 0.013112309632 1.58634314395e-23)
(0.0758021254438 0.018063734324 6.63246809093e-23)
(0.0741398874938 0.0233576574659 2.65769337212e-22)
(0.0715316391983 0.0287817086236 1.12582633172e-22)
(0.0680645995336 0.0341836190908 2.21643348516e-22)
(0.0637523109188 0.0395174547977 2.0084737908e-22)
(0.0585615677397 0.0446926344818 4.02441428592e-22)
)
;
    }
}


// ************************************************************************* //
