/*--------------------------------*- C++ -*----------------------------------*\
| =========                 |                                                 |
| \\      /  F ield         | OpenFOAM: The Open Source CFD Toolbox           |
|  \\    /   O peration     | Version:  v2012                                 |
|   \\  /    A nd           | Website:  www.openfoam.com                      |
|    \\/     M anipulation  |                                                 |
\*---------------------------------------------------------------------------*/
FoamFile
{
    version     2.0;
    format      ascii;
    class       volVectorField;
    location    "0.6";
    object      ddt0(rho,U);
}
// * * * * * * * * * * * * * * * * * * * * * * * * * * * * * * * * * * * * * //

dimensions      [1 -2 -2 0 0 0 0];


internalField   nonuniform List<vector> 
164
(
(-47.6196981982 6.5249832148 -2.55465991817e-19)
(-51.744740974 16.1617392133 -1.43314962044e-18)
(-51.641432658 27.5499850056 -1.04008991761e-19)
(-50.1579992802 39.6928542372 5.31829212351e-19)
(-47.8665186593 52.5318559952 6.38667173068e-19)
(-44.8602509616 66.5098015845 6.33610981081e-19)
(-41.1117017143 82.0098514837 -7.26748144742e-20)
(-36.5692140922 99.483963681 6.5755437971e-19)
(-58.5553623063 6.68353744962 3.16439389793e-20)
(-63.0525612147 16.853244472 -8.54468628718e-20)
(-63.4522278949 28.6796763716 5.35470389243e-19)
(-62.7332243744 41.2440184288 6.56334178125e-19)
(-61.5175749933 54.5786800687 1.16555979613e-19)
(-59.9273021142 69.0934582045 1.47523991393e-19)
(-57.9876887683 85.15142061 8.11623975658e-20)
(-55.6977318916 103.208817093 -4.01970817424e-19)
(-53.1016774884 123.813472682 5.6611860063e-19)
(-50.1914240021 147.597691603 2.54261367919e-19)
(-47.0925766572 175.377765783 -9.61846738423e-19)
(-69.8548956496 6.6541686352 5.35168732912e-19)
(-74.6877496321 17.1436711406 6.71688106353e-19)
(-75.6028072858 29.1838797247 5.843274872e-19)
(-75.6544080848 41.9039382665 6.13740662697e-19)
(-75.4911978794 55.4107798501 -1.34453608154e-19)
(-75.2865410037 70.0827761707 -2.10022655424e-19)
(-75.1208629938 86.274105056 2.33431163806e-19)
(-75.0482753533 104.393825352 -3.42687923355e-19)
(-75.2097714728 124.972725057 -7.73174331e-20)
(-75.7617140999 148.602287177 1.48040700289e-22)
(-76.9582989846 175.989538449 -5.03963519234e-19)
(-79.1794345651 208.06898784 1.01921022646e-18)
(-83.0686818992 245.973384653 -1.93641359438e-18)
(-81.2292961477 6.43404434173 3.33752664592e-19)
(-86.3229150866 17.0503220594 -2.26876742481e-19)
(-87.8059548064 29.099062364 3.24550410543e-19)
(-88.6230690565 41.7056024729 2.80305193149e-19)
(-89.4491730285 55.0727515759 3.31861840717e-20)
(-90.5542346903 69.5353504259 1.06382344741e-19)
(-92.0585880542 85.4313900118 4.69769099915e-19)
(-94.092711123 103.140301889 2.45454885778e-19)
(-96.8342540538 123.106424184 -1.02188084099e-19)
(-100.57679948 145.840592996 4.55075451436e-19)
(-105.676158108 171.943179715 4.59922964009e-19)
(-112.672812447 202.122700835 2.69621185854e-19)
(-122.346582835 237.172572372 1.1609789472e-18)
(-135.847991692 277.795724321 6.41463785643e-19)
(-92.4436701922 5.96142715101 -2.40384559354e-19)
(-97.5118865493 16.76904799 -9.77724426719e-20)
(-99.9479215079 28.4432226293 1.57683039372e-19)
(-101.339783955 40.6770371082 1.33157013012e-19)
(-103.067029755 53.6166798117 8.27515894054e-20)
(-105.378450696 67.5354086746 -1.3090775974e-20)
(-108.414042114 82.7643632906 -1.32756680889e-20)
(-112.348221636 99.6245250879 -4.5100227985e-20)
(-117.421194342 118.478686196 1.32185821888e-19)
(-123.965254719 139.7377013 -6.75846011346e-21)
(-132.425617452 163.863905265 -2.40880876814e-19)
(-143.408466262 191.36816634 8.51690024595e-20)
(-157.737385171 222.791408107 -3.93990839565e-19)
(-176.512355006 258.599465438 1.66209130192e-19)
(-103.616757305 6.83671315065 -4.52948243742e-19)
(-109.093673523 16.2109574633 -1.81147545749e-18)
(-111.489616593 26.9439475378 5.53932967617e-20)
(-113.470939594 38.9406988545 2.96072724337e-20)
(-116.048289637 51.1053390102 -5.71868536906e-20)
(-119.44681872 64.2007531844 5.12520271888e-20)
(-123.838815051 78.4531696241 4.44907868212e-20)
(-129.429585683 94.1126899515 1.67456855546e-19)
(-136.492867187 111.45916075 -2.61214108177e-20)
(-145.392083789 130.798066701 9.08496942799e-20)
(-156.605245524 152.454927903 1.13666279883e-19)
(-170.758608248 176.761919922 -1.11058121002e-19)
(-188.667237855 204.048089388 -6.72625738322e-20)
(-211.399968101 234.547782518 -2.98953420991e-19)
(-114.301548884 5.59524698565 -9.41342614134e-19)
(-120.10060257 15.1021014442 -1.09601978623e-18)
(-122.279345286 25.2247504188 -6.7608574037e-19)
(-124.856850097 36.2661776712 -6.50887142689e-20)
(-128.174604887 47.6083264422 2.47787185997e-20)
(-132.506410335 59.6941500367 2.68303947072e-20)
(-138.046056826 72.7315292423 1.20090158392e-19)
(-145.016169576 86.9206769597 -7.86586069565e-20)
(-153.703691653 102.465655276 -6.09016140908e-21)
(-164.479864264 119.573135321 3.42490907639e-19)
(-177.821484244 138.442699881 1.77908315282e-19)
(-194.336279425 159.246051805 2.74196312824e-21)
(-214.791953255 182.120977435 1.42705821113e-18)
(-240.190662565 207.082661932 1.0879004598e-18)
(-123.798526277 5.02354024374 -9.67456705545e-20)
(-129.769280359 13.9017450231 1.06727453263e-18)
(-132.399995811 23.116437256 2.43735009004e-19)
(-135.363483413 33.0728248183 -5.49608160328e-20)
(-139.265445473 43.3572068111 -5.38672345623e-20)
(-144.353171771 54.2390547909 -6.69227167064e-20)
(-150.815225205 65.8681921744 2.12710382024e-21)
(-158.87428995 78.388783383 -5.73249509383e-21)
(-168.813349378 91.9336727811 1.67621917784e-20)
(-180.990854784 106.620629742 7.99750897601e-20)
(-195.85683859 122.539598639 -2.44317439885e-20)
(-213.970510422 139.724914954 -1.16554930687e-20)
(-236.015128127 158.149869275 1.28034583778e-19)
(-262.861736697 177.663174393 -5.65995523575e-19)
(-132.521396584 4.39331284453 -2.11916042729e-19)
(-138.556159438 12.5353549008 1.13440686134e-18)
(-141.474337782 20.7048213149 -2.07997527188e-19)
(-144.780516768 29.4750127123 -6.90398980339e-20)
(-149.148081504 38.5346298277 -3.0081847617e-20)
(-154.82161257 48.0571802469 -1.14305827094e-20)
(-161.983578373 58.1349796239 -1.34130427677e-20)
(-170.847389196 68.85576159 -1.39025558722e-21)
(-181.679626113 80.2872913441 4.88265185644e-20)
(-194.811027455 92.4708125075 3.72159746297e-20)
(-210.647143167 105.406661063 -5.65710108739e-20)
(-229.678675261 119.021990644 -9.44992993769e-20)
(-252.479554107 133.168053469 2.19846656774e-20)
(-279.743995677 147.611768764 1.04555224419e-19)
(-140.242420327 3.71640245853 -1.18636154288e-18)
(-146.312836636 10.9915455826 5.22405481979e-19)
(-149.41053455 18.0247332699 -5.32780518858e-19)
(-152.980919887 25.5439671995 -1.59521314284e-19)
(-157.697404409 33.2803866904 -7.02760381126e-20)
(-163.795217452 41.3451609585 3.68169290029e-21)
(-171.446689193 49.7847312977 -2.42985403403e-20)
(-180.849535575 58.6379156572 -1.47887209719e-20)
(-192.245765142 67.91719399 -1.70982040422e-19)
(-205.929094174 77.6016486413 -9.53290481579e-20)
(-222.250959733 87.6230179423 -1.44531610616e-19)
(-241.624970139 97.8337718935 -6.68322917241e-19)
(-264.512893214 108.00775271 -2.06720695214e-21)
(-291.435924159 117.910209438 -1.27049642885e-19)
(-322.99433949 126.697254009 2.51540308206e-19)
(-359.201086535 133.779353386 -8.85900525977e-19)
(-146.873015552 3.01033020098 -4.277451072e-19)
(-152.943334529 9.31910366166 -1.17413397868e-19)
(-156.140570172 15.1441962586 -5.30960078079e-19)
(-159.888238868 21.3629407156 -3.70097486997e-19)
(-164.837523335 27.7213019769 -1.94419191098e-19)
(-171.207339889 34.278813642 -6.39445319133e-20)
(-179.154754046 41.0447971504 -6.49641897425e-20)
(-188.85679533 48.0183225319 -4.06720693018e-20)
(-200.525878864 55.1678245624 -3.27864768577e-19)
(-214.414085147 62.4247497478 -1.48850559363e-19)
(-230.815572884 69.6715376353 -2.67402396302e-20)
(-250.066903046 76.7120711613 -3.22049420396e-19)
(-272.528795244 83.2735954964 5.14919333057e-19)
(-298.582550747 89.1315705599 1.39736406988e-19)
(-328.688081555 93.5413844373 2.71365698724e-18)
(-362.871083303 95.1603831597 5.11365272572e-19)
(-152.346954203 2.28889678126 -1.4193575205e-18)
(-158.379922017 7.56387461417 -1.0329430206e-18)
(-161.616037598 12.1357515177 -2.22178326497e-19)
(-165.459159638 17.0237979148 -5.87275620557e-19)
(-170.532147807 21.9799494696 -7.41437821868e-20)
(-177.034605461 27.0180543485 -1.2611504481e-19)
(-185.104945264 32.1165628578 -1.3884601056e-19)
(-194.896387108 37.2430283632 -2.02731736855e-20)
(-206.589285718 42.3324242227 -1.92003984075e-19)
(-220.392924239 47.2817488251 -2.37922891934e-20)
(-236.545116046 51.9404692765 -9.03122989593e-20)
(-255.310026422 56.083906495 4.75148745479e-20)
(-276.959681859 59.4125372452 -2.62948988302e-20)
(-301.761901143 61.7085352547 8.19871583755e-20)
(-330.047665048 62.3195980666 1.96178121648e-18)
(-361.814517149 59.51030234 7.71706324666e-19)
)
;

boundaryField
{
    back
    {
        type            calculated;
        value           uniform (0 0 0);
    }
    sides
    {
        type            calculated;
        value           nonuniform List<vector> 0();
    }
    bottom
    {
        type            calculated;
        value           uniform (0 0 0);
    }
    front
    {
        type            calculated;
        value           uniform (0 0 0);
    }
    atmosphere
    {
        type            calculated;
        value           nonuniform List<vector> 0();
    }
    floatingObject
    {
        type            calculated;
        value           nonuniform List<vector> 0();
    }
    procBoundary7to6
    {
        type            processor;
        value           nonuniform List<vector> 
11
(
(-154.586805075 324.805431298 5.59355432683e-18)
(-200.904691254 299.592128643 -2.98131120091e-18)
(-240.124451408 268.679093642 6.9084858225e-19)
(-271.662481679 234.024653765 2.55713581989e-18)
(-295.515620828 197.641980922 -6.49541617126e-19)
(-312.269224255 161.452060221 8.0991657715e-19)
(-312.269224255 161.452060221 8.0991657715e-19)
(-350.33529906 175.278862693 -2.18394233672e-18)
(-400.418155607 141.33682602 -6.37508975876e-18)
(-400.493115111 96.2244186189 -3.62393532952e-18)
(-395.920809706 55.4726733217 -1.17775516274e-17)
)
;
    }
    procBoundary7to8
    {
        type            processor;
        value           nonuniform List<vector> 
17
(
(-37.2663258943 6.20332550734 1.26755173823e-18)
(-40.9996060833 15.0999471785 8.31138840345e-19)
(-40.4138183544 25.793395387 8.41662855939e-19)
(-38.1932290614 37.2323957852 1.01644394348e-18)
(-34.8722206103 49.2601341013 6.37429338362e-19)
(-30.5012215664 62.3359232997 8.66857649775e-20)
(-25.0036734985 76.8518800752 5.96361434463e-19)
(-18.2453133034 93.2257739915 4.66489699565e-19)
(-31.133075336 119.462306595 5.5027808781e-19)
(-31.133075336 119.462306595 5.5027808781e-19)
(-24.7059037716 142.599927953 2.77352335062e-19)
(-17.1656033798 169.709569212 1.34074267286e-18)
(-43.8986916402 208.250316309 4.52570775648e-19)
(-43.8986916402 208.250316309 4.52570775648e-19)
(-40.8890406035 247.791819204 5.44903748939e-20)
(-89.817163152 290.882168189 6.09971779082e-19)
(-89.817163152 290.882168189 6.09971779082e-19)
)
;
    }
    procBoundary7to9
    {
        type            processor;
        value           nonuniform List<vector> 
16
(
(-156.628453444 1.56418772038 -2.14898060169e-19)
(-162.587014741 5.76555377427 9.60844191572e-19)
(-165.812771914 9.06528983512 1.45543860794e-19)
(-169.678900412 12.6145175404 -9.6204286508e-20)
(-174.778084995 16.1699767485 -2.04922953388e-20)
(-181.290034735 19.7056596005 1.25704580364e-20)
(-189.33326846 23.1747247416 -2.06357057202e-20)
(-199.036114547 26.5203952726 -2.74269227511e-20)
(-210.546646846 29.6533771445 -6.21225248976e-20)
(-224.032547294 32.4475101015 -1.07126420436e-20)
(-239.678654621 34.732595286 -8.73896160256e-20)
(-257.683340187 36.27081658 -1.86773142706e-19)
(-278.241036041 36.7514147408 6.60139232818e-19)
(-301.524116957 35.9635829618 2.07064004138e-19)
(-327.736212408 33.3685347326 1.19541528751e-18)
(-356.778685207 27.0904116189 1.23972571882e-18)
)
;
    }
}


// ************************************************************************* //
