/*--------------------------------*- C++ -*----------------------------------*\
| =========                 |                                                 |
| \\      /  F ield         | OpenFOAM: The Open Source CFD Toolbox           |
|  \\    /   O peration     | Version:  v2012                                 |
|   \\  /    A nd           | Website:  www.openfoam.com                      |
|    \\/     M anipulation  |                                                 |
\*---------------------------------------------------------------------------*/
FoamFile
{
    version     2.0;
    format      ascii;
    class       volScalarField;
    location    "0.6";
    object      nut;
}
// * * * * * * * * * * * * * * * * * * * * * * * * * * * * * * * * * * * * * //

dimensions      [0 2 -1 0 0 0 0];


internalField   nonuniform List<scalar> 
164
(
0.00133705701351
0.00194701170196
0.00198090376729
0.00198836364019
0.00199058393225
0.00199212201818
0.00199379738488
0.00199573679458
0.00133753040269
0.00194812829726
0.001981510406
0.00198861440074
0.00199062689174
0.00199199408218
0.00199348426428
0.00199521034663
0.00199718712481
0.00199941591008
0.00200189912294
0.00133782930697
0.00194890082722
0.00198182203423
0.00198862115516
0.00199045602596
0.0019916734718
0.0019929990627
0.00199453446375
0.00199629166964
0.00199827194495
0.00200047673113
0.00200291288952
0.00200563308534
0.00133798629064
0.00194935183673
0.00198186707141
0.00198841352135
0.00199009901011
0.00199118589745
0.00199236576063
0.00199373140941
0.00199529327362
0.00199705165452
0.00199900705223
0.00200116860969
0.00200359960165
0.00200673730954
0.00133803110989
0.00194950362571
0.00198167468208
0.00198802004631
0.00198958234193
0.00199055585428
0.00199160684253
0.0019928220757
0.00199421175949
0.00199577464655
0.00199750878623
0.00199942131562
0.00200158116649
0.00200447421214
0.00133798848274
0.00194938238743
0.00198127593011
0.00198746759332
0.00198893076191
0.00198980680583
0.00199074459151
0.00199182683581
0.00199306145222
0.00199444758775
0.00199598382061
0.00199767646377
0.00199959867744
0.00200225689102
0.00133791156732
0.00194898168677
0.00198068614888
0.0019867786605
0.00198816587929
0.00198895773593
0.00198979533847
0.00199075971604
0.00199185819781
0.00199308947971
0.0019944516369
0.00199595079201
0.00199766143098
0.00200009399788
0.00133768777838
0.00194843052208
0.00197997969614
0.00198598889023
0.0019873100378
0.00198802812122
0.00198877788105
0.00198963897598
0.00199061825255
0.00199171401532
0.00199292393649
0.00199425373797
0.00199577681968
0.00199799428364
0.00133732870852
0.00194776122764
0.00197917960954
0.00198511752097
0.0019863813493
0.00198703516023
0.0019877083722
0.00198847950548
0.00198935501106
0.0019903328842
0.00199141046957
0.00199259290883
0.00199395064224
0.00199596546817
0.00133685340082
0.00194699402142
0.00197830398083
0.00198418139485
0.00198539584537
0.00198599404687
0.00198660100637
0.00198729430295
0.00198808006604
0.00198895605073
0.0019899193341
0.00199097434796
0.0019921872678
0.00199401374614
0.00199888419821
0.00201702722699
0.00133627978012
0.00194614679506
0.00197736858656
0.00198319522937
0.00198436751414
0.00198491799333
0.00198546806223
0.00198609452661
0.00198680325297
0.00198759181043
0.0019884570612
0.00198940266567
0.00199048970361
0.00199214349674
0.00199665636811
0.00201382278578
0.00133562422675
0.00194523546986
0.00197638720252
0.00198217182139
0.00198330848849
0.00198381841734
0.00198432009092
0.00198488968098
0.00198553283597
0.00198624697768
0.00198702879548
0.00198788116235
0.00198885967764
0.00199035735974
0.00199452003218
0.00201067644855
)
;

boundaryField
{
    back
    {
        type            nutkWallFunction;
        blending        stepwise;
        Cmu             0.09;
        kappa           0.41;
        E               9.8;
        value           nonuniform List<scalar> 
164
(
0.000170648947312
0.000184693014067
0.000187478126131
0.000188067549458
0.000188241021019
0.000188364352813
0.000188500257892
0.000188658025842
0.000170696079089
0.000184778212403
0.000187521449059
0.000188082757204
0.000188239752175
0.000188349111103
0.000188469599742
0.000188609481954
0.000188769811087
0.000188950761452
0.000189152496422
0.000170724753284
0.00018483480847
0.000187540799333
0.000188078338031
0.00018822130767
0.000188318413014
0.000188425204923
0.000188549131985
0.000188691039246
0.000188851015197
0.000189029158715
0.000189225953741
0.000189445262386
0.000170738798288
0.000184864664935
0.000187538561373
0.000188056774008
0.000188188023077
0.000188274451645
0.000188369131837
0.000188478876295
0.000188604413518
0.000188745751192
0.000188902906035
0.000189076302114
0.000189270173099
0.000189517265246
0.00017074169369
0.000184869652174
0.000187517207566
0.000188020449052
0.000188142111198
0.000188219279464
0.000188303271479
0.00018840049126
0.000188511556079
0.000188636351693
0.000188774740328
0.000188927063545
0.000189098000487
0.000189322211955
0.000170736761361
0.000184851423223
0.000187479152525
0.000187971550767
0.000188085606062
0.000188154792758
0.000188229360509
0.000188315457949
0.000188413616001
0.000188523714871
0.000188645565923
0.000188779461419
0.000188930210259
0.000189132996106
0.000170722740937
0.000184813997283
0.000187427651716
0.00018791247189
0.000188020383953
0.000188082625852
0.000188148896046
0.000188225220723
0.000188312083274
0.000188409324319
0.00018851671108
0.000188634498489
0.000188767450211
0.000188950225487
0.000170692415436
0.00018476528947
0.000187367255781
0.000187845644343
0.000187948216681
0.000188004389472
0.000188063409005
0.000188131202887
0.00018820821696
0.000188294260965
0.000188389070349
0.0001884928573
0.00018861020459
0.000188774463087
0.000170647748288
0.000184707459035
0.000187299721464
0.000187772636548
0.000187870589534
0.000187921490907
0.000187974213979
0.000188034606443
0.00018810308513
0.000188179437517
0.00018826337638
0.000188355066845
0.000188458813698
0.000188606123379
0.000170590897693
0.000184642161437
0.000187226521192
0.0001876948232
0.000187788809584
0.000187835164509
0.000187882457401
0.000187936471658
0.00018799760199
0.000188065620377
0.00018814022365
0.000188221527048
0.000188313498229
0.000188445469864
0.000188781059525
0.000190041600169
0.000170523870626
0.000184570862059
0.000187148935329
0.000187613397743
0.000187704009016
0.000187746475298
0.000187789122401
0.000187837682404
0.000187892533143
0.000187953436028
0.000188020077289
0.000188092523473
0.000188174371765
0.000188292619634
0.000188599663931
0.000189778816954
0.000170448484315
0.000184494856049
0.000187068075489
0.000187529390606
0.00018761716172
0.00018765633482
0.00018769504411
0.000187738981017
0.000187788510255
0.000187843386174
0.000187903288399
0.000187968237431
0.000188041453396
0.000188147570371
0.000188427648678
0.000189526138126
)
;
    }
    sides
    {
        type            nutkWallFunction;
        blending        stepwise;
        Cmu             0.09;
        kappa           0.41;
        E               9.8;
        value           nonuniform List<scalar> 0();
    }
    bottom
    {
        type            nutkWallFunction;
        blending        stepwise;
        Cmu             0.09;
        kappa           0.41;
        E               9.8;
        value           nonuniform List<scalar> 
12
(
9.07760728166e-05
9.08010925206e-05
9.08163140774e-05
9.08237697938e-05
9.08253068023e-05
9.08226885019e-05
9.08152458331e-05
9.07991476875e-05
9.07754363194e-05
9.074525737e-05
9.0709676203e-05
9.0669657458e-05
)
;
    }
    front
    {
        type            nutkWallFunction;
        blending        stepwise;
        Cmu             0.09;
        kappa           0.41;
        E               9.8;
        value           nonuniform List<scalar> 
164
(
0.000170648947312
0.000184693014067
0.000187478126131
0.000188067549458
0.000188241021019
0.000188364352813
0.000188500257892
0.000188658025842
0.000170696079089
0.000184778212403
0.000187521449059
0.000188082757204
0.000188239752175
0.000188349111103
0.000188469599742
0.000188609481954
0.000188769811087
0.000188950761452
0.000189152496422
0.000170724753284
0.00018483480847
0.000187540799333
0.000188078338031
0.00018822130767
0.000188318413014
0.000188425204923
0.000188549131985
0.000188691039246
0.000188851015197
0.000189029158715
0.000189225953741
0.000189445262386
0.000170738798288
0.000184864664935
0.000187538561373
0.000188056774008
0.000188188023077
0.000188274451645
0.000188369131837
0.000188478876295
0.000188604413518
0.000188745751192
0.000188902906035
0.000189076302114
0.000189270173099
0.000189517265246
0.00017074169369
0.000184869652174
0.000187517207566
0.000188020449052
0.000188142111198
0.000188219279464
0.000188303271479
0.00018840049126
0.000188511556079
0.000188636351693
0.000188774740328
0.000188927063545
0.000189098000487
0.000189322211955
0.000170736761361
0.000184851423223
0.000187479152525
0.000187971550767
0.000188085606062
0.000188154792758
0.000188229360509
0.000188315457949
0.000188413616001
0.000188523714871
0.000188645565923
0.000188779461419
0.000188930210259
0.000189132996106
0.000170722740937
0.000184813997283
0.000187427651716
0.00018791247189
0.000188020383953
0.000188082625852
0.000188148896046
0.000188225220723
0.000188312083274
0.000188409324319
0.00018851671108
0.000188634498489
0.000188767450211
0.000188950225487
0.000170692415436
0.00018476528947
0.000187367255781
0.000187845644343
0.000187948216681
0.000188004389472
0.000188063409005
0.000188131202887
0.00018820821696
0.000188294260965
0.000188389070349
0.0001884928573
0.00018861020459
0.000188774463087
0.000170647748288
0.000184707459035
0.000187299721464
0.000187772636548
0.000187870589534
0.000187921490907
0.000187974213979
0.000188034606443
0.00018810308513
0.000188179437517
0.00018826337638
0.000188355066845
0.000188458813698
0.000188606123379
0.000170590897693
0.000184642161437
0.000187226521192
0.0001876948232
0.000187788809584
0.000187835164509
0.000187882457401
0.000187936471658
0.00018799760199
0.000188065620377
0.00018814022365
0.000188221527048
0.000188313498229
0.000188445469864
0.000188781059525
0.000190041600169
0.000170523870626
0.000184570862059
0.000187148935329
0.000187613397743
0.000187704009016
0.000187746475298
0.000187789122401
0.000187837682404
0.000187892533143
0.000187953436028
0.000188020077289
0.000188092523473
0.000188174371765
0.000188292619634
0.000188599663931
0.000189778816954
0.000170448484315
0.000184494856049
0.000187068075489
0.000187529390606
0.00018761716172
0.00018765633482
0.00018769504411
0.000187738981017
0.000187788510255
0.000187843386174
0.000187903288399
0.000187968237431
0.000188041453396
0.000188147570371
0.000188427648678
0.000189526138126
)
;
    }
    atmosphere
    {
        type            calculated;
        value           nonuniform List<scalar> 0();
    }
    floatingObject
    {
        type            nutkWallFunction;
        blending        stepwise;
        Cmu             0.09;
        kappa           0.41;
        E               9.8;
        value           nonuniform List<scalar> 0();
    }
    procBoundary7to6
    {
        type            processor;
        value           nonuniform List<scalar> 
11
(
0.00201308539037
0.00201074319445
0.00200835794522
0.00200595187677
0.00200355323797
0.00200118938531
0.00200118938531
0.00202023465755
0.00208084660352
0.0020753367188
0.00206972113864
)
;
    }
    procBoundary7to8
    {
        type            processor;
        value           nonuniform List<scalar> 
17
(
0.00133637713923
0.00194553853213
0.00197997865756
0.00198784049575
0.00199029812577
0.00199202851913
0.00199391071335
0.00199608889325
0.00199795833582
0.00199795833582
0.00200046428337
0.00200325817897
0.00200464438127
0.00200464438127
0.00200769832746
0.0020090239562
0.0020090239562
)
;
    }
    procBoundary7to9
    {
        type            processor;
        value           nonuniform List<scalar> 
16
(
0.00133490155335
0.00194427412851
0.00197537181935
0.00198112223746
0.0019822292166
0.00198270510327
0.00198316606973
0.00198368776946
0.00198427566342
0.00198492705346
0.00198563848132
0.00198641203722
0.00198729776078
0.00198865597407
0.00199248396535
0.00200763074722
)
;
    }
}


// ************************************************************************* //
