/*--------------------------------*- C++ -*----------------------------------*\
| =========                 |                                                 |
| \\      /  F ield         | OpenFOAM: The Open Source CFD Toolbox           |
|  \\    /   O peration     | Version:  v2012                                 |
|   \\  /    A nd           | Website:  www.openfoam.com                      |
|    \\/     M anipulation  |                                                 |
\*---------------------------------------------------------------------------*/
FoamFile
{
    version     2.0;
    format      ascii;
    class       volScalarField;
    location    "2.2";
    object      alpha.water;
}
// * * * * * * * * * * * * * * * * * * * * * * * * * * * * * * * * * * * * * //

dimensions      [0 0 0 0 0 0 0];


internalField   nonuniform List<scalar> 
1984
(
1.00000028928
1.00000033865
1.00000038811
1.00000044781
1.00000051202
1.00000056741
1.00000056607
1.00000050712
1.00000046803
1.00000003581
0.999999752726
0.999999459867
0.999999113528
0.999998854812
0.999999165338
0.999999402139
0.999999922818
0.834332525585
0.138903379364
0.000597293843249
1.00000031908
1.00000036442
1.00000041808
1.00000047755
1.00000053637
1.0000005805
1.0000005729
1.00000052487
1.00000039538
0.999999914272
0.999999632124
0.999999360096
0.999998852963
0.999998812612
0.999999119721
0.999999379863
0.999999944574
0.837386305827
0.123285399684
2.96358677538e-19
1.00000030586
1.00000034891
1.00000040599
1.00000046872
1.00000052945
1.00000056936
1.0000005892
1.00000042616
1.00000034692
0.999999796671
0.999999517085
0.999999279618
0.999998715818
0.999998677527
0.999999023583
0.999999354552
0.999999960609
0.8294284138
0.115806797105
-5.11138503557e-10
1.00000026848
1.00000030978
1.00000036924
1.00000043697
1.000000498
1.00000054142
1.00000051726
1.00000045931
1.00000013844
0.999999627363
0.999999283059
0.999999148642
0.999998595081
0.999998552189
0.999998939507
0.999999324923
0.999999970037
0.817981267407
0.106214848662
-2.13614351606e-10
1.00000021966
1.00000026013
1.00000032344
1.00000039436
1.00000045328
1.00000049127
1.00000048576
1.00000032304
1.0000000791
0.999999494703
0.999998787805
0.999998814244
0.999998480846
0.999998489002
0.999998904959
0.999999328159
0.999999973947
0.806157873833
0.0987697639826
-1.3262016811e-11
1.00000017066
1.00000021201
1.000000278
1.00000035129
1.00000040766
1.00000043618
1.0000004248
1.0000002526
0.999999973536
0.999999668921
0.999998805313
0.999998582703
0.999998282937
0.999998398097
0.9999989346
0.999999371376
0.999999974792
0.791089591507
0.0917002118206
-9.8804054022e-14
1.00000012917
1.00000017286
1.00000024109
1.00000031565
1.00000037121
1.00000039277
1.00000037218
1.00000021922
0.99999991575
0.999999604174
0.999998770287
0.999998441293
0.999998282937
0.999998326108
0.999998995395
0.999999440352
0.999999974812
0.770015009644
0.076543891072
9.30405090501e-26
1.0000001018
1.00000014938
1.00000021929
1.00000029373
1.00000034857
1.0000003673
1.00000033959
1.00000020207
0.999999936575
0.999999530433
0.999998839944
0.999998365732
0.999998282937
0.999998422111
0.999999082059
0.999999558371
0.999999974821
0.749691820427
0.0641338748284
-8.65493107442e-26
1.00000009311
1.00000014579
1.00000021664
1.0000002895
1.00000034234
1.00000036093
1.00000033331
1.00000021398
0.999999966929
0.999999615904
0.999998896675
0.999998349508
0.999998401698
0.999998595634
0.999999154584
0.999999597583
0.999999974821
0.723612218289
0.0516847235923
-2.00990579364e-22
1.0000001053
1.00000016363
1.00000023456
1.00000030421
1.0000003541
1.00000037141
1.00000034736
1.00000024234
1.00000003691
0.999999757791
0.999999049134
0.999998349583
0.99999838988
0.999998680045
0.999999180707
0.99999962332
0.999999974821
0.695294462629
0.0403535737537
-2.39717886867e-20
1.00000013804
1.00000020181
1.00000027166
1.00000033685
1.00000038169
1.00000039788
1.00000037493
1.00000029495
1.000000124
0.999999904472
0.999999229627
0.999998739993
0.999998492229
0.999998620571
0.999999246605
0.999999639075
0.999999974623
0.665969314027
0.030830697384
0.00011397366588
1.00000018837
1.00000025643
1.00000032406
1.00000038341
1.00000042195
1.00000043251
1.00000041415
1.00000032226
1.00000024301
1.00000002221
0.999999544349
0.999999321338
0.999998913266
0.999998880331
0.999999364801
0.999999644067
0.999999974535
0.636204672778
0.0225406639079
9.40944080299e-05
1.00000025074
1.00000032103
1.00000038479
1.00000043683
1.0000004664
1.00000047028
1.000000451
1.00000038129
1.00000031227
1.0000001382
0.999999868643
0.999999580561
0.999999354311
0.999999354332
0.999999342577
0.999999629641
0.999999975359
0.607710698376
0.0161326709918
6.09479530377e-06
1.00000031887
1.000000388
1.00000044466
1.00000048724
1.00000050976
1.00000050947
1.00000049638
1.00000044065
1.00000033095
1.00000022484
0.999999974987
0.999999613144
0.999999466393
0.999998933719
0.999999330369
0.999999712357
0.999999975362
0.581953325432
0.0113278388004
-1.08805864069e-08
1.00000039495
1.00000045707
1.00000049782
1.0000005343
1.00000057234
1.00000058337
1.00000057839
1.00000051185
1.00000035733
1.00000019253
0.999999944473
0.999999375393
0.999998704125
0.999998589739
0.99999919995
0.999999895272
0.999999975363
0.559518836488
0.00781745864336
-1.06084264906e-15
1.00000051054
1.00000055107
1.00000056214
1.00000062567
1.00000070208
1.00000070366
1.00000060267
1.00000059692
1.00000037017
1.00000014493
0.999999882163
0.999999130792
0.999998619165
0.999998589739
0.999999225074
0.999999900714
0.999999975363
0.54116312466
0.00588186740161
4.81123694859e-23
1.00000063721
1.0000006474
1.00000069816
1.00000082021
1.00000077618
1.00000080137
1.00000064919
1.00000071355
1.0000003989
1.00000019735
0.999999894391
0.999999366356
0.999998801587
0.999998645349
0.999999371498
0.999999970339
0.999999975363
0.524816527803
0.00468003490983
-8.71493859654e-23
1.00000074975
1.00000079924
1.00000092633
1.00000080334
1.00000092439
1.00000093609
1.00000060154
1.00000041149
1.00000024368
1.00000008715
0.999999890624
0.999999710803
0.999999487524
0.999998878388
0.999999447166
0.999999924839
0.999999975199
0.516043835296
0.00409004617917
7.56279417191e-22
1.00000083171
1.00000091241
1.00000104679
1.00000087281
1.00000099461
1.00000059283
1.00000038785
1.00000025577
1.0000001275
0.999999994107
0.999999844706
0.999999684837
0.999999510968
0.999999336486
0.999999543413
0.999999918813
0.999999974869
0.514201251587
0.00396769265157
4.94835788941e-05
1.00000063543
1.00000070702
1.00000097605
1.0000008411
1.00000063243
1.0000004462
1.00000029611
1.0000001773
1.00000005659
0.999999932606
0.999999786195
0.999999629493
0.999999441405
0.999999336303
0.999999461501
0.999999911726
0.999999973856
0.516425569069
0.004102311169
-1.20331618069e-20
1.00000055048
1.00000060033
1.00000068009
1.00000060026
1.00000050903
1.00000037861
1.00000026458
1.00000015694
1.00000004101
0.999999922042
0.999999800267
0.999999689073
0.999999559806
0.999999459197
0.99999962578
0.999999922291
0.999999971685
0.522347478733
0.00459678252275
2.35506444489e-22
1.00000049028
1.0000005243
1.00000056881
1.00000051729
1.00000045238
1.00000036747
1.00000028102
1.00000018656
1.00000007666
0.999999971455
0.999999864891
0.999999765736
0.999999635146
0.999999366479
0.999999814518
0.999999941477
0.999999969326
0.531153242273
0.00535306452253
-7.51464390537e-24
1.00000046589
1.00000049104
1.0000005192
1.00000050008
1.00000046938
1.00000042134
1.0000003596
1.00000027807
1.00000016543
1.00000003229
0.999999914959
0.999999789845
0.999999608874
0.9999993353
0.99999986174
0.999999925299
0.999999967136
0.541086719133
0.00616981199421
-3.31829889342e-26
1.00000046707
1.00000049731
1.00000052836
1.0000005384
1.00000053668
1.00000051525
1.0000004765
1.00000040832
1.00000028694
1.00000010226
0.999999948726
0.99999979842
0.999999614919
0.999999326007
0.999999519373
0.99999989774
0.999999964316
0.549939321243
0.00642356895952
-4.53054909733e-15
1.00000048661
1.00000052239
1.00000055833
1.00000058472
1.00000059931
1.00000059815
1.00000059578
1.00000053882
1.00000046274
1.00000018409
1
0.999999851797
0.999999673434
0.999999326007
0.999999668057
0.999999893006
0.999999959314
0.55608080298
0.00567233755053
-4.24497254908e-15
1.00000053177
1.00000057581
1.00000061589
1.00000064968
1.00000066784
1.00000068387
1.00000068785
1.00000065928
1.00000067688
1.00000024069
1.00000003807
0.999999936409
0.999999802878
0.999999423675
0.999999839276
0.999999877024
0.999999945261
0.559187785231
0.0035978072498
0
1.00000044009
1.00000047314
1.00000049144
1.00000050016
1.00000049471
1.00000050715
1.00000050876
1.00000051944
1.00000064529
1.0000003498
1.00000028375
1.00000021097
1.00000013974
0.999999951857
0.999999870918
0.999999876925
0.999386008944
0.559649113295
0.000117468361387
-1.46586328865e-22
1.00000039645
1.00000043299
1.00000045468
1.00000046701
1.00000046101
1.00000044659
1.00000042024
1.00000040582
1.00000048933
1.00000031332
1.0000002666
1.00000022418
1.00000016898
0.999999914757
0.999999607786
0.999999875547
0.999363471003
0.551151931527
0
-1.24756392723e-30
1.00000035883
1.00000040065
1.00000043207
1.00000045566
1.00000045562
1.00000040425
1.00000033786
1.00000030339
1.00000030533
1.00000026488
1.00000023279
1.00000018309
1.00000014103
0.999999927829
0.999999602428
0.999999844308
0.999216668515
0.539456249065
-2.09528134224e-20
-2.4786706114e-20
1.0000003407
1.00000039265
1.00000042728
1.00000045292
1.00000045146
1.00000037283
1.00000029122
1.00000025381
1.00000021883
1.00000019482
1.00000019336
1.0000001558
1.00000012424
0.999999934114
0.999999722477
0.999999814374
0.998823855955
0.52674212172
-5.96391780542e-18
-6.82010101207e-21
1.00000032791
1.00000037243
1.00000040268
1.00000042547
1.00000041968
1.00000035757
1.00000029382
1.00000021252
1.00000015443
1.00000013307
1.00000015105
1.00000014092
1.0000001154
0.999999930614
0.999999813336
0.999999880037
0.998273679335
0.515041347977
-6.32114679684e-19
-3.48688005157e-20
1.000000281
1.00000031908
1.00000035363
1.00000037521
1.0000003646
1.00000035638
1.00000026541
1.00000017307
1.00000010452
1.00000007871
1.00000010139
1.00000012745
1.0000001002
0.999999904301
0.999999903176
0.999999901879
0.997756323331
0.510520005649
-5.54265293806e-18
-2.50377223273e-18
1.00000022748
1.00000026551
1.00000029865
1.00000031036
1.00000032176
1.00000026843
1.0000001497
1.0000001373
1.0000000523
1.00000002218
1.00000003496
1.00000010326
1.00000006043
0.999999846375
0.999999859205
0.999999886135
0.997466275593
0.518443860542
-1.42484469603e-20
-3.10520605086e-14
1.00000017172
1.00000019352
1.00000023316
1.00000023635
1.00000016409
1.00000000974
1.00000004556
1.00000010189
0.999999991289
0.999999956655
0.999999946183
1.00000005794
0.999999979908
0.99999976302
0.999999807357
0.999999833183
0.997886838364
0.535772581836
1.61210653827e-38
-7.46862952413e-12
1.00000012028
1.00000011486
1.00000012078
1.0000000322
0.999999876561
0.999999870699
1.00000007357
1.00000005463
0.999999919277
0.999999871957
0.999999824471
0.999999991831
0.999999873139
0.999999636124
0.999999749737
0.999999740804
0.999254954861
0.550113755394
3.16959490702e-33
-9.55922608264e-13
1.00000007077
1.00000007034
0.999999915002
0.999999858124
0.999999852694
0.999999948607
1.00000013739
1.00000000743
0.999999846203
0.9999997747
0.999999684973
0.999999896007
0.99999975081
0.999999481373
0.999999561674
0.999999614783
0.999558230143
0.550512721457
5.30369861088e-35
-5.00629578456e-29
0.999999854479
0.999999903202
0.999999853202
0.999999852311
0.999999924726
1.00000016151
1.00000016052
0.999999966528
0.999999756111
0.999999654086
0.999999514517
0.999999820496
0.999999694071
0.999999556199
0.999999560803
0.999999548744
0.996725597994
0.494847672435
9.45349271489e-26
-6.43069967727e-21
0.999999847321
0.999999847321
0.999999927703
0.999999973037
1.00000013686
1.00000024174
1.00000015749
0.999999909898
0.999999655488
0.999999508922
0.999999320102
0.999999696607
0.999999555675
0.999999470791
0.999999548744
0.999999505374
0.991264816934
0.441359385719
1.09889223842e-18
1.11531153062e-18
0.999999931598
0.999999994655
1.00000008091
1.00000022044
1.00000029837
1.00000028414
1.0000001358
0.999999829966
0.999999408787
0.999999119816
0.999998840997
0.999999267875
0.999999051945
0.999999009525
0.999999467982
0.999999330365
0.985390534586
0.424287972732
6.99289051309e-09
5.52355816652e-18
1.0000003002
1.00000035095
1.00000050448
1.00000061616
1.00000052893
1.00000038923
1.00000015284
0.99999963192
0.999999057426
0.999998545833
0.999997744561
0.999998592562
0.999998269603
0.999998409046
0.999998985189
0.999998898818
0.977492464338
0.429615317728
3.96379869816e-05
-2.9542164734e-24
1.00000057149
1.0000007042
1.00000085611
1.00000070918
1.00000094427
1.00000046561
0.999999964802
0.999999604227
0.999998909854
0.99999818467
0.999997351824
0.999998063474
0.999997737612
0.999997491594
0.999998095974
0.999998237458
0.997197243943
0.50748587599
3.78139708596e-25
-2.5467772243e-29
1.00000055735
1.00000074103
1.0000006912
1.0000012975
1.00000036904
1.00000046879
1.00000009238
0.999999631381
0.999998571636
0.999997668835
0.999997355462
0.999996895104
0.999996249642
0.999996004908
0.999996019133
0.999997524383
0.999995986256
0.597525428906
0
0
1.00000051648
1.00000060771
1.00000097751
1.00000018827
1.00000095575
1.0000001559
0.999999820821
0.999999553584
0.99999908624
0.999998832053
0.999998708306
0.999998572076
0.999998278371
0.999997970286
0.999997847107
0.999998028592
0.999997533046
0.702112912262
9.01555320253e-27
8.30502698892e-85
1.00000030811
1.00000028956
1.00000017538
0.999999920117
0.999999815124
0.9999993728
0.999999524606
0.99999937809
0.999998960641
0.999998710052
0.999998610444
0.999998581491
0.999998335906
0.999998123068
0.999998227355
0.999998249767
0.999997940316
0.7835025192
0.00429334372508
-7.02837699803e-30
1.00000050611
1.00000057918
1.0000004647
1.00000017549
0.999999736954
0.999999619807
0.999999454669
0.999999168133
0.999998691909
0.999998384939
0.999998326401
0.99999828711
0.999998319959
0.999998317527
0.999998341142
0.9999983023
0.99999809428
0.860964420307
0.0181064825533
0
1.0000005183
1.00000055317
1.00000041737
1.00000025532
1.00000002623
0.999999776465
0.999999431925
0.999999038019
0.999998530892
0.999998342915
0.999998287574
0.999998277985
0.999998130569
0.999998213362
0.999998424577
0.99999831376
0.999998066541
0.891416483165
0.00762674403114
-2.350655779e-22
1.00000042629
1.00000039939
1.00000025272
1.00000011655
0.999999926128
0.99999970603
0.999999406113
0.999998915231
0.999998687398
0.999998615216
0.999998558455
0.999998189303
0.999998130569
0.999998204472
0.999998493018
0.999998385546
0.999996624465
0.7435624431
0.0208400338821
-7.35823036745e-23
1.00000049797
1.00000043341
1.00000025146
1.00000004576
0.999999902025
0.999999689793
0.999999222225
0.999999042606
0.999999569395
0.99999961728
0.999999573698
0.999999427952
0.999998620088
0.999998510309
0.999998510543
0.999998497843
0.999998026746
0.844472551229
0.0751260261581
-1.60645578784e-21
1.00000051668
1.00000045807
1.00000028993
1.0000000838
0.99999990675
0.999999649266
0.9999994484
0.999999690078
0.999999010662
0.999998620756
0.999998449461
0.999998396577
0.999999049853
0.995635308423
0.0920116784541
-1.47011344248e-21
1.00000055492
1.00000048698
1.00000029688
1.00000006595
0.999999865211
0.999999601846
0.999999384066
0.999999588735
1.00000065144
1.00000043436
0.999999521294
0.99999950287
0.999999609503
0.999995588959
0.622664814225
0.0276966868881
1.00000060524
1.00000052087
1.00000029708
1.00000001816
0.999999742785
0.999999432557
0.999999089566
0.999999540505
1.00000110946
1.00000108677
1
0.999999954581
0.999999903626
0.999996040413
0.622843013439
0.0277310383906
1.00000056119
1.00000047315
1.00000022301
0.999999917924
0.999999598973
0.999999200137
0.999998947343
0.999999329029
1.00000135662
1.00000179561
1.00000153537
0.999999952216
0.999999971425
0.995638533735
0.0920302209857
-1.52341141484e-21
1.00000079281
1.00000069281
1.00000037666
0.99999997139
0.999999538519
0.999998930698
0.999998273994
0.999998246226
0.999998317455
0.999998869069
0.999999062203
0.999999078954
0.999998922284
0.999998929203
0.999998689183
0.999999960027
0.999999199022
0.844506156712
0.0751312382817
-1.65610761784e-21
1.00000037656
1.00000038093
1.00000015813
0.999999840175
0.999999625214
0.999999350198
0.999999033859
0.999998569519
0.99999819155
0.999998345756
0.999998780615
0.999999066921
0.999999226923
0.999999219496
0.999998043618
0.999998969833
0.999996716221
0.743574479923
0.0208440365149
-5.59966565752e-23
1.00000035621
1.00000029076
1.00000003793
0.999999742567
0.999999592532
0.999999331195
0.999998958089
0.999998391817
0.999998190007
0.999998190007
0.999998613584
0.999998717645
0.999998564647
0.999998235298
0.999997051143
0.999997691292
0.999997049137
0.891420329671
0.00762538449932
-2.11750450099e-22
1.00000020207
1.00000005618
0.999999609594
0.999999235299
0.999999055701
0.999998834682
0.999998663724
0.999998284193
0.999998224576
0.999998301399
0.999998532272
0.999998175215
0.999997579482
0.999997053262
0.99999594179
0.999997028162
0.999996092621
0.86096579198
0.0181079990359
1.71958030749e-37
0.999999535775
0.999999444109
0.999999337739
0.999999141992
0.999998663528
0.999998589723
0.999998589723
0.999998735407
0.999998391116
0.999998211378
0.999998221561
0.999997723688
0.999996907272
0.999995949973
0.999994435513
0.999995993117
0.999994918184
0.783507868168
0.00429338446665
3.22199013013e-31
1.00000005186
1.00000008564
0.99999990663
0.999999508229
0.999999172225
0.999999092815
0.999999003503
0.999998841186
0.999998382198
0.999998057671
0.999997971636
0.999997384775
0.999996524105
0.999995731564
0.999994371929
0.999994620714
0.999994099861
0.702121786804
4.06204765093e-27
-3.12107383806e-47
1.0000004369
1.00000046359
1.0000003508
1.00000020235
1.00000001079
0.999999619235
0.999999210017
0.999998789555
0.999998377758
0.99999801595
0.999997853049
0.999997249418
0.999996363031
0.999995743741
0.999994616435
0.999996129253
0.999994397981
0.597536854795
0
-5.77983450314e-50
1.00000057298
1.00000053241
1.00000041948
1.00000026701
1.00000001798
0.999999677761
0.999999232836
0.999998822773
0.999998402613
0.999998214643
0.999998059307
0.999997342371
0.999996474802
0.999996286493
0.999996274676
0.999997189015
0.997196731772
0.507492103069
3.78139708596e-25
2.25028694574e-30
1.00000046888
1.00000041635
1.00000031089
1.00000008444
0.999999801394
0.999999474178
0.999999244822
0.999998938521
0.999998629634
0.999998508235
0.999998299634
0.999997602653
0.999997005137
0.999997444087
0.999997903697
0.999997868192
0.977490036092
0.429605719704
3.97352579673e-05
9.4747630735e-23
1.00000032201
1.00000028089
1.00000017982
0.999999865094
0.999999614427
0.999999468563
0.99999944643
0.999999172475
0.999998911511
0.999998712844
0.999998580475
0.999998191233
0.999997841243
0.99999793578
0.999998041282
0.999998358636
0.985390020815
0.424291517505
6.95325642593e-09
5.45559101636e-18
1.00000018163
1.00000016156
1.00000011315
0.999999987641
0.999999811728
0.999999773098
0.999999523679
0.99999923376
0.999999214397
0.999999122221
0.999999083263
0.999998807237
0.999998519135
0.999998467099
0.999998419682
0.99999871093
0.991264272061
0.441375125321
1.10385950527e-18
1.11592237298e-18
1.00000013294
1.00000014823
1.00000019905
1.00000021835
1.00000009756
0.999999951546
0.999999456962
0.99999895765
0.999998649863
0.999998850669
0.999998879422
0.999999013939
0.999999013576
0.999998791715
0.999998691001
0.999998919754
0.996724377039
0.494865358445
1.18168658936e-25
-6.4407344002e-21
1.00000002442
1.00000003303
1.00000004821
1.00000006516
1.00000003914
0.999999925962
0.999999623392
0.999999358069
0.9999984158
0.999998283865
0.999998283865
0.999998431235
0.999999011636
0.999999014934
0.999998979702
0.999998985829
0.999558063848
0.550523972767
3.69277059175e-28
-4.96439551366e-29
0.999999930494
0.999999819996
0.999999818094
0.999999852869
0.99999987565
0.999999664293
0.999999761308
0.999999695123
0.999999362236
0.999999073389
0.999998676981
0.99999823157
0.99999823157
0.999998874501
0.99999895088
0.999998953035
0.999254629701
0.550120721366
-1.37894219595e-33
-9.55362904738e-13
0.999999615735
0.999999566757
0.999999569872
0.999999636645
0.99999964308
0.999999636176
0.999999781238
0.999999805451
0.999999721081
0.999999668483
0.99999951581
0.999999061533
0.999998895239
0.999998324221
0.999998577919
0.999999011568
0.997885910594
0.535776842809
-4.29895076872e-38
-7.4506377606e-12
0.999999560523
0.999999560433
0.999999560638
0.999999561909
0.999999583505
0.999999786561
0.999999816462
0.999999811775
0.999999798905
0.999999767627
0.999999728646
0.999999630591
0.999999522943
0.999999075629
0.999999083622
0.999999162913
0.997465154722
0.518447355891
-1.42642907323e-20
-3.11307287226e-14
0.999999560524
0.999999560532
0.999999571201
0.999999609617
0.999999715759
0.999999921795
0.999999871059
0.999999797064
0.999999764919
0.999999755954
0.999999745652
0.999999717181
0.999999616605
0.99999946537
0.999999187678
0.999999186031
0.997755526855
0.51052311285
-5.52789890455e-18
-2.51417242484e-18
0.999999650013
0.999999760454
0.999999827725
0.99999988069
0.999999929762
0.999999928604
0.999999895987
0.999999787827
0.999999745232
0.999999725208
0.999999720094
0.999999651539
0.99999950704
0.999999386715
0.999998872457
0.999999162488
0.998272841473
0.515043896574
-6.3240072417e-19
-3.50853314876e-20
0.99999993422
0.999999970879
0.999999993839
1.00000000302
1.00000000265
0.999999894203
0.999999867282
0.999999836734
0.999999804722
0.999999771171
0.999999763971
0.999999669041
0.999999515321
0.999999291005
0.999998510345
0.999999545744
0.998822324011
0.526743770471
-5.93643714981e-18
-6.80827000437e-21
0.999999991865
1.00000000496
1.00000001854
1.00000002934
0.999999991269
0.999999872578
0.999999870121
0.999999915967
0.999999878945
0.999999855817
0.999999850425
0.999999772967
0.999999671373
0.999999376194
0.999998397035
0.999999865751
0.999215286415
0.539457178277
-2.11791575658e-20
-2.4758732447e-20
1.00000001586
1.0000000342
1.00000005064
1.00000003721
0.999999965962
0.999999924556
0.999999939014
0.999999986329
0.999999957722
0.999999933983
0.999999922947
0.999999895739
0.999999818351
0.999999473488
0.999998759963
0.999999897488
0.999362226133
0.551152568984
0
-1.24863096984e-30
1.00000004382
1.00000006841
1.00000008181
1.00000007193
1.00000006496
1.00000006912
1.0000000632
1.00000004796
1.00000000019
0.999999960706
0.999999926549
0.999999896943
0.999999819473
0.999999580423
0.999999465955
0.999999898778
0.999385695066
0.559649727875
0.000117144112025
-1.46528629325e-22
1.0000000634
1.00000009969
1.00000012602
1.00000015572
1.00000019413
1.00000020019
1.0000001761
1.00000011941
1.00000005782
0.999999984732
0.999999917886
0.999999883113
0.999999813106
0.999999342612
0.999999602021
0.999999901268
0.999999975538
0.559188054783
0.0035976625327
7.38554118351e-28
1.00000014037
1.00000020346
1.00000025913
1.00000031691
1.00000036039
1.00000036995
1.00000032383
1.00000022506
1.00000009274
0.999999929207
0.99999971924
0.999999508506
0.999999280454
0.999999092718
0.999999327677
0.999999885225
0.999999982255
0.55608001459
0.00567232437152
-7.6825182936e-14
1.00000018487
1.00000023992
1.00000027591
1.00000030853
1.0000003279
1.00000032527
1.00000029191
1.0000002291
1.00000013729
1.00000001086
0.999999886619
0.999999736964
0.999999537496
0.999999092718
0.99999936951
0.999999921034
0.999999983308
0.549938168074
0.0064234261862
-6.31958663074e-15
1.00000025424
1.00000030605
1.00000032926
1.00000034021
1.00000033794
1.00000032223
1.00000028726
1.0000002319
1.0000001539
1.00000005812
0.999999960646
0.999999864541
0.999999709422
0.999999325354
0.999999446558
0.999999920826
0.999999983631
0.541085365697
0.00616960090448
-1.75977963793e-25
1.00000033464
1.00000038638
1.00000040369
1.00000040395
1.0000003868
1.00000035964
1.00000031556
1.00000025464
1.00000017615
1.00000009011
0.999999998164
0.999999892194
0.999999694804
0.999999354755
0.999999538442
0.999999931445
0.999999983637
0.531151561942
0.00535274258416
2.61738588534e-23
1.00000041264
1.00000046589
1.00000047925
1.00000047663
1.00000045146
1.00000041948
1.00000037136
1.00000030704
1.00000023047
1.00000015445
1.00000007215
0.99999994316
0.999999713901
0.999999294276
0.999999482523
0.999999931288
0.999999983641
0.522344808071
0.0045963431016
2.94590773957e-22
1.00000048118
1.00000053828
1.00000054678
1.00000058228
1.00000056178
1.00000053852
1.000000489
1.00000042168
1.00000033888
1.00000026418
1.00000018269
1.00000000443
0.999999727497
0.999999276627
0.999999433875
0.999999948396
0.999999983641
0.516423148365
0.00410149472802
7.38733734713e-21
1.00000053703
1.00000062583
1.00000073514
1.00000073713
1.00000073401
1.00000069729
1.0000006618
1.00000056209
1.00000046695
1.0000003774
1.00000024283
0.999999998294
0.99999965211
0.999999156005
0.999999504194
0.999999939582
0.999999983641
0.514203839087
0.00396787913026
4.91531881319e-05
1.00000067001
1.00000086286
1.00000079404
1.00000091403
1.00000084935
1.00000084921
1.00000078344
1.00000069732
1.0000005864
1.00000043235
1.00000030052
1.00000000442
0.999999603165
0.999999002904
0.999999508488
0.999999928089
0.999999983104
0.516053578771
0.00409171516839
8.98081807915e-22
1.00000078178
1.000000895
1.00000089785
1.0000012282
1.00000107361
1.00000103679
1.00000097972
1.00000083104
1.00000064358
1.00000045233
1.00000016918
0.99999959659
0.99999908897
0.999999002903
0.999999627345
0.999999891596
0.999999981933
0.524823333097
0.00468268767902
2.36337317872e-23
1.00000082893
1.00000127108
1.00000096773
1.00000088394
1.00000084877
1.00000084487
1.000000826
1.00000076368
1.00000072402
1.00000065729
1.00000042171
0.999999868709
0.999999299891
0.999999223918
0.999999597465
0.999999909455
0.999999980843
0.541166460376
0.00588346098214
1.65925396583e-23
1.00000083998
1.00000115017
1.000000778
1.00000073585
1.00000074927
1.00000076153
1.00000075579
1.00000074415
1.00000078369
1.00000073611
1.00000062289
1.00000030264
0.999999702356
0.999999628005
0.999999644668
0.999999884164
0.999999977741
0.559529697916
0.00782951164826
3.23565915333e-25
1.00000085946
1.00000098033
1.00000070219
1.0000007015
1.00000072943
1.00000074584
1.00000075654
1.00000078846
1.00000086502
1.0000008773
1.00000074261
1.00000024888
0.999999930762
0.999999760562
0.999999742605
0.999999861026
0.999999973779
0.58194160386
0.0113251137493
2.32498336645e-23
1.0000008845
1.00000073197
1.00000067321
1.00000069647
1.00000072626
1.00000074893
1.00000078099
1.00000086934
1.00000099792
1.00000102897
1.00000085982
1.00000047999
1.00000004189
0.999999798121
0.999999774533
0.999999868421
0.999999985999
0.607669796328
0.0161165950721
-1.46905181637e-08
1.00000066188
1.00000064262
1.00000065924
1.00000069068
1.00000072178
1.00000075088
1.0000008157
1.00000097362
1.00000120209
1.00000113851
1.00000095277
1.00000054513
1.00000009207
0.999999835909
0.999999804208
0.999999892845
0.999999997482
0.636168661579
0.0226024317734
6.22384308921e-07
1.00000057409
1.00000061111
1.00000064562
1.00000067899
1.0000007093
1.00000074746
1.00000084924
1.00000111869
1.00000125797
1.00000129652
1.00000096383
1.00000053608
1.00000010868
0.999999874818
0.999999845594
0.999999925625
1
0.665995726787
0.0308904137524
8.65093595001e-05
1.00000054281
1.00000059102
1.0000006266
1.00000065825
1.00000068751
1.00000073243
1.00000087469
1.00000112153
1.00000128182
1.00000142872
1.00000087585
1.00000047084
1.00000010438
0.999999909855
0.99999989472
0.999999963062
1
0.695297432152
0.0403551465915
2.61460920111e-20
1.00000052137
1.0000005662
1.0000005982
1.00000062725
1.00000065525
1.00000069973
1.00000084364
1.00000100195
1.00000119072
1.00000122941
1.00000078118
1.00000041588
1.00000009695
0.999999928966
0.999999935937
0.99999998913
1.00000000314
0.72361154096
0.05168568202
4.41729310504e-22
1.00000049334
1.00000053136
1.00000055959
1.00000058743
1.00000061615
1.00000065334
1.00000075354
1.00000089591
1.00000100337
1.00000110087
1.00000079063
1.00000035288
1.00000007462
0.999999939158
0.999999959028
1
1.00000000513
0.749690523533
0.0641330614505
-4.97331957297e-24
1.00000045486
1.00000048691
1.00000051371
1.00000054373
1.0000005768
1.00000061105
1.000000675
1.00000077843
1.00000081733
1.00000079853
1.00000066664
1.00000027264
1.00000004496
0.999999951557
0.999999963651
0.999999993151
1
0.770014076745
0.0765425360322
-1.77426087026e-25
1.00000040844
1.0000004376
1.00000046668
1.00000050305
1.00000054514
1.0000005879
1.00000064377
1.00000073165
1.00000077305
1.0000007668
1.00000062151
1.00000023192
1.00000003685
0.999999944201
0.999999959898
0.999999982602
1.00000000885
0.791088692941
0.0916985003445
-3.89431009565e-13
1.00000036122
1.00000039147
1.00000042698
1.00000047378
1.0000005291
1.00000058926
1.00000066443
1.00000077702
1.00000097424
1.00000078161
1.00000077814
1.00000025753
1.00000006013
0.999999945675
0.999999944023
0.999999958065
1.00000002742
0.806156231663
0.0987674533356
-1.23579857129e-11
1.00000032393
1.00000035774
1.00000040328
1.00000046379
1.00000053616
1.00000061914
1.00000072908
1.00000100289
1.00000102466
1.00000099006
1.0000008454
1.00000029628
1.00000008457
0.999999960376
0.999999927254
0.999999943256
1.00000003394
0.817980167048
0.106212057935
-2.04137051495e-10
1.00000030733
1.00000034525
1.00000040203
1.00000047806
1.00000056673
1.00000066947
1.00000084211
1.00000109459
1.00000126749
1.00000153034
1.0000006634
1.00000036812
1.00000011346
0.999999964021
0.999999923188
0.999999930338
1.00000003832
0.829427803714
0.115806974102
-5.09008329521e-10
1.00000030849
1.00000034735
1.00000041375
1.00000049851
1.00000059465
1.00000070199
1.000000898
1.00000121955
1.00000125201
1.00000142686
1.00000074125
1.00000041492
1.00000013179
0.99999998617
0.999999923188
0.999999939203
1.00000004206
0.837385380642
0.123284728907
2.14084552301e-19
1.00000018652
1.00000021275
1.00000025111
1.0000002978
1.00000034716
1.00000041181
1.00000062078
1.00000066335
1.00000070967
1.00000089314
1.00000035815
1.00000019142
1.0000000589
0.999999989007
0.99999996662
0.999999976245
1.00000000004
0.834331331986
0.13889893075
0.000597431877523
)
;

boundaryField
{