/*--------------------------------*- C++ -*----------------------------------*\
| =========                 |                                                 |
| \\      /  F ield         | OpenFOAM: The Open Source CFD Toolbox           |
|  \\    /   O peration     | Version:  v2012                                 |
|   \\  /    A nd           | Website:  www.openfoam.com                      |
|    \\/     M anipulation  |                                                 |
\*---------------------------------------------------------------------------*/
FoamFile
{
    version     2.0;
    format      ascii;
    class       volScalarField;
    location    "2.2";
    object      k;
}
// * * * * * * * * * * * * * * * * * * * * * * * * * * * * * * * * * * * * * //

dimensions      [0 2 -2 0 0 0 0];


internalField   nonuniform List<scalar> 
1984
(
0.00422470988812
0.00488748947757
0.00509762849509
0.00517554831
0.00521469804541
0.00524395776221
0.00527149810319
0.00529949845346
0.00532876998978
0.00536050492408
0.00539857693636
0.00545540250131
0.00556522753676
0.00580426836186
0.00629654330484
0.00721358665439
0.00874472518028
0.0112877163685
0.0169065331557
0.0424187856534
0.00490717188842
0.00598372796802
0.00630658575062
0.00642053811104
0.00646976276322
0.00650108592431
0.00652842550171
0.00655562212006
0.006584054695
0.00661568157364
0.00665665074516
0.0067254524832
0.00686946937073
0.00718633498606
0.00782439422094
0.00894646809732
0.0106608246136
0.013433657606
0.0209378918549
0.0534609343747
0.00512406107086
0.00631707129246
0.00667966805996
0.00680625306454
0.00685828700078
0.00688949534511
0.00691608596842
0.00694251385351
0.00697032803208
0.00700167376427
0.00704326456695
0.00711493480838
0.00726650681342
0.0075990120179
0.00826436430233
0.0094291866685
0.011196312558
0.0140433814486
0.0219551338267
0.0586694145496
0.00520696191618
0.00644195545271
0.0068198112279
0.0069505277652
0.00700258870734
0.00703275566197
0.00705824523617
0.0070837574495
0.00711084895253
0.00714168056985
0.00718294480425
0.00725447093428
0.00740591117036
0.00773810196095
0.00840419015097
0.00957759977389
0.0113736347947
0.0142590102335
0.0220070759392
0.0626336953986
0.00524648133332
0.00649657196183
0.00687968333745
0.00701097911231
0.00706195532936
0.00709070924191
0.00711490361028
0.00713932917981
0.00716552724305
0.00719557250245
0.0072360151992
0.00730628469905
0.00745528636758
0.00778312786672
0.00844388967859
0.00961650380973
0.0114309518662
0.0143674931706
0.0218899603348
0.0590595522139
0.00527236412167
0.0065285594287
0.00691298406483
0.00704348847152
0.00709300181018
0.00712023586439
0.00714304772804
0.00716626777062
0.00719141441283
0.00722047984745
0.00725978698644
0.00732828255047
0.00747399854278
0.00779625994612
0.00845029376806
0.00961976948423
0.0114451422535
0.0143412795027
0.0206407282949
0.0526047488362
0.00529385513352
0.006553491889
0.00693787713428
0.00706718314769
0.00711518785534
0.0071409461939
0.00716239795047
0.00718438540761
0.00720840465051
0.00723636884807
0.0072743673692
0.00734080650502
0.00748280510882
0.00779887727277
0.00844547381877
0.0096111923924
0.0114510173007
0.0144127690749
0.0211609472628
0.058046903723
0.00531367688022
0.00657613593534
0.0069601520864
0.00708822356705
0.00713481583984
0.00715920202247
0.00717937332057
0.00720016168098
0.00722304708259
0.00724986324118
0.00728646141626
0.00735066659807
0.00748861700806
0.00779795583552
0.00843648210895
0.00959769855532
0.0114530614856
0.0145269786433
0.0223141157757
0.063180814368
0.00533255882241
0.00659790334406
0.0069814713573
0.00710838817706
0.00715369705753
0.00717684125155
0.00719582835095
0.00721548678905
0.00723727176546
0.00726294048074
0.00729809363266
0.00735994531518
0.00749356325507
0.00779559037388
0.00842514321868
0.00958074707331
0.0114523568543
0.0146425160906
0.0231964355631
0.0646263587814
0.00535063835959
0.00661907535921
0.00700223605854
0.00712806167542
0.00717222095044
0.0071942555719
0.00721216774057
0.00723077834091
0.00725151989718
0.0072760577048
0.00730975298461
0.00736916105791
0.00749818458111
0.00779228628426
0.0084117749814
0.00956025874692
0.0114459575292
0.014693504794
0.0227637266935
0.0508791447207
0.00536790708817
0.0066396322172
0.00702244761237
0.00714727309009
0.00719038613564
0.00721142610467
0.00722837255951
0.00724602465281
0.00726578896821
0.00728924139562
0.00732147545982
0.00737837198398
0.00750257111017
0.00778813797815
0.00839635109806
0.00953589825765
0.0114354095843
0.0147569297012
0.0225503089499
0.042682911452
0.00538433573148
0.00665951836421
0.0070420324298
0.00716593589193
0.00720810319829
0.00722825307186
0.0072443338415
0.00726111270445
0.00727995702222
0.00730237226423
0.00733317889973
0.00738753630169
0.00750671009078
0.00778316429602
0.00837881273324
0.00950720867946
0.0114193537218
0.0148685000883
0.0233316176526
0.045550980438
0.00539989485438
0.00667864121887
0.00706091522738
0.00718396933081
0.00722527495531
0.00724462471108
0.0072599236497
0.00727590570085
0.00729390133903
0.00731533796866
0.00734475935375
0.00739660321131
0.00751069458693
0.00777762994125
0.00835947289672
0.00947382892372
0.0113905535335
0.0149887597292
0.0251903773695
0.0596874217335
0.00541455483477
0.00669694347643
0.00707899819568
0.00720128338352
0.00724181866279
0.0072604550947
0.0072750542243
0.0072903120212
0.00730753886951
0.0073280627601
0.00735615424556
0.00740557368836
0.00751470857555
0.00777231118914
0.00834021264274
0.00943815220515
0.0113489277308
0.0150526554233
0.0261435156864
0.0646306432783
0.00542829941177
0.00671435706638
0.00709618895227
0.0072178095892
0.0072576665631
0.00727568006276
0.00728966253438
0.00730427943982
0.00732080589698
0.00734048708933
0.00736734754817
0.00741453661271
0.00751919410096
0.00776868626901
0.00832517498523
0.0094097583258
0.0113032228183
0.0149513593547
0.0253952830385
0.0651669759332
0.00544115698195
0.00673077353669
0.00711248209353
0.00723351276727
0.00727277524262
0.00729025320636
0.00730370225452
0.00731774895211
0.0073336401922
0.00735256089431
0.00737832192858
0.00742356750931
0.0075245765668
0.00776831211719
0.00831980931392
0.00940788395591
0.011298654474
0.0146673748175
0.0225945289427
0.0583617648457
0.00545318118511
0.00674622068316
0.00712783663069
0.00724836769379
0.0072871283696
0.00730414222701
0.00731713216376
0.00733068980237
0.00734602426996
0.00736427573776
0.00738905680637
0.00743260752191
0.007530570135
0.00777000483526
0.00832133074195
0.00943915888774
0.0114529882733
0.0149796409746
0.0209616094275
0.0388397051113
0.00546435562598
0.00676058622591
0.00714221260102
0.00726234775731
0.00730069520393
0.00731732565899
0.00732992989142
0.00734306983918
0.0073579399046
0.0073756060262
0.00739950741178
0.00744139552348
0.00753593628662
0.00776896104288
0.00831448134664
0.00946782844273
0.0117515834
0.0163274545812
0.0248252986166
0.0349430486983
0.00547456993001
0.00677378249564
0.00715554026467
0.00727540252316
0.00731345136925
0.00732978671275
0.00734209119803
0.00735490755527
0.00736940474389
0.00738658058364
0.00740968174903
0.0074498870485
0.007540427799
0.00776445718995
0.00829656701827
0.00947375629366
0.0120411924028
0.0177422189315
0.0292835719382
0.0456692264566
0.00548386450557
0.00678595768474
0.00716784578147
0.00728755589661
0.00732539062437
0.00734152549896
0.00735362399894
0.00736621138384
0.00738043649029
0.00739723137989
0.00741963302864
0.00745821364728
0.00754461726609
0.00775910009895
0.00827620468231
0.00946404894647
0.0122029890916
0.0184119569016
0.0306729290542
0.0498377077034
0.00549219641826
0.00679705546148
0.00717918592543
0.00729882948363
0.00733653213098
0.00735253967709
0.00736451998427
0.00737697854383
0.00739104682521
0.0074075758839
0.00742940819864
0.00746646852074
0.00754882074752
0.00775403637004
0.00825738382242
0.00945138276121
0.012290211916
0.0186913688145
0.0311031203681
0.0588557922931
0.00549946612777
0.00680705005897
0.00718949935775
0.00730916993545
0.00734684143154
0.00736281843353
0.00737477067454
0.00738718598686
0.00740119587374
0.00741759319876
0.0074390032452
0.00747467860168
0.00755311369023
0.00774934241013
0.00823947251147
0.0094348759471
0.0123300091211
0.0187969788451
0.0314416398472
0.0652280099801
0.00550560933356
0.00681587707785
0.00719875656661
0.00731856703087
0.00735630197692
0.00737232596574
0.00738432818077
0.00739680668554
0.00741087792936
0.00742728744042
0.007448413667
0.00748284821068
0.0075574451159
0.00774477094456
0.00822135738388
0.00941215237497
0.0123308555513
0.0187819714945
0.0313790921189
0.0659113510952
0.00551064299805
0.00682354735468
0.00720695016994
0.00732700866032
0.00736488662863
0.007381033176
0.00739317577989
0.00740584038338
0.00742009267932
0.00743662677178
0.00745761747879
0.00749097510857
0.00756185905278
0.00774019133977
0.00820198900221
0.00938109884936
0.0122916026505
0.0186645573101
0.0311653705105
0.066148345871
0.00551450055134
0.00682989825608
0.00721396056677
0.00733440735407
0.00737253499374
0.00738889831435
0.00740128069541
0.00741421618524
0.00742877418288
0.00744557478914
0.00746659974668
0.00749904823173
0.00756640662901
0.00773573696882
0.00818146780437
0.00934089286273
0.0122132177665
0.0184306750018
0.0310228115891
0.0669650517421
0.00551715512731
0.00683478791626
0.00721966875637
0.007340667648
0.0073791690135
0.00739584815715
0.00740856535933
0.00742188119715
0.00743687436864
0.00745409772227
0.00747531848742
0.00750707713089
0.00757121306396
0.00773181162628
0.00816109588243
0.00929783013546
0.0121170468903
0.0181095188203
0.0310716564837
0.0678706140495
0.0055188490281
0.00683809232577
0.00722389126255
0.00734564962167
0.00738469020429
0.00740180894783
0.00741497403613
0.00742878974694
0.0074443354947
0.00746214092018
0.00748376300627
0.0075151537033
0.00757664502217
0.00772968600317
0.00814514124202
0.00926915866071
0.0120739556969
0.0177644684127
0.0263282871457
0.0363959603594
0.00551995631281
0.00683974627057
0.0072264796154
0.00734922193903
0.00738899830087
0.00740669319519
0.0074204151331
0.00743484506998
0.00745109248424
0.00746965197125
0.00749192086967
0.00752336533413
0.00758316729276
0.00773144967388
0.00814233529373
0.00929265382573
0.0122585668323
0.0183866787882
0.02750524838
0.0375586163814
0.00552006959043
0.00683961813584
0.00722735052602
0.00735130063736
0.00739200075565
0.00741040761845
0.00742480216643
0.00743997284609
0.00745706443348
0.00747655487537
0.00749970893401
0.00753156635076
0.00759024906295
0.00773432794797
0.00813983441609
0.00931423455581
0.0125379752567
0.0199771370723
0.0338903265787
0.0667499058636
0.00551850568523
0.0068376216177
0.00722641192602
0.00735178431439
0.00739359919685
0.00741286149492
0.00742805210797
0.00744408460827
0.00746215626706
0.00748275333885
0.00750703036353
0.00753961605442
0.0075975477677
0.00773746643436
0.00813572873791
0.00933180721631
0.0128938552192
0.0221866782941
0.0408563441908
0.0756657738593
0.00551562194079
0.00683363325875
0.00722354155069
0.00735054607354
0.00739366470178
0.00741392368423
0.00743002610949
0.00744703994746
0.00746624131486
0.00748813632732
0.00751378958662
0.00754746049072
0.0076052717826
0.00774249205203
0.00813876680741
0.0093762793429
0.0132627078276
0.023613710168
0.0434709363453
0.0775059952723
0.00551092911008
0.00682754666687
0.00721859210784
0.00734743931081
0.00739205703022
0.00741346159812
0.00743059644572
0.00744871541361
0.0074691901666
0.00749254708796
0.00751979675756
0.00755499118484
0.00761384632151
0.00775316940894
0.00816877971974
0.00950845752293
0.0136776790999
0.0242718996777
0.0438150950822
0.0776301023736
0.00550440509895
0.00681915160434
0.00721140689193
0.00734230996283
0.0073886275715
0.00741132753593
0.00742962205092
0.00744897570743
0.00747085802735
0.00749582161038
0.00752491694594
0.00756220068349
0.00762440353258
0.00777821281146
0.00826845273818
0.00984647210542
0.0141891588791
0.0236365365642
0.0408914353134
0.0747664785282
0.00549583445249
0.00680831599221
0.00720181225786
0.00733498695461
0.00738321655735
0.00740737858286
0.00742696552929
0.00744766587514
0.00747105167507
0.00749778510843
0.00752896876625
0.00756895462415
0.0076378434381
0.00782459489089
0.00846119555903
0.0104143001963
0.0148568888041
0.0223127493544
0.0342935678684
0.0489696329289
0.00548511723655
0.0067948415927
0.00718964913155
0.00732531262339
0.00737567194595
0.0074014647621
0.007422475308
0.00744462042252
0.00746962637578
0.00749824062367
0.00753163794554
0.00757512686927
0.00765551532602
0.00789451908238
0.00871623399445
0.0110600585473
0.0159944812111
0.0246850718814
0.0404121798243
0.0506210619526
0.00547213182722
0.00677863274073
0.00717475567846
0.00731311395056
0.00736583589667
0.00739344231307
0.00741601464533
0.00743972973283
0.0074664377568
0.00749696007665
0.00753269097269
0.00758048614302
0.00767687323715
0.00798315738365
0.00899445885204
0.0116328647451
0.0170808152837
0.0287443103591
0.0535890284278
0.0804294095257
0.00545650957713
0.0067595046873
0.00715698265108
0.00729822932193
0.00735351485566
0.00738314149193
0.00740744894784
0.00743285488151
0.00746132839846
0.00749364788162
0.00753078804134
0.00757734188663
0.00765777038915
0.00788835181503
0.00870623914718
0.0112738388312
0.0176296220129
0.0293272120742
0.0453752068654
0.0733484985962
0.00543856492413
0.00673736363752
0.00713618722329
0.0072804824321
0.00733856965229
0.00737043834395
0.00739668058104
0.00742394472684
0.00745436055087
0.00748869665732
0.00752772080032
0.00757468322007
0.00764661053696
0.007832907525
0.00853935190126
0.0111443696182
0.018462631808
0.0319096660839
0.0494248970006
0.0781206128897
0.00541790275806
0.00671222706236
0.00711231902874
0.00725978088126
0.00732086129911
0.00735519121423
0.0073835541647
0.00741289667657
0.0074454559106
0.00748199698647
0.00752328654907
0.00757250295493
0.00764859349886
0.00786390026172
0.00874543652734
0.0119051264524
0.0196946408597
0.0326178467617
0.0492725644047
0.0752706870082
0.00539457069685
0.00668407467993
0.00708537432035
0.00723603077881
0.0073002623108
0.00733724283746
0.00736796916833
0.00739963194938
0.00743454018601
0.00747350976377
0.00751731738251
0.00757027090858
0.00766310680038
0.00798973496915
0.00937674208332
0.0135637531285
0.0213108500261
0.0322707615621
0.0461803278696
0.0631583365182
0.00536840343273
0.00665296772399
0.0070553616789
0.00720924189412
0.00727670379018
0.00731652645669
0.00734988266268
0.00738411551929
0.00742162608972
0.00746311869325
0.00750883551705
0.0075602074126
0.00762865082629
0.00778719885895
0.0084081901389
0.010789074376
0.0176635227797
0.031791118652
0.0506147900495
0.0787351089198
0.00533987614045
0.00661928096804
0.00702260818472
0.00717952093922
0.00725021513414
0.00729301854442
0.00732919717026
0.00736630543515
0.00740682828594
0.00745141570198
0.00749992088554
0.00755269901061
0.00761507426007
0.00772360353076
0.00809472968145
0.00970385874852
0.0157179519418
0.0305923490043
0.0517995993133
0.0802425920444
0.00530915837132
0.00658350155613
0.00698756264587
0.00714722057308
0.00722096888582
0.00726671338077
0.00730591117909
0.00734625450003
0.00739027055601
0.00743856223324
0.00749076811628
0.00754637049341
0.00760753109537
0.00769487161932
0.00794442369084
0.00907971735139
0.0140286997422
0.0285248859653
0.052489418286
0.0809593943617
0.00527678122271
0.00654649645797
0.00695104428575
0.00711297485185
0.00718931552878
0.00723774018582
0.0072798124716
0.00732328352315
0.00737094800713
0.00742358697359
0.00748051791354
0.00754035958729
0.00760307309634
0.00768323215349
0.0078751813899
0.00872675385718
0.0128268630402
0.0268345715509
0.0545576004075
0.0827600906762
0.00524360754206
0.00650954007727
0.00691429886186
0.00707772827819
0.00715576114891
0.00720575804873
0.00724900400783
0.00729306556341
0.00734195219036
0.00739883451339
0.00746166868995
0.0075272667372
0.00759234901988
0.00767350547622
0.00783913061437
0.00854892773943
0.0121737067437
0.0248079215046
0.051140794661
0.0819805508174
0.00521093696443
0.00647439174685
0.00687902821422
0.00704273913292
0.0071205932024
0.00716843221504
0.00720490293004
0.00723561007384
0.00726930440268
0.00732752672529
0.00739840860024
0.00747123119195
0.00753591103016
0.00764119779402
0.00780307783303
0.00841222369782
0.0117381592638
0.0249564577326
0.0524835830668
0.0839817447834
0.00518028528592
0.00644300228742
0.00684713415545
0.00700949198945
0.00708336738511
0.00711842378585
0.00712046512482
0.00707757287368
0.00700591459929
0.0070541757203
0.00714566559425
0.00723370003367
0.00730512516417
0.00753832211076
0.00786540454527
0.00946793237216
0.0170340190036
0.0361358963503
0.0642202536169
0.0881455031273
0.00515304165852
0.00641714305843
0.00682042705439
0.00697917614266
0.00704240757956
0.00704109705241
0.00692082628253
0.00655979429271
0.00598412367625
0.00594020705992
0.00605978578617
0.00633871949776
0.00674813893358
0.00728079624095
0.00768023535626
0.00883659447265
0.0140615864288
0.0291975044579
0.0595692027011
0.0917544911688
0.00513142618046
0.00639857541518
0.00680077470741
0.00695366678496
0.00700069508291
0.00695153051153
0.0066986180279
0.00574925901324
0.00614148694576
0.00705507021241
0.00747727210733
0.00810231290905
0.0108099225374
0.0221544295044
0.0562689125976
0.095459039001
0.0051167850307
0.00638799105495
0.00679057298294
0.0069409163214
0.00697868203348
0.00689987940961
0.0065586176538
0.00540129952354
0.00622012849523
0.00712712504949
0.0074985886848
0.0081468112562
0.010819483992
0.0214707579946
0.049396299952
0.0887248295838
0.00511678899874
0.00638799548658
0.00679057706496
0.00694091966512
0.00697868428768
0.00689988097066
0.00655862062462
0.0054013115946
0.00622018991347
0.00712725786272
0.00749878210391
0.00814703452043
0.0108195745328
0.0214703705169
0.0493962682095
0.0887238056426
0.00513143559865
0.0063985872279
0.00680078579663
0.00695367602562
0.00700070192218
0.0069515363546
0.00669862882867
0.00574927922093
0.00614163250246
0.00705536601874
0.0074777030919
0.00810276244083
0.0108099437544
0.0221534742468
0.0562699520325
0.0954596612394
0.00515306167038
0.00641716566188
0.00682044893165
0.00697919580027
0.00704242388462
0.00704111038474
0.00692083908838
0.00655980594151
0.00598413115948
0.00594022063174
0.00605980935065
0.00633875289045
0.00674821813982
0.00728096475779
0.00768048990981
0.00883670607872
0.0140609865577
0.0291975416017
0.0595707718557
0.0917550392282
0.00518030309728
0.0064430217279
0.00684715183433
0.00700950728227
0.0070833802527
0.00711843479611
0.00712047657683
0.00707758863985
0.00700593541039
0.00705420877906
0.00714571578571
0.00723378117578
0.0073052542889
0.00753855274224
0.00786573469792
0.00946849602333
0.0170351951485
0.0361383771313
0.0642225426968
0.0881466025432
0.00521095084535
0.00647440879715
0.00687904620423
0.00704275620512
0.00712060885514
0.00716844733239
0.00720491911368
0.00723563022903
0.00726933307939
0.00732757012904
0.00739847057509
0.00747131116614
0.00753603552807
0.00764141507182
0.00780340785928
0.00841278200612
0.0117389125628
0.0249571228169
0.0524840524376
0.0839824720384
0.00524361422933
0.00650955365724
0.00691431744442
0.00707774695076
0.00715577792065
0.00720577593053
0.00724902540428
0.00729309281066
0.00734198934749
0.0073988863612
0.00746173961373
0.0075273549092
0.00759247089894
0.00767370389308
0.00783940947283
0.00854932021533
0.0121739908214
0.0248082453921
0.0511412191565
0.081980891644
0.00527678629427
0.00654651621542
0.00695107063017
0.00711299823986
0.00718933442366
0.00723776074015
0.00727983857578
0.00732331711178
0.00737099247291
0.00742364551405
0.00748059442192
0.00754045432253
0.0076032019326
0.00768343254863
0.00787544515763
0.00872707342504
0.0128270729832
0.0268346975918
0.0545578033974
0.0827602982894
0.00530918245119
0.00658353843026
0.00698760053834
0.0071472582431
0.00722099105752
0.00726674082568
0.00730594368587
0.00734629542205
0.00739032428396
0.00743862873447
0.00749085283297
0.00754647552283
0.00760767404392
0.0076950832848
0.00794468186177
0.00907998932572
0.0140288804368
0.0285248570802
0.0524893137246
0.0809593899972
0.00533991625947
0.00661933662173
0.00702266898921
0.00717957484316
0.0072502686934
0.00729306432427
0.00732924665321
0.00736636196346
0.00740690838137
0.00745150921529
0.00750004084986
0.00755284065721
0.00761525832265
0.00772385416738
0.00809502120062
0.00970415283243
0.0157181284181
0.0305922892779
0.0517995833164
0.0802427342189
0.0053684559107
0.00665304099711
0.00705543966195
0.00720931994523
0.00727677717118
0.00731660125808
0.00734995697575
0.00738420022893
0.00742172146811
0.00746323600257
0.00750897279868
0.00756036127277
0.00762883628132
0.00778742491035
0.00840838469561
0.0107892485678
0.0176636927557
0.0317912220884
0.0506145502805
0.0787349910142
0.00539463546949
0.00668416317934
0.00708546876995
0.00723612589967
0.0073003571096
0.007337338507
0.00736807000558
0.00739974365317
0.00743467024685
0.00747364708096
0.00751748635357
0.00757044884654
0.00766332500217
0.00799000894396
0.00937705815755
0.0135642365772
0.0213114804071
0.032271153495
0.0461805515412
0.0631584017994
0.00541798313631
0.00671233175948
0.00711242945733
0.00725989309588
0.00732097503915
0.00735530733803
0.00738367535924
0.00741303149391
0.00744560825334
0.00748215721159
0.00752346843391
0.00757270104708
0.00764884213417
0.00786424835692
0.00874586818734
0.01190560512
0.0196950114909
0.0326179068919
0.0492727833714
0.0752710551566
0.00543865467522
0.00673747978394
0.00713631005658
0.00728060821373
0.0073386986188
0.00737057098801
0.00739681881615
0.00742409687999
0.00745452933494
0.00748887226328
0.00752791978667
0.00757489880386
0.00764687091296
0.0078332641604
0.00853982396925
0.0111448859279
0.0184627436195
0.0319091198064
0.0494240006896
0.078120049122
0.00545660627023
0.00675962730013
0.00715711337867
0.00729836500146
0.00735365519101
0.00738328581427
0.0074075982593
0.007433016687
0.0074615065274
0.00749383253168
0.00753099875995
0.00757757014364
0.00765803941346
0.00788868661953
0.00870663854385
0.0112742361521
0.0176296404824
0.0293268514894
0.0453748153686
0.0733480287888
0.00547222001618
0.00677874688824
0.0071748781036
0.00731324105878
0.00736596787682
0.00739358008053
0.0074161613189
0.00743989183968
0.00746661369769
0.00749714181042
0.0075328950074
0.00758071139221
0.00767714968256
0.00798348510204
0.00899481078809
0.0116332120725
0.0170809275269
0.0287440357461
0.0535891423828
0.0804294903987
0.00548519678448
0.00679494805946
0.00718976623433
0.00732543574193
0.00737580062857
0.00740160010309
0.00742261968945
0.00744477819574
0.00746979888081
0.00749842579689
0.00753184505657
0.00757534955322
0.00765577372624
0.00789483017078
0.00871655467679
0.0110603918646
0.015994768719
0.0246851019549
0.0404116896872
0.0506201948478
0.00549590669278
0.00680841774345
0.0072019270897
0.00733510909742
0.00738334489357
0.00740751400447
0.00742711000375
0.00744782284112
0.00747122307408
0.00749796890663
0.00752917096215
0.00756917732623
0.00763810324516
0.00782489543264
0.00846150171719
0.0104145256254
0.0148570370564
0.022312925299
0.034293788727
0.0489703128122
0.00550447363491
0.00681925182946
0.00721152145777
0.00734243249301
0.00738875662347
0.00741146383296
0.00742976702339
0.00744913251384
0.00747102863212
0.00749600424536
0.00752511619425
0.00756241886299
0.00762465478889
0.00777851020594
0.00826876248873
0.0098466777521
0.0141891576937
0.0236365088755
0.0408917155883
0.0747667455578
0.00551099610633
0.00682764699017
0.00721870738048
0.00734756268643
0.00739218694451
0.00741359855285
0.0074307415293
0.00744887150737
0.00746935932318
0.00749272808335
0.0075199937717
0.00755520694
0.00761409067317
0.00775345566698
0.00816908644134
0.00950870104331
0.013677710763
0.0242718626516
0.0438151645234
0.0776301655749
0.00551569203278
0.0068337358118
0.00722365840973
0.00735067065532
0.00739379551622
0.00741406105114
0.00743017091745
0.00744719474826
0.00746640833624
0.00748831547193
0.00751398518254
0.00754767563866
0.00760551250362
0.00774276883104
0.00813906273666
0.00937655656323
0.0132628478896
0.0236137624674
0.0434709980353
0.07750603976
0.0055185805641
0.00683772641859
0.00722653009473
0.00735190986512
0.0073937307166
0.0074129991665
0.00742819644025
0.00744423765398
0.00746232063905
0.00748293086511
0.00750722574624
0.00753983225114
0.00759778751086
0.00773773655576
0.00813601439112
0.00933210339135
0.0128940924776
0.0221867437995
0.0408563636493
0.0756657004821
0.00552014569442
0.00683972384719
0.00722746933168
0.00735142681914
0.00739213287034
0.00741054568466
0.00742494607503
0.00744012394231
0.00745722593204
0.00747673160995
0.00749990559821
0.00753178545783
0.00759049128122
0.00773459646705
0.00814011490964
0.00931453014673
0.0125382441123
0.0199772528568
0.0338902428239
0.0667496294111
0.00552003004105
0.0068398508941
0.00722659812935
0.00734934831523
0.00738913101792
0.00740683208355
0.00742055916206
0.00743499385167
0.00745124957844
0.00746982909769
0.00749211925751
0.00752358837787
0.00758341217355
0.00773171546849
0.0081426049563
0.00929291274582
0.0122587689493
0.0183868821122
0.0275052747519
0.037558517379
0.00551891908551
0.00683819430651
0.00722400843608
0.00734577564996
0.0073848233939
0.0074019491395
0.00741512015615
0.00742893989636
0.00744449227554
0.00746232101027
0.00748396408282
0.00751537926452
0.00757688940407
0.00772994568497
0.00814540249554
0.00926939054142
0.0120740743035
0.0177645261469
0.0263285543717
0.036396173821
0.00551722095232
0.00683488403893
0.00721978106706
0.00734078943434
0.00737929862146
0.00739598585925
0.00740871094785
0.00742203362192
0.00743703524992
0.00745428645246
0.0074755300538
0.00750731215433
0.00757146555164
0.00773207484979
0.0081613568099
0.00929805526821
0.0121171386703
0.0181094365434
0.03107149078
0.0678705284284
0.0055145684023
0.00682999691038
0.00721407510049
0.00733453224828
0.00737266904644
0.00738904193437
0.00740143423116
0.00741437877047
0.00742894671683
0.00744577141304
0.00746681578047
0.00749928259042
0.00756665484301
0.00773599029257
0.00818171436375
0.00934111008145
0.0122133409259
0.0184306458242
0.0310227544601
0.0669650502301
0.0055107100165
0.00682364308365
0.00720706042869
0.00732712908466
0.00736501680494
0.00738117394335
0.00739332821797
0.00740600547263
0.00742027141959
0.00743682698602
0.00745783762232
0.00749121325613
0.00756210962602
0.00774044283426
0.00820222710907
0.00938130088421
0.0122917059332
0.0186645173042
0.031165322541
0.066148132324
0.00550567433553
0.0068159696343
0.00719886260062
0.00731868350554
0.00735642922512
0.00737246492782
0.00738447994529
0.00739697266415
0.00741105997862
0.0074274885735
0.00744863440701
0.0074830865119
0.00755769380412
0.00774501722927
0.00822158696178
0.00941234811357
0.0123309590446
0.0187819146538
0.0313790968972
0.0659112655856
0.0054995264519
0.00680713594742
0.00718959810244
0.00730928001678
0.00734696382812
0.00736295411246
0.00737492029533
0.00738735084681
0.00740137751568
0.00741779344769
0.00743922278892
0.00747491471299
0.00755335756709
0.00774957983049
0.00823969033817
0.00943506545493
0.0123301239527
0.018796938534
0.0314416168288
0.0652275630945
0.00549225009321
0.00679713164917
0.00717927442282
0.00729893059568
0.00733664740728
0.00735267014749
0.00736466572982
0.00737714070157
0.0073912265428
0.00740777475688
0.00742962695754
0.00746670330281
0.00754906058951
0.00775426556027
0.00825758984069
0.00945156430339
0.0122903354694
0.0186913477555
0.0311032710761
0.0588619498191
0.00548391051483
0.00678602198238
0.00716791974573
0.00728764549847
0.00732549720857
0.00734164931872
0.00735376420191
0.00736636913956
0.00738061245879
0.00739742715416
0.0074198496618
0.00745844555831
0.00754485085043
0.00775931887145
0.00827639682328
0.00946421814368
0.0122031133647
0.018411916494
0.0306730459352
0.0498377019013
0.00547460978572
0.00677384019548
0.00715561144129
0.00727549185537
0.00731354713958
0.00732990214154
0.00734222336345
0.00735505782451
0.00736957333725
0.00738676958312
0.00740989041702
0.00745011210521
0.00754065146536
0.00776466253851
0.00829674303256
0.00947391078683
0.0120413166676
0.0177422073811
0.0292832881718
0.0456629328413
0.00546439918002
0.0067606560474
0.00714229609178
0.00726244381956
0.0073007916058
0.00731742972309
0.00733004966551
0.00734320820578
0.00735809720994
0.00737578085354
0.0073997076836
0.00744161183918
0.007536150469
0.00776915233065
0.00831464205499
0.00946796402043
0.0117516988433
0.0163274895066
0.0248244720192
0.0349393381711
0.00545323059926
0.00674630193336
0.00712792976818
0.00724847378883
0.00728722910018
0.00730424541451
0.00731724488458
0.00733080887479
0.00734616060826
0.00736443222007
0.00738923500478
0.00743280522605
0.00753076622942
0.00777017716081
0.00832147110107
0.00943927167609
0.0114530805178
0.0149796906139
0.0209605235837
0.0387438472236
0.00544120856246
0.00673086075287
0.00711257446609
0.00723360542595
0.00727286907144
0.00729034931449
0.00730380533168
0.00731786055926
0.007333771549
0.00735271494626
0.00737849690893
0.00742376951043
0.00752476591172
0.00776847426145
0.00831992937548
0.00940795989843
0.0112986805559
0.0146672702976
0.0225921844451
0.0582075805637
0.00542834850112
0.00671443213722
0.00709626647419
0.0072178889022
0.0072577504058
0.00727577080242
0.00728976258202
0.00730438917974
0.00732093548419
0.00734063622898
0.00736752059047
0.00741473604716
0.00751937752405
0.00776884007436
0.008325282262
0.00940981304323
0.0113032115711
0.0149511867522
0.0253884467075
0.0646322249724
0.00541459778926
0.00669700851816
0.007079064488
0.0072013532037
0.00724189469345
0.00726053924773
0.00727514908848
0.00729042069587
0.00730766622798
0.00732821040545
0.00735631815727
0.00740576172954
0.00751488660354
0.00777245610026
0.0083403101935
0.00943819925817
0.0113489221288
0.0150526480569
0.026148437316
0.0648255805407
0.00539993429741
0.0066786946578
0.00706097315447
0.00718403211932
0.00722534414004
0.00724470214298
0.00726001244345
0.00727600996465
0.00729402431314
0.00731548009752
0.00734491463907
0.0073967787509
0.00751085982944
0.00777776323489
0.00835956126867
0.00947387203017
0.0113905647091
0.0149895335011
0.0252811406084
0.0652177741991
0.00538436773307
0.00665956359567
0.00704208409459
0.0071659927787