/*--------------------------------*- C++ -*----------------------------------*\
| =========                 |                                                 |
| \\      /  F ield         | OpenFOAM: The Open Source CFD Toolbox           |
|  \\    /   O peration     | Version:  v2012                                 |
|   \\  /    A nd           | Website:  www.openfoam.com                      |
|    \\/     M anipulation  |                                                 |
\*---------------------------------------------------------------------------*/
FoamFile
{
    version     2.0;
    format      ascii;
    class       volScalarField;
    location    "4.5";
    object      k_0;
}
// * * * * * * * * * * * * * * * * * * * * * * * * * * * * * * * * * * * * * //

dimensions      [0 2 -2 0 0 0 0];


internalField   nonuniform List<scalar> 
167
(
0.00169577819127
0.00170751177805
0.00172262883323
0.00174604506709
0.00178850743873
0.00187569465257
0.00208495028315
0.00266020592832
0.00410049497119
0.0070343159946
0.0144948338704
0.0519022013673
0.00211069998643
0.00212341847403
0.00214115577251
0.00217083582379
0.00222789796406
0.00235053643672
0.0026490560572
0.00342067055833
0.00520698992829
0.00908028435461
0.021277006942
0.0758661236632
0.00224641907664
0.00225959593574
0.00227846812551
0.00231069937746
0.00237327522793
0.00250814392393
0.00283246231983
0.00364811492844
0.00550027465138
0.00956779824739
0.0226056972557
0.0760156057603
0.00231240645322
0.00233156272703
0.00236447534614
0.00242847871073
0.00256652651144
0.00289768177603
0.00372064002956
0.00556197634597
0.00956907722456
0.0229333214438
0.0823001567947
0.00235348319713
0.00238606669087
0.00244937764695
0.00258643819201
0.00291743361698
0.00373921677026
0.005555192152
0.00935730299347
0.0213607370214
0.0714881581396
0.00236410780198
0.00239589622291
0.00245766721777
0.00259215009028
0.00292066592924
0.0037427427601
0.00555725397667
0.00926089113632
0.0193871467429
0.0593697580355
0.00237086713999
0.00240173413799
0.00246183820795
0.00259345827734
0.00291800204536
0.00373676513267
0.00556055227427
0.00931922221304
0.0186576096256
0.0491339285469
0.00237649656656
0.00240645004283
0.00246497880261
0.00259381198632
0.00291331372191
0.00372392029335
0.00554511513613
0.00937940545826
0.0200930833595
0.0614093025898
0.00238194112771
0.0024110140744
0.00246802983655
0.00259398275929
0.0029072914834
0.00370565299111
0.00551229427185
0.00939160144833
0.0217171704003
0.0733145759927
0.00238748660702
0.00241572950325
0.00247135455403
0.00259462223684
0.00290180565891
0.00368781331273
0.00548462918387
0.0094164956814
0.0218451906367
0.0677919626202
0.00239317345881
0.00242066690562
0.00247517198882
0.00259666220274
0.00290039276486
0.00368079544565
0.00548602205795
0.00951555714735
0.0217448170893
0.0596068882463
0.00239894365013
0.00242573895657
0.00247929223799
0.00259971102982
0.0029023773166
0.00368368526302
0.00550282946208
0.00949312899656
0.0206629009451
0.0577390190744
0.00240473177944
0.00243078797659
0.00248315031421
0.00260166677443
0.00290133489847
0.00368130337269
0.005504247901
0.00930917819762
0.0181729715655
0.0477357003018
0.00241048177027
0.00243576352038
0.00248664125799
0.0026021221596
0.00289607475732
0.00367019507317
0.00549520904641
0.0092672015996
0.0183524715833
0.0550993995299
0.00241614358016
0.00244069556867
0.00249010236106
0.00260256513655
0.00289096194425
0.00365958219103
0.00549034181685
0.00941920773591
0.02101150656
0.0706387383071
0.00242164187386
0.00244559926951
0.00249393594126
0.00260473553739
0.00289119352759
0.00365995201715
0.00549383065777
0.00950394939437
0.0221463382621
0.0723995418507
)
;

boundaryField
{
    back
    {
        type            kqRWallFunction;
        value           nonuniform List<scalar> 
167
(
0.00169577819127
0.00170751177805
0.00172262883323
0.00174604506709
0.00178850743873
0.00187569465257
0.00208495028315
0.00266020592832
0.00410049497119
0.0070343159946
0.0144948338704
0.0519022013673
0.00211069998643
0.00212341847403
0.00214115577251
0.00217083582379
0.00222789796406
0.00235053643672
0.0026490560572
0.00342067055833
0.00520698992829
0.00908028435461
0.021277006942
0.0758661236632
0.00224641907664
0.00225959593574
0.00227846812551
0.00231069937746
0.00237327522793
0.00250814392393
0.00283246231983
0.00364811492844
0.00550027465138
0.00956779824739
0.0226056972557
0.0760156057603
0.00231240645322
0.00233156272703
0.00236447534614
0.00242847871073
0.00256652651144
0.00289768177603
0.00372064002956
0.00556197634597
0.00956907722456
0.0229333214438
0.0823001567947
0.00235348319713
0.00238606669087
0.00244937764695
0.00258643819201
0.00291743361698
0.00373921677026
0.005555192152
0.00935730299347
0.0213607370214
0.0714881581396
0.00236410780198
0.00239589622291
0.00245766721777
0.00259215009028
0.00292066592924
0.0037427427601
0.00555725397667
0.00926089113632
0.0193871467429
0.0593697580355
0.00237086713999
0.00240173413799
0.00246183820795
0.00259345827734
0.00291800204536
0.00373676513267
0.00556055227427
0.00931922221304
0.0186576096256
0.0491339285469
0.00237649656656
0.00240645004283
0.00246497880261
0.00259381198632
0.00291331372191
0.00372392029335
0.00554511513613
0.00937940545826
0.0200930833595
0.0614093025898
0.00238194112771
0.0024110140744
0.00246802983655
0.00259398275929
0.0029072914834
0.00370565299111
0.00551229427185
0.00939160144833
0.0217171704003
0.0733145759927
0.00238748660702
0.00241572950325
0.00247135455403
0.00259462223684
0.00290180565891
0.00368781331273
0.00548462918387
0.0094164956814
0.0218451906367
0.0677919626202
0.00239317345881
0.00242066690562
0.00247517198882
0.00259666220274
0.00290039276486
0.00368079544565
0.00548602205795
0.00951555714735
0.0217448170893
0.0596068882463
0.00239894365013
0.00242573895657
0.00247929223799
0.00259971102982
0.0029023773166
0.00368368526302
0.00550282946208
0.00949312899656
0.0206629009451
0.0577390190744
0.00240473177944
0.00243078797659
0.00248315031421
0.00260166677443
0.00290133489847
0.00368130337269
0.005504247901
0.00930917819762
0.0181729715655
0.0477357003018
0.00241048177027
0.00243576352038
0.00248664125799
0.0026021221596
0.00289607475732
0.00367019507317
0.00549520904641
0.0092672015996
0.0183524715833
0.0550993995299
0.00241614358016
0.00244069556867
0.00249010236106
0.00260256513655
0.00289096194425
0.00365958219103
0.00549034181685
0.00941920773591
0.02101150656
0.0706387383071
0.00242164187386
0.00244559926951
0.00249393594126
0.00260473553739
0.00289119352759
0.00365995201715
0.00549383065777
0.00950394939437
0.0221463382621
0.0723995418507
)
;
    }
    sides
    {
        type            kqRWallFunction;
        value           nonuniform List<scalar> 
12
(
0.00169577819127
0.00170751177805
0.00172262883323
0.00174604506709
0.00178850743873
0.00187569465257
0.00208495028315
0.00266020592832
0.00410049497119
0.0070343159946
0.0144948338704
0.0519022013673
)
;
    }
    bottom
    {
        type            kqRWallFunction;
        value           nonuniform List<scalar> 0();
    }
    front
    {
        type            kqRWallFunction;
        value           nonuniform List<scalar> 
167
(
0.00169577819127
0.00170751177805
0.00172262883323
0.00174604506709
0.00178850743873
0.00187569465257
0.00208495028315
0.00266020592832
0.00410049497119
0.0070343159946
0.0144948338704
0.0519022013673
0.00211069998643
0.00212341847403
0.00214115577251
0.00217083582379
0.00222789796406
0.00235053643672
0.0026490560572
0.00342067055833
0.00520698992829
0.00908028435461
0.021277006942
0.0758661236632
0.00224641907664
0.00225959593574
0.00227846812551
0.00231069937746
0.00237327522793
0.00250814392393
0.00283246231983
0.00364811492844
0.00550027465138
0.00956779824739
0.0226056972557
0.0760156057603
0.00231240645322
0.00233156272703
0.00236447534614
0.00242847871073
0.00256652651144
0.00289768177603
0.00372064002956
0.00556197634597
0.00956907722456
0.0229333214438
0.0823001567947
0.00235348319713
0.00238606669087
0.00244937764695
0.00258643819201
0.00291743361698
0.00373921677026
0.005555192152
0.00935730299347
0.0213607370214
0.0714881581396
0.00236410780198
0.00239589622291
0.00245766721777
0.00259215009028
0.00292066592924
0.0037427427601
0.00555725397667
0.00926089113632
0.0193871467429
0.0593697580355
0.00237086713999
0.00240173413799
0.00246183820795
0.00259345827734
0.00291800204536
0.00373676513267
0.00556055227427
0.00931922221304
0.0186576096256
0.0491339285469
0.00237649656656
0.00240645004283
0.00246497880261
0.00259381198632
0.00291331372191
0.00372392029335
0.00554511513613
0.00937940545826
0.0200930833595
0.0614093025898
0.00238194112771
0.0024110140744
0.00246802983655
0.00259398275929
0.0029072914834
0.00370565299111
0.00551229427185
0.00939160144833
0.0217171704003
0.0733145759927
0.00238748660702
0.00241572950325
0.00247135455403
0.00259462223684
0.00290180565891
0.00368781331273
0.00548462918387
0.0094164956814
0.0218451906367
0.0677919626202
0.00239317345881
0.00242066690562
0.00247517198882
0.00259666220274
0.00290039276486
0.00368079544565
0.00548602205795
0.00951555714735
0.0217448170893
0.0596068882463
0.00239894365013
0.00242573895657
0.00247929223799
0.00259971102982
0.0029023773166
0.00368368526302
0.00550282946208
0.00949312899656
0.0206629009451
0.0577390190744
0.00240473177944
0.00243078797659
0.00248315031421
0.00260166677443
0.00290133489847
0.00368130337269
0.005504247901
0.00930917819762
0.0181729715655
0.0477357003018
0.00241048177027
0.00243576352038
0.00248664125799
0.0026021221596
0.00289607475732
0.00367019507317
0.00549520904641
0.0092672015996
0.0183524715833
0.0550993995299
0.00241614358016
0.00244069556867
0.00249010236106
0.00260256513655
0.00289096194425
0.00365958219103
0.00549034181685
0.00941920773591
0.02101150656
0.0706387383071
0.00242164187386
0.00244559926951
0.00249393594126
0.00260473553739
0.00289119352759
0.00365995201715
0.00549383065777
0.00950394939437
0.0221463382621
0.0723995418507
)
;
    }
    atmosphere
    {
        type            inletOutlet;
        inletValue      uniform 0.1;
        value           nonuniform List<scalar> 
16
(
0.0519022013673
0.1
0.1
0.1
0.0714881581396
0.0593697580355
0.0491339285469
0.0614093025898
0.0733145759927
0.0677919626202
0.0596068882463
0.1
0.1
0.1
0.1
0.1
)
;
    }
    floatingObject
    {
        type            kqRWallFunction;
        value           nonuniform List<scalar> 0();
    }
    procBoundary1to0
    {
        type            processor;
        value           nonuniform List<scalar> 10(0.00242692832583 0.00245036538656 0.00249786794171 0.00260782878564 0.00289483327728 0.00366966282516 0.00551865171297 0.009637634886 0.0236666110106 0.0725786446722);
    }
    procBoundary1to2
    {
        type            processor;
        value           nonuniform List<scalar> 
18
(
0.0016853784176
0.00209991418649
0.00223550557193
0.00229920967173
0.00229920967173
0.00233456313008
0.00233456313008
0.00234566733735
0.00235298484232
0.00235918338124
0.00236518276788
0.00237124270288
0.00237739727581
0.00238360274152
0.00238980720091
0.00239594147616
0.0024019458093
0.0024077616564
)
;
    }
}


// ************************************************************************* //
