/*--------------------------------*- C++ -*----------------------------------*\
| =========                 |                                                 |
| \\      /  F ield         | OpenFOAM: The Open Source CFD Toolbox           |
|  \\    /   O peration     | Version:  v2012                                 |
|   \\  /    A nd           | Website:  www.openfoam.com                      |
|    \\/     M anipulation  |                                                 |
\*---------------------------------------------------------------------------*/
FoamFile
{
    version     2.0;
    format      ascii;
    class       volScalarField;
    location    "4.5";
    object      p_rgh;
}
// * * * * * * * * * * * * * * * * * * * * * * * * * * * * * * * * * * * * * //

dimensions      [1 -1 -2 0 0 0 0];


internalField   nonuniform List<scalar> 
167
(
8770.35398112
8774.37644577
8778.7508218
8783.42072957
8788.32204057
8793.413455
8798.59610692
8803.78462826
8809.18968753
7660.23943563
1455.63377824
0.874112785532
8769.84981062
8773.89539023
8778.30634241
8783.00943194
8787.98322052
8793.14627949
8798.39354154
8803.49544624
8808.21069618
7696.29843977
1339.6983593
0.129672015726
8768.89989906
8772.97452345
8777.46055496
8782.27704242
8787.37797881
8792.71331913
8798.15987652
8803.43796884
8808.1201688
7708.83145988
1344.11959344
-0.596002119187
8771.58265525
8776.14457782
8781.11158161
8786.45530962
8792.10824753
8797.9759496
8803.87475003
8809.48261976
7745.81200224
1344.07915721
-1.04636898521
8774.36289234
8779.4965907
8785.1321249
8791.16288758
8797.60367131
8804.49802873
8811.97491446
7810.86868959
1482.84463548
-1.825666133
8772.08283181
8777.39265294
8783.28230558
8789.68368391
8796.66065839
8804.39493646
8813.31331323
7853.69191484
1808.82356626
0.744744193155
8769.23350103
8774.70814117
8780.81076854
8787.52207772
8794.87624167
8802.91457823
8811.63798354
7821.81323024
1881.01786302
13.2866443436
8765.7660749
8771.37046683
8777.64651947
8784.63145376
8792.3348961
8800.6546689
8809.15888524
7790.96885478
1622.91188815
2.56678333421
8761.63592373
8767.31354021
8773.73994737
8780.95877661
8789.08096252
8798.09184481
8807.74307735
7809.93949256
1531.70101385
0.387396963566
8756.81703903
8762.47144751
8768.95479272
8776.36123113
8784.89037973
8794.78063259
8806.3647342
7813.79894486
1539.01474471
7.56654206473
8751.26842157
8756.77759104
8763.16865695
8770.58257436
8779.27781886
8789.66785377
8802.41650222
7797.8938373
1522.72877595
-0.176214807647
8744.93735419
8750.17838
8756.29408978
8763.45401438
8771.91609467
8782.10329677
8794.62059206
7678.14920332
1495.93700387
0.22854681823
8737.8430332
8742.68479741
8748.34861972
8754.97539443
8762.78264426
8772.0745344
8783.2162511
7527.60477494
1443.18672876
-0.314687129544
8730.05769994
8734.3764095
8739.41642087
8745.28165668
8752.13369596
8760.19568515
8769.80016205
7391.06820985
1254.22782571
-0.175906531713
8721.65760441
8725.34451167
8729.62763039
8734.56112888
8740.253327
8746.82556141
8754.25779167
7207.00706731
1039.15066893
-0.0862924211926
8712.71977175
8715.70316672
8719.13014723
8723.02670395
8727.45071535
8732.55834361
8737.6953855
7023.0415731
889.257902209
-0.05719507458
)
;

boundaryField
{
    back
    {
        type            fixedFluxPressure;
        gradient        uniform 0;
        value           nonuniform List<scalar> 
167
(
8770.35398112
8774.37644577
8778.7508218
8783.42072957
8788.32204057
8793.413455
8798.59610692
8803.78462826
8809.18968753
7660.23943563
1455.63377824
0.874112785532
8769.84981062
8773.89539023
8778.30634241
8783.00943194
8787.98322052
8793.14627949
8798.39354154
8803.49544624
8808.21069618
7696.29843977
1339.6983593
0.129672015726
8768.89989906
8772.97452345
8777.46055496
8782.27704242
8787.37797881
8792.71331913
8798.15987652
8803.43796884
8808.1201688
7708.83145988
1344.11959344
-0.596002119187
8771.58265525
8776.14457782
8781.11158161
8786.45530962
8792.10824753
8797.9759496
8803.87475003
8809.48261976
7745.81200224
1344.07915721
-1.04636898521
8774.36289234
8779.4965907
8785.1321249
8791.16288758
8797.60367131
8804.49802873
8811.97491446
7810.86868959
1482.84463548
-1.825666133
8772.08283181
8777.39265294
8783.28230558
8789.68368391
8796.66065839
8804.39493646
8813.31331323
7853.69191484
1808.82356626
0.744744193155
8769.23350103
8774.70814117
8780.81076854
8787.52207772
8794.87624167
8802.91457823
8811.63798354
7821.81323024
1881.01786302
13.2866443436
8765.7660749
8771.37046683
8777.64651947
8784.63145376
8792.3348961
8800.6546689
8809.15888524
7790.96885478
1622.91188815
2.56678333421
8761.63592373
8767.31354021
8773.73994737
8780.95877661
8789.08096252
8798.09184481
8807.74307735
7809.93949256
1531.70101385
0.387396963566
8756.81703903
8762.47144751
8768.95479272
8776.36123113
8784.89037973
8794.78063259
8806.3647342
7813.79894486
1539.01474471
7.56654206473
8751.26842157
8756.77759104
8763.16865695
8770.58257436
8779.27781886
8789.66785377
8802.41650222
7797.8938373
1522.72877595
-0.176214807647
8744.93735419
8750.17838
8756.29408978
8763.45401438
8771.91609467
8782.10329677
8794.62059206
7678.14920332
1495.93700387
0.22854681823
8737.8430332
8742.68479741
8748.34861972
8754.97539443
8762.78264426
8772.0745344
8783.2162511
7527.60477494
1443.18672876
-0.314687129544
8730.05769994
8734.3764095
8739.41642087
8745.28165668
8752.13369596
8760.19568515
8769.80016205
7391.06820985
1254.22782571
-0.175906531713
8721.65760441
8725.34451167
8729.62763039
8734.56112888
8740.253327
8746.82556141
8754.25779167
7207.00706731
1039.15066893
-0.0862924211926
8712.71977175
8715.70316672
8719.13014723
8723.02670395
8727.45071535
8732.55834361
8737.6953855
7023.0415731
889.257902209
-0.05719507458
)
;
    }
    sides
    {
        type            fixedFluxPressure;
        gradient        uniform 0;
        value           nonuniform List<scalar> 
12
(
8770.35398112
8774.37644577
8778.7508218
8783.42072957
8788.32204057
8793.413455
8798.59610692
8803.78462826
8809.18968753
7660.23943563
1455.63377824
0.874112785532
)
;
    }
    bottom
    {
        type            fixedFluxPressure;
        gradient        nonuniform List<scalar> 0();
        value           nonuniform List<scalar> 0();
    }
    front
    {
        type            fixedFluxPressure;
        gradient        uniform 0;
        value           nonuniform List<scalar> 
167
(
8770.35398112
8774.37644577
8778.7508218
8783.42072957
8788.32204057
8793.413455
8798.59610692
8803.78462826
8809.18968753
7660.23943563
1455.63377824
0.874112785532
8769.84981062
8773.89539023
8778.30634241
8783.00943194
8787.98322052
8793.14627949
8798.39354154
8803.49544624
8808.21069618
7696.29843977
1339.6983593
0.129672015726
8768.89989906
8772.97452345
8777.46055496
8782.27704242
8787.37797881
8792.71331913
8798.15987652
8803.43796884
8808.1201688
7708.83145988
1344.11959344
-0.596002119187
8771.58265525
8776.14457782
8781.11158161
8786.45530962
8792.10824753
8797.9759496
8803.87475003
8809.48261976
7745.81200224
1344.07915721
-1.04636898521
8774.36289234
8779.4965907
8785.1321249
8791.16288758
8797.60367131
8804.49802873
8811.97491446
7810.86868959
1482.84463548
-1.825666133
8772.08283181
8777.39265294
8783.28230558
8789.68368391
8796.66065839
8804.39493646
8813.31331323
7853.69191484
1808.82356626
0.744744193155
8769.23350103
8774.70814117
8780.81076854
8787.52207772
8794.87624167
8802.91457823
8811.63798354
7821.81323024
1881.01786302
13.2866443436
8765.7660749
8771.37046683
8777.64651947
8784.63145376
8792.3348961
8800.6546689
8809.15888524
7790.96885478
1622.91188815
2.56678333421
8761.63592373
8767.31354021
8773.73994737
8780.95877661
8789.08096252
8798.09184481
8807.74307735
7809.93949256
1531.70101385
0.387396963566
8756.81703903
8762.47144751
8768.95479272
8776.36123113
8784.89037973
8794.78063259
8806.3647342
7813.79894486
1539.01474471
7.56654206473
8751.26842157
8756.77759104
8763.16865695
8770.58257436
8779.27781886
8789.66785377
8802.41650222
7797.8938373
1522.72877595
-0.176214807647
8744.93735419
8750.17838
8756.29408978
8763.45401438
8771.91609467
8782.10329677
8794.62059206
7678.14920332
1495.93700387
0.22854681823
8737.8430332
8742.68479741
8748.34861972
8754.97539443
8762.78264426
8772.0745344
8783.2162511
7527.60477494
1443.18672876
-0.314687129544
8730.05769994
8734.3764095
8739.41642087
8745.28165668
8752.13369596
8760.19568515
8769.80016205
7391.06820985
1254.22782571
-0.175906531713
8721.65760441
8725.34451167
8729.62763039
8734.56112888
8740.253327
8746.82556141
8754.25779167
7207.00706731
1039.15066893
-0.0862924211926
8712.71977175
8715.70316672
8719.13014723
8723.02670395
8727.45071535
8732.55834361
8737.6953855
7023.0415731
889.257902209
-0.05719507458
)
;
    }
    atmosphere
    {
        type            totalPressure;
        rho             rho;
        psi             none;
        gamma           1;
        p0              uniform 0;
        value           nonuniform List<scalar> 
16
(
0
-0.0264205955823
-0.00575998851962
-0.0249658229932
0
0
0
0
0
-2.6573330758e-05
0
-0.00107737441002
-0.009517465293
-0.00127204308884
-0.000383610684318
-0.000672921089939
)
;
    }
    floatingObject
    {
        type            fixedFluxPressure;
        gradient        nonuniform List<scalar> 0();
        value           nonuniform List<scalar> 0();
    }
    procBoundary1to0
    {
        type            processor;
        value           nonuniform List<scalar> 10(8703.36374391 8705.59453228 8708.10696236 8710.89008581 8713.9420952 8718.09865321 8720.80551412 6792.18574754 727.484465488 -0.0483803460822);
    }
    procBoundary1to2
    {
        type            processor;
        value           nonuniform List<scalar> 
18
(
8766.69348079
8766.18471521
8765.21592848
8767.47888741
8767.47888741
8769.72040494
8769.72040494
8767.35119223
8764.42164266
8760.90412779
8756.77180896
8751.99388363
8746.55932122
8740.45819379
8733.7017275
8726.34565372
8718.4539217
8710.1030931
)
;
    }
}


// ************************************************************************* //
