/*--------------------------------*- C++ -*----------------------------------*\
| =========                 |                                                 |
| \\      /  F ield         | OpenFOAM: The Open Source CFD Toolbox           |
|  \\    /   O peration     | Version:  v2012                                 |
|   \\  /    A nd           | Website:  www.openfoam.com                      |
|    \\/     M anipulation  |                                                 |
\*---------------------------------------------------------------------------*/
FoamFile
{
    version     2.0;
    format      ascii;
    class       surfaceVectorField;
    location    "4.5";
    object      Uf_0;
}
// * * * * * * * * * * * * * * * * * * * * * * * * * * * * * * * * * * * * * //

dimensions      [0 1 -1 0 0 0 0];


internalField   nonuniform List<vector> 
306
(
(-0.00245620568298 0.0336932488088 5.84717375381e-22)
(-0.0044000653637 0.0311551981351 3.52298970956e-22)
(-0.00262430209116 0.0383878425063 4.22176562159e-22)
(-0.00469928607549 0.0356529164509 3.33024326059e-22)
(-0.00281715317019 0.0434224805636 1.17107076382e-22)
(-0.00503855853026 0.0404700909729 6.1882435368e-23)
(-0.00303477883553 0.0488470533496 -6.7069467325e-23)
(-0.00542790639044 0.0456534278071 -9.24675802019e-23)
(-0.00329014425588 0.0547194625887 -6.34297623462e-22)
(-0.00587533511089 0.0512428096373 -2.21765630822e-22)
(-0.00340605297783 0.0610907519525 -1.59957828952e-21)
(-0.00637410002473 0.057341890867 -1.11920424371e-21)
(-0.00289231441182 0.0677415749841 -2.37408916111e-21)
(-0.00665365170867 0.0634575555777 -2.57228598069e-21)
(-0.00243345305545 0.073727797459 -3.44769349433e-21)
(-0.00598877037711 0.0724575658624 -5.44999948429e-21)
(-0.00425178180501 0.079469954572 -1.97065846381e-21)
(-0.00574359716553 0.0750362349047 -5.75420132939e-21)
(-0.0231003090637 0.0871276089637 3.14827657956e-20)
(-0.00765825450232 0.0764494756304 -1.71100800072e-21)
(-0.233691789471 0.125782493738 5.69193668863e-20)
(-0.0386522171021 0.0867223495916 1.41371049168e-20)
(-0.495217325844 0.141984963243 2.1568463965e-20)
(-0.00680461982687 0.0329563727645 1.00605921635e-22)
(-0.00870844050801 0.030293648254 8.76223303303e-23)
(-0.0072891832719 0.0375563829787 -2.72698007322e-23)
(-0.00930473582032 0.0346717676436 -1.01291424015e-24)
(-0.0078443337361 0.0425053417966 -1.47692221216e-22)
(-0.00999157215764 0.0393686533709 -1.3346659192e-22)
(-0.0084746532351 0.0478459704679 -2.47163743699e-22)
(-0.010771652541 0.0444372476136 -1.61201304745e-22)
(-0.0091828615072 0.053632085072 -7.06672251066e-22)
(-0.0116640980609 0.0499135938117 -3.18707654441e-22)
(-0.00984665180227 0.0599282110018 -2.09191193487e-21)
(-0.0126728301185 0.0558813731074 -1.51804486493e-21)
(-0.00986378227221 0.0669113071235 -5.64819630386e-21)
(-0.013639588441 0.062040275698 -1.77490706668e-21)
(-0.00952235659754 0.0744963364427 -7.75650731934e-21)
(-0.0135765113775 0.0713083611889 -8.47286034588e-21)
(-0.0098819518638 0.0823717508131 -5.4945508663e-21)
(-0.0136207160527 0.0751750738403 -1.31458131344e-20)
(-0.0186621615143 0.0893578462738 -1.90566688795e-20)
(-0.0146445308916 0.0783543982219 -1.06802222858e-20)
(-0.192287073143 0.0755886362438 -2.12137980045e-20)
(-0.0248813809998 0.0916721192259 -5.38157610654e-20)
(-0.135705271396 -0.122216644735 -3.33129855437e-20)
(-0.0111622952154 0.0318608850133 -1.39965055448e-23)
(-0.0119605568027 0.0363132337272 -1.07209705428e-22)
(-0.0137621234286 0.0334813405467 -3.91035433112e-23)
(-0.0128793103498 0.0411035540795 -1.46975675449e-22)
(-0.0147854112692 0.0380158080121 -1.10654993941e-22)
(-0.0139297092514 0.0462892094298 -2.32745215486e-22)
(-0.0159597310814 0.042908334843 -1.24215921775e-22)
(-0.0151277988486 0.0519126798474 -1.13008026831e-21)
(-0.0172895205506 0.0482031377633 -3.14253450643e-22)
(-0.0164267038273 0.0580768671687 -1.20103999674e-21)
(-0.0188392946941 0.0539814969539 -1.35749842477e-21)
(-0.0172508735448 0.0649784793607 -4.5995711087e-21)
(-0.0205441330719 0.0599987771301 -7.32815926747e-22)
(-0.0175355741767 0.0727563927003 -1.38621661609e-20)
(-0.0213575926976 0.0691576659748 -3.96750485396e-21)
(-0.0176777612275 0.0813084960741 -1.83314845539e-20)
(-0.0221748705103 0.0734395118641 -1.17729559507e-20)
(-0.0200816115105 0.0879386861009 -4.54393144717e-20)
(-0.0212752043094 0.0778430698785 -1.25954293588e-20)
(0.0410849444296 0.079182235453 -6.59149486047e-20)
(-0.0161392899694 0.09304577621 -4.19542466511e-20)
(0.270802946545 -0.267440232412 -3.68530206508e-20)
(-0.0165112806997 0.0350167822478 -4.25488318242e-23)
(-0.0177826969776 0.0396178155791 -8.78952402667e-23)
(-0.0193886915939 0.0365452808583 -5.55663805738e-23)
(-0.0192431812503 0.0445945024751 -2.05724156932e-22)
(-0.0209376602725 0.0412282569093 -9.1206477045e-23)
(-0.0209259009573 0.0500140579726 -5.41671607107e-22)
(-0.0227102187779 0.0462945221372 -3.68518098279e-22)
(-0.0228756705931 0.0559534849758 -8.89274354777e-22)
(-0.0247807557699 0.0518343709019 -1.11081437674e-21)
(-0.0246007609722 0.06265846657 -1.00749672008e-22)
(-0.0272524952176 0.0576357046286 -1.24148894303e-21)
(-0.0259398178581 0.0705176671878 -1.87829464374e-21)
(-0.0292207509342 0.0665280118264 -4.72708699149e-22)
(-0.0255218107251 0.0795642526786 -6.03690075565e-21)
(-0.0312241077377 0.071057603523 -8.55466502527e-21)
(-0.0137576898956 0.0864201561411 -9.11036153821e-21)
(-0.0281322479054 0.076768769269 -8.58000574705e-21)
(0.405507623693 0.0568488007193 -1.28923186972e-20)
(0.0134575725598 0.0908129025158 -1.38221604895e-20)
(1.1548981966 -0.151874842014 -1.72153560558e-20)
(-0.0224639872996 0.0379727208878 -5.88776173521e-23)
(-0.0237986885764 0.0348637695239 -3.90767492749e-23)
(-0.0243111032053 0.0427015056811 -2.54000418392e-22)
(-0.0256663937853 0.0393085303431 -8.78112571871e-23)
(-0.0264592618872 0.0478572784648 -9.37660867906e-22)
(-0.0278664289176 0.0441062515933 -4.99533018643e-22)
(-0.0290448955507 0.0535170981326 -1.46302896498e-21)
(-0.0304427300143 0.0493294182669 -1.68379470958e-21)
(-0.0317178917405 0.0599181897727 -1.61344797017e-21)
(-0.0336577947579 0.0547499027996 -2.02377472528e-21)
(-0.0343751379164 0.0673909460121 -7.14907908068e-21)
(-0.0366985530341 0.0630493018047 -3.70583500234e-21)
(-0.0347074618788 0.0765460379881 -1.10977700167e-20)
(-0.0403825864066 0.0671575853969 -1.3815241404e-20)
(-0.00763086247508 0.0886372822091 -1.32918046983e-20)
(-0.0402237703121 0.0732212649579 -9.48103115872e-21)
(0.639927215868 0.0993303477631 -1.8145197848e-20)
(0.00264911728812 0.0862196261281 2.07235721648e-20)
(1.07993005479 0.368001782601 2.6184137784e-20)
(-0.0268997946099 0.036037750118 -6.80103891099e-23)
(-0.0279544013247 0.0329229666515 -4.55519521187e-23)
(-0.0291065327978 0.0405179189612 -3.33343857438e-22)
(-0.0301453419353 0.0370853619248 -1.47047943894e-22)
(-0.031691509763 0.0453559172247 -1.24566686031e-21)
(-0.0327044817883 0.041566115851 -6.23739469087e-22)
(-0.0348084702734 0.050628761806 -2.24454046987e-21)
(-0.0357181914059 0.0464176954452 -1.91991928233e-21)
(-0.0382398102427 0.0563370883871 -4.11616175745e-21)
(-0.039371402986 0.0513495877929 -2.43721238731e-21)
(-0.0420157597423 0.0628221308594 -1.03719973257e-20)
(-0.0431898116585 0.0587233671236 -1.07998578253e-20)
(-0.0453025271625 0.0701545368428 -1.21985025461e-20)
(-0.0477191256411 0.0613148089387 -2.02029388323e-20)
(-0.0310846038604 0.0833975947614 2.45343457044e-20)
(-0.0534663054462 0.0660899850458 -1.08380282999e-20)
(0.227857267408 0.152973802846 6.50529077968e-20)
(-0.0670601201746 0.0763831668766 7.59627325871e-20)
(0.178449185444 0.453477256586 8.46625082048e-20)
(-0.031056516515 0.033824293879 -1.24589506903e-22)
(-0.0318192830807 0.0307217899947 -5.19005763706e-23)
(-0.0335849948423 0.0379793267432 -4.37443555543e-22)
(-0.0342983955717 0.0345610161291 -2.0870067473e-22)
(-0.0365411765885 0.0424519544485 -1.2979918911e-21)
(-0.0371771262486 0.0386839123549 -6.61501873945e-22)
(-0.0400389408298 0.0472601868553 -2.11259119977e-21)
(-0.0405296897204 0.0431532236698 -1.69891835194e-21)
(-0.0438658698484 0.052315071378 -9.12090845512e-21)
(-0.0444325764481 0.0476604083851 -1.53502057639e-21)
(-0.0477539797009 0.0574795407483 -2.06307993319e-20)
(-0.0483613944051 0.0543217203927 -1.16832487964e-20)
(-0.0526436254471 0.0614817250468 -1.88424645861e-20)
(-0.0517258804003 0.0561604227657 -2.50543331425e-20)
(-0.0764806741611 0.0650101482819 4.05903585827e-20)
(-0.0569940963302 0.0614517474811 -1.4823539399e-20)
(-0.0774239278705 0.105363669015 9.55723329951e-20)
(-0.107530062467 0.0660481726576 7.28029357517e-20)
(-0.122210281577 0.223644094004 6.52838981726e-20)
(-0.034897947615 0.0313328443252 -1.36011744197e-22)
(-0.0353626088148 0.0282733598147 -5.3018942046e-23)
(-0.0377143677643 0.0351364346796 -4.32758993131e-22)
(-0.0380996372721 0.0317572384063 -2.01472504659e-22)
(-0.0409793997312 0.0392292996952 -1.06242833478e-21)
(-0.0412701642602 0.035498607366 -5.65151264931e-22)
(-0.0447711861939 0.0436277924305 -1.12134772856e-21)
(-0.0449319851061 0.0395809875681 -1.15084365141e-21)
(-0.0488313672488 0.048329152884 -4.09736091768e-21)
(-0.0491408119815 0.0437585096581 -1.16403168312e-21)
(-0.0525371759859 0.0532454797404 -1.6106782607e-20)
(-0.0532851026894 0.050076438012 -3.4088372933e-21)
(-0.0573478043236 0.0582779528389 -2.10354079553e-20)
(-0.0567627637479 0.052453007763 -1.58953147583e-20)
(-0.0911786927172 0.0646045827413 1.73890377701e-20)
(-0.0633198376299 0.0603361749577 -1.32170811512e-20)
(-0.164342560032 0.083884226634 4.25145009293e-20)
(-0.126968370805 0.0660468797703 1.82587707603e-20)
(-0.33454554696 0.177823759204 8.70846993825e-21)
(-0.0383861147872 0.0285880567947 -1.18479702508e-22)
(-0.0385464777764 0.0256003272534 -5.10911081582e-23)
(-0.0414659956837 0.0320027281398 -3.33864776459e-22)
(-0.0415118946064 0.0286906520827 -1.76879672514e-22)
(-0.0450327181779 0.0356951485979 -6.5356658156e-22)
(-0.0449629021389 0.0320099807119 -4.43837304253e-22)
(-0.0491422653002 0.039716681707 -1.19352760597e-21)
(-0.0489574831646 0.0356641654592 -6.64045331454e-22)
(-0.0535244095915 0.044113968346 -4.7550805875e-22)
(-0.0535449000565 0.0394647845322 -1.37950811605e-21)
(-0.057686633265 0.048987910152 -3.19736944462e-21)
(-0.0581660187821 0.0454178700721 -1.66152880343e-22)
(-0.0634811997161 0.0548275424767 -8.07698795426e-21)
(-0.0626063606429 0.0481764774349 -1.06602885869e-20)
(-0.09316461012 0.0625149260759 -1.2347348161e-20)
(-0.0710063878292 0.0574130131931 -1.03945558129e-20)
(-0.324146658267 0.0477852077611 -1.55472602307e-20)
(-0.112389218428 0.0649030361779 -2.81160857981e-20)
(-0.61714544376 0.124652472336 -2.64409150751e-20)
(-0.0414865116795 0.025608579741 -1.09491078164e-22)
(-0.0413368891689 0.0227298068126 -5.27640688142e-23)
(-0.0448023484606 0.0285931127904 -2.86852200308e-22)
(-0.0444940773455 0.0253840638005 -1.77606259526e-22)
(-0.0486687856562 0.0318170457041 -4.54316054147e-22)
(-0.0481871274006 0.0282157422523 -4.56847688808e-22)
(-0.0531477828615 0.03536700718 -8.50025841536e-22)
(-0.052511089887 0.0313361426827 -4.71361198727e-22)
(-0.0579980466112 0.0393428141561 -1.07015293765e-21)
(-0.0575267782479 0.0345768473913 -1.66227464486e-21)
(-0.0629742241588 0.0439402550936 -7.62907202265e-21)
(-0.0627694769659 0.0399124237434 1.45923443723e-22)
(-0.0701905738554 0.0497583099784 -1.29778564456e-20)
(-0.0684276923974 0.0427192940443 -1.07882226073e-20)
(-0.0909167995167 0.0574317654527 -2.61632934501e-20)
(-0.0786788409161 0.0532177706129 -1.07750889268e-20)
(-0.356256538323 0.0500859602142 -3.90097406425e-20)
(-0.105170999515 0.0598828036748 -2.72164217724e-20)
(-0.684889769122 0.0732420658738 -2.82308338371e-20)
(-0.0441567086332 0.0224244083894 -1.20879250176e-22)
(-0.0437140259222 0.0197044638244 -6.22814912312e-23)
(-0.0476587553287 0.0249273311508 -3.47601748026e-22)
(-0.04699473417 0.0218884468146 -1.68476081542e-22)
(-0.0517715656574 0.0275937422448 -4.73892833388e-22)
(-0.0508535926698 0.0241678248061 -3.92252174679e-22)
(-0.0566008807124 0.0304892915765 -1.28361000205e-21)
(-0.0554095519749 0.026627519976 -4.02967863385e-22)
(-0.0620104738764 0.0337552144446 -4.46198263487e-22)
(-0.060797570994 0.029060605 -1.72474150828e-21)
(-0.068082634654 0.0377631338332 -3.01322714096e-21)
(-0.0667821044209 0.0332546371316 -7.10631674607e-22)
(-0.0778094488066 0.0434291630637 -8.58545508853e-21)
(-0.0740961704449 0.0352098783458 -1.09870971918e-20)
(-0.0971526511901 0.0542764848273 -1.18282172491e-20)
(-0.0895257907303 0.0458714277315 -1.17010662883e-20)
(-0.407835738974 0.064828606258 -1.6437514967e-20)
(-0.115814872729 0.048896401163 -1.16635758498e-20)
(-0.724420658258 0.0229058887378 -1.5494190448e-20)
(-0.0463485948465 0.0191058344006 -1.09878322597e-22)
(-0.0456165467154 0.0165881103435 -6.41844950039e-23)
(-0.0499577143028 0.021080051057 -2.13126508195e-22)
(-0.0489667835106 0.0182868979223 -1.33167674214e-22)
(-0.0541975928422 0.0231119767021 -3.21327204676e-22)
(-0.0528852321934 0.0199909603986 -2.77745339655e-22)
(-0.0592171863875 0.0251953604238 -8.44099369622e-22)
(-0.0574949240794 0.0217407850189 -2.97436423781e-22)
(-0.0650035597553 0.0273786746344 -1.9891749194e-21)
(-0.062984376148 0.0232706312665 -1.22242799651e-21)
(-0.0718014793626 0.0298214024215 -8.68450172544e-21)
(-0.0692281756903 0.0259566064454 -4.37697082579e-21)
(-0.0835625096327 0.0324848635792 -1.41027083915e-20)
(-0.0767613126889 0.0261104314598 -1.6077026486e-20)
(-0.101537465168 0.0363825089322 -1.15364248889e-20)
(-0.0934234074902 0.0341597937362 -1.37246242535e-20)
(-0.384350379558 0.0414671668926 -1.07202513308e-20)
(-0.120957757273 0.0300644947824 6.63648061924e-21)
(-0.598545578568 -0.0782440679915 4.02352958266e-21)
(-0.0480441044265 0.0157380996612 -8.74738466212e-23)
(-0.0470725362693 0.0134498130548 -6.25812749186e-23)
(-0.051668473131 0.0171823409492 -1.97786505675e-22)
(-0.0504090145626 0.0146706972787 -1.07872770315e-22)
(-0.0559049131284 0.018585785759 -2.5385455876e-22)
(-0.0542880943443 0.0158254384473 -3.03425379554e-22)
(-0.0608986504344 0.0199094424566 -6.75765050673e-22)
(-0.0588197054685 0.0169402515623 -1.55756130209e-22)
(-0.066627669042 0.0210813246204 -3.6102239029e-21)
(-0.0641584904254 0.0177717220118 -1.4378881458e-21)
(-0.0729592448814 0.0218499390595 -1.17694955864e-20)
(-0.0699989489115 0.019436205909 -1.7147434881e-21)
(-0.0837859830342 0.0207101847901 -1.5698942348e-20)
(-0.0756226477877 0.0190864450744 -8.19875523912e-21)
(-0.102821845785 0.0159862627662 4.44828125464e-21)
(-0.0886996879942 0.0264135111114 -9.00492413729e-21)
(-0.308186258061 0.000649626616855 2.13802615327e-20)
(-0.105616529029 0.0195444766437 1.75501135078e-20)
(-0.372905647424 -0.0951892679985 1.54651770376e-20)
(-0.0492574723047 0.0123772156099 -8.29801986119e-23)
(-0.0480834935791 0.0103448765695 -5.45829415424e-23)
(-0.0528276008968 0.0133210289434 -2.13511644193e-22)
(-0.0513511335298 0.0111102034522 -7.39083254317e-23)
(-0.0569805933486 0.0141838023265 -2.05326951002e-22)
(-0.0551500731292 0.0117622072073 -2.25137477211e-22)
(-0.0618551471264 0.0149297418774 -9.17879225341e-22)
(-0.0595660182225 0.0123484568861 -2.51704683432e-24)
(-0.0673973743337 0.0155637201332 4.5759226899e-22)
(-0.0647936539492 0.0126956360271 -8.53464231445e-22)
(-0.0731101375916 0.0161092581614 1.85599685916e-21)
(-0.0705457386314 0.0138731095753 3.57962202533e-21)
(-0.0831533727893 0.0165102373024 -1.5047370284e-21)
(-0.0760242455823 0.0139167968507 -1.53445885509e-21)
(-0.102337832983 0.0193182234832 4.09690811587e-21)
(-0.0915077271399 0.0218995485665 -3.51187045166e-21)
(-0.210997475544 0.0324297517024 1.16350290128e-20)
(-0.118732590376 0.0160006062848 1.22628538477e-20)
(-0.191960929115 -0.0484660502216 1.38880703596e-20)
(-0.0500142458121 0.00907709596852 -4.55110683622e-23)
(-0.0486673369818 0.00731911329417 -4.75854204358e-23)
(-0.0534970202024 0.0095712358717 -8.55341584492e-23)
(-0.0518438569501 0.00765085220911 -5.22942802102e-23)
(-0.0575482129792 0.00994127547402 -2.2327573043e-23)
(-0.0555191518155 0.00783699061536 -1.67404139906e-22)
(-0.06233851848 0.0102044346358 6.18979470609e-23)
(-0.0598290156479 0.00793274287354 -1.10299354885e-22)
(-0.0678432430353 0.0104158978024 2.2685655249e-21)
(-0.0650056824112 0.00778366571239 -7.01495248838e-22)
(-0.0735115965679 0.0107218203783 1.89166311092e-22)
(-0.0708523551372 0.00845109655047 3.39138295677e-21)
(-0.0843762949239 0.0111253263295 -3.54159227835e-21)
(-0.0764281100753 0.00780183764576 -5.22009315432e-22)
(-0.104258421404 0.012625513337 4.65407528018e-21)
(-0.0930080506545 0.015044511514 -3.40712810448e-21)
(-0.136237705735 0.00513459244857 1.45158951945e-20)
(-0.11124457046 0.00941281472497 -3.4822344138e-21)
(-0.127371993854 -0.0295156077421 -5.0733955469e-22)
(-0.050334608108 0.00590703716388 -5.43686322837e-23)
(-0.0537004549888 0.00594892458569 -1.34164261667e-22)
(-0.0576311978866 0.0058362517758 -2.55375921748e-22)
(-0.0623475871946 0.00559415611297 -8.73692550784e-22)
(-0.0678997682889 0.00528576111842 4.21322183031e-22)
(-0.0736136187749 0.0051618283316 2.68020733024e-21)
(-0.0849219970442 0.00492997293133 -3.87545141562e-22)
(-0.0996480847281 0.00536460439465 -1.15434377985e-20)
(-0.11034858158 -0.0055387022153 -1.8505469163e-20)
)
;

boundaryField
{
    back
    {
        type            calculated;
        value           uniform (0 0 0);
    }
    sides
    {
        type            calculated;
        value           uniform (0 0 0);
    }
    bottom
    {
        type            calculated;
        value           nonuniform List<vector> 0();
    }
    front
    {
        type            calculated;
        value           uniform (0 0 0);
    }
    atmosphere
    {
        type            calculated;
        value           nonuniform List<vector> 
16
(
(-0.427221075745 0.62099844545 5.11342920965e-20)
(0 -0.283926413009 0)
(0 -0.327316862159 0)
(0 -0.827394183549 0)
(1.26148599726 0.174392546817 -1.93532777307e-20)
(0.471356197465 1.05471804321 7.17215532987e-20)
(-0.0574568386303 0.406141028089 9.7603463111e-20)
(-0.206801779563 0.296385463983 3.29643332342e-20)
(-0.529262748688 0.330560338034 -1.55473933577e-20)
(-0.605562143426 0.117951329457 -3.73344367924e-20)
(-0.705632788861 0.104459095697 -1.91272308818e-20)
(0 -0.0843603313294 0)
(0 -0.225037162783 0)
(0 -0.148518234073 0)
(0 -0.0594525399662 0)
(0 -0.0333277880468 0)
)
;
    }
    floatingObject
    {
        type            calculated;
        value           nonuniform List<vector> 0();
    }
    procBoundary1to0
    {
        type            processor;
        value           nonuniform List<vector> 10((-0.0488602695148 0.00441912053512 -2.74638546109e-23) (-0.0518847030727 0.00434057513894 -5.13188997075e-23) (-0.0554056362698 0.00408714091923 -1.58674945452e-22) (-0.0595866827976 0.00369366249313 -3.42216020291e-22) (-0.0646975662119 0.00295802588505 -1.66229656534e-21) (-0.0707289312817 0.00315999519429 4.93894066285e-22) (-0.0761965402057 0.00118778996352 -1.27963574639e-21) (-0.0934427148887 0.00757327018 -5.94291287255e-21) (-0.10034051191 -0.000624591063328 -1.36213286828e-20) (-0.0995840672133 -0.0363901318732 -1.3273575256e-20));
    }
    procBoundary1to2
    {
        type            processor;
        value           nonuniform List<vector> 
18
(
(-0.00231440935768 0.0293014412319 3.29125225318e-22)
(-0.00638877110843 0.0286566547358 -3.97468847929e-23)
(-0.0104775153289 0.0277002385813 -2.86368459056e-23)
(-0.0128793977499 0.0292485887675 1.38004926014e-23)
(-0.0154126727652 0.0307288657579 -1.13065451649e-23)
(-0.0180586697513 0.03219368114 -5.04453685292e-24)
(-0.020862593461 0.0335659675151 -1.80620856026e-23)
(-0.0249965713479 0.0318820909125 -1.58965950178e-23)
(-0.028876368249 0.029957309631 -1.91078669248e-23)
(-0.0324645099804 0.0277858910183 -3.37556920078e-23)
(-0.0357296161454 0.0253999896487 -2.76771031557e-23)
(-0.0386393683213 0.022813839982 -2.38158532226e-23)
(-0.0411579243709 0.0200431980617 -2.7349274737e-23)
(-0.0432557329445 0.0171996352316 -3.73939439886e-23)
(-0.0449260934254 0.0142788424875 -3.87529245019e-23)
(-0.046170361947 0.0113637743486 -3.61834893148e-23)
(-0.0469952338398 0.00849156682427 -1.00492380079e-23)
(-0.0474166461642 0.00571340439211 -2.06266201071e-24)
)
;
    }
}


// ************************************************************************* //
