/*--------------------------------*- C++ -*----------------------------------*\
| =========                 |                                                 |
| \\      /  F ield         | OpenFOAM: The Open Source CFD Toolbox           |
|  \\    /   O peration     | Version:  v2012                                 |
|   \\  /    A nd           | Website:  www.openfoam.com                      |
|    \\/     M anipulation  |                                                 |
\*---------------------------------------------------------------------------*/
FoamFile
{
    version     2.0;
    format      ascii;
    class       volVectorField;
    location    "5.2";
    object      ddtCorrDdt0(U);
}
// * * * * * * * * * * * * * * * * * * * * * * * * * * * * * * * * * * * * * //

dimensions      [0 1 -2 0 0 0 0];


internalField   nonuniform List<vector> 
164
(
(0.0725229181598 0.0179392722222 2.67413793267e-20)
(0.0461032977331 0.0392533752948 4.11543523352e-19)
(0.0279141656506 0.0699207091106 1.99829299421e-19)
(0.0259998549842 0.086274220063 1.94162870875e-19)
(0.0314027734027 0.0979843196833 2.51721908884e-20)
(0.0372284619677 0.0944769808358 -1.51351304182e-20)
(0.217881608025 0.209197348432 -1.15940019512e-19)
(1.20675203472 0.528230456477 -1.99768251439e-18)
(0.00209508931923 0.0275883881503 -1.34794639935e-19)
(0.0140039358995 0.0453558509875 -4.41945944907e-20)
(0.00729256465615 0.0638601745777 2.49862557751e-20)
(0.00932831432561 0.088647666962 6.46471331894e-20)
(0.0123421183976 0.102121029071 -4.76579415298e-20)
(0.0152212929525 0.102485593774 -6.99473878434e-20)
(0.157955886998 0.17820725362 -2.0471249514e-19)
(0.479730312185 0.802440204949 -3.68156771155e-19)
(-0.00129074976342 0.0272723991904 -1.32429882243e-19)
(-0.0136150356832 0.0451140650175 -4.41448677292e-20)
(-0.00661094597078 0.0640875509547 9.27257559058e-21)
(-0.00747977035834 0.0897363220963 5.69726338088e-20)
(-0.0102092241057 0.103390640302 -5.47046025208e-20)
(-0.0120373149569 0.105249281171 -6.7492128156e-20)
(-0.104986141466 0.168728244696 -1.247392395e-19)
(-0.374877060998 0.957371429708 -6.69450693421e-19)
(-0.0736957923938 0.0174925902918 -3.71789535781e-21)
(-0.0463718225158 0.0390362041498 4.00651283783e-19)
(-0.0278992825078 0.0704132082073 1.8609540264e-19)
(-0.025543826243 0.0880652157092 1.85834381266e-19)
(-0.0308852504195 0.101451055137 -2.72967209696e-21)
(-0.0315773515872 0.0998296551081 -1.54998844785e-20)
(-0.238855352227 0.175508834845 -6.76883104582e-20)
(-1.29331786657 0.713778683653 3.91268862925e-19)
(-0.0407776845191 0.0858437977306 7.77006926687e-19)
(-0.038345088323 0.0924710105318 3.05064191021e-19)
(-0.0459723994612 0.100712691624 1.74705112991e-19)
(-0.043925062397 0.0904315176535 5.98550650963e-20)
(-0.0793884647788 0.017838944775 2.48631694374e-19)
(1.08818834581 -2.32949870911 1.92615951891e-18)
(-0.0430028186557 0.083851769034 1.23707817658e-18)
(-0.0476441879372 0.0910042739046 2.90497657998e-19)
(-0.0559464926419 0.0998894245562 1.79725924678e-19)
(-0.0669866779404 0.0863129818624 4.8463034058e-20)
(-0.0558404584541 -0.0961407942022 -4.61400018003e-20)
(0.149531355815 1.15723676274 1.34699419154e-18)
(-0.050804988459 0.0799679976197 9.64912819756e-19)
(-0.056457052001 0.0877555272953 2.73933063507e-19)
(-0.0657267806886 0.0971121050958 1.32380301035e-19)
(-0.0858963474364 0.08805717153 2.41277693028e-20)
(-0.15943354131 0.15350050917 2.75068556162e-20)
(-1.08834319292 -1.13197632333 -5.86065479999e-20)
(-0.0587118966139 0.0739621567646 4.60789784731e-19)
(-0.065539513385 0.0819978929445 1.48875405387e-19)
(-0.0757420710118 0.0920066168831 6.94535897443e-20)
(-0.0895069530958 0.0861288805182 1.25680894957e-20)
(-0.129736124578 0.137267662715 1.53916650923e-19)
(0.96096423833 0.705509376322 7.98424134702e-19)
(-0.0663114533867 0.0667800408491 1.23781578598e-19)
(-0.0739452093736 0.0740254888988 5.84271074314e-20)
(-0.084418545292 0.0848933196705 1.90106456126e-20)
(-0.0964770418512 0.0776926071989 -1.17143903753e-20)
(-0.203393449685 0.0959368087753 4.62333618714e-20)
(0.154673058923 0.413215014636 -2.91555979383e-20)
(-0.0731571328518 0.0586138288667 2.83566245247e-20)
(-0.0812717056237 0.0648762823955 1.41525771865e-20)
(-0.091142503269 0.076615577456 -4.88983371757e-21)
(-0.103249653804 0.0698638049632 -1.29880469429e-21)
(-0.228439583253 0.076746131786 -1.37069887289e-21)
(0.124830107914 0.129951699871 -4.26068190129e-20)
(-0.0792827522168 0.0499146615993 1.443830799e-20)
(-0.0879088586921 0.0551911164509 5.94442747083e-21)
(-0.0968673488744 0.0675197754441 -5.80822037517e-22)
(-0.10500971984 0.0626824042064 8.9051220173e-21)
(-0.199934107888 0.0839301745761 -1.13553892194e-19)
(-0.217047323556 -0.276014627613 5.20145205758e-19)
(-0.0845114515151 0.0410770669158 1.6022478087e-20)
(-0.0938414853433 0.0453461503979 6.8355722653e-21)
(-0.102117288531 0.0592926577416 -2.9369718784e-21)
(-0.101181126658 0.0546545468939 -1.24724313579e-21)
(0.0765596094334 0.0154114320327 -3.85522173244e-19)
(2.79748529854 -2.67868518108 -1.08771431135e-18)
(-0.0889474378449 0.0317086194646 2.21271780155e-20)
(-0.0994069177467 0.0355000828947 2.27210977927e-20)
(-0.109458859582 0.0533650140622 1.77511431219e-20)
(-0.119915626111 0.0520472902811 4.07932639017e-20)
(-0.292505606973 -0.168666895999 1.19851191487e-20)
(-0.185898219471 3.04812606999 -6.13937419333e-19)
(-0.0923824923811 0.0207693972676 2.82363844684e-20)
(-0.104171901482 0.0227379096217 3.59735543211e-20)
(-0.116627565564 0.0388469255381 4.02651900187e-20)
(-0.134044869853 0.0387161225956 1.89722915788e-20)
(-0.438385253527 0.0361542045084 2.92414243178e-20)
(-3.78838457325 -1.20689942649 -1.38863246959e-18)
(-0.0944123689321 0.0091340865025 2.03421918805e-20)
(-0.107631878751 0.00950042494473 3.1196107585e-20)
(-0.121770120007 0.0261086613454 4.03704900441e-20)
(-0.131069717638 0.0304735184637 7.07560303893e-20)
(-0.155233379979 0.0312533380639 -1.51280595277e-19)
(-0.759907656034 0.439596924289 -2.975896515e-19)
(-0.0943050037248 -0.0031024651568 2.47494038782e-20)
(-0.109039298886 -0.00611216193983 4.66883782213e-20)
(-0.129484726298 0.0107596158627 3.10415988582e-20)
(-0.147232541831 0.0196892331906 3.17939476659e-20)
(-0.411485884875 0.0141290897175 -6.82765312786e-20)
(-2.65458329779 1.33421290039 -3.56370676928e-19)
(-0.090902893628 -0.0159515784453 1.01000160112e-20)
(-0.105450445881 -0.0253149344061 3.07462102054e-20)
(-0.128181213845 -0.017349196919 8.48954093912e-21)
(-0.157526684917 -0.0136374611258 3.88492189778e-20)
(-0.630480508559 -0.0774360202697 1.45356335079e-19)
(-4.95716117217 0.801466400227 1.23079992497e-18)
(-0.0840785053148 -0.0269945894501 6.19237848528e-21)
(-0.0942557273594 -0.0409687464647 1.55339052879e-20)
(-0.10775023551 -0.0434115115179 1.80350524959e-20)
(-0.121411039784 -0.0447343018224 7.68777776297e-20)
(-0.213633408511 -0.157152452562 2.91652007752e-19)
(0.203959553669 -7.47320878265 -6.38336015639e-19)
(-0.0761809354529 -0.0345449688014 5.4436777502e-21)
(-0.0822216973707 -0.0460271084456 9.87407787335e-21)
(-0.0900820969488 -0.0388918438331 2.97496793369e-21)
(-0.0815871367652 -0.0243155871535 -3.50964506647e-20)
(0.182756043924 0.000479231538595 -3.0088848258e-20)
(4.71946826025 1.17786431572 3.11074988461e-19)
(-0.0685476128013 -0.0413018128597 1.14436648329e-21)
(-0.0727660589473 -0.0525663662578 5.09095876537e-21)
(-0.0824262244679 -0.0466856635756 6.29119301395e-21)
(-0.0746815003648 -0.0311358511068 -2.2913750101e-21)
(0.140527952524 -0.0731390827476 -1.00520672841e-19)
(2.38650401673 0.712315285553 -3.41440552392e-18)
(-0.060693299201 -0.0475647366998 4.9040381565e-21)
(-0.0630260450006 -0.0593327492534 9.7461907835e-21)
(-0.0711171653424 -0.0552915101709 -5.57713309007e-21)
(-0.0651285488644 -0.0421508255777 -6.81493787281e-21)
(-0.00416976300438 -0.127834299808 -3.68267985514e-21)
(0.670720093294 0.157722281744 -1.35434455326e-18)
(-0.0523560595582 -0.0519869337344 1.21728067482e-22)
(-0.0528042907811 -0.0639724309924 7.43673178739e-21)
(-0.0581702183004 -0.0601858283918 3.42332806584e-21)
(-0.0557847838773 -0.0456641281642 2.03518757308e-21)
(-0.0107247125459 -0.0981797438028 5.63643629299e-20)
(0.0316083301342 -0.355052146018 -2.71946158827e-18)
(-0.0438395637504 -0.0542277431667 1.51446379785e-21)
(-0.042103334115 -0.0667237909513 -8.43132746569e-22)
(-0.042406906464 -0.0674680203933 7.54641779321e-21)
(-0.0313070031692 -0.0552841554469 2.10896235537e-20)
(0.195384178439 -0.134319153734 -2.0583963132e-19)
(2.82160763647 -1.34966979122 1.82497833831e-19)
(-0.035935459009 -0.0539399316561 1.38849210781e-21)
(-0.0322573087888 -0.0647757383265 3.62937880787e-22)
(-0.028949114931 -0.0624307680165 -1.93692092669e-21)
(-0.0126136892009 -0.046465154025 1.28311984929e-22)
(0.330001283104 -0.0835990622093 2.90286511646e-19)
(4.83443151325 -1.06235470277 -7.22209587156e-19)
(-0.0191357788694 -0.0626629087247 -1.32826446003e-21)
(-0.0170289169608 -0.0495859027141 -7.19846270277e-22)
(0.107485590731 -0.0927277127768 2.36784326424e-18)
(-1.64683194876 6.04847696636 4.68752069561e-20)
(-0.00812253288696 -0.0592129652511 1.19946945386e-21)
(-0.00903776967575 -0.0501589234536 -1.01283721965e-21)
(0.000283209674532 -0.105334363865 8.37945911051e-20)
(-4.64306504146 -2.08706646819 9.45515075189e-20)
(-0.00149896017604 -0.0461129562132 1.15597888446e-20)
(0.00175922948005 -0.0385228797193 2.57487370257e-20)
(0.108029658294 -0.0328711206639 -1.11600514663e-18)
(-1.27538255222 -1.29237194721 -1.27064894766e-18)
)
;

boundaryField
{
    back
    {
        type            calculated;
        value           uniform (0 0 0);
    }
    sides
    {
        type            calculated;
        value           nonuniform List<vector> 0();
    }
    bottom
    {
        type            calculated;
        value           nonuniform List<vector> 0();
    }
    front
    {
        type            calculated;
        value           uniform (0 0 0);
    }
    atmosphere
    {
        type            calculated;
        value           nonuniform List<vector> 
27
(
(-2.45772711197 0.528230456477 1.20578004003e-17)
(-0.0873540997625 0.802440204949 -1.80681033393e-18)
(0.408050607857 0.957371429708 -6.95181603934e-18)
(0.302878942033 0.713778683653 -4.47583305018e-18)
(1.10900411644 -2.32949870911 4.21860490786e-18)
(0.528542555453 1.15723676274 2.43734894031e-18)
(-5.24838136073 -1.13197632333 2.72458962271e-18)
(0.630484616807 0.705509376322 -4.13534615027e-19)
(4.54962406722e-05 0.413215014636 7.97825060453e-24)
(-0.0545259370926 0.129951699871 1.01535443338e-19)
(-0.11572208975 -0.276014627613 -2.63907790855e-20)
(3.31155923395 -2.67868518108 -1.80943156331e-18)
(-0.185874565016 3.04812606999 -6.13890518722e-19)
(-0.42014689117 -1.20689942649 -1.25871328979e-18)
(-0.026430297322 0.439596924289 7.42329286505e-21)
(0.113172295236 1.33421290039 4.54304331279e-22)
(2.22958496503 0.801466400227 -2.92084266159e-19)
(0.203939388945 -7.47320878265 -6.38388759511e-19)
(4.71945125029 1.17786431572 3.10986038763e-19)
(1.16061874474 0.712315285553 -5.34581961556e-19)
(-0.172442956253 0.157722281744 -3.26205940786e-20)
(-0.596039921125 -0.355052146018 -1.55777583827e-18)
(2.61399819582 -1.34966979122 1.76974009839e-19)
(8.57522610598 -1.06235470277 7.90063017168e-19)
(-0.318955774204 6.04847696636 3.54958407492e-19)
(1.68852546322 -2.08706646819 3.45576531406e-19)
(-1.27246905546 -1.29237194721 -1.24923235725e-18)
)
;
    }
    floatingObject
    {
        type            calculated;
        value           nonuniform List<vector> 4((0 0 0) (0 0 0) (-1.73335697277e-19 0 0) (0 0 0));
    }
    procBoundary6to3
    {
        type            processor;
        value           nonuniform List<vector> 8((0.0814104717531 0.0995026326763 5.78460756929e-18) (0.0540779592257 0.0865394606368 1.15524161339e-18) (0.0403363046087 0.0851741037 8.01194145528e-19) (0.0376857212733 0.0915181336995 2.92643908502e-19) (0.0458147190673 0.0988887261196 1.66555867111e-19) (0.0479573224393 0.0908274666355 5.36348197484e-20) (0.179607227657 0.194863691895 1.19261438613e-19) (1.55845331262 1.29127610411 -6.16050772012e-19));
    }
    procBoundary6to7
    {
        type            processor;
        value           nonuniform List<vector> 
11
(
(-0.0701660185423 -0.0266251461093 1.56176880733e-21)
(-0.0644503288422 -0.0330758931438 2.05261306726e-21)
(-0.0579816080953 -0.0385259227179 1.9559664695e-21)
(-0.0509960824422 -0.0424431625265 1.14992081066e-21)
(-0.0439243404713 -0.044552883115 4.09362530892e-22)
(-0.0372551536188 -0.0450212040382 5.40383387273e-22)
(-0.028979324943 -0.0519329369915 9.48621518031e-22)
(-0.0242083068742 -0.0619234733553 5.71214612268e-21)
(-0.0242083068742 -0.0619234733553 5.71214612268e-21)
(-0.0169907350969 -0.0566096040021 4.61938910285e-21)
(-0.0123362261861 -0.0480040442467 -8.91031717776e-22)
)
;
    }
    procBoundary6to8
    {
        type            processor;
        value           nonuniform List<vector> 
16
(
(-0.0822133776434 0.099350436054 5.7667582737e-18)
(-0.0542091086415 0.0872702290726 1.16141691365e-18)
(-0.0542091086415 0.0872702290726 1.16141691365e-18)
(-0.0417781339216 0.0758951028426 1.40444643501e-18)
(-0.0483671828291 0.0703118438173 8.74505615487e-19)
(-0.0544223024139 0.0653617575523 3.5564326764e-19)
(-0.0603507661686 0.0594467271208 8.94145664033e-20)
(-0.0660175195874 0.052510802359 1.26683681057e-20)
(-0.0710719735161 0.044990673287 4.42338236722e-21)
(-0.0753902174684 0.0370755994427 7.78222304159e-21)
(-0.0790279426027 0.0285617360306 1.15968689385e-20)
(-0.0816678977359 0.0191588216609 1.1952984817e-20)
(-0.082859184733 0.00909587628926 1.07625095765e-20)
(-0.082214878351 -0.000946031647217 9.09763452917e-21)
(-0.0795795179852 -0.0105910624176 5.68053640372e-21)
(-0.07527129159 -0.0193472875088 1.98619118235e-21)
)
;
    }
    procBoundary6to9
    {
        type            processor;
        value           nonuniform List<vector> 4((-0.00598613981043 -0.0328019535171 -7.72555094412e-23) (-0.00808652884804 -0.0228368928 4.45540171899e-21) (0.191003303048 0.0277667448737 -4.40239194505e-20) (0.154821982339 -0.384876180256 1.29099395196e-19));
    }
}


// ************************************************************************* //
