/*--------------------------------*- C++ -*----------------------------------*\
| =========                 |                                                 |
| \\      /  F ield         | OpenFOAM: The Open Source CFD Toolbox           |
|  \\    /   O peration     | Version:  v2012                                 |
|   \\  /    A nd           | Website:  www.openfoam.com                      |
|    \\/     M anipulation  |                                                 |
\*---------------------------------------------------------------------------*/
FoamFile
{
    version     2.0;
    format      ascii;
    class       volScalarField;
    location    "5.2";
    object      k_0;
}
// * * * * * * * * * * * * * * * * * * * * * * * * * * * * * * * * * * * * * //

dimensions      [0 2 -2 0 0 0 0];


internalField   nonuniform List<scalar> 
164
(
0.00203959673619
0.00268916766285
0.00342472977619
0.004773653452
0.00719657408739
0.0113759985724
0.020906927986
0.0528538679068
0.002186878817
0.00293096677977
0.00367957508298
0.00496018237898
0.00728776434866
0.0111406940466
0.0195551098571
0.0616709986785
0.0021856112892
0.00292633535618
0.00366822411418
0.00494940936747
0.00732440271262
0.0112299228352
0.0185401193117
0.0554830060895
0.00203724229374
0.00267963325049
0.00340384814934
0.00475692785303
0.00725897533916
0.0116145434328
0.0213981138194
0.0599610464253
0.00309973844627
0.00449697080544
0.0071201270971
0.0118377407517
0.0230970599427
0.0511068310089
0.00290666141027
0.004297785302
0.00698167368436
0.0116453871413
0.0212856120982
0.0439693766384
0.00280061157249
0.00417191649651
0.00689638434715
0.0115762855724
0.0202065875792
0.0497285901411
0.00273714493004
0.00408782576335
0.00684170897842
0.0118487411106
0.0228614820636
0.063245679594
0.00269585934632
0.00402361195644
0.0067773816715
0.0120075435074
0.0248078973765
0.0685319819023
0.00266874341079
0.00396876194807
0.00669872217851
0.0117866010771
0.0228586991907
0.059907802685
0.00266296974931
0.0039360859154
0.0066423613681
0.0117239559804
0.0235377743923
0.066567642909
0.00267686581888
0.00392923085301
0.00662112208863
0.0116900519327
0.0230038761487
0.0627002312507
0.0026857978496
0.00391603261701
0.0066074983628
0.0116018804662
0.0208159042153
0.0440057103235
0.00268136502829
0.00388812539152
0.00659269110369
0.0118132255141
0.0225854286606
0.0574999274437
0.00267494093374
0.00386570205136
0.00658068976014
0.0119697600124
0.0247618924959
0.0706621322205
0.00267239892407
0.00384933938571
0.00654026485797
0.0118972035392
0.0248681804734
0.0730817984359
0.00265902366757
0.00381667584989
0.00647547963017
0.0117609478173
0.0234726271241
0.0569131654291
0.00262078074061
0.00375169505001
0.00640267281475
0.0115824132851
0.0213361520406
0.0457905610398
0.0025602790353
0.00365496133864
0.00631369123809
0.0115718242602
0.0216017559763
0.048598298556
0.00249570786262
0.00355047722659
0.00621141949691
0.0116641482586
0.0241096630893
0.0701400085428
0.00244538319303
0.00346849924858
0.00611800290303
0.0116999867339
0.0249245505104
0.0701363688674
0.00241584679327
0.00341821601582
0.00604433072775
0.0116386177007
0.0246405241505
0.0597295268679
0.00240036427234
0.00338682895845
0.00598234745579
0.0115182917003
0.0236304257085
0.0503814651284
0.00239233192936
0.00336681683446
0.00593737522631
0.0114797588727
0.0246436914746
0.0622153179091
0.00591411307254
0.0113824593645
0.0241047604697
0.0578999803099
0.00590045192946
0.0112053079587
0.0225440504488
0.0508622721692
0.00587623413793
0.0109854976947
0.0207088828925
0.0377923373258
)
;

boundaryField
{
    back
    {
        type            kqRWallFunction;
        value           nonuniform List<scalar> 
164
(
0.00203959673619
0.00268916766285
0.00342472977619
0.004773653452
0.00719657408739
0.0113759985724
0.020906927986
0.0528538679068
0.002186878817
0.00293096677977
0.00367957508298
0.00496018237898
0.00728776434866
0.0111406940466
0.0195551098571
0.0616709986785
0.0021856112892
0.00292633535618
0.00366822411418
0.00494940936747
0.00732440271262
0.0112299228352
0.0185401193117
0.0554830060895
0.00203724229374
0.00267963325049
0.00340384814934
0.00475692785303
0.00725897533916
0.0116145434328
0.0213981138194
0.0599610464253
0.00309973844627
0.00449697080544
0.0071201270971
0.0118377407517
0.0230970599427
0.0511068310089
0.00290666141027
0.004297785302
0.00698167368436
0.0116453871413
0.0212856120982
0.0439693766384
0.00280061157249
0.00417191649651
0.00689638434715
0.0115762855724
0.0202065875792
0.0497285901411
0.00273714493004
0.00408782576335
0.00684170897842
0.0118487411106
0.0228614820636
0.063245679594
0.00269585934632
0.00402361195644
0.0067773816715
0.0120075435074
0.0248078973765
0.0685319819023
0.00266874341079
0.00396876194807
0.00669872217851
0.0117866010771
0.0228586991907
0.059907802685
0.00266296974931
0.0039360859154
0.0066423613681
0.0117239559804
0.0235377743923
0.066567642909
0.00267686581888
0.00392923085301
0.00662112208863
0.0116900519327
0.0230038761487
0.0627002312507
0.0026857978496
0.00391603261701
0.0066074983628
0.0116018804662
0.0208159042153
0.0440057103235
0.00268136502829
0.00388812539152
0.00659269110369
0.0118132255141
0.0225854286606
0.0574999274437
0.00267494093374
0.00386570205136
0.00658068976014
0.0119697600124
0.0247618924959
0.0706621322205
0.00267239892407
0.00384933938571
0.00654026485797
0.0118972035392
0.0248681804734
0.0730817984359
0.00265902366757
0.00381667584989
0.00647547963017
0.0117609478173
0.0234726271241
0.0569131654291
0.00262078074061
0.00375169505001
0.00640267281475
0.0115824132851
0.0213361520406
0.0457905610398
0.0025602790353
0.00365496133864
0.00631369123809
0.0115718242602
0.0216017559763
0.048598298556
0.00249570786262
0.00355047722659
0.00621141949691
0.0116641482586
0.0241096630893
0.0701400085428
0.00244538319303
0.00346849924858
0.00611800290303
0.0116999867339
0.0249245505104
0.0701363688674
0.00241584679327
0.00341821601582
0.00604433072775
0.0116386177007
0.0246405241505
0.0597295268679
0.00240036427234
0.00338682895845
0.00598234745579
0.0115182917003
0.0236304257085
0.0503814651284
0.00239233192936
0.00336681683446
0.00593737522631
0.0114797588727
0.0246436914746
0.0622153179091
0.00591411307254
0.0113824593645
0.0241047604697
0.0578999803099
0.00590045192946
0.0112053079587
0.0225440504488
0.0508622721692
0.00587623413793
0.0109854976947
0.0207088828925
0.0377923373258
)
;
    }
    sides
    {
        type            kqRWallFunction;
        value           nonuniform List<scalar> 0();
    }
    bottom
    {
        type            kqRWallFunction;
        value           nonuniform List<scalar> 0();
    }
    front
    {
        type            kqRWallFunction;
        value           nonuniform List<scalar> 
164
(
0.00203959673619
0.00268916766285
0.00342472977619
0.004773653452
0.00719657408739
0.0113759985724
0.020906927986
0.0528538679068
0.002186878817
0.00293096677977
0.00367957508298
0.00496018237898
0.00728776434866
0.0111406940466
0.0195551098571
0.0616709986785
0.0021856112892
0.00292633535618
0.00366822411418
0.00494940936747
0.00732440271262
0.0112299228352
0.0185401193117
0.0554830060895
0.00203724229374
0.00267963325049
0.00340384814934
0.00475692785303
0.00725897533916
0.0116145434328
0.0213981138194
0.0599610464253
0.00309973844627
0.00449697080544
0.0071201270971
0.0118377407517
0.0230970599427
0.0511068310089
0.00290666141027
0.004297785302
0.00698167368436
0.0116453871413
0.0212856120982
0.0439693766384
0.00280061157249
0.00417191649651
0.00689638434715
0.0115762855724
0.0202065875792
0.0497285901411
0.00273714493004
0.00408782576335
0.00684170897842
0.0118487411106
0.0228614820636
0.063245679594
0.00269585934632
0.00402361195644
0.0067773816715
0.0120075435074
0.0248078973765
0.0685319819023
0.00266874341079
0.00396876194807
0.00669872217851
0.0117866010771
0.0228586991907
0.059907802685
0.00266296974931
0.0039360859154
0.0066423613681
0.0117239559804
0.0235377743923
0.066567642909
0.00267686581888
0.00392923085301
0.00662112208863
0.0116900519327
0.0230038761487
0.0627002312507
0.0026857978496
0.00391603261701
0.0066074983628
0.0116018804662
0.0208159042153
0.0440057103235
0.00268136502829
0.00388812539152
0.00659269110369
0.0118132255141
0.0225854286606
0.0574999274437
0.00267494093374
0.00386570205136
0.00658068976014
0.0119697600124
0.0247618924959
0.0706621322205
0.00267239892407
0.00384933938571
0.00654026485797
0.0118972035392
0.0248681804734
0.0730817984359
0.00265902366757
0.00381667584989
0.00647547963017
0.0117609478173
0.0234726271241
0.0569131654291
0.00262078074061
0.00375169505001
0.00640267281475
0.0115824132851
0.0213361520406
0.0457905610398
0.0025602790353
0.00365496133864
0.00631369123809
0.0115718242602
0.0216017559763
0.048598298556
0.00249570786262
0.00355047722659
0.00621141949691
0.0116641482586
0.0241096630893
0.0701400085428
0.00244538319303
0.00346849924858
0.00611800290303
0.0116999867339
0.0249245505104
0.0701363688674
0.00241584679327
0.00341821601582
0.00604433072775
0.0116386177007
0.0246405241505
0.0597295268679
0.00240036427234
0.00338682895845
0.00598234745579
0.0115182917003
0.0236304257085
0.0503814651284
0.00239233192936
0.00336681683446
0.00593737522631
0.0114797588727
0.0246436914746
0.0622153179091
0.00591411307254
0.0113824593645
0.0241047604697
0.0578999803099
0.00590045192946
0.0112053079587
0.0225440504488
0.0508622721692
0.00587623413793
0.0109854976947
0.0207088828925
0.0377923373258
)
;
    }
    atmosphere
    {
        type            inletOutlet;
        inletValue      uniform 0.1;
        value           nonuniform List<scalar> 
27
(
0.1
0.1
0.1
0.1
0.0511068310089
0.0439693766384
0.1
0.1
0.1
0.1
0.1
0.1
0.0440057103235
0.1
0.1
0.1
0.0569131654291
0.0457905610398
0.048598298556
0.1
0.1
0.0597295268679
0.0503814651284
0.1
0.0578999803099
0.1
0.0377923373258
)
;
    }
    floatingObject
    {
        type            kqRWallFunction;
        value           nonuniform List<scalar> 4(0.00203959673619 0.002186878817 0.0021856112892 0.00203724229374);
    }
    procBoundary6to3
    {
        type            processor;
        value           nonuniform List<scalar> 8(0.00200161412275 0.00242495913688 0.00310704149555 0.00450071185761 0.00707479538175 0.0114607481425 0.020818783993 0.0499267495777);
    }
    procBoundary6to7
    {
        type            processor;
        value           nonuniform List<scalar> 
11
(
0.0021587137475
0.00212896606705
0.00210532501503
0.00209091104172
0.00208355416232
0.00208024599519
0.0023909388452
0.00336169592365
0.00336169592365
0.00336919269251
0.00337029076109
)
;
    }
    procBoundary6to8
    {
        type            processor;
        value           nonuniform List<scalar> 
16
(
0.0020014770844
0.0024215042625
0.0024215042625
0.0022989093222
0.00223891443767
0.002203050018
0.00218159446887
0.00217165553967
0.00217563956623
0.00219049961482
0.00220389168358
0.0022090449224
0.00220986070207
0.00221025215942
0.00220463732366
0.00218683870901
)
;
    }
    procBoundary6to9
    {
        type            processor;
        value           nonuniform List<scalar> 4(0.00582015425585 0.010767947454 0.0201076534598 0.0383917285211);
    }
}


// ************************************************************************* //
