/*--------------------------------*- C++ -*----------------------------------*\
| =========                 |                                                 |
| \\      /  F ield         | OpenFOAM: The Open Source CFD Toolbox           |
|  \\    /   O peration     | Version:  v2012                                 |
|   \\  /    A nd           | Website:  www.openfoam.com                      |
|    \\/     M anipulation  |                                                 |
\*---------------------------------------------------------------------------*/
FoamFile
{
    version     2.0;
    format      ascii;
    class       volScalarField;
    location    "4.9";
    object      ddt0(epsilon);
}
// * * * * * * * * * * * * * * * * * * * * * * * * * * * * * * * * * * * * * //

dimensions      [0 2 -4 0 0 0 0];


internalField   nonuniform List<scalar> 
166
(
-0.000400031565385
-0.000401416509311
-0.000403052877326
-0.00040533811783
-0.000409151102883
-0.000416448315918
-0.000431744057879
-0.000473634858623
-0.00058585372965
-0.000170061607439
0.00599770836008
0.00301568079098
-0.0153343750579
-0.00039904395375
-0.000400378996374
-0.000401648852314
-0.000403067733278
-0.000404806048571
-0.000407289702193
-0.000411689043846
-0.00042090341585
-0.000443440311685
-0.000510986549916
-0.000711865869482
-0.000714441625941
0.00193799107578
-0.00938311840613
-0.01482169658
-0.00033914939772
-0.000349284102208
-0.000398612197063
-0.000400591271414
-0.000401935342555
-0.000403248939043
-0.000404737334023
-0.000406580421956
-0.000409225842646
-0.000413979125828
-0.000424095178824
-0.00044924425833
-0.000524427795
-0.000757399586738
-0.00112736372801
-0.00247394708653
-0.0319598439425
-0.035652994441
-0.000340597664077
-0.000351294163723
-0.000384066677049
-0.000395843686081
-0.000400143462865
-0.000402079424195
-0.000403442098919
-0.000404799242796
-0.0004063497413
-0.000408266350765
-0.000411022347058
-0.000415933496327
-0.000426571391409
-0.000453558136072
-0.000537638017343
-0.000811848056163
-0.00155339309089
-0.00628503273569
-0.0513677951306
-0.319047761794
-0.000342034082209
-0.000353146694657
-0.000385775596512
-0.000397391834761
-0.000401596626597
-0.000403523622748
-0.000404909605239
-0.000406316282138
-0.000407939029785
-0.000409948049338
-0.000412813137069
-0.00041790092922
-0.000429030942677
-0.000458277905166
-0.000551455110361
-0.000871726685487
-0.00202533816576
-0.00891212089764
-0.0501012586335
-0.670990573076
-0.000343416118401
-0.000354870386874
-0.000387375099425
-0.000398856181349
-0.000402983843455
-0.000404901903963
-0.000406322968716
-0.000407787660838
-0.000409484893107
-0.000411589322771
-0.000414576412473
-0.000419817548445
-0.000431421334268
-0.000462602589372
-0.000564361820617
-0.000936430435273
-0.00256209220804
-0.0110952470216
-0.0294685046065
-0.346678860282
-0.000344736594611
-0.00035645624624
-0.000388855631709
-0.00040022050154
-0.000404293592878
-0.000406205530758
-0.000407664303455
-0.000409195841556
-0.000410973340727
-0.000413179416205
-0.000416272312819
-0.000421684390861
-0.000433705183185
-0.000466563360444
-0.000574348675853
-0.00098679873552
-0.00304458831483
-0.0138723641238
-0.0427115098036
-0.0144790121707
-0.000345911420252
-0.000357910242026
-0.000390207824297
-0.000401475537404
-0.000405501537275
-0.00040742086736
-0.000408923547058
-0.000410525933043
-0.000412396283364
-0.000414707954244
-0.000417912613516
-0.000423467880239
-0.00043578228682
-0.000469914137831
-0.000582694143463
-0.00103101721039
-0.00341016508646
-0.0158934346464
-0.0502399901003
-0.0836187549199
-0.000347003523976
-0.000359198307847
-0.000391420136082
-0.000402603247654
-0.000406596775703
-0.000408535480365
-0.000410092063851
-0.000411770189825
-0.000413735858093
-0.000416158356207
-0.000419471027968
-0.000425107261018
-0.000437649451041
-0.000472679284678
-0.000590014388359
-0.00107236339336
-0.00361823488222
-0.0162104934919
-0.0402505788949
-0.345660503556
)
;

boundaryField
{
    back
    {
        type            calculated;
        value           nonuniform List<scalar> 
166
(
-0.000400031565385
-0.000401416509311
-0.000403052877326
-0.00040533811783
-0.000409151102883
-0.000416448315918
-0.000431744057879
-0.000473634858623
-0.00058585372965
-0.000170061607439
0.00599770836008
0.00301568079098
-0.0153343750579
-0.00039904395375
-0.000400378996374
-0.000401648852314
-0.000403067733278
-0.000404806048571
-0.000407289702193
-0.000411689043846
-0.00042090341585
-0.000443440311685
-0.000510986549916
-0.000711865869482
-0.000714441625941
0.00193799107578
-0.00938311840613
-0.01482169658
-0.00033914939772
-0.000349284102208
-0.000398612197063
-0.000400591271414
-0.000401935342555
-0.000403248939043
-0.000404737334023
-0.000406580421956
-0.000409225842646
-0.000413979125828
-0.000424095178824
-0.00044924425833
-0.000524427795
-0.000757399586738
-0.00112736372801
-0.00247394708653
-0.0319598439425
-0.035652994441
-0.000340597664077
-0.000351294163723
-0.000384066677049
-0.000395843686081
-0.000400143462865
-0.000402079424195
-0.000403442098919
-0.000404799242796
-0.0004063497413
-0.000408266350765
-0.000411022347058
-0.000415933496327
-0.000426571391409
-0.000453558136072
-0.000537638017343
-0.000811848056163
-0.00155339309089
-0.00628503273569
-0.0513677951306
-0.319047761794
-0.000342034082209
-0.000353146694657
-0.000385775596512
-0.000397391834761
-0.000401596626597
-0.000403523622748
-0.000404909605239
-0.000406316282138
-0.000407939029785
-0.000409948049338
-0.000412813137069
-0.00041790092922
-0.000429030942677
-0.000458277905166
-0.000551455110361
-0.000871726685487
-0.00202533816576
-0.00891212089764
-0.0501012586335
-0.670990573076
-0.000343416118401
-0.000354870386874
-0.000387375099425
-0.000398856181349
-0.000402983843455
-0.000404901903963
-0.000406322968716
-0.000407787660838
-0.000409484893107
-0.000411589322771
-0.000414576412473
-0.000419817548445
-0.000431421334268
-0.000462602589372
-0.000564361820617
-0.000936430435273
-0.00256209220804
-0.0110952470216
-0.0294685046065
-0.346678860282
-0.000344736594611
-0.00035645624624
-0.000388855631709
-0.00040022050154
-0.000404293592878
-0.000406205530758
-0.000407664303455
-0.000409195841556
-0.000410973340727
-0.000413179416205
-0.000416272312819
-0.000421684390861
-0.000433705183185
-0.000466563360444
-0.000574348675853
-0.00098679873552
-0.00304458831483
-0.0138723641238
-0.0427115098036
-0.0144790121707
-0.000345911420252
-0.000357910242026
-0.000390207824297
-0.000401475537404
-0.000405501537275
-0.00040742086736
-0.000408923547058
-0.000410525933043
-0.000412396283364
-0.000414707954244
-0.000417912613516
-0.000423467880239
-0.00043578228682
-0.000469914137831
-0.000582694143463
-0.00103101721039
-0.00341016508646
-0.0158934346464
-0.0502399901003
-0.0836187549199
-0.000347003523976
-0.000359198307847
-0.000391420136082
-0.000402603247654
-0.000406596775703
-0.000408535480365
-0.000410092063851
-0.000411770189825
-0.000413735858093
-0.000416158356207
-0.000419471027968
-0.000425107261018
-0.000437649451041
-0.000472679284678
-0.000590014388359
-0.00107236339336
-0.00361823488222
-0.0162104934919
-0.0402505788949
-0.345660503556
)
;
    }
    sides
    {
        type            calculated;
        value           nonuniform List<scalar> 0();
    }
    bottom
    {
        type            calculated;
        value           nonuniform List<scalar> 7(-0.00033914939772 -0.000340597664077 -0.000342034082209 -0.000343416118401 -0.000344736594611 -0.000345911420252 -0.000347003523976);
    }
    front
    {
        type            calculated;
        value           nonuniform List<scalar> 
166
(
-0.000400031565385
-0.000401416509311
-0.000403052877326
-0.00040533811783
-0.000409151102883
-0.000416448315918
-0.000431744057879
-0.000473634858623
-0.00058585372965
-0.000170061607439
0.00599770836008
0.00301568079098
-0.0153343750579
-0.00039904395375
-0.000400378996374
-0.000401648852314
-0.000403067733278
-0.000404806048571
-0.000407289702193
-0.000411689043846
-0.00042090341585
-0.000443440311685
-0.000510986549916
-0.000711865869482
-0.000714441625941
0.00193799107578
-0.00938311840613
-0.01482169658
-0.00033914939772
-0.000349284102208
-0.000398612197063
-0.000400591271414
-0.000401935342555
-0.000403248939043
-0.000404737334023
-0.000406580421956
-0.000409225842646
-0.000413979125828
-0.000424095178824
-0.00044924425833
-0.000524427795
-0.000757399586738
-0.00112736372801
-0.00247394708653
-0.0319598439425
-0.035652994441
-0.000340597664077
-0.000351294163723
-0.000384066677049
-0.000395843686081
-0.000400143462865
-0.000402079424195
-0.000403442098919
-0.000404799242796
-0.0004063497413
-0.000408266350765
-0.000411022347058
-0.000415933496327
-0.000426571391409
-0.000453558136072
-0.000537638017343
-0.000811848056163
-0.00155339309089
-0.00628503273569
-0.0513677951306
-0.319047761794
-0.000342034082209
-0.000353146694657
-0.000385775596512
-0.000397391834761
-0.000401596626597
-0.000403523622748
-0.000404909605239
-0.000406316282138
-0.000407939029785
-0.000409948049338
-0.000412813137069
-0.00041790092922
-0.000429030942677
-0.000458277905166
-0.000551455110361
-0.000871726685487
-0.00202533816576
-0.00891212089764
-0.0501012586335
-0.670990573076
-0.000343416118401
-0.000354870386874
-0.000387375099425
-0.000398856181349
-0.000402983843455
-0.000404901903963
-0.000406322968716
-0.000407787660838
-0.000409484893107
-0.000411589322771
-0.000414576412473
-0.000419817548445
-0.000431421334268
-0.000462602589372
-0.000564361820617
-0.000936430435273
-0.00256209220804
-0.0110952470216
-0.0294685046065
-0.346678860282
-0.000344736594611
-0.00035645624624
-0.000388855631709
-0.00040022050154
-0.000404293592878
-0.000406205530758
-0.000407664303455
-0.000409195841556
-0.000410973340727
-0.000413179416205
-0.000416272312819
-0.000421684390861
-0.000433705183185
-0.000466563360444
-0.000574348675853
-0.00098679873552
-0.00304458831483
-0.0138723641238
-0.0427115098036
-0.0144790121707
-0.000345911420252
-0.000357910242026
-0.000390207824297
-0.000401475537404
-0.000405501537275
-0.00040742086736
-0.000408923547058
-0.000410525933043
-0.000412396283364
-0.000414707954244
-0.000417912613516
-0.000423467880239
-0.00043578228682
-0.000469914137831
-0.000582694143463
-0.00103101721039
-0.00341016508646
-0.0158934346464
-0.0502399901003
-0.0836187549199
-0.000347003523976
-0.000359198307847
-0.000391420136082
-0.000402603247654
-0.000406596775703
-0.000408535480365
-0.000410092063851
-0.000411770189825
-0.000413735858093
-0.000416158356207
-0.000419471027968
-0.000425107261018
-0.000437649451041
-0.000472679284678
-0.000590014388359
-0.00107236339336
-0.00361823488222
-0.0162104934919
-0.0402505788949
-0.345660503556
)
;
    }
    atmosphere
    {
        type            calculated;
        value           nonuniform List<scalar> 9(1.73128123289e-06 1.23540323313e-06 -2.57167279172e-07 -0.670297801528 -1.84474655048 -0.190440202603 -0.0134796041857 -0.0841267218387 -0.0558598700147);
    }
    floatingObject
    {
        type            calculated;
        value           nonuniform List<scalar> 0();
    }
    procBoundary0to1
    {
        type            processor;
        value           nonuniform List<scalar> 10(-0.000403320560223 -0.000406506014023 -0.000411729650983 -0.000419526492482 -0.000435531793552 -0.000449619211698 0.000455551240404 0.00903790233825 0.00989691908607 -0.0173234182345);
    }
    procBoundary0to2
    {
        type            processor;
        value           nonuniform List<scalar> 
14
(
-0.00039842362202
-0.000399727666291
-0.000401290081266
-0.000397472375319
-0.000398801229586
-0.000398801229586
-0.000337156237833
-0.000347349344366
-0.000397057356305
-0.000397057356305
-0.000382251329504
-0.000382251329504
-0.000394220140001
-0.000394220140001
)
;
    }
    procBoundary0to4
    {
        type            processor;
        value           nonuniform List<scalar> 8(-0.000347939247153 -0.000360330057503 -0.000392475872948 -0.00040359193765 -0.000407569399731 -0.000409535660154 -0.000411156597798 -0.00041291979867);
    }
    procBoundary0to5
    {
        type            processor;
        value           nonuniform List<scalar> 
12
(
-0.000414986084422
-0.000417514767119
-0.000420929607761
-0.000426634315687
-0.000439270794241
-0.00047465533643
-0.000594827956946
-0.00110187427627
-0.00373184702465
-0.0159350279894
-0.0388189767537
0.132205002506
)
;
    }
}


// ************************************************************************* //
