/*--------------------------------*- C++ -*----------------------------------*\
| =========                 |                                                 |
| \\      /  F ield         | OpenFOAM: The Open Source CFD Toolbox           |
|  \\    /   O peration     | Version:  v2012                                 |
|   \\  /    A nd           | Website:  www.openfoam.com                      |
|    \\/     M anipulation  |                                                 |
\*---------------------------------------------------------------------------*/
FoamFile
{
    version     2.0;
    format      ascii;
    class       surfaceScalarField;
    location    "5.9";
    object      alphaPhi0.water;
}
// * * * * * * * * * * * * * * * * * * * * * * * * * * * * * * * * * * * * * //

dimensions      [0 3 -1 0 0 0 0];
oriented        oriented;


internalField   nonuniform List<scalar> 
3840
(
1.24841244794e-05
-1.24838944559e-05
2.38682909594e-05
-1.13839333466e-05
3.49056475556e-05
-1.10371343213e-05
4.59245160231e-05
-1.10186722724e-05
5.70793591478e-05
-1.11545691544e-05
6.85138799596e-05
-1.14338927752e-05
8.02078767674e-05
-1.16929075345e-05
9.20554573527e-05
-1.18461797646e-05
0.000104318383863
-1.22608131729e-05
0.000116689217355
-1.23691271279e-05
0.000129352633884
-1.26613168604e-05
0.000141990569874
-1.26358503258e-05
0.000154434132129
-1.24418506847e-05
0.00016602173424
-1.15860724622e-05
0.000173742253624
-7.71788359799e-06
0.000175611877939
-1.8692428777e-06
0.000176093634868
-4.97118189793e-06
1.21464862904e-05
-1.16324832427e-05
1.41621281964e-08
-2.36837022169e-07
-8.12179597427e-09
1.12245645039e-05
-2.37082241884e-05
2.23344456552e-05
-2.24935600252e-05
3.32407557574e-05
-2.19432256199e-05
4.41188705062e-05
-2.18965424442e-05
5.51354458579e-05
-2.21709440642e-05
6.63430726546e-05
-2.26409445864e-05
7.78071177846e-05
-2.31558590383e-05
8.96039966829e-05
-2.36417201775e-05
0.000101361746252
-2.40161077335e-05
0.000113452583829
-2.44577650179e-05
0.000125925787923
-2.51321427657e-05
0.000138623613777
-2.53314761083e-05
0.000151533855435
-2.53504397912e-05
0.000163892025822
-2.39420721525e-05
0.000177228750262
-2.1051930781e-05
0.000193624267105
-1.8264609663e-05
0.000215051084425
-1.87419765679e-05
1.20735165828e-05
-1.29080110483e-05
-1.12178668798e-08
-6.65906818647e-09
-1.90010436474e-08
1.05288330231e-05
-3.4236878472e-05
2.12231377196e-05
-3.31877085871e-05
3.18860009784e-05
-3.26059137935e-05
4.25566416135e-05
-3.25670522987e-05
5.33323920733e-05
-3.29465725918e-05
6.43007749362e-05
-3.36088646438e-05
7.55086340483e-05
-3.43629902366e-05
8.69861855593e-05
-3.51175824014e-05
9.88274752459e-05
-3.58552801491e-05
0.000111074580307
-3.67022372601e-05
0.00012319909267
-3.72534975532e-05
0.000135742092244
-3.78716670342e-05
0.000148401008616
-3.8007721491e-05
0.000161271717267
-3.68098876065e-05
0.000174616775023
-3.43947577509e-05
0.000192967969498
-3.66153156194e-05
0.000226428175084
-3.67367716752e-05
1.14286057457e-05
-1.78056851091e-05
3.9982931513e-08
5.25044158465e-08
2.52921559449e-08
1.01717793465e-05
-4.44085827325e-05
2.05105364428e-05
-4.35264328106e-05
3.08739129789e-05
-4.29692911407e-05
4.13074787434e-05
-4.30006234277e-05
5.19027754654e-05
-4.35418638655e-05
6.26159458969e-05
-4.43218403606e-05
7.36190324094e-05
-4.53652947331e-05
8.49893861345e-05
-4.64866595144e-05
9.67289277155e-05
-4.7591827114e-05
0.000108821291447
-4.87917405846e-05
0.000121290787874
-4.9720411486e-05
0.00013416197007
-5.07400492759e-05
0.000147032606486
-5.08757529887e-05
0.000159909163615
-4.96833456449e-05
0.000174271892832
-4.87553235586e-05
0.000194546505065
-5.68891910533e-05
0.00023385896217
-5.7013003883e-05
1.00043417284e-05
-2.36201753452e-05
8.63237719169e-07
8.10749989177e-08
1.24025967774e-07
1.0014868983e-05
-5.44234953328e-05
2.00059258904e-05
-5.35176034593e-05
3.00409066631e-05
-5.30044232063e-05
4.01657665743e-05
-5.31256429252e-05
5.04592857191e-05
-5.38354770834e-05
6.10589622301e-05
-5.49214760528e-05
7.19510188811e-05
-5.62568954692e-05
8.32769730973e-05
-5.78111741824e-05
9.50648663566e-05
-5.93783075177e-05
0.000107257215345
-6.09802025227e-05
0.000120064554607
-6.25227985823e-05
0.000133285198922
-6.39563554483e-05
0.000147169355197
-6.4756384587e-05
0.000161811773536
-6.43229266577e-05
0.000178235616685
-6.51769551548e-05
0.000195467230222
-7.41197353431e-05
0.000226863073398
-7.34957436506e-05
8.77241421699e-06
-3.19888029268e-05
2.42348734033e-06
1.07200215055e-08
2.60715257807e-08
9.81721372225e-06
-6.42408780352e-05
1.95234453017e-05
-6.322404486e-05
2.92531125601e-05
-6.27343365695e-05
3.90834410854e-05
-6.29562215828e-05
4.91339224588e-05
-6.38861492265e-05
5.94937704626e-05
-6.5281341509e-05
7.02339404923e-05
-6.69967089069e-05
8.13910039541e-05
-6.89672311531e-05
9.31891067198e-05
-7.11744002104e-05
0.000105608585964
-7.33976107805e-05
0.000118870619343
-7.57775268423e-05
0.00013285540722
-7.79358952713e-05
0.000148085063321
-7.99824213291e-05
0.000165103772344
-8.13388270882e-05
0.000183678563653
-8.37495023678e-05
0.000198900739658
-8.93407679401e-05
0.000220013909395
-8.58680312886e-05
7.75421822004e-06
-4.08604588536e-05
9.14248159183e-07
-1.16315286134e-07
-1.03691318186e-07
9.53978277375e-06
-7.37809223661e-05
1.89429133073e-05
-7.26275035186e-05
2.83674684701e-05
-7.21592542432e-05
3.78502475792e-05
-7.24393498263e-05
4.76061898716e-05
-7.36423502887e-05
5.76977285825e-05
-7.53729176802e-05
6.82506027117e-05
-7.75493174236e-05
7.91796726856e-05
-7.98951575253e-05
9.08831928636e-05
-8.28758861803e-05
0.000103385110748
-8.58963297921e-05
0.000116689499364
-8.90758601083e-05
0.000131301666411
-9.25408888544e-05
0.000147617982272
-9.62947884837e-05
0.000166393228704
-0.000100110989593
0.000187382390952
-0.000104736500708
0.000202972235304
-0.000104929852206
0.000228542720712
-0.000100196664497
6.35504571076e-06
-4.77340228303e-05
1.03144329315e-07
-3.54443962374e-08
-2.10607472643e-08
9.13633349399e-06
-8.29176238245e-05
1.82130988484e-05
-8.17047040679e-05
2.72328112133e-05
-8.11794223947e-05
3.64206239544e-05
-8.16275844998e-05
4.57714450104e-05
-8.2993466318e-05
5.54847244841e-05
-8.50862729242e-05
6.56390429049e-05
-8.77032997244e-05
7.64842724165e-05
-9.07392231614e-05
8.78733380022e-05
-9.42629746593e-05
0.000100191449654
-9.82095077791e-05
0.000113309767847
-0.000102187833306
0.00012788962324
-0.000107112939724
0.000143748256874
-0.000112148451547
0.00016232205424
-0.000118681119971
0.00018268871716
-0.000125099490956
0.000203648270817
-0.000125889264532
0.000231913122228
-0.000121990332802
4.67895421118e-06
-5.64364034427e-05
4.68319950624e-09
2.01427949361e-08
-1.43695818002e-08
8.78914026648e-06
-9.17072195229e-05
1.73681013843e-05
-9.02841809505e-05
2.5932858815e-05
-8.97447061319e-05
3.46432091435e-05
-9.03384042701e-05
4.35912288645e-05
-9.19417917237e-05
5.28540380615e-05
-9.43491399263e-05
6.2590833614e-05
-9.74397339004e-05
7.29343793419e-05
-0.000101081640738
8.39400513028e-05
-0.00010526652047
9.56550217005e-05
-0.000109917710132
0.00010856471514
-0.000115091181754
0.00012211511634
-0.000120656229401
0.000137661039
-0.000127689738687
0.000154494342549
-0.00013551129184
0.000173646752708
-0.000144248113071
0.00019866805263
-0.000150910162348
0.000186567005529
-0.000152843106262
2.28424568998e-06
-7.05843752027e-05
1.39823958952e-07
-4.57872541963e-08
8.59772659845e-08
8.2558336657e-06
-9.99635727899e-05
1.63819696358e-05
-9.84108861762e-05
2.449524471e-05
-9.78585432658e-05
3.26370762066e-05
-9.8480720422e-05
4.10262275667e-05
-0.000100331224888
4.97801909957e-05
-0.000103103106298
5.8953505862e-05
-0.000106612656112
6.87036519144e-05
-0.000110830311464
7.9108716203e-05
-0.000115669038977
9.02212513158e-05
-0.000121024859899
0.000102134739868
-0.000126998341684
0.000115346402503
-0.000133863089993
0.00012962595986
-0.000141966349715
0.000145500013534
-0.000151382867897
0.000163984757047
-0.000162732863022
0.000190237510568
-0.000177162955533
0.000175149253229
-0.000185973600546
2.85874033774e-06
-8.72084115756e-05
8.54619257523e-07
-2.3771139024e-08
1.22145023955e-08
7.71487393053e-06
-0.000107678994971
1.52518301876e-05
-0.000105948425753
2.27400399891e-05
-0.0001053473134
3.03283273374e-05
-0.000106069468877
3.81149859925e-05
-0.000108118127549
4.62111628682e-05
-0.000111199162151
5.47469016916e-05
-0.000115147804595
6.37377647563e-05
-0.000119819577259
7.32765673611e-05
-0.000125204794481
8.35442851176e-05
-0.000131290323549
9.48114412896e-05
-0.000138259370828
0.00010702983027
-0.000146077477472
0.000120716113345
-0.000155650225326
0.000135659926691
-0.000166324562908
0.000153044573241
-0.00018011689265
0.0001787076778
-0.000202826561859
0.000163211375535
-0.00021774019764
-7.16441050121e-07
-0.000105106904916
-1.3548900709e-07
-2.10207845441e-09
-2.52931350742e-08
7.10191714594e-06
-0.000114781448286
1.40356903032e-05
-0.000112882750088
2.08982999171e-05
-0.000112210432907
2.78162175068e-05
-0.000112987771476
3.49031391565e-05
-0.000115205243543
4.22510580129e-05
-0.000118547045735
4.99238335345e-05
-0.000122819688422
5.80428311688e-05
-0.000127937246858
6.67202693573e-05
-0.00013387995764
7.5978032495e-05
-0.000140545307802
8.62360064035e-05
-0.000148513531561
9.77403172414e-05
-0.000157579785103
0.000110467936607
-0.000168376855897
0.000125010194543
-0.000180866231135
0.000142570633447
-0.000197676849344
0.000164102070532
-0.00022435947645
0.000147714819069
-0.000246149970449
-3.82959103929e-07
-0.000120329086239
2.46358171836e-08
-1.91336175215e-08
1.01521177392e-10
6.44242380071e-06
-0.000121224365914
1.27221707416e-05
-0.000119162991281
1.88796244652e-05
-0.000118368330777
2.50337131804e-05
-0.000119142168629
3.13682133545e-05
-0.000121539941325
3.79078318292e-05
-0.000125086475563
4.47116873687e-05
-0.000129623327295
5.18797522649e-05
-0.000135104170515
5.94976514156e-05
-0.000141496276732
6.78659450962e-05
-0.000148911788111
7.69201018152e-05
-0.000157565097838
8.69740363333e-05
-0.000167632338653
9.83362642081e-05
-0.000179738567404
0.000111672023447
-0.000194202288698
0.000127454457456
-0.000213460594596
0.000146754025719
-0.00024366176612
0.000128627145663
-0.000267919523766
-7.35570793297e-08
-0.00013187388669
-3.55676564745e-09
-1.14013031121e-07
-3.20834833172e-09
5.74389202754e-06
-0.000126968644879
1.13003250388e-05
-0.000124719871847
1.67724331015e-05
-0.000123840861656
2.22059004776e-05
-0.000124576030321
2.76681152136e-05
-0.000127002302614
3.32905928442e-05
-0.00013070901366
3.91318727559e-05
-0.000135464336465
4.52652913995e-05
-0.000141236922308
5.17770737079e-05
-0.000148006864118
5.87898447544e-05
-0.000155923368817
6.63882791498e-05
-0.000165161943424
7.48411897148e-05
-0.000176085261854
8.44201390859e-05
-0.000189318374407
9.58834919227e-05
-0.000205667356997
0.000109697342086
-0.000227276508664
0.000123711028227
-0.000257679292367
0.000107000811995
-0.000284971615655
1.62702669275e-07
-0.000139259852984
2.96933565964e-08
-1.34678585856e-07
-1.50831213768e-09
5.05313729868e-06
-0.000132022224268
9.85569441962e-06
-0.000129522768401
1.45305944586e-05
-0.000128516061253
1.91552811316e-05
-0.000129200975073
2.37702483142e-05
-0.000131617413877
2.84878440763e-05
-0.000135426664906
3.33730325428e-05
-0.000140349384814
3.84132713422e-05
-0.000146276762065
4.35853822699e-05
-0.000153178515491
4.91254561411e-05
-0.000161463247852
5.50973924162e-05
-0.000171133849634
6.15700341138e-05
-0.000182559109134
6.88016273957e-05
-0.00019655216033
7.71572043462e-05
-0.000214025845182
8.68871094348e-05
-0.000237010080361
9.73367733591e-05
-0.000268133229399
8.09599327561e-05
-0.000295676428476
-4.91800234044e-08
-0.000142684527471
7.40788906263e-09
-2.38532238888e-07
1.19294946749e-10
4.28371419389e-06
-0.000136305982492
8.40569066343e-06
-0.00013364486964
1.23161588123e-05
-0.000132426597763
1.61281363259e-05
-0.000133012864492
1.99080624735e-05
-0.000135397227335
2.37047159427e-05
-0.000139222656441
2.75331291278e-05
-0.000144177846977
3.1356906954e-05
-0.000150100520507
3.53290347858e-05
-0.000157150620787
3.92826251838e-05
-0.000165417001163
4.33930091853e-05
-0.000175244888861
4.77192906722e-05
-0.000186886966347
5.2358584424e-05
-0.000201193939089
5.74919517778e-05
-0.000219162375646
6.31464980513e-05
-0.000242669432927
6.86606910909e-05
-0.000273651350402
5.34748745599e-05
-0.00029951389041
7.19039232495e-08
-0.000142848293713
-2.98360038216e-09
-1.72103744705e-07
7.57451120865e-14
3.58978920624e-06
-0.000139895789971
6.9407630076e-06
-0.000136995790588
1.01709660208e-05
-0.00013565691188
1.32729575131e-05
-0.000136114748877
1.62716022842e-05
-0.000138394318499
1.91326219971e-05
-0.000142082538246
2.18620702725e-05
-0.000146906333501
2.45329176302e-05
-0.000152771372181
2.70542930346e-05
-0.000159671909123
2.95227837483e-05
-0.000167885575768
3.1852124327e-05
-0.000177574700458
3.40522364901e-05
-0.000189088523772
3.60245329603e-05
-0.000203168779607
3.79052975695e-05
-0.000221046590595
3.91861474337e-05
-0.000243956792382
3.83270713508e-05
-0.000272794725999
2.51458977241e-05
-0.00029583205634
1.71079353496e-07
-0.000139851638551
-2.69798103451e-13
-5.40752818338e-12
-1.86117641593e-13
2.82438471029e-06
-0.000142720021394
5.52360106715e-06
-0.000139694807363
8.01727109499e-06
-0.000138150022609
1.03718562984e-05
-0.000138468630213
1.25604523251e-05
-0.000140582859494
1.45520993474e-05
-0.000144074204375
1.63017962556e-05
-0.000148655491804
1.78084228344e-05
-0.000154278180686
1.91394826748e-05
-0.000161002928564
2.02546594539e-05
-0.000169000731561
2.10032148634e-05
-0.000178323340766
2.13057612514e-05
-0.000189391533528
2.09449680578e-05
-0.000202808849638
1.97953894184e-05
-0.000219898363818
1.77400089505e-05
-0.000241904301993
1.25933232185e-05
-0.000267648891693
2.11145386269e-06
-0.000287247370153
1.36900036687e-09
-0.000136054848584
-1.0964486325e-10
-3.2895559426e-11
6.73740326178e-12
2.19340548902e-06
-0.000144913271816
4.13796635335e-06
-0.000141639083084
5.87988200157e-06
-0.000139891161829
7.42636185414e-06
-0.00014001384323
8.76885119699e-06
-0.000141925293035
9.84384167152e-06
-0.000145149142621
1.06744352414e-05
-0.000149485866541
1.12864631198e-05
-0.000154890271422
1.15573675871e-05
-0.000161273817059
1.1460602196e-05
-0.000168903964456
1.09033182471e-05
-0.000177766117415
9.59083430981e-06
-0.000188079315354
7.40168660337e-06
-0.000200620220944
3.97618401651e-06
-0.000216473801779
-6.71314451091e-07
-0.000237257086977
-7.10229711897e-06
-0.000261218067357
-1.45960307473e-05
-0.000277159839606
-6.04900865782e-09
-0.000134728167641
-4.20525489348e-09
5.1694456099e-10
1.70615457174e-10
1.44635096399e-06
-0.000146359687056
2.65208767025e-06
-0.000142844820968
3.64444467897e-06
-0.000140883477852
4.36730976721e-06
-0.00014073703663
4.86388881598e-06
-0.000142421997929
5.14445470106e-06
-0.000145430295612
5.17458944242e-06
-0.000149516306659
4.90384829572e-06
-0.000154619270736
4.31950161549e-06
-0.000160689387861
3.19292311922e-06
-0.000167777271569
1.37248078039e-06
-0.000175945584095
-1.22788142135e-06
-0.00018547893854
-4.97269633528e-06
-0.000196875471953
-1.01805409566e-05
-0.000211266056649
-1.75034951764e-05
-0.000229933846174
-2.84699569186e-05
-0.000250251738926
-3.82477083159e-05
-0.000263063246261
1.19137192828e-08
-0.000135976046026
-6.50262667603e-09
-1.17852142484e-09
6.00390923301e-10
6.89315064355e-07
-0.00014704892899
1.16337387395e-06
-0.000143318891259
1.38440163136e-06
-0.000141104821689
1.35757700511e-06
-0.000140711004267
1.13767834437e-06
-0.000142202751171
7.12646371354e-07
-0.000145005474182
2.71113014574e-08
-0.000148831318543
-1.03888139428e-06
-0.000153553053763
-2.54163601036e-06
-0.000159186442487
-4.61946414864e-06
-0.000165699136904
-7.37937601587e-06
-0.000173185277884
-1.11055366539e-05
-0.000181752342777
-1.60392676539e-05
-0.000191941268318
-2.27175819266e-05
-0.000204587070307
-3.21206515261e-05
-0.000220531208979
-4.62974190013e-05
-0.000236075100904
-5.87174992956e-05
-0.000245639535982
8.11073716604e-08
-0.000136505169926
-4.70082491028e-09
-1.42182885134e-08
8.53487638214e-10
1.74322991352e-08
-0.000147066301779
-1.90174534808e-07
-0.00014311122151
-6.40648073105e-07
-0.00014065448674
-1.32360787635e-06
-0.00014002806267
-2.22719478465e-06
-0.000141299103071
-3.35005943334e-06
-0.000143882717094
-4.75584949441e-06
-0.000147425875789
-6.54017652208e-06
-0.000151768581593
-8.85102789603e-06
-0.000156875311721
-1.17518926005e-05
-0.000162797772534
-1.54041169339e-05
-0.000169532324258
-1.99533369719e-05
-0.000177202230162
-2.57767287745e-05
-0.000186116862951
-3.35644566945e-05
-0.000196798161957
-4.45097998997e-05
-0.00020958595431
-5.98236503235e-05
-0.000220761326337
-7.30396251342e-05
-0.000227698630931
1.12569906372e-07
-0.000134883190122
-3.67852591153e-09
-5.66736780392e-08
-3.06601559589e-10
-6.05036418671e-07
-0.000146461218671
-1.43491519522e-06
-0.000142281346492
-2.48377722684e-06
-0.000139605646305
-3.75191332389e-06
-0.000138759919527
-5.27418654736e-06
-0.000139776833568
-7.08307680383e-06
-0.000142073832116
-9.20343245085e-06
-0.000145305471333
-1.16815881819e-05
-0.000149290594002
-1.46089006081e-05
-0.000153947711848
-1.81483475793e-05
-0.000159257684033
-2.24614558096e-05
-0.000165218289101
-2.76825190639e-05
-0.000171979945353
-3.42224962753e-05
-0.000179575468409
-4.26977319346e-05
-0.000188321568643
-5.43036057746e-05
-0.000197980252644
-6.93132539629e-05
-0.000205751708543
-8.20648314473e-05
-0.00021098454561
-1.28972799754e-06
-0.000133217189929
-1.58860606756e-09
2.40553071519e-07
-1.50295349465e-09
-1.19713522339e-06
-0.000145264072334
-2.58028056247e-06
-0.00014089821857
-4.18621238634e-06
-0.000137999751102
-6.03134924917e-06
-0.000136914942374
-8.10155285983e-06
-0.000137706686997
-1.04597056651e-05
-0.000139715617357
-1.31460792601e-05
-0.000142618630706
-1.62144097378e-05
-0.000146221552842
-1.97226025283e-05
-0.000150439060898
-2.37918232262e-05
-0.000155187748909
-2.85708184425e-05
-0.000160438075688
-3.43336533582e-05
-0.000166215713163
-4.12868874962e-05
-0.00017262079174
-5.00663372124e-05
-0.000179540708696
-6.16808912947e-05
-0.000186366090864
-7.60950365929e-05
-0.000191337785292
-8.78162869394e-05
-0.00019613823221
9.96473620657e-07
-0.000131549611945
3.45043094849e-09
-1.70478111365e-07
1.5870771717e-09
-1.73291430849e-06
-0.000143531170452
-3.63923936963e-06
-0.000138991958851
-5.76064407275e-06
-0.000135878467076
-8.08907814621e-06
-0.000134586682776
-1.06390145745e-05
-0.000135157117634
-1.34079111238e-05
-0.000136947016743
-1.6499530645e-05
-0.000139526593608
-2.0045922927e-05
-0.000142674292194
-2.40968973371e-05
-0.000146387153153
-2.86773281356e-05
-0.000150606527212
-3.38912471412e-05
-0.000155223076285
-3.99657952579e-05
-0.000160140136023
-4.71137501875e-05
-0.000165471685374
-5.58246586526e-05
-0.000170828635357
-6.70052303287e-05
-0.000175185569144
-8.07339609421e-05
-0.000177606434735
-9.27006031704e-05
-0.000182069919196
1.4677326074e-06
-0.000128205714827
-5.89208920671e-09
-3.58999177272e-07
-5.49499189797e-09
-2.20776499008e-06
-0.000141323414289
-4.60450064706e-06
-0.000136595298321
-7.19363650212e-06
-0.000133289488995
-9.98157859642e-06
-0.000131798982676
-1.29858459567e-05
-0.000132153130129
-1.61883344883e-05
-0.000133744919238
-1.96694416953e-05
-0.000136046320817
-2.35519943377e-05
-0.000138791529344
-2.79513361472e-05
-0.0001419866187
-3.28658192686e-05
-0.000145691088388
-3.83344818742e-05
-0.000149753265521
-4.44879861461e-05
-0.000153984793816
-5.16998201977e-05
-0.000158257682492
-6.02583942177e-05
-0.000162268435396
-7.08111087096e-05
-0.000164632381388
-8.33392906543e-05
-0.000165084322737
-9.5303606883e-05
-0.00016881863111
-9.43414879067e-06
-0.000121031303493
1.14503920673e-08
-2.11631258358e-06
4.31828320149e-10
-2.64278384183e-06
-0.000138680732842
-5.48031940691e-06
-0.000133757918228
-8.50159249063e-06
-0.000130268434173
-1.17168142802e-05
-0.000128584040709
-1.51283672023e-05
-0.000128741883098
-1.87589943676e-05
-0.000130114587379
-2.26346660119e-05
-0.000132170684986
-2.67896244506e-05
-0.000134637192032
-3.1383571423e-05
-0.000137391241011
-3.65164893327e-05
-0.000140556430822
-4.21049746859e-05
-0.000144163000303
-4.82792016574e-05
-0.000147809189771
-5.52886953467e-05
-0.000151247034493
-6.34970479529e-05
-0.000154058545055
-7.31538088165e-05
-0.00015497481281
-8.43635255346e-05
-0.000153875684912
-9.78479485715e-05
-0.00015533688369
-2.55284055879e-05
-0.000108385865901
-9.8195748359e-09
-3.51151047587e-06
-3.24674347284e-12
-3.07730906861e-06
-0.00013560358784
-6.29882214188e-06
-0.000130536622741
-9.70609944931e-06
-0.000126861434183
-1.32941324935e-05
-0.000124996342606
-1.70615427434e-05
-0.000124974834538
-2.1020674486e-05
-0.000126155795021
-2.5182833801e-05
-0.00012800875703
-2.95607797414e-05
-0.000130259476019
-3.41911739865e-05
-0.000132760999035
-3.9288504784e-05
-0.000135455595966
-4.50125414723e-05
-0.000138434392456
-5.1308045143e-05
-0.000141512856955
-5.82971806512e-05
-0.00014425689505
-6.63423927236e-05
-0.000146012786396
-7.62175354837e-05
-0.000145098743643
-8.84088237504e-05
-0.000141683750057
-0.000102540067728
-0.000141205493567
-2.77631586442e-05
-9.74557667038e-05
-4.08158266465e-09
-7.00893838235e-06
-1.17228160059e-12
-3.46391033652e-06
-0.000132139887435
-7.06295152568e-06
-0.000126937849441
-1.08222554055e-05
-0.000123102459488
-1.47374217442e-05
-0.000121081562135
-1.8809872328e-05
-0.000120902796833
-2.30428942302e-05
-0.00012192316032
-2.7448472647e-05
-0.000123603444526
-3.20510724745e-05
-0.000125657111397
-3.68923617192e-05
-0.000127919763534
-4.20106740417e-05
-0.000130336595611
-4.76094737165e-05
-0.0001328356482
-5.36884699977e-05
-0.000135432652582
-6.03626666806e-05
-0.000137583314876
-6.82697340956e-05
-0.000138106499669
-7.86118506957e-05
-0.000134757027987
-9.15984793443e-05
-0.000128696871698
-0.000107025411563
-0.000125779039907
-2.95317992384e-05
-8.98653607561e-05
-1.43649542061e-10
-1.05598468028e-05
-5.91059022531e-12
-3.82391342777e-06
-0.000128316221561
-7.77494560681e-06
-0.00012298712945
-1.18546162565e-05
-0.000119023166634
-1.6074177126e-05
-0.000116862438208
-2.04194115155e-05
-0.000116558029196
-2.48937528054e-05
-0.000117449263557
-2.95119376848e-05
-0.00011898559537
-3.43019083073e-05
-0.000120867537365
-3.92490817495e-05
-0.000122972689247
-4.43634474231e-05
-0.000125221153471
-4.96827224185e-05
-0.000127516438566
-5.53901675199e-05
-0.000129723224301
-6.1564071252e-05
-0.000131409826266
-6.88872094722e-05
-0.000130783741188
-7.92772991395e-05
-0.000124367520824
-9.30460412336e-05
-0.000114928802028
-0.000108843788508
-0.000109981996916
-3.14326631579e-05
-8.38094999701e-05
-1.47742227593e-10
-1.42858037278e-05
-8.2218061503e-12
-4.1802954524e-06
-0.000124136212274
-8.45916031287e-06
-0.00011870862314
-1.28427755342e-05
-0.000114639981261
-1.73330828305e-05
-0.000112372623668
-2.19246049562e-05
-0.000111967034027
-2.66158691845e-05
-0.000112758510225
-3.14105856907e-05
-0.000114191315773
-3.63140050046e-05
-0.000115964671424
-4.13125500648e-05
-0.000117974373354
-4.64261883432e-05
-0.000120106313576
-5.16287674051e-05
-0.000122313929061
-5.69032624307e-05
-0.000124448788555
-6.24012178067e-05
-0.000125910847564
-6.89195458245e-05
-0.000124263331474
-7.82121799725e-05
-0.000115074827719
-9.20673806404e-05
-0.000101071573339
-0.000107578601799
-9.44712162454e-05
-3.31157054251e-05
-7.78490944023e-05
-2.88853362844e-10
-1.77653211203e-05
-2.96875251448e-10
-4.53628543021e-06
-0.00011960025777
-9.11363430037e-06
-0.000114131684962
-1.37714493455e-05
-0.000109982653158
-1.85155145106e-05
-0.00010762911144
-2.33417735265e-05
-0.000107141365654
-2.82479116331e-05
-0.000107852953157
-3.32302783893e-05
-0.00010920948313
-3.82994529173e-05
-0.000110896175874
-4.34271797974e-05
-0.000112847049948
-4.86117753596e-05
-0.000114920953984
-5.3842444761e-05
-0.000117083442113
-5.88680925661e-05
-0.000119423306767
-6.40508061585e-05
-0.000120725783958
-7.00576629502e-05
-0.000118254081742
-7.81310268279e-05
-0.000106999441606
-8.98811878286e-05
-8.93164680504e-05
-0.000103048009782
-8.13057158025e-05
-3.45227126471e-05
-7.03267213278e-05
-4.43250781303e-09
-2.04545562831e-05
-1.42534387842e-11
-4.86877368336e-06
-0.000114731864236
-9.72196342168e-06
-0.000109278959316
-1.46404077469e-05
-0.000105064750832
-1.96289258345e-05
-0.000102641201311
-2.46825994413e-05
-0.000102088337804
-2.98115291304e-05
-0.000102724663467
-3.50347420001e-05
-0.000103986881828
-4.03056830733e-05
-0.000105625969916
-4.56912140503e-05
-0.000107462128697
-5.112706594e-05
-0.000109486421965
-5.65729653691e-05
-0.000111639402788
-6.20507267366e-05
-0.000113944382937
-6.74227822803e-05
-0.000115351161937
-7.32876088817e-05
-0.000112389040813
-8.00618567198e-05
-0.000100231553659
-8.7349341868e-05
-8.2029962126e-05
-9.60941171461e-05
-7.25625163395e-05
-3.58764190552e-05
-5.90784284265e-05
-2.00295035921e-10
-2.24516673365e-05
-2.15118797877e-10
-5.11794074163e-06
-0.000109614347955
-1.03052214327e-05
-0.000104092184626
-1.54910898086e-05
-9.98794618193e-05
-2.06821388383e-05
-9.74507917333e-05
-2.59417934712e-05
-9.68293551428e-05
-3.12741102218e-05
-9.73930104569e-05
-3.6696779805e-05
-9.85648541685e-05
-4.22413717529e-05
-0.000100082108976
-4.79302537141e-05
-0.00010177423021
-5.37671515883e-05
-0.00010365082301
-5.96743712748e-05
-0.000105733185075
-6.57840404906e-05
-0.000107832888334
-7.23257981843e-05
-0.000108807372908
-7.90326419611e-05
-0.000105687912812
-8.40847661612e-05
-9.51812309837e-05
-8.665637978e-05
-7.94584901745e-05
-9.04791406332e-05
-6.87400775084e-05
-3.63873009579e-05
-4.68517363089e-05
-1.39283292474e-10
-2.3538490367e-05
-3.69650941599e-10
-5.43989562642e-06
-0.000104174900318
-1.08230381734e-05
-9.87095590383e-05
-1.62139028631e-05
-9.44891754375e-05
-2.16423601201e-05
-9.20229584967e-05
-2.71102690475e-05
-9.13620871324e-05
-3.26559025393e-05
-9.1847999656e-05
-3.82602743896e-05
-9.2961065259e-05
-4.40153855106e-05
-9.43277455741e-05
-4.99338462492e-05
-9.58567111405e-05
-5.60968085149e-05
-9.74882903606e-05
-6.25923489278e-05
-9.92367045601e-05
-6.96713352734e-05
-0.000100755909651
-7.72764391778e-05
-0.000101208409055
-8.44145919042e-05
-9.85532040515e-05
-8.87980335344e-05
-9.07950680616e-05
-8.81588164824e-05
-8.00973237154e-05
-8.70696484747e-05
-6.98293456295e-05
-3.66571392297e-05
-3.5796244754e-05
-8.62038842405e-11
-2.30308435616e-05
4.71952515899e-13
-5.69086155036e-06
-9.84844716937e-05
-1.13298022753e-05
-9.30710948268e-05
-1.69354169893e-05
-8.88840777874e-05
-2.25551032015e-05
-8.64038078352e-05
-2.82029594867e-05
-8.57147533258e-05
-3.38968870978e-05
-8.6154549205e-05
-3.96929649223e-05
-8.71654215566e-05
-4.55960170252e-05
-8.84252526495e-05
-5.1662766983e-05
-8.97905535206e-05
-5.80172967066e-05
-9.11337431452e-05
-6.49395983522e-05
-9.23153847294e-05
-7.25383165441e-05
-9.31612968765e-05
-8.06149987676e-05
-9.31325468528e-05
-8.79295870491e-05
-9.12395482911e-05
-9.17832185561e-05
-8.69388223243e-05
-9.05615646096e-05
-8.13192512567e-05
-8.68687313681e-05
-7.35219635313e-05
-3.67157407765e-05
-2.90557944901e-05
-1.02246077506e-10
-2.14053092039e-05
-5.15276524196e-12
-5.97493934711e-06
-9.25098972596e-05
-1.18233947099e-05
-8.72230103083e-05
-1.76258554383e-05
-8.30819951411e-05
-2.34089781656e-05
-8.06210423946e-05
-2.92137063463e-05
-7.99103283015e-05
-3.50593508748e-05
-8.0309132573e-05
-4.09672636703e-05
-8.12577324973e-05
-4.69625289223e-05
-8.24301894314e-05
-5.31102848238e-05
-8.36432178564e-05
-5.95361181698e-05
-8.47089202731e-05
-6.63179100179e-05
-8.55363857524e-05
-7.35901225106e-05
-8.58897618994e-05
-8.12225066233e-05
-8.55012237136e-05
-8.82008166255e-05
-8.42624809351e-05
-9.20613843089e-05
-8.30759108572e-05
-9.18300933019e-05
-8.15506026795e-05
-8.93300253827e-05
-7.60219354595e-05
-3.71441706045e-05
-2.75923713325e-05
-6.02252560787e-10
-2.06854401322e-05
2.01794918403e-11
-6.18936830483e-06
-8.63207610774e-05
-1.22939820073e-05
-8.11185905043e-05
-1.82865107119e-05
-7.70896265561e-05
-2.42322479468e-05
-7.46754029027e-05
-3.01779573238e-05
-7.39646257647e-05
-3.61386083926e-05
-7.43483962822e-05
-4.21264215768e-05
-7.52698009778e-05
-4.81576026826e-05
-7.63990505457e-05
-5.42702112362e-05
-7.75311949696e-05
-6.04830352282e-05
-7.84966710876e-05
-6.68360047199e-05
-7.91850415752e-05
-7.33692986192e-05
-7.93577016398e-05
-8.00224352636e-05
-7.8849419937e-05
-8.60642216654e-05
-7.82218727446e-05
-9.02290590232e-05
-7.89092603902e-05
-9.17919447391e-05
-7.99868080958e-05
-9.25573386352e-05
-7.52568715605e-05
-3.91876686756e-05
-2.81993867884e-05
-4.39637926392e-10
-2.2486067565e-05
1.05895170258e-10
-6.51224316255e-06
-7.98085356548e-05
-1.27814384451e-05
-7.48493339403e-05
-1.89376567293e-05
-7.0933280589e-05
-2.50356410833e-05
-6.85772084271e-05
-3.11037072001e-05
-6.78962578826e-05
-3.71574947829e-05
-6.82942372021e-05
-4.31901818906e-05
-6.92368312864e-05
-4.91914794898e-05
-7.03977460149e-05
-5.51901598801e-05
-7.15331979367e-05
-6.11067458209e-05
-7.25813177387e-05
-6.69343997188e-05
-7.33596072768e-05
-7.25733463188e-05
-7.37212871806e-05
-7.80205912908e-05
-7.34047875154e-05
-8.29119361539e-05
-7.33331188773e-05
-8.68112813453e-05
-7.50098412921e-05
-9.03038063501e-05
-7.64997260015e-05
-9.41434317355e-05
-7.14170600117e-05
-4.32402702356e-05
-2.63105912508e-05
-1.91759189911e-09
-2.36752135058e-05
-5.53972534179e-10
-6.74333864476e-06
-7.3064808772e-05
-1.32392997366e-05
-6.83528300919e-05
-1.95900570072e-05
-6.45819073945e-05
-2.58173218266e-05
-6.23492243845e-05
-3.20056522301e-05
-6.17073040876e-05
-3.81535992495e-05
-6.21456836385e-05
-4.42241132501e-05
-6.3166058559e-05
-5.02228201807e-05
-6.43994472005e-05
-5.6056883609e-05
-6.57010934609e-05
-6.16604513372e-05
-6.6980002081e-05
-6.67991300559e-05
-6.82261322556e-05
-7.12931934618e-05
-6.92318382291e-05
-7.51127827029e-05
-6.95904078514e-05
-7.86215382786e-05
-6.9829786839e-05
-8.22978881045e-05
-7.13363338599e-05
-8.76342410473e-05
-7.11645866676e-05
-9.50358117503e-05
-6.40147262127e-05
-4.76236774741e-05
-2.14913025409e-05
1.81252080046e-10
-2.25315441375e-05