/*--------------------------------*- C++ -*----------------------------------*\
| =========                 |                                                 |
| \\      /  F ield         | OpenFOAM: The Open Source CFD Toolbox           |
|  \\    /   O peration     | Version:  v2012                                 |
|   \\  /    A nd           | Website:  www.openfoam.com                      |
|    \\/     M anipulation  |                                                 |
\*---------------------------------------------------------------------------*/
FoamFile
{
    version     2.0;
    format      ascii;
    class       volScalarField;
    location    "5.9";
    object      ddt0(k);
}
// * * * * * * * * * * * * * * * * * * * * * * * * * * * * * * * * * * * * * //

dimensions      [0 2 -3 0 0 0 0];


internalField   nonuniform List<scalar> 
1984
(
-0.000245161017063
-0.000288101428022
-0.000299486607521
-0.000303315126395
-0.000305201541333
-0.000306713828482
-0.000308357757402
-0.000310385043795
-0.000312798339246
-0.000316570317097
-0.000323482996432
-0.000339676516181
-0.000384932554686
-0.000534017254797
-0.00107395126421
-0.00287047006942
-0.00751667484144
-0.0163014237015
-0.0278584895012
-0.0357808064856
-0.000287597274754
-0.00035526012302
-0.00037171627367
-0.000377003836217
-0.000379107278892
-0.000380523536893
-0.000381906451513
-0.000383563086279
-0.000385844241722
-0.000389607299383
-0.000397509424554
-0.000417159814559
-0.000473739384329
-0.000663090963065
-0.00136334755411
-0.00364054831275
-0.00877832209529
-0.0154833155
-0.0102034421019
0.0105429200747
-0.00030414516692
-0.000380552564414
-0.000399989498243
-0.000406239357686
-0.000408605273072
-0.000410149882033
-0.000411702434947
-0.000413564640503
-0.000416075588463
-0.000420351160283
-0.000429256637052
-0.000451031932213
-0.000512554824861
-0.000714359906558
-0.00144923813186
-0.00379142717589
-0.00904092185122
-0.015946899716
-0.0109594331571
0.00831576943928
-0.000311021102075
-0.000391061365681
-0.000411900376151
-0.000418673505798
-0.000421211903352
-0.00042284280319
-0.00042450323545
-0.00042648072284
-0.000429225703526
-0.000433690364825
-0.000442957831004
-0.000465445592435
-0.000528319650691
-0.000730533805204
-0.00144571540946
-0.00371576448532
-0.0089806445649
-0.0167374717047
-0.0115670650995
0.0259415393231
-0.000314092567705
-0.000395718229441
-0.000417171268217
-0.000424188231501
-0.00042678758314
-0.000428431192146
-0.000430106305721
-0.000432138456514
-0.000434899975089
-0.0004394679972
-0.00044865747827
-0.000470811271047
-0.000531814509818
-0.000720907554901
-0.00136660292753
-0.003452268203
-0.0087194704358
-0.0184479762447
-0.0306755735279
-0.0163747466677
-0.000315662609091
-0.000397949967886
-0.000419717568388
-0.000426842122666
-0.000429438022829
-0.000431040182497
-0.000432668645833
-0.000434661042373
-0.000437365557351
-0.000441770571707
-0.00045062377959
-0.00047155192476
-0.000527543778219
-0.000691657694474
-0.0012268705824
-0.0030788173137
-0.00835288131409
-0.0189493402643
-0.034895440582
-0.0301382399918
-0.0003166545781
-0.000399186580512
-0.000421162956602
-0.000428345915314
-0.000430913701962
-0.000432448710169
-0.00043399515409
-0.00043589325659
-0.000438481785124
-0.000442656216334
-0.0004510028752
-0.000470385771951
-0.000520873370227
-0.000662030874794
-0.00111224628822
-0.0027745221182
-0.00799513680688
-0.0184367947357
-0.021629375727
0.0427907388235
-0.000317443616243
-0.000400007938807
-0.000422179376067
-0.000429416066962
-0.000431956428092
-0.000433419344133
-0.000434875860494
-0.000436654244687
-0.000439083856963
-0.000442995390791
-0.00045078738328
-0.000468814178309
-0.000516211685898
-0.000651063030741
-0.00109066649912
-0.00269543140128
-0.00769741704277
-0.0179672488989
-0.0265062593293
-0.00262044711922
-0.000318176037562
-0.00040074895519
-0.000423047411141
-0.000430352929131
-0.000432874965282
-0.000434266355481
-0.000435625555078
-0.000437290612536
-0.000439557892373
-0.00044321096355
-0.000450458102326
-0.000467373672987
-0.00051266626963
-0.000648555259135
-0.00110471245833
-0.00268574337016
-0.00732882702595
-0.017540640467
-0.0380497232409
-0.142216405103
-0.000318874915529
-0.000401350426675
-0.000423858275363
-0.000431268750307
-0.000433788828307
-0.000435120436033
-0.000436382959356
-0.000437928535361
-0.00044004012666
-0.000443437747371
-0.000450189597768
-0.000465841342221
-0.000508619682489
-0.000640328021276
-0.00108783951165
-0.00257936745021
-0.00682389360787
-0.0168129862011
-0.0421983543966
-0.106664509004
-0.000319586928783
-0.000401931215129
-0.00042464801238
-0.000432182300333
-0.00043473468866
-0.000436027421239
-0.000437206655304
-0.000438644576228
-0.000440616784169
-0.000443768986232
-0.000449977410287
-0.000464332242401
-0.000503570469044
-0.000624620075466
-0.00102923704009
-0.00236589372355
-0.00623741091488
-0.0157921755097
-0.0422241679163
-0.115696147293
-0.00032030779698
-0.000402474117479
-0.000425452836456
-0.000433135586038
-0.000435736603988
-0.000437006224497
-0.000438121446449
-0.000439470255519
-0.000441303226703
-0.000444192654113
-0.000449856154598
-0.000462815375171
-0.000497820696889
-0.000602227482357
-0.000938634223417
-0.00207797050221
-0.00559469485931
-0.0147204639746
-0.0399337939798
-0.0465616911849
-0.000321045004794
-0.0004030026262
-0.000426267663451
-0.000434120135507
-0.000436793675829
-0.000438060917176
-0.000439131855363
-0.000440390772411
-0.000442082587985
-0.000444690759324
-0.000449772869994
-0.000461323462296
-0.000491784648855
-0.000578606217093
-0.00084488186979
-0.00177013761949
-0.004948882976
-0.0136819572612
-0.0394546266405
-0.150019907429
-0.000321781464189
-0.000403520619909
-0.000427106231622
-0.000435166811868
-0.000437926062456
-0.000439197218359
-0.000440228251528
-0.000441406173669
-0.000442958422066
-0.000445328153076
-0.000449836103066
-0.000459925195412
-0.000485882472228
-0.000556935508408
-0.000763445173721
-0.00149547908357
-0.00430986072327
-0.0126761665223
-0.0355427031199
-0.171011944144
-0.000322509656793
-0.00040408299598
-0.000427976894719
-0.000436254399314
-0.000439118651027
-0.000440407918237
-0.000441405262622
-0.000442513704994
-0.000443950004121
-0.000446098915537
-0.000450088040517
-0.000458770004515
-0.000480572054491
-0.000538447353943
-0.000698232722937
-0.00125723949287
-0.00364114649822
-0.0114932990301
-0.0282112531645
-0.194954112538
-0.000323282434488
-0.000404579428832
-0.000428876580328
-0.000437377624649
-0.000440357760255
-0.000441678987524
-0.00044265647792
-0.000443728891597
-0.000445067809468
-0.00044704289487
-0.000450550418278
-0.000458001926554
-0.000476158828357
-0.000522813428941
-0.000643884485333
-0.00104925576038
-0.00298695611292
-0.0101332992503
-0.0223386331923
-0.0141804112769
-0.000324072689574
-0.000405157175796
-0.000429762481262
-0.000438511218742
-0.000441612732637
-0.00044298220518
-0.000443974717748
-0.000445027745535
-0.000446344468651
-0.000448143125013
-0.00045125837544
-0.000457673180375
-0.000472667919337
-0.000509063319072
-0.000594529082912
-0.000861143882813
-0.00236975223576
-0.00764789518065
-0.0149690917738
-0.00432046055639
-0.000324829499848
-0.000405640751032
-0.000430666213838
-0.000439645598109
-0.000442886826664
-0.000444325963591
-0.000445355349322
-0.000446397920325
-0.000447639006954
-0.000449298930189
-0.000452051869383
-0.000457516161851
-0.000469631965857
-0.000496715531759
-0.000541756629433
-0.000645997540053
-0.00158002695403
-0.00504322520965
-0.00621231169035
0.00811636081774
-0.000325484082449
-0.000406234193077
-0.000431577145793
-0.000440798542078
-0.000444182738812
-0.000445719409389
-0.000446781897768
-0.000447815177307
-0.000449000020554
-0.000450551907771
-0.000452848565832
-0.000456894443097
-0.000463857491805
-0.000471104484164
-0.000447869323044
-0.000328620413014
-0.000741123926655
-0.00328269637495
0.00257162158243
0.0450480204508
-0.000326189273812
-0.000406690603839
-0.000432452982407
-0.000441950586026
-0.00044550221319
-0.000447114094234
-0.000448199722222
-0.000449218292734
-0.000450341834693
-0.000451728252687
-0.000453607528817
-0.000456262020777
-0.000458637017565
-0.000450244051061
-0.000372897813084
-5.52615196222e-05
0.00012622404222
-0.00259490128908
0.00381861478182
0.168138369627
-0.00032686816164
-0.000407087592849
-0.000433328623152
-0.000443128581703
-0.000446836706781
-0.000448501604324
-0.000449606674421
-0.000450630816256
-0.000451732724915
-0.000453017140521
-0.000454562507578
-0.000456075784582
-0.000454589505401
-0.000433340026908
-0.000315683130832
0.00015089854485
0.00103627947003
-0.00102021184255
-0.00816615405233
0.228260308844
-0.000327151882189
-0.000407727924787
-0.00043432984384
-0.000444342621531
-0.000448152713447
-0.00044985632609
-0.000450983580435
-0.000452028673769
-0.000453136555321
-0.000454361734247
-0.000455650450077
-0.000456246016204
-0.000451526674332
-0.000420017539207
-0.000276775260822
0.000269173742388
0.00172986214542
0.000925257083856
-0.00936673755881
0.156933901818
-0.000327527661567
-0.000408331606397
-0.000435275169409
-0.000445492963116
-0.000449407360615
-0.000451173462907
-0.000452332463782
-0.00045340235014
-0.000454532600883
-0.000455734591113
-0.000456840956682
-0.000456691896864
-0.00044939350281
-0.00041025613045
-0.000253462473969
0.000319217930301
0.00216945676546
0.00219552221027
-0.0179536277119
-0.0547708528547
-0.000327929065013
-0.000408872394591
-0.000436148669903
-0.000446570569145
-0.000450602523819
-0.00045243832602
-0.000453641415393
-0.000454741485197
-0.000455893961434
-0.000457094100205
-0.0004580804568
-0.000457377169301
-0.000448130409554
-0.000403699547607
-0.00024230375816
0.000316057964842
0.00240369044941
0.00394673593542
-0.0257867595071
-0.142961728748
-0.000328340243748
-0.000409354711427
-0.000436948394094
-0.000447572610369
-0.000451718951748
-0.00045361673623
-0.000454869945799
-0.00045601758433
-0.000457206840276
-0.000458419988889
-0.000459331642077
-0.000458262997044
-0.000447634304565
-0.000399862145509
-0.000239903429325
0.000271894748863
0.00245736458744
0.00690587942147
-0.0168800844541
-0.0318602713109
-0.000328726327193
-0.000409767823803
-0.000437665843694
-0.000448479595587
-0.000452732363985
-0.000454691103808
-0.000455993208558
-0.000457202292922
-0.000458456706452
-0.000459703389359
-0.00046058291794
-0.000459284885828
-0.000447785900681
-0.000398382003525
-0.000245906037124
0.000194320312533
0.0023766416068
0.0100687741643
-0.00914960596338
-0.00909761459797
-0.000329041048512
-0.000410099891553
-0.000438283552965
-0.00044927803152
-0.000453635413188
-0.000455656949117
-0.000457004012729
-0.000458262360431
-0.000459585567221
-0.000460889309859
-0.00046176070622
-0.000460327165758
-0.000448382919574
-0.00039837845257
-0.000252449241216
0.000141759105111
0.00237095811568
0.0122060838018
0.0102730075764
-0.00345873837342
-0.000329274979266
-0.000410346994647
-0.000438788705463
-0.000449953121977
-0.000454414311027
-0.000456498697528
-0.000457892566739
-0.000459195372961
-0.000460581966997
-0.000461971875585
-0.000462886112297
-0.000461381771857
-0.000449131258983
-0.000397527610804
-0.000241846396431
0.000187822868354
0.00232429011449
0.0110025279506
0.0156543752316
-0.000278823818012
-0.00032946538339
-0.000410486909137
-0.000439164450483
-0.000450487693745
-0.000455050809133
-0.000457198869238
-0.000458638978835
-0.000459980416348
-0.00046140277666
-0.00046285293943
-0.000463848804451
-0.000462377510147
-0.000450170151749
-0.000398064214308
-0.000232306738546
0.000256218507488
0.00228585144923
0.00861056214083
0.0134919588099
0.000628894495918
-0.000329567997278
-0.000410502820776
-0.000439385592024
-0.000450860312307
-0.000455524618262
-0.000457737491158
-0.000459226734074
-0.000460614523373
-0.000462080556682
-0.000463571325283
-0.000464614334836
-0.000463217710478
-0.000451429787641
-0.000400837811816
-0.000234297912452
0.000269195050643
0.0022034440085
0.00745673852904
0.0132941509071
0.00205166209843
-0.00032957232284
-0.000410385041495
-0.000439441968847
-0.000451058901895
-0.000455822526714
-0.000458102423599
-0.000459642978946
-0.000461079039084
-0.000462586300796
-0.000464101317974
-0.000465119473775
-0.000463720593079
-0.000452442012926
-0.000404666831715
-0.000246418553511
0.000230146160825
0.00205239494696
0.00734429377016
0.0152579393158
0.00343290172372
-0.000329475358275
-0.000410125457486
-0.00043931800871
-0.000451065651536
-0.000455931052213
-0.000458283325204
-0.000459877708258
-0.000461357261389
-0.000462894084007
-0.00046440841083
-0.000465330332492
-0.000463739678255
-0.000452571100891
-0.000407526330774
-0.000264868044972
0.00014352301558
0.00185617157532
0.00780935824427
0.0160360005469
0.00348101412687
-0.000329266846458
-0.000409674415377
-0.000438994302077
-0.000450866579013
-0.000455839614068
-0.000458273473233
-0.000459930138332
-0.000461455667044
-0.000463022101454
-0.000464511237739
-0.000465271829492
-0.000463250332932
-0.00045178479547
-0.000409413585966
-0.000288811782423
1.59307447633e-05
0.00161303586697
0.00867054684712
0.016378513252
0.00307101812696
-0.000328944779468
-0.00040903140172
-0.000438456211409
-0.000450451623496
-0.000455540670866
-0.000458067675498
-0.000459800927409
-0.000461391700935
-0.000463009793408
-0.000464477433991
-0.000465052422788
-0.000462585810094
-0.000450662304196
-0.000410674387933
-0.000313582854784
-0.000120132574044
0.00127051352944
0.0093749980736
0.0181950841744
0.00317617265322
-0.000328407104414
-0.000408202024738
-0.000437696702837
-0.000449807507353
-0.000455022912763
-0.000457658229264
-0.000459489781573
-0.000461172020198
-0.000462873632024
-0.000464379186682
-0.000464860861108
-0.000462143311094
-0.000450195365243
-0.000413277572472
-0.00033490313224
-0.000222473154807
0.000868686855001
0.00919346877428
0.0229400419158
0.00521428575235
-0.000327732587527
-0.000407160204377
-0.000436695234868
-0.000448925349012
-0.000454278339104
-0.000457040702761
-0.000458984647247
-0.000460782603231
-0.000462600434173
-0.000464213444187
-0.000464783009724
-0.000462217523605
-0.000451074328609
-0.000417950611591
-0.000352712584057
-0.000276674915419
0.0005832872941
0.00773368390922
0.024319824284
0.00700465044333
-0.000326843600035
-0.000405882442136
-0.000435446925957
-0.00044779617396
-0.00045329506292
-0.000456196188883
-0.0004582742573
-0.000460210932573
-0.000462175765304
-0.000463967653668
-0.000464831681848
-0.000462903561644
-0.000453551142158
-0.000425148255347
-0.000370555398745
-0.000303694314882
0.000510562282273
0.0063597763058
0.0192204960397
0.00582640408552
-0.00032580049774
-0.000404383434763
-0.000433947110887
-0.000446409468688
-0.000452059315496
-0.000455114803068
-0.000457344320885
-0.000459440638231
-0.000461593073369
-0.000463632513105
-0.000464910951157
-0.000463953261064
-0.000457004450461
-0.000434187006584
-0.000389657233594
-0.000332651997718
0.000513796245799
0.00626339459998
0.0145816751044
0.00316129982681
-0.000324447067929
-0.000402638370258
-0.000432190663154
-0.000444758354416
-0.000450565695278
-0.000453785929381
-0.000456183674454
-0.000458468378239
-0.000460838985534
-0.000463174355241
-0.000464947695039
-0.00046511684813
-0.000460787721502
-0.000443882998745
-0.000411075208441
-0.000380963907637
0.00039283652134
0.00665085946279
0.0180029882528
0.0039749454053
-0.000322967731641
-0.00040067168125
-0.000430184168742
-0.000442848628631
-0.000448810092376
-0.000452202391431
-0.000454793784301
-0.000457275356251
-0.00045990609598
-0.000462534391279
-0.000464882826949
-0.000466132072059
-0.000464339131776
-0.000453187714688
-0.000432367515531
-0.000434185364258
0.000173042011893
0.00654441163993
0.0259673062188
0.00918741525238
-0.000321280932644
-0.000398510409291
-0.000427955185984
-0.000440691741383
-0.000446799148831
-0.000450383849061
-0.000453158018411
-0.000455883006179
-0.000458737403146
-0.000461716634878
-0.000464451349443
-0.00046651610232
-0.000466664402023
-0.000461295498726
-0.000457144498902
-0.000515560178488
-0.000189450966234
0.00571404108507
0.0330539190118
0.0267201857687
-0.000319333579265
-0.000396172889552
-0.000425529887527
-0.000438308103517
-0.000444572915539
-0.000448306109826
-0.000451308644265
-0.000454272757282
-0.000457422629203
-0.000460599857291
-0.000463511437917
-0.000465750406364
-0.00046692321458
-0.000466794464485
-0.000483557808936
-0.000605754877032
-0.000626725726942
0.00402198744237
0.0278251421973
0.0405512004155
-0.000317259652569
-0.000393728720844
-0.000422936461509
-0.000435763461296
-0.000442105619821
-0.000446055293898
-0.000449247957955
-0.000452473179637
-0.000455913427991
-0.000459257331596
-0.000462031241617
-0.000463910081987
-0.000465233336168
-0.000469765372386
-0.00050347296459
-0.000687003669193
-0.0010222807978
0.00115093107295
0.0299364259548
0.0859958721818
-0.000315017047867
-0.000391193090098
-0.000420250863636
-0.00043303763664
-0.000439488202188
-0.000443533197242
-0.000446941364115
-0.000450429364442
-0.000454106600548
-0.000457375818917
-0.000459562879148
-0.000460486950354
-0.000461596596436
-0.000468081848069
-0.000502488225072
-0.000636214982337
-0.000664805055562
0.00144452487743
0.0235353438
0.0872429229545
-0.000312719341493
-0.000388702268011
-0.000417585029397
-0.000430288717734
-0.000436717527023
-0.000440794673363
-0.000444183675962
-0.000447838919487
-0.000451420702908
-0.000454177991712
-0.000455690568731
-0.000455120916136
-0.00045608112437
-0.000463221418689
-0.000493493312721
-0.000583271328592
-0.000379219160252
0.00160975798749
0.00243027299593
-0.0235728844606
-0.000310429214549
-0.000386424545736
-0.00041507097169
-0.000427625071752
-0.000433900398919
-0.000437641610584
-0.000440263671214
-0.000443494352761
-0.000445403321526
-0.00044723945874
-0.000449055473598
-0.000448401441719
-0.00045254991092
-0.000455922391793
-0.000481624135523
-0.000593460370974
-0.000486496245037
0.00167422101756
0.00239395386269
-0.0967494086557
-0.00030824219743
-0.000384451595223
-0.000412809814242
-0.00042503016989
-0.000430812243265
-0.00043333840255
-0.000433804449057
-0.000427425253147
-0.000432192638197
-0.000435695159594
-0.000436619764931
-0.000447745380137
-0.000451816597153
-0.000432343100971
-0.000445238266329
-0.000552221964124
-0.000348923978554
0.00339377829564
0.00724433241364
-0.0330052031496
-0.000306307375062
-0.000383022821335
-0.000411046345457
-0.0004229216
-0.000427943459708
-0.000429232123935
-0.000427049529732
-0.000401604023613
-0.00039675665738
-0.000386556429446
-0.000396223682568
-0.000307657328889
-0.00029477573745
-0.000340307703234
-0.000420305727278
-0.000521075558088
-5.25432446135e-05
0.00686164447961
0.0386189309566
0.0275425273223
-0.000304784324608
-0.000381712716489
-0.00040945033774
-0.000420886844675
-0.000425166585589
-0.000423517713748
-0.000413716177858
-0.000344024251144
-0.000354294015987
-0.000434149588198
-0.000484779722996
-0.000606050372678
-5.78368469511e-05
0.00825383681815
0.0457516554127
0.0188149780157
-0.000303782597117
-0.000381153462339
-0.000408746304333
-0.000419878995656
-0.000423426716754
-0.000419825394868
-0.000403932222591
-0.000339239473533
-0.00040242384139
-0.000533661161022
-0.000572577878037
-0.000605658148366
0.000579702743654
0.0109093830228
0.0422297169929
-0.0168815492001
-0.000304023669411
-0.000381243211193
-0.000408772413514
-0.000419872368515
-0.000423363189675
-0.000419692725834
-0.000403826255242
-0.000339081576882
-0.000404128202927
-0.000537734530341
-0.000579033187777
-0.000616354048475
0.000491126400476
0.00917993779314
0.0311585340333
0.0493590539869
-0.000305153931098
-0.00038188969501
-0.000409567962156
-0.000420905946218
-0.000425127156637
-0.000423355143906
-0.000413254893437
-0.000343703234314
-0.000359808988585
-0.000442924915328
-0.000502802839469
-0.000628653745985
-0.000201903898295
0.00415336038619
0.0177597983084
-0.167988772965
-0.000306700955617
-0.000383255698371
-0.000411193676306
-0.000422970187104
-0.000427871555744
-0.000429111896447
-0.000426659475914
-0.000401176282765
-0.000396670284056
-0.000385952530652
-0.000397794525288
-0.000313927095933
-0.000306145750689
-0.000361292000966
-0.000475337559478
-0.000687400245833
-0.000675433777287
0.00149336683273
0.0047616045528
-0.204197138646
-0.000308639339025
-0.000384749136299
-0.00041301494892
-0.000425178170635
-0.000430864113663
-0.000433299910316
-0.000433617925393
-0.000427026828213
-0.00043181963383
-0.000435839180977
-0.000437376319087
-0.000450071352437
-0.000459799724731
-0.000454669660037
-0.000517011569527
-0.000743014073261
-0.000860522452052
0.000792633485677
-0.00417792561674
-0.0690127440237
-0.000310794107116
-0.000386724051998
-0.000415303066712
-0.00042778443731
-0.000434015346578
-0.000437747619874
-0.000440351813045
-0.000443519746669
-0.000445610217092
-0.000447979363758
-0.000449827665057
-0.000450303656461
-0.000459255544358
-0.000476773466148
-0.000553453712842
-0.000797784867235
-0.00107059202734
0.000353555599967
0.000112970450522
-0.00474951989266
-0.000313054501463
-0.000389004640698
-0.000417827719281
-0.000430491420803
-0.000436892942885
-0.00044098146938
-0.00044442258606
-0.000448149836666
-0.000451867843044
-0.000454808983864
-0.000456683426593
-0.000457045031529
-0.000461351652964
-0.000480999911584
-0.000558327663932
-0.000806140479418
-0.0011295962384
8.66976769152e-05
-0.0033372190692
-0.00185583279528
-0.000315333714862
-0.00039146751906
-0.000420500982088
-0.000433261116485
-0.000439690132788
-0.000443785852958
-0.000447266706647
-0.000450866152881
-0.000454682600387
-0.000458139129272
-0.000460647052103
-0.000462252523575
-0.000465420497106
-0.000479220739351
-0.000539885537843
-0.000742886822502
-0.00088599387452
0.000645851850752
0.00406243311439
0.0555688039697
-0.000317529229697
-0.000393990253523
-0.000423187733494
-0.000435986946582
-0.000442351580415
-0.000446313925356
-0.000449610236124
-0.000452948937161
-0.000456520246395
-0.000460038607599
-0.000463052267676
-0.000465344355939
-0.000467566926352
-0.00047315680756
-0.000503579018703
-0.000618246287707
-0.000347341116813
0.00293581784739
0.0125011827266
0.0616416773835
-0.000319630053541
-0.000396448115246
-0.000425793163072
-0.000438587577241
-0.000444851146035
-0.000448641305501
-0.000451706897289
-0.000454763035546
-0.000458036863609
-0.000461396143019
-0.000464464224105
-0.000466864985724
-0.000467759570429
-0.000464616031421
-0.000464457405776
-0.0004720304012
0.000250933742532
0.00656677226582
0.0248456852527
0.0130423058772
-0.000321526859465
-0.000398762862506
-0.000428240859937
-0.000440999284868
-0.000447137948865
-0.000450751135889
-0.000453592448193
-0.000456386944574
-0.000459371539398
-0.000462449962875
-0.000465280159406
-0.000467226102413
-0.000466052519646
-0.000455372165117
-0.000433234503021
-0.000408280108377
0.000367905783919
0.0074954729363
0.0346365428764
0.0506569626995
-0.000323206710222
-0.000400915991855
-0.000430481248716
-0.000443182283431
-0.000449177829196
-0.000452607733617
-0.000455235545525
-0.000457780287581
-0.000460455159958
-0.00046313228719
-0.000465398193661
-0.000466287783375
-0.000462501434009
-0.000443964485434
-0.000400265367604
-0.000326703572747
0.000536287108382
0.00743899635214
0.0391152562589
0.0731486185891
-0.000324688244291
-0.00040286771046
-0.000432488002716
-0.000445102935908
-0.000450945011662
-0.000454193481099
-0.00045661863616
-0.000458921874706
-0.000461292921329
-0.000463567280095
-0.000465173999798
-0.000464667944186
-0.000457916729208
-0.000432158800608
-0.000367723436999
-0.000217443355707
0.00105813477905
0.00879570522647
0.0246684214679
0.0136381354881
-0.00032600498709
-0.000404592476104
-0.000434233357878
-0.000446749422664
-0.000452436439838
-0.00045551534703
-0.000457759134671
-0.000459856067239
-0.000461974360753
-0.000463909838925
-0.00046492620155
-0.000463217940601
-0.000453833986808
-0.000422549686317
-0.00034828652556
-0.000184607427973
0.00105605035543
0.00810564524391
0.0207185766285
0.00551755634523
-0.000326997632976
-0.000406056861987
-0.00043570707896
-0.00044811820604
-0.00045365498234
-0.00045658172783
-0.000458670991298
-0.00046060321199
-0.000462543755614
-0.000464233461023
-0.000464867007052
-0.000462310089224
-0.000451128587364
-0.000416999507509
-0.000345386079875
-0.00023126459018
0.000727312235867
0.00673672778218
0.019577054702
0.00568454331344
-0.000327876914426
-0.000407286307672
-0.000436919426684
-0.000449222964452
-0.000454624408785
-0.000457411111602
-0.000459364476859
-0.000461152283271
-0.000462940069157
-0.000464482485797
-0.000464885246914
-0.000461888507473
-0.000449620823054
-0.000413658335542
-0.000343434637545
-0.000267096148995
0.000533215041021
0.00652949103684
0.0192860779218
0.00605904936108
-0.000328541908958
-0.000408303047765
-0.000437893167075
-0.000450079360199
-0.000455339590104
-0.000457999921813
-0.000459832143309
-0.000461498703602
-0.000463153718937
-0.000464575504143
-0.000464901076355
-0.000461802481072
-0.000448929343021
-0.000410156772205
-0.000330082371248
-0.000231098462399
0.000649976737219
0.00668995449221
0.0154151029611
0.00343822446743
-0.000329056366466
-0.000409112961857
-0.00043862772714
-0.000450689502504
-0.000455821170359
-0.000458364275199
-0.000460091962844
-0.000461663776862
-0.000463232628753
-0.000464610066792
-0.0004649967686
-0.000462103170375
-0.000449297218456
-0.000407538108081
-0.000310231203165
-0.000141528510495
0.00102264126915
0.00800654632627
0.0141163613993
0.00158416837994
-0.000329350996103
-0.000409721006425
-0.000439132609743
-0.000451067112123
-0.000456074942076
-0.00045851711925
-0.000460161764182
-0.000461660131012
-0.000463179957748
-0.000464569709993
-0.000465131642952
-0.000462662802048
-0.000450192774992
-0.000405978160112
-0.000285385166739
-5.9688127063e-06
0.00149349060987
0.00881105732275
0.0165611553527
0.0028378341504
-0.00032953699488
-0.000410140903088
-0.000439420735623
-0.000451225323929
-0.000456116391688
-0.000458469659434
-0.000460046819325
-0.000461490673587
-0.000462978758412
-0.000464395314002
-0.000465142134589
-0.00046311494788
-0.000450984362761
-0.000404059843974
-0.000261146756781
0.000124557164417
0.00183733962591
0.00921420127878
0.0235604342263
0.00660895286954
-0.000329610820315
-0.000410378027321
-0.000439512483579
-0.000451176666879
-0.000455959239238
-0.000458233829484
-0.000459750635024
-0.000461146745384
-0.000462602557223
-0.000464034780776
-0.000464907869609
-0.000463175340801
-0.000451162762753
-0.000401711101314
-0.000243125906773
0.000216068436393
0.00211950931966
0.00872075667849
0.0217005682402
0.00636043677124
-0.000329565250211
-0.000410465856615
-0.000439424213143
-0.000450942293834
-0.000455616747125
-0.000457817711882
-0.000459278334271
-0.000460625638233
-0.000462038839486
-0.000463453798746
-0.000464368392342
-0.000462729363545
-0.000450388964172
-0.000398303548349
-0.000226845815571
0.000288733112162
0.00237655861259
0.0088117501106
0.0158726288911
0.00292991419719
-0.000329430519941
-0.000410433619378
-0.000439171224461
-0.000450531293755
-0.000455100902683
-0.000457231279043
-0.00045863656897
-0.000459931452888
-0.000461291707186
-0.000462660024728
-0.000463550023284
-0.000461875811437
-0.000449056668608
-0.000394262693445
-0.000213901732849
0.000333691280859
0.00259988240999
0.0098014164181
0.0146233793003
0.000691025006531
-0.000329209551181
-0.000410268435004
-0.00043876783115
-0.000449963215876
-0.000454424855225
-0.00045648465898
-0.000457834426677
-0.000459074958591
-0.00046037629153
-0.000461681823692
-0.000462513389152
-0.000460754770804
-0.000447507990342
-0.000391354447558
-0.000211472502333
0.000327717459748
0.00271961051133
0.0112136987411
0.016149782088
0.000158658660186
-0.00032893993539
-0.000409993844506
-0.000438234853426
-0.000449255232089
-0.000453606953965
-0.000455595946307
-0.000456891358689
-0.000458078848478
-0.000459321733524
-0.00046056384426
-0.000461343731208
-0.00045955555336
-0.000446142286027
-0.000390004400068
-0.000218288412777
0.000266307931867
0.00268682806982
0.0131286450999
0.0182788499627
0.000631266376198
-0.000328619362623
-0.000409643498377
-0.000437594238274
-0.000448426317621
-0.000452665500389
-0.000454585039004
-0.000455829539472
-0.000456969019316
-0.000458161683054
-0.000459356308038
-0.000460126926118
-0.000458451544281
-0.000445464269094
-0.000390719453683
-0.000225574548271
0.000235169457493
0.00265765396721
0.0124097273837
-0.00422092884945
-0.00710395372315
-0.000328238050794
-0.000409227128021
-0.000436857467679
-0.000447487846208
-0.000451610443839
-0.000453463985783
-0.000454662711017
-0.00045576267281
-0.000456920112806
-0.000458093530999
-0.000458904176562
-0.000457472840033
-0.000445474486434
-0.000393118625197
-0.000227202769686
0.000260513004798
0.00258626760788
0.00910530377412
-0.0136985891123
-0.0324226344877
-0.000327830810739
-0.000408749525948
-0.000436052846962
-0.000446474861162
-0.000450479968572
-0.00045226831998
-0.000453419094889
-0.000454474681168
-0.0004555912594
-0.000456742456965
-0.000457614041161
-0.000456573418627
-0.000446079882638
-0.0003969636259
-0.000225129236029
0.000317935558435
0.00235709058903
0.00485792551417
-0.0240767729287
-0.143133178184
-0.00032742845387
-0.000408217743446
-0.000435177550358
-0.000445387071697
-0.000449273286878
-0.000450995823039
-0.000452100064879
-0.000453114188934
-0.000454193435739
-0.000455339417369
-0.000456331214404
-0.000455884472695
-0.000447504926277
-0.00040394465848
-0.000233507911264
0.000340197567913
0.00208302206295
0.00259594848083
-0.0156904657962
-0.0549513406032
-0.00032705774594
-0.000407628349181
-0.000434242446338
-0.000444238916332
-0.000448012496183
-0.000449672588027
-0.000450739576391
-0.000451724038565
-0.000452774449283
-0.000453940368343
-0.000455128241676
-0.000455486706374
-0.000449972096784
-0.000415191987972
-0.000261275393405
0.000280296923429
0.00158286562117
0.00101714281111
-0.00716302402258
0.158900787035
-0.000326778935489
-0.000406998000169
-0.000433254782783
-0.000443040617524
-0.000446710095514
-0.000448314597192
-0.000449354701249
-0.000450323510173
-0.000451368773942
-0.000452588802425
-0.000454051049085
-0.000455396726698
-0.000453393246546
-0.000430279266734