/*--------------------------------*- C++ -*----------------------------------*\
| =========                 |                                                 |
| \\      /  F ield         | OpenFOAM: The Open Source CFD Toolbox           |
|  \\    /   O peration     | Version:  v2012                                 |
|   \\  /    A nd           | Website:  www.openfoam.com                      |
|    \\/     M anipulation  |                                                 |
\*---------------------------------------------------------------------------*/
FoamFile
{
    version     2.0;
    format      ascii;
    class       volScalarField;
    location    "5.9";
    object      k_0;
}
// * * * * * * * * * * * * * * * * * * * * * * * * * * * * * * * * * * * * * //

dimensions      [0 2 -2 0 0 0 0];


internalField   nonuniform List<scalar> 
1984
(
0.000812028321651
0.000950285994856
0.000999860229414
0.00102170983897
0.00103397304082
0.0010431320875
0.00105147935913
0.00105997442615
0.00106946514743
0.00108105976864
0.00109819458164
0.00113024635455
0.00120810606884
0.00143482210399
0.0021114481414
0.00384880136613
0.00726472147055
0.0125966524988
0.0206411736556
0.0370351556128
0.000952138691801
0.00117060001316
0.00124256513825
0.00127259183169
0.00128772158713
0.00129771329398
0.00130614497829
0.00131454013928
0.0013239651248
0.00133633103624
0.0013563704733
0.00139759653918
0.00150392485022
0.00181906252218
0.00274074439612
0.004948397453
0.00886764323435
0.0146248541581
0.0254946495413
0.0677256014028
0.00100317680765
0.00124592475428
0.00132658792647
0.00135982783895
0.00137597565735
0.00138621690466
0.00139471325986
0.00140316747366
0.00141281041685
0.00142572320344
0.00144714501241
0.00149203348284
0.00160764276976
0.00194652222884
0.00292238921322
0.00522583897335
0.0092782906807
0.01522528698
0.0264576204655
0.068906970241
0.00102541848174
0.00127796307659
0.00136228481635
0.00139678631009
0.0014131824729
0.00142333372315
0.00143170048639
0.00144009440499
0.00144975640508
0.00146285736497
0.0014846842772
0.00153029882519
0.00164642490681
0.00198152895248
0.00293785158824
0.00521385358102
0.00932865777936
0.0155018496142
0.0263952835312
0.0670066412084
0.00103704391909
0.00129366439622
0.00137950906995
0.00141439196575
0.00143067084536
0.00144055557679
0.00144865408561
0.00145683015924
0.00146634365469
0.00147926622155
0.00150077864706
0.00154521074214
0.00165585577718
0.00196712052442
0.00285148488817
0.00503015328207
0.00922668288955
0.0157450230343
0.0250426460376
0.0411546786391
0.00104468139392
0.00130319018124
0.00138965232439
0.00142454100824
0.00144054955494
0.00145008713256
0.00145785064747
0.00146572214179
0.00147494106509
0.0014875016435
0.00150825616802
0.00155046554358
0.00165270217711
0.00193168152152
0.00272331522296
0.00478469110265
0.00907692549903
0.0161495016822
0.0268085086256
0.0443400783575
0.00105077139425
0.00131037496047
0.00139709365088
0.00143184711136
0.00144753985915
0.00145671163281
0.0014641178548
0.0014716482586
0.00148050964958
0.00149260961411
0.00151251888723
0.00155262842133
0.00164828297706
0.00190510231819
0.00263543531611
0.00460414006056
0.00892254756973
0.0163803744581
0.0291640687547
0.0669055951746
0.00105619875626
0.00131664952924
0.00140348410383
0.001438066554
0.00145344834727
0.00146226968833
0.00146932469107
0.00147651272519
0.00148500232928
0.00149662148878
0.00151573910882
0.00155433449321
0.00164723359099
0.00190005620401
0.00262339874779
0.00455825622257
0.00878993747105
0.0163113781291
0.0299401493883
0.0685643213426
0.00106126423464
0.00132246472667
0.00140941245615
0.00144383155961
0.00145893367952
0.00146743531081
0.0014741640548
0.00148101946283
0.00148915007188
0.00150029561434
0.00151866372414
0.001555979239
0.00164722854025
0.00190094729702
0.00263186839314
0.00454495002553
0.00863974088292
0.0160194346333
0.0290169695195
0.0540238615366
0.00106604222145
0.00132803890764
0.00141507804126
0.00144935307693
0.00146420733623
0.00147242556876
0.0014788599811
0.00148541077744
0.00149319717034
0.00150387698361
0.00152146353822
0.00155726163643
0.0016454117452
0.0018931552984
0.00260986852174
0.00447396024014
0.00846537432811
0.0158110124417
0.0285158749831
0.0467113496372
0.00107055652954
0.00133334569996
0.00142051419789
0.00145467828415
0.0014693179979
0.00147728605553
0.00148345977357
0.00148973528063
0.0014972005739
0.0015074292873
0.00152420694369
0.0015581859944
0.00164146773306
0.00187470051786
0.0025513203872
0.00434167394781
0.00829179227274
0.0158273323327
0.0293472167263
0.0494978864184
0.00107479459302
0.00133840188612
0.00142571908382
0.00145980054086
0.00147425724914
0.00148200710052
0.00148794846114
0.00149397585809
0.0015011437155
0.00151092888005
0.00152687569895
0.00155885953608
0.0016361766083
0.00184974055215
0.00247038122817
0.00417066207544
0.00812114832058
0.0159451087466
0.0304750394977
0.0553899562121
0.00107874094172
0.00134319040811
0.00143067774026
0.00146470065961
0.0014789995573
0.00148655792979
0.00149229404685
0.00149809518446
0.00150498137378
0.00151433206467
0.00152942857334
0.00155935695669
0.00163065196251
0.00182478038069
0.00239088554103
0.00400279483041
0.00796358284132
0.0161041067268
0.0315336847511
0.0580337001055
0.00108237150477
0.00134768690422
0.00143536803152
0.00146934976227
0.0014835148998
0.00149090687821
0.00149646236841
0.00150206090867
0.00150868584276
0.00151761893672
0.00153189298313
0.00155981676531
0.00162551293972
0.00180282074515
0.00232257806133
0.00385334275301
0.00781594328238
0.016252799382
0.0325729559414
0.0631813962488
0.00108568742628
0.00135187789276
0.00143975878776
0.00147371862863
0.00148777357249
0.00149502270424
0.00150041995968
0.0015058381929
0.00151222425166
0.0015207727696
0.00153425488538
0.00156029821759
0.00162098796582
0.00178415998439
0.00226536636563
0.00371664456123
0.0076257090923
0.0162505865492
0.0332494536343
0.0690130169449
0.00108871090404
0.00135574776318
0.00144383452899
0.00147778902559
0.00149175094917
0.00149887672685
0.0015041346132
0.00150939390414
0.00151556772188
0.00152374633788
0.0015365088871
0.00156082799575
0.00161701717166
0.00176756901991
0.00221299718069
0.00357763744822
0.00737287787591
0.0160043702099
0.0333534968382
0.0733435190359
0.00109141402612
0.00135927319487
0.00144757201973
0.00148153714898
0.00149542450707
0.00150244425023
0.00150758342672
0.00151270395802
0.00151867350065
0.0015265223919
0.00153860398947
0.00156134791825
0.00161344050719
0.00175245477875
0.0021639301061
0.00343624601543
0.0070467448579
0.0154072067319
0.032598725176
0.0732450068256
0.001093766173
0.00136244779952
0.0014509728511
0.00148496439937
0.00149879480206
0.00150573002764
0.00151076295515
0.00151574879387
0.0015215399123
0.00152907126225
0.00154051254602
0.00156178889023
0.00161021382697
0.00173937879025
0.00212245219092
0.00331355053535
0.00670727911306
0.0144792172528
0.0306718201887
0.0719628139593
0.00109578567533
0.00136525815214
0.001454027915
0.00148806540413
0.00150185870374
0.00150872263583
0.00151366880979
0.00151854073495
0.00152416376748
0.00153140528856
0.00154225941908
0.00156223454616
0.0016075962364
0.00172940185758
0.00209312442469
0.00322318399009
0.00643269302293
0.0135998911657
0.0279913076685
0.0679697758319
0.0010976159423
0.00136773125372
0.00145672620998
0.00149082288731
0.00150459902098
0.00151141569734
0.00151628976392
0.00152106653384
0.00152654962699
0.00153355136303
0.00154391816093
0.0015628240321
0.00160585235189
0.00172259982325
0.00207431253771
0.00316404226457
0.00626341252354
0.0132650302785
0.0261734448858
0.0585163980498
0.00109930374587
0.00136984264614
0.00145903669493
0.00149320993735
0.00150699532382
0.00151377976301
0.0015186025565
0.00152330764895
0.00152868145776
0.00153549096046
0.00154546470229
0.00156354070742
0.00160492182932
0.0017189042847
0.00206562732911
0.00313347763558
0.00618907269171
0.0135450987127
0.0275762539312
0.0545776848893
0.00110079553719
0.00137155551736
0.00146093458605
0.00149520700604
0.00150902700923
0.00151580491866
0.00152059849068
0.00152525574012
0.00153055049477
0.00153720767435
0.00154687157064
0.00156431982246
0.00160463146441
0.00171765533271
0.00206479915149
0.00312122009007
0.00614193334974
0.013911684959
0.0298418323639
0.0597805314761
0.00110201609786
0.00137287996416
0.00146243413173
0.00149682156238
0.00151069585437
0.00151748972006
0.00152227359875
0.00152690214149
0.00153214056291
0.00153868005695
0.00154809638151
0.00156506377735
0.00160467743575
0.00171747631302
0.00206564673101
0.00310763764743
0.00605932521601
0.0140373852685
0.0312101747003
0.0603790238263
0.00110293420574
0.00137381516193
0.00146354384382
0.00149806139623
0.00151200733329
0.00151883066308
0.0015236184169
0.00152823286499
0.00153343393928
0.0015398852979
0.00154910358912
0.00156568359466
0.00160472129756
0.00171721677025
0.00206505982435
0.00308746266362
0.00592459544768
0.0138569268229
0.0319989542906
0.0641166799983
0.00110351613026
0.00137437098475
0.00146427053646
0.00149892553572
0.00151295459068
0.0015198176159
0.00152462051189
0.00152923522545
0.00153441775764
0.00154080783352
0.00154986809728
0.00156610735715
0.00160454004837
0.00171621806858
0.00206167104687
0.00306054636958
0.00575783796829
0.0134508464714
0.0327930627178
0.073680628921
0.00110374343098
0.00137454491744
0.00146461240127
0.00149940913519
0.00151353148037
0.00152044901298
0.00152528313676
0.00152991444495
0.00153509577012
0.00154144510156
0.00155036896591
0.00156627077411
0.00160399287109
0.00171428028911
0.00205537009763
0.00302456136104
0.00555539966117
0.012873011957
0.0330740691415
0.0745369155541
0.00110362232248
0.00137434189154
0.00146456566233
0.00149950631607
0.00151373093926
0.00152071666285
0.00152559815323
0.0015302633581
0.00153546333284
0.00154179679933
0.00155061293828
0.00156619377966
0.00160309337125
0.00171131404472
0.00204604486581
0.0029849653806
0.00536626505818
0.0122757035145
0.0325190961868
0.0743691793806
0.00110317811819
0.0013737697241
0.00146412556672
0.00149920876525
0.00151354578973
0.00152061203375
0.00152555436394
0.00153026761004
0.00153550061094
0.00154183826455
0.00155058233832
0.00156589666364
0.00160202849332
0.00170829320864
0.00204012222836
0.00298549262438
0.00541495066448
0.0123032413722
0.0321489247327
0.0741781034161
0.00110240118584
0.00137281327218
0.0014632792295
0.00149850522277
0.0015129665297
0.00152012855752
0.00152514760744
0.0015299273125
0.001535219294
0.00154159643175
0.00155032031083
0.0015654617088
0.00160096843158
0.00170540380467
0.00203447725007
0.00299163747205
0.00552839432841
0.0125584886599
0.0316183221983
0.0738684330373
0.00110128404852
0.0013714587404
0.00146200869468
0.00149738123846
0.00151198214317
0.00151925869058
0.00152437438624
0.00152924242819
0.00153461987294
0.00154107501819
0.00154985458014
0.00156499547397
0.00160018633401
0.00170283744738
0.00202702227015
0.00298319443997
0.00555065014346
0.0125770550046
0.0311141336614
0.073665890377
0.00109983692647
0.00136970085152
0.00146030476291
0.00149582556365
0.00151058314569
0.00151799643899
0.00152323164985
0.00152821282686
0.0015337060782
0.00154029206786
0.00154925532076
0.00156471897232
0.00160030193292
0.00170211387419
0.00201987499455
0.00296163303627
0.0054977038848
0.0124295517363
0.0309772782513
0.0737145411159
0.00109804546969
0.00136751855558
0.00145814798358
0.00149382218854
0.00150875842246
0.001516335467
0.00152171830453
0.00152684365543
0.00153249373566
0.00153928552158
0.00154862361643
0.00156494307747
0.00160233856588
0.00170646552058
0.00202182574001
0.00293890115626
0.00538309462312
0.0121815256764
0.0311793904149
0.0739554259005
0.00109586688751
0.00136486841591
0.00145551705916
0.00149135699313
0.00150649840575
0.00151427035476
0.00151983383434
0.0015251402767
0.00153099730998
0.00153808720119
0.00154803653646
0.00156589958887
0.00160701724764
0.00171799022846
0.00203796494422
0.00292448512189
0.00521590940874
0.0117977292157
0.0313206976166
0.0742074661128
0.0010932659298
0.00136174668119
0.00145239958997
0.00148841951726
0.00150379476887
0.0015117950758
0.00151757585288
0.00152310422648
0.00152921977826
0.00153669560615
0.0015474637807
0.00156744643563
0.00161389999992
0.00173570948539
0.00206744252497
0.00293089136773
0.00504922840423
0.0112211199984
0.0309385247405
0.0742907757279
0.00109027975063
0.0013581490514
0.00144878067075
0.0014849968512
0.00150063713605
0.00150890266239
0.00151493934207
0.00152072994425
0.00152714920493
0.00153506720071
0.00154674216993
0.00156899884348
0.00162102814553
0.00175412875503
0.00210019348504
0.00295454287054
0.00495160561648
0.0106625795412
0.0299959298262
0.0741065908698
0.00108685553019
0.00135406680714
0.00144465774026
0.00148108255477
0.00149701839977
0.00150558649339
0.00151191841812
0.00151801249466
0.00152477080327
0.00153314337852
0.00154563572166
0.00156971464818
0.00162586358595
0.0017667134755
0.00212183477776
0.00297324416822
0.00491596466602
0.0103228907237
0.0286969902744
0.0736614078668
0.0010830137099
0.0013494870334
0.00144002481943
0.00147667187841
0.00149293246808
0.00150184182218
0.00150851285132
0.00151495054622
0.00152207585335
0.00153088377406
0.00154399114899
0.00156908644557
0.00162693270816
0.00176989443302
0.00212511463156
0.0029666813748
0.00488046034473
0.0101918613593
0.0279026115218
0.0733023022277
0.00107872758957
0.00134441902029
0.00143488603465
0.00147176568998
0.00148837908156
0.00149766950834
0.0015047228281
0.00151154807158
0.00151907398948
0.00152830055251
0.00154184312761
0.00156729268963
0.00162488564948
0.00176548576149
0.00211335784204
0.00293559519287
0.0047997618591
0.00999606003776
0.0274461599971
0.0731771365781
0.00107402190375
0.00133887064348
0.00142925399083
0.0014663728244
0.00148336473998
0.00149307312709
0.00150055529036
0.0015078181241
0.0015157859821
0.00152543390313
0.00153929886637
0.00156467032595
0.00162091632385
0.00175703870299
0.00209448158299
0.00289493183108
0.0046855925749
0.00962200707766
0.0268729323012
0.0731023879094
0.00106887155213
0.00133286411729
0.00142315179813
0.00146051281822
0.00147790159057
0.00148806379794
0.00149602574792
0.00150378019199
0.00151223892255
0.00152229462932
0.0015363565691
0.00156116483524
0.0016150999327
0.00174545920784
0.00207196247529
0.00285276677689
0.00457374859353
0.00914111090592
0.0256045951205
0.0726941662708
0.00106328954027
0.00132644148569
0.00141662005048
0.00145421465175
0.00147201104426
0.00148266018089
0.00149114507679
0.00149945353379
0.00150843608702
0.00151894238216
0.00153300936045
0.00155681836413
0.00160762091637
0.00173156762069
0.00204784113853
0.00280979029846
0.00444759291061
0.00853770020981
0.0236882827314
0.0712503188316
0.00105736410148
0.00131967539506
0.00140972322911
0.0014475341595
0.00146572606991
0.00147686794509
0.00148591474978
0.00149482568208
0.00150446221024
0.00151546158876
0.00152960213481
0.00155244270816
0.00160034859772
0.00171894791432
0.00202821442723
0.00277596578292
0.00434805156128
0.00809718653201
0.0222028745568
0.0695419028047
0.00105109940063
0.00131265015996
0.00140255076736
0.00144053031284
0.00145907646857
0.00147067048871
0.00148025825588
0.00148979905096
0.00150014374381
0.0015118179213
0.00152627603972
0.00154874193249
0.00159512684384
0.0017110724477
0.00201696591969
0.00275763794316
0.00430262476557
0.00780893994733
0.0196486863775
0.0656516480646
0.00104458351252
0.00130550759071
0.00139524846569
0.00143331860893
0.0014520787549
0.00146395254299
0.00147384675373
0.00148383279376
0.00149490355108
0.00150745759898
0.00152264056597
0.0015457679175
0.00159314833741
0.00170959951212
0.00201527621543
0.00275668745304
0.00433820001058
0.00817928314633
0.0207859356507
0.0645899758778
0.00103796121794
0.0012984273995
0.00138797691926
0.0014259711799
0.00144463322561
0.00145620519637
0.0014655625139
0.00147510052925
0.00148649740878
0.00150009049744
0.00151634711645
0.00154122890083
0.00159354594406
0.00171588375914
0.00202522372644
0.00276767079583
0.00435108208956
0.00827243503914
0.0208729334348
0.0553517627117
0.00103146865216
0.00129169336349
0.00138094708027
0.00141855321267
0.00143638947924
0.0014461644937
0.00145232432741
0.00145781941699
0.00146748398069
0.00148169696224
0.00149896671934
0.00152679833967
0.00159204122487
0.00173204668514
0.0020561491511
0.00280330439516
0.00432894218583
0.00796971448217
0.0199673327496
0.0492728888261
0.00102528210409
0.00128551716189
0.0013743300674
0.00141100440456
0.00142664623938
0.00143126242163
0.00142662710977
0.00141277076648
0.001412723219
0.00142501251039
0.00144289865719
0.00147534569478
0.00157342318918
0.00175864644842
0.00212266850454
0.00289084080646
0.00436244703988
0.00778358336491
0.0203051809554
0.0570534492408
0.00101963688386
0.00128018744747
0.00136839840108
0.00140356132788
0.0014153727087
0.00141015302486
0.0013798103071
0.00130380678627
0.00121026189305
0.00120490632619
0.0012205600445
0.00128024431183
0.00152172838231
0.00181275854867
0.0022532914664
0.00305244837335
0.00449024049493
0.0078777505187
0.0217244384497
0.0698949720681
0.00101467263015
0.00127560297867
0.00136338021442
0.00139708306713
0.00140526240874
0.00139091107612
0.00133455149794
0.00112657100089
0.00157261051788
0.00203317821907
0.00250871060135
0.00329132165547
0.00466537360991
0.00806254988656
0.0220423972685
0.0715015289228
0.00101143359736
0.00127302520717
0.00136062159394
0.00139346259874
0.00139957809695
0.00138061592704
0.00131312323301
0.00107528614662
0.00167395662878
0.00221267604661
0.00270871433178
0.00347282441047
0.00483860457587
0.00851292810595
0.0228478358846
0.0719738002707
0.00101136967865
0.00127299273485
0.00136061041181
0.00139346414037
0.00139958925678
0.00138063364613
0.00131313232633
0.0010753507431
0.00167180096536
0.00220755738254
0.00270022130318
0.0034650155301
0.00482947063698
0.00835487317546
0.0208301924354
0.0547863515957
0.00101458281721
0.00127553134881
0.00136335286357
0.00139707475973
0.00140525047701
0.00139087850256
0.00133446822603
0.00112650637506
0.00156951178511
0.00202529979557
0.00249565309734
0.00328272819883
0.00470725575538
0.00828901893465
0.0216363289924
0.0623499586001
0.00101956593567
0.00128013466226
0.00136837976273
0.00140355650252
0.00141533679403
0.00141001836242
0.00137948378564
0.00130345980322
0.00120959587169
0.00120452770245
0.00122033801777
0.00128008113673
0.00152117828718
0.00181109259497
0.00224868633171
0.00305040224496
0.00452873678044
0.00823057634875
0.0226748996578
0.066712150124
0.00102525812345
0.00128553029946
0.00137433652958
0.00141100334975
0.00142662132125
0.00143119114186
0.00142648910969
0.00141254458124
0.00141247791081
0.001424871648
0.0014429110167
0.00147581423867
0.00157459253054
0.00176181099477
0.00213117069749
0.00290529715616
0.00440230199004
0.00812854286913
0.0220771174554
0.0587364148383
0.00103147329251
0.00129173676602
0.00138096535005
0.00141854768403
0.00143636341812
0.00144611382381
0.00145223381741
0.00145769031848
0.00146737023663
0.00148164099972
0.0014991072417
0.00152753422211
0.00159434762485
0.00173890749461
0.00207352263098
0.00282904891099
0.00434766282028
0.00808743788414
0.021034188058
0.0506434699157
0.00103796901361
0.00129847920194
0.00138799184424
0.00142596164381
0.00144459991312
0.00145615294665
0.00146549195981
0.00147500809209
0.0014864033781
0.00150003078012
0.00151645414881
0.00154189399917
0.00159591639096
0.00172313443846
0.00204370176029
0.00279530370513
0.00435382636264
0.0082345135004
0.021251355815
0.0513970369474
0.00104457493699
0.00130553939087
0.00139525298217
0.00143329932016
0.00145204516448
0.00146389840755
0.00147377768878
0.00148374789776
0.00149480082035
0.00150736403912
0.00152263382698
0.00154611537322
0.00159471257288
0.00171485441407
0.00202954959617
0.00278424746244
0.00439471024923
0.00859490723942
0.0231993114124
0.0667215234958
0.00105109490423
0.00131268850056
0.0014025553347
0.00144051363709
0.00145904200708
0.00147062524624
0.00148019419107
0.00148971729033
0.00150003804841
0.00151170280376
0.00152619047119
0.00154884885786
0.00159602354905
0.00171469306919
0.00202891644096
0.00278907865183
0.00444436901292
0.0088823610797
0.0241511141215
0.0681452071737
0.00105735541938
0.00131970894234
0.00140972078518
0.00144751120711
0.00146569382542
0.00147682678977
0.0014858600517
0.00149475338419
0.00150434849186
0.00151532649129
0.0015294525272
0.00155243371775
0.00160107468554
0.0017228324047
0.00204207889974
0.00281464886434
0.00451958522446
0.00917661141998
0.0255794390979
0.0719295714734
0.00106328206261
0.00132645202152
0.00141660809491
0.00145419519924
0.00147199040193
0.00148263731617
0.00149111694833
0.00149940298485
0.00150837076124
0.00151883704829
0.00153288901939
0.00155683762644
0.00160847353736
0.00173618950502
0.00206398702188
0.00284999504209
0.00457824370762
0.00919540428111
0.024938552886
0.0699238900277
0.00106885562914
0.00133285099071
0.00142313128724
0.00146049971922
0.00147790055097
0.00148807284487
0.00149603512653
0.0015037779353
0.00151220600822
0.00152224113339
0.00153625437854
0.00156113005197
0.0016155707385
0.00174873301106
0.00208478024468
0.00288718434806
0.00466680388895
0.00933788050056
0.0244841494388
0.0686433328895
0.0010740001388
0.00133884599579
0.00142923604998
0.00146637347418
0.00148338729823
0.00149311367758
0.00150060558087
0.00150786398061
0.00151581032148
0.00152542393207
0.00153924214299
0.00156455423288
0.00162079130296
0.00175783587527
0.00210101301656
0.00292534481281
0.00481409299958
0.0100239457114
0.0271100007211
0.0724737556057
0.00107871329965
0.00134440013682
0.00143487796285
0.00147178097937
0.00148842323948
0.00149773817909
0.00150480816686
0.00151163597092
0.00151914441317
0.00152832799849
0.00154179917564
0.00156709213786
0.0016243032243
0.00176445919383
0.00211458761612
0.00295593372293
0.00490321405895
0.0102649242289
0.0276503584718
0.0732281016965
0.00108300255816
0.00134946243424
0.0014400160376
0.00147669289267
0.00149298754781
0.00150193025989
0.00150862529654
0.00151507413737
0.00152218893072
0.00153094273389
0.0015439458468
0.00156880623392
0.00162614380404
0.00176818543542
0.00212340487109
0.00297336622048
0.00492166425833
0.0102844409138
0.0278415966574
0.0732723004315
0.00108681805309
0.00135400221422
0.00144462539908
0.00148109214527
0.00149707009972
0.00150567638855
0.00151204127591
0.00151815640955
0.0015249168525
0.00153325365864
0.00154563361056
0.00156944544969
0.00162510903752
0.00176522962382
0.00211989070416
0.002973271193
0.00492574711863
0.0104094786088
0.0288410068958
0.0735307647088
0.00109023846112
0.00135806325147
0.00144873492203
0.00148500099344
0.00150068841325
0.00150899630702
0.00151506961028
0.00152088966725
0.00152732324606
0.00153523208281
0.00154684035213
0.00156890448708
0.00162059975731
0.00175337170786
0.00209959990542
0.00295656040473
0.00496205537333
0.0106503496739
0.029345697722
0.0737161998885
0.00109323246
0.00136165795402
0.00145235271659
0.00148842566905
0.00150384882056
0.00151189167765
0.00151771103823
0.0015232742951
0.00152941379481
0.00153689742846
0.00154764751065
0.00156755563845
0.00161387284834
0.00173550407011
0.00206703180603
0.00292759413624
0.00502357844064
0.0110430777665
0.0303507157899
0.0740031820429
0.00109584794016
0.00136478574503
0.00145547776376
0.0014913700164
0.0015065569309
0.00151436892152
0.00151997063542
0.00152531505685
0.00153120376941
0.00153831106466
0.00154826144972
0.00156609497783
0.00160718894726
0.00171789717018
0.00203543518008
0.0029090864829
0.00514074740511
0.011551378855
0.0311647539461
0.0741913304195
0.00109804343852
0.00136744595122
0.00145811921786
0.00149384432333
0.001508823042
0.00151643716101
0.00152185650656
0.00152702039047
0.00153270626753
0.00153952087049
0.00154886705221
0.00156515545702
0.00160245333323
0.00170576141105
0.0020158515874
0.00290724308865
0.00524189546147
0.0117606301822
0.0308887458056
0.0740297833077
0.00109985823113
0.00136965135067
0.00146029243272
0.00149585927457
0.0015106565015
0.00151810393429
0.00152337273523
0.00152839149273
0.00153392174659
0.00154053310745
0.00154950452181
0.00156490526215
0.0016001832796
0.00170026882351
0.00200949014871
0.00291407772238
0.00531983732517
0.01198876075
0.0305766545061
0.0737632193476
0.0011013352789
0.00137143445964
0.00146201764631
0.00149743185415
0.00151206798845
0.00151937540843
0.00152452164676
0.00152942540057
0.00153483997084
0.00154132377678
0.00155011387036
0.00156517024088
0.00159984796307
0.00169975858929
0.00201245156913
0.00293325254875
0.00540671213346
0.0122817826393
0.0309498193576
0.0737742291936
0.00110247679443
0.00137281889347
0.00146330818446
0.00149857226626
0.00151306725001
0.00152025780058
0.00152530475193
0.00153011799586
0.00153544832734
0.00154185943133
0.00155060039174
0.00156566706243
0.00160063838595
0.00170228736966
0.00202157058905
0.0029603068791
0.00547970640888
0.0125346326797
0.0318221780818
0.074049145604
0.0011032723429
0.00137379905688
0.00146417605676
0.00149929499999
0.00151366403079
0.00152075648455
0.00152572353055
0.00153046660983
0.00153573705251
0.00154211345244
0.00155088843994
0.00156617791792
0.00160196862633
0.00170649833564
0.00203353270423
0.002981471194
0.00549390462734
0.0126111124566
0.0324768282439
0.0742863440639
0.00110373575298
0.00137438847649
0.00146463631822
0.00149961298015
0.0015138684976
0.00152087808089
0.00152578147217
0.0015304715477
0.00153570137101
0.00154206905901
0.00155092462816
0.00156653299287
0.00160336782119
0.00171123571448
0.0020462492633
0.00299684600216
0.0054347551674
0.0123738540031
0.0326250231783
0.0743593006184
0.00110386991944
0.00137460701037
0.00146470382305
0.00149953705564
0.00151368866355
0.00152062896942
0.00152548405891
0.00153013751478
0.00153534482276
0.00154172554054
0.00155068819289
0.00156663571213
0.00160441390365
0.00171494565173
0.00205618062276
0.00301330538817
0.005444321866
0.0124398392827
0.0325002204036
0.0743807706595
0.00110366035585
0.00137445819791
0.0014643852487
0.00149907374065
0.0015131296798
0.00152001411961
0.00152483619314
0.00152947071477
0.00153467719562
0.00154109764443
0.00155019696416
0.00156649084217
0.0016050585059
0.00171726300199
0.00206320922075
0.00304345038693
0.00559149671064
0.0128758886869
0.0320681084189
0.073563428051
0.00110311187015
0.0013739306975
0.00146368171932
0.00149822870096
0.00151219882909
0.00151903990115
0.00152384308601
0.00152847644408
0.00153370570886
0.00154019827165
0.00154947746712
0.00156615775562
0.00160542208771
0.00171872756598
0.00206931290741
0.00309111902782
0.00585767084406
0.0135014349293
0.0314423680291
0.0641930640552
0.00110222229972
0.0013730206106
0.00146259308734
0.0014970073906
0.00151090415365
0.00151771430941
0.00152251147797
0.00152715748141
0.00153242424369
0.00153900901945
0.00154850136295
0.00156562852704
0.0016056564822
0.00171980941006
0.00207343380533
0.00313178953696
0.00606856811314
0.0137995016182
0.0306563546671
0.0602203945827
0.00110100691523
0.00137171686761
0.00146111398647
0.00149541087186
0.00150925120519
0.00151604459537
0.00152085022109
0.00152552279295
0.00153084164302
0.00153754124441
0.00154729234714
0.0015649634623
0.00160592340576
0.00172107811067
0.00207604261811
0.00315536799524
0.00617386577842
0.0136789549601
0.0291679771579
0.0594122120398
0.00109952522359
0.00137002920243
0.00145924330963
0.00149343860994
0.00150724235366
0.00151403708741
0.00151886887254
0.00152358695823
0.00152898156319
0.00153583063522
0.00154590166445
0.00156425847312
0.00160657219528
0.00172384655355
0.00208156667041
0.00317475302196
0.0062177052785
0.0133351183611
0.0270933651675
0.0548744767902
0.00109785504819
0.00136795852461
0.00145697131323
0.00149108512464
0.00150487600373
0.00151169675533
0.00151657484584
0.0015213588974
0.00152685692459
0.00153389348374
0.00154435778953
0.0015635710505
0.00160769098265
0.00172847616409
0.00209339902086
0.00320905894645
0.00629549002971
0.0132484593321
0.0270300329379
0.0638107825638
0.00109605022324
0.00136551630146
0.00145429935026
0.00148835131143
0.00150215732006
0.00150902888363
0.00151397358187
0.00151884333962
0.00152446817689
0.00153173079719
0.00154266215904
0.00156293172528
0.00160943484564
0.00173561372726
0.00211383416409
0.0032728779625
0.0064820806742
0.0136799034456
0.0285559772413
0.0690398723002
0.00109402351311
0.00136270458641
0.00145124612841
0.00148525415943
0.00149910112002
0.00150604312604
0.0015110757494
0.00151605298802
0.00152183107047
0.00152935660237
0.00154084291627
0.00156234127854
0.00161180549226
0.00174535492351
0.00214391634155
0.0033702728369
0.00678833017943
0.0145790181284
0.0309752122911
0.0721755064406
0.00109165885275
0.00135952044041
0.0014478354644
0.00148181929776
0.00149572232287
0.00150275259889
0.00150788916251
0.00151299319955
0.00151894563559
0.00152677491943
0.00153885128275
0.00156172180027
0.00161462788257
0.00175766743803
0.00218465958187
0.00349327283839
0.00714137973653
0.0155272564057
0.0327984054924
0.0731868631058
0.00108895680728
0.00135599005998
0.00144408641168
0.00147805568049
0.00149203260266
0.00149916834146
0.00150442857558
0.00150967996575
0.00151583198764
0.00152398570574
0.00153670465812
0.00156101856981
0.00161773500969
0.00177199791717
0.00223261662223
0.0036305203302
0.00745778493308
0.0161145220157
0.0333663072204
0.0692346615507
0.00108593979407
0.00135211976129
0.00144000695879
0.00147398015606
0.0014880494614
0.0014953107055
0.00150071223317
0.00150612845296
0.00151250173792
0.00152100934548
0.00153442200998
0.00156029705817
0.00162104106314
0.00178699591574
0.00228248869904
0.00376704613959
0.00771721494471
0.0163714503949
0.0330205518059
0.0635663405476
0.00108262241529
0.00134792636803
0.00143561493601
0.00146960968832
0.00148379064439
0.00149119700217
0.00149676272329
0.00150236767825
0.0015089840455
0.00151787706542
0.00153202628937
0.00155954038804
0.00162429935965
0.00180066366561
0.00232451190796
0.0038771765666
0.00790244812897
0.0164044388708
0.0322690813318
0.05893092485
0.0010789931779
0.00134342738558
0.00143092507668
0.00146496117734
0.00147927691731
0.00148685299673
0.00149260597225
0.00149842119622
0.00150530407507
0.00151460670491
0.00152954269199
0.00155875345653
0.0016274338937
0.00181296923659
0.00235878435607