/*--------------------------------*- C++ -*----------------------------------*\
| =========                 |                                                 |
| \\      /  F ield         | OpenFOAM: The Open Source CFD Toolbox           |
|  \\    /   O peration     | Version:  v2012                                 |
|   \\  /    A nd           | Website:  www.openfoam.com                      |
|    \\/     M anipulation  |                                                 |
\*---------------------------------------------------------------------------*/
FoamFile
{
    version     2.0;
    format      ascii;
    class       volScalarField;
    location    "5.9";
    object      p_rgh;
}
// * * * * * * * * * * * * * * * * * * * * * * * * * * * * * * * * * * * * * //

dimensions      [1 -1 -2 0 0 0 0];


internalField   nonuniform List<scalar> 
1984
(
8560.98535641
8560.84491406
8560.55094237
8560.11557501
8559.55233665
8558.87685258
8558.10957037
8557.27701822
8556.41243059
8555.55908138
8554.76992977
8554.09556223
8553.61108387
8553.46301916
8553.78285513
8554.68996225
8556.28840563
4337.50354304
31.944378796
-0.0223041432574
8561.11382224
8560.96994447
8560.66892807
8560.22204794
8559.64320458
8558.94672998
8558.1526504
8557.28829494
8556.37633787
8555.47393825
8554.61817489
8553.85329222
8553.26266512
8552.95709105
8553.04308272
8553.68222268
8554.98458991
4316.32392223
27.9166396459
-0.0754657394608
8561.39331334
8561.24294446
8560.92799279
8560.45975309
8559.85052236
8559.11313761
8558.26817436
8557.33339497
8556.33851941
8555.31862622
8554.34067529
8553.42504894
8552.63631044
8552.07768622
8551.8738352
8552.12867554
8552.77211847
4267.48090221
23.6503238777
-0.212741920101
8561.82762698
8561.66795321
8561.33316784
8560.83375617
8560.18040854
8559.38455836
8558.46305287
8557.43704319
8556.30846684
8555.13360213
8553.95919991
8552.82678207
8551.779838
8550.88109715
8550.2489162
8549.92999287
8549.72499052
4204.98368294
17.4795566913
-0.0482753419077
8562.42521858
8562.25317213
8561.89295822
8561.35406968
8560.64479983
8559.7746639
8558.7568085
8557.60568597
8556.33454784
8554.95411115
8553.5222773
8552.12130448
8550.75839718
8549.45085499
8548.31099334
8547.35574171
8546.36628409
4141.02019998
12.6101722729
0.732852898021
8563.19829188
8563.01163452
8562.62152851
8562.03638046
8561.26185693
8560.30481138
8559.17404447
8557.8781701
8556.42797864
8554.83089469
8553.09053734
8551.37231302
8549.64304419
8547.86213179
8546.15303219
8544.55109394
8542.90869814
4072.012974
10.0763865504
0.0475503857366
8564.16157382
8563.95871368
8563.53571701
8562.89945414
8562.05322053
8561.00028097
8559.74540293
8558.29100742
8556.64187244
8554.78296259
8552.73716229
8550.67686337
8548.50722799
8546.19004992
8543.84383328
8541.50949973
8539.01230313
3985.81784537
6.38185367517
-0.224631177925
8565.33155495
8565.11151379
8564.65407873
8563.96423876
8563.04274251
8561.8894779
8560.50466692
8558.88405647
8557.02212077
8554.89208196
8552.55730292
8550.06151058
8547.41930058
8544.52083232
8541.47036701
8538.29592523
8534.72695732
3891.42823019
3.73470815621
-0.13735056873
8566.72557061
8566.4881549
8565.99608659
8565.25249422
8564.25576039
8563.00230484
8561.48713497
8559.69988406
8557.6238123
8555.22078464
8552.59045351
8549.69944812
8546.53439671
8542.99350315
8539.16991084
8535.03433778
8530.15927904
3782.85689142
1.77926097606
-0.152108656592
8568.36073308
8568.10664379
8567.58143616
8566.78642293
8565.71769003
8564.36863544
8562.72918557
8560.78201384
8558.50166935
8555.87056623
8552.91737883
8549.69238909
8546.00628081
8541.8281593
8537.16856981
8531.94792379
8500.4496301
3701.39498485
2.35542918597
0.337603975945
8570.25390807
8569.9843971
8569.42896034
8568.58721504
8567.45275481
8566.01647726
8564.26381904
8562.16719548
8559.72347058
8556.91349692
8553.66918062
8550.07527635
8545.91009854
8541.1523138
8535.72501168
8529.55092493
8478.61765546
3639.18141041
0.56962739628
-0.0215157346475
8572.42031741
8572.13742942
8571.55590563
8570.6738959
8569.48331209
8567.97008814
8566.11913835
8563.91726344
8561.33948886
8558.34429339
8554.88410108
8550.93408123
8546.38453749
8541.13975008
8535.08979014
8528.11596008
8465.34495775
3595.58065782
-0.0098607486632
-0.0830400671856
8574.87332263
8574.57950341
8573.97702389
8573.06287392
8571.82822157
8570.25662923
8568.33647655
8566.04426963
8563.3424965
8560.20111496
8556.55974599
8552.38102621
8547.54468042
8541.92794368
8535.41017909
8527.88463233
8459.23855976
3583.41726479
0.0308529340067
-0.0330652478463
8577.62379173
8577.32197162
8576.70479221
8575.76790184
8574.50186793
8572.89396537
8570.9235565
8568.56431679
8565.79031302
8562.55663732
8558.80474301
8554.47773779
8549.46178841
8543.61757431
8536.78607718
8528.88878213
8454.81062745
3598.17122343
0.199700510052
0.000461789458364
8580.67943213
8580.3726453
8579.74728307
8578.79917292
8577.51661411
8575.8886442
8573.89145258
8571.5017107
8568.69456286
8565.42494706
8561.62977314
8557.24314898
8552.16380865
8546.24413313
8539.28549941
8531.30631243
8453.98908241
3647.95049831
0.0659587174542
-0.000101903971191
8584.04554764
8583.73731571
8583.11048264
8582.16033834
8580.87660255
8579.24472474
8577.24902791
8574.85919917
8572.05909768
8568.79762986
8565.0289426
8560.66879319
8555.64548876
8549.81000251
8542.9556761
8535.18048239
8458.33484242
3727.17748279
0.0261360956276
0.00250677687615
8587.72318753
8587.41714442
8586.79558136
8585.84856982
8584.5703253
8582.94362482
8580.98824775
8578.63649962
8575.87251448
8572.6667051
8568.96784604
8564.7165277
8559.84756979
8554.25420367
8547.75517146
8540.5641624
8466.38857144
3835.06579076
0.0123589640944
0.00526614270541
8591.7094548
8591.40812943
8590.79769343
8589.87059589
8588.61330434
8587.02935612
8585.09443273
8582.82115085
8580.12733031
8577.00870978
8573.42499354
8569.33322073
8564.68779863
8559.43413855
8553.51512821
8547.45352364
8478.73563345
3965.88309242
0.00550723689981
0.00545106532248
8595.99989888
8595.70553454
8595.11135176
8594.21327263
8593.0011154
8591.46813534
8589.60302456
8587.40570474
8584.80692819
8581.81092541
8578.36377167
8574.46244808
8570.05835759
8565.10808494
8559.54053694
8553.5497133
8495.51560521
4103.10857926
0.0052885112809
0.00610426419489
8600.58558017
8600.30167689
8599.73401795
8598.87596273
8597.71981449
8596.25957976
8594.47594615
8592.36563156
8589.88726142
8587.03214097
8583.77001405
8580.07944059
8575.92754282
8571.27323054
8566.03046048
8560.2776779
8514.60624967
4241.13726962
0.00483141968292
0.00547045706195
8605.45352222
8605.18157171
8604.64840305
8603.84147727
8602.75548147
8601.37353248
8599.68327999
8597.68007046
8595.34837157
8592.65992194
8589.59765425
8586.13860859
8582.25693011
8577.91517784
8573.04422981
8567.70182806
8534.11608497
4388.5301729
0.00302368616406
0.00604229408721
8610.58329954
8610.33297656
8609.83495444
8609.08303166
8608.0678976
8606.77837559
8605.21026501
8603.33697674
8601.16446163
8598.66101255
8595.81396567
8592.60314358
8589.00686157
8584.99473681
8580.52974782
8575.66990535
8552.15455825
4547.30171647
0.000997881322248
0.00760482997291
8615.96189269
8615.73241741
8615.27503722
8614.58296763
8613.64805098
8612.4659902
8611.02875255
8609.31234329
8607.30960822
8605.00634021
8602.38727683
8599.43617578
8596.13495819
8592.45962384
8588.39952897
8583.9865117
8567.86556479
4707.61683793
-0.0240345454212
0.00217758842541
8621.56761331
8621.36104594
8620.94841511
8620.32504499
8619.48272998
8618.41457029
8617.11506771
8615.56444494
8613.75589136
8611.66925519
8609.29325254
8606.61196257
8603.61166757
8600.27405878
8596.59087377
8592.54792843
8581.53878645
4864.39383719
-0.0472149763776
-0.00780339435215
8627.37862376
8627.19644791
8626.83309652
8626.28409118
8625.54302354
8624.59938275
8623.43441009
8622.05307338
8620.45563631
8618.6163228
8616.50410725
8614.11138831
8611.42504679
8608.41979913
8605.04965653
8601.38543633
8593.95142304
5022.65571312
-0.0239335673648
-0.0223414361815
8633.36947026
8633.21358162
8632.90365804
8632.43521194
8631.80166845
8630.99361486
8629.99731172
8628.79667983
8627.39459006
8625.81449359
8623.97419175
8621.88612094
8619.51792802
8616.85808861
8613.87293864
8610.51959617
8605.60562284
5190.7777556
0.130696577695
0.000702065342394
8639.51299958
8639.38538612
8639.13267615
8638.75032425
8638.23172946
8637.5683613
8636.75172448
8635.76504484
8634.57389812
8633.230407
8631.70954896
8629.92075168
8627.90306921
8625.6237819
8623.0575741
8620.09242567
8616.64436829
5355.00185013
22.8428562243
0.0153337488365
8645.78036927
8645.68282824
8645.490955
8645.20011249
8644.8036077
8644.29330968
8643.66030206
8642.89223033
8641.95322482
8640.81330929
8639.57148111
8638.2011065
8636.58399464
8634.72455842
8632.5819915
8630.0845591
8627.16068123
5513.43245354
68.5988804556
0.0111310529533
8652.14100527
8652.07523574
8651.94768176
8651.75356735
8651.4861166
8651.13723915
8650.69775447
8650.15509499
8649.48937364
8648.65092458
8647.69893604
8646.71587315
8645.50010049
8644.06206854
8642.40849594
8640.44858439
8638.16417454
5677.16385258
120.116236123
0.00731962062964
8658.56239618
8658.53008339
8658.47018844
8658.37784366
8658.24621291
8658.06719675
8657.83137035
8657.52695523
8657.13562969
8656.63497104
8655.99995412
8655.31890898
8654.60178459
8653.53985379
8652.4742009
8651.0864317
8649.48084875
5841.94484936
177.717937832
0.00446001957918
8665.01035964
8665.01310534
8665.02411852
8665.03843722
8665.04923212
8665.04849416
8665.02668836
8664.97414356
8664.86369831
8664.67312348
8664.41972664
8664.12977293
8663.78674579
8663.23385535
8662.685426
8661.90739758
8660.9315386
6003.30907737
240.699517576
0.00148622019727
8671.44909974
8671.4884299
8671.57345138
8671.69915687
8671.8588082
8672.04464866
8672.24731654
8672.45839801
8672.64962078
8672.79856683
8672.92092233
8673.04495503
8673.11090312
8673.09105888
8672.97548077
8672.84777603
8672.46578274
6162.92089552
307.601699258
-0.00211989714453
8677.84126256
8677.9186432
8678.08055308
8678.32210099
8678.63676666
8679.01723255
8679.454598
8679.94111723
8680.4500314
8680.98152605
8681.51134977
8682.06356158
8682.55619591
8683.04164276
8683.54834449
8684.00120863
8684.19675574
6320.00621958
377.345084859
-0.00610676079819
8684.14810457
8684.26480376
8684.50625306
8684.86770211
8685.34315305
8685.92592002
8686.60792465
8687.38175522
8688.22544616
8689.14804736
8690.11301775
8691.03257698
8692.04810394
8693.14464753
8694.23163148
8695.14408292
8695.98040582
6474.25946596
454.04655073
-0.0114816785932
8690.32947591
8690.48666596
8690.80988648
8691.29490104
8691.93640841
8692.72866778
8693.66485699
8694.73788525
8695.93131994
8697.22449722
8698.59157337
8700.07392526
8701.62956939
8703.26717812
8704.86727554
8706.38614316
8707.85563514
6623.23574159
539.610421912
-0.0169749062552
8696.34444124
8696.5428333
8696.94964345
8697.56126267
8698.37344813
8699.38173329
8700.58056669
8701.96422527
8703.51707483
8705.21409949
8707.03590248
8709.07964827
8711.20557316
8713.34836159
8715.54869445
8717.71961207
8719.89695931
6771.97400575
632.444361232
-0.0189433197556
8702.15096847
8702.39117844
8702.88275721
8703.62313079
8704.6095226
8705.83918109
8707.30859
8709.01279457
8710.93910528
8713.07501231
8715.40026642
8717.95248211
8720.61380945
8723.38046733
8726.23257717
8729.10410491
8732.04945246
6928.06347286
723.158594059
-0.0142360313328
8707.7068954
8707.98893446
8708.5656053
8709.43562044
8710.59819221
8712.05296513
8713.79893882
8715.83445052
8718.15237487
8720.73834228
8723.56966672
8726.64126583
8729.92748825
8733.34532643
8736.87613712
8740.47912096
8744.19989085
7084.49801522
810.965197872
-0.00840227656311
8712.9698607
8713.2932934
8713.95405227
8714.95278524
8716.29132387
8717.97263905
8719.9994092
8722.37397301
8725.09171517
8728.14032671
8731.4868867
8735.14468417
8739.05552782
8743.15657681
8747.42607795
8751.80796173
8756.34284687
7238.99877692
908.571347072
-0.00883947666987
8717.89856023
8718.2616116
8719.00369775
8720.12771945
8721.63902832
8723.54502053
8725.85508131
8728.57456393
8731.70819719
8735.22415304
8739.14364421
8743.37969681
8747.94500184
8752.75278542
8757.83716952
8763.05484832
8768.38580933
7376.14111778
1020.17136565
-0.0135382871124
8722.45312005
8722.85314594
8723.67139603
8724.91344701
8726.58986514
8728.71482299
8731.30164558
8734.36889033
8737.90701992
8741.93405095
8746.40792108
8751.26744598
8756.51295915
8762.1239745
8768.05244344
8774.21906133
8780.41785745
7497.0710349
1143.80107554
-0.017111311586
8726.59675468
8727.02967317
8727.91534453
8729.26422404
8731.09112651
8733.42008471
8736.27448198
8739.67561757
8743.64824838
8748.16518411
8753.23605066
8758.7930477
8764.81334194
8771.24080477
8778.10634479
8785.28669466
8792.53526385
7597.3559084
1290.21762069
-0.0214055297768
8730.29665392
8730.7559488
8731.69727715
8733.13368366
8735.09022044
8737.59798117
8740.69967359
8744.4238283
8748.79840905
8753.82285185
8759.49006867
8765.76620178
8772.59891896
8779.95030763
8787.83349064
8796.25082948
8804.93750315
7712.07307491
1471.20234724
-0.0304929226204
8733.52774952
8734.00624054
8734.98699063
8736.48848072
8738.54029951
8741.194812
8744.50056662
8748.52159259
8753.30317943
8758.84336634
8765.14298273
8772.16716499
8779.84421791
8788.11600785
8797.07601956
8806.87158334
8817.39985936
7889.79012183
1605.75131474
-0.0177188373032
8736.26950645
8736.75640718
8737.7553365
8739.28795463
8741.39375241
8744.13177086
8747.58321646
8751.85467159
8757.03761209
8763.08819484
8770.04023134
8777.85966792
8786.43498772
8795.54332882
8805.47703929
8816.51350679
8828.85603214
8054.87307292
1756.30610232
-0.00398111604834
8738.51386475
8738.99748307
8739.98976716
8741.51292642
8743.60984123
8746.35056116
8749.83550935
8754.25483291
8759.86795636
8766.39346518
8774.01555128
8782.72092515
8792.39263205
8802.11815252
8812.72854581
8824.54492494
8837.89317954
8127.3330695
1946.38962822
0.0143089838313
8740.26439794
8740.73291496
8741.69296521
8743.16266304
8745.18227586
8747.82037781
8751.14936078
8755.45994093
8761.778962
8768.8884555
8776.89937814
8786.52703899
8797.84485374
8807.93285416
8818.69845015
8830.46874422
8844.09623563
8154.04603819
2036.45671053
-0.0165300751792
8741.53654725
8741.98014871
8742.88380007
8744.25338204
8746.12239629
8748.58994724
8751.76667785
8756.16667639
8762.71756327
8770.20951648
8778.92003953
8788.53896219
8803.74666676
8813.58833383
8823.61673486
8834.59236924
8846.99385818
8115.82979004
2065.87354137
-0.0316569592276
8742.35533743
8742.7720244
8743.6104659
8744.84441903
8746.42455887
8748.23591017
8750.12382251
8751.64415091
8815.50196286
8820.19284976
8827.62083273
8836.85016713
8847.17036749
7968.8945395
2109.48715034
-0.0293212352992
8742.74865348
8743.14674819
8743.94190865
8745.09599603
8746.5446178
8748.18028522
8749.76503175
8750.96694138
8819.78663517
8823.36416077
8830.06466512
8838.60647105
8847.82504923
7915.34230615
2099.95047789
-0.0143060703877
8742.73558615
8743.1317925
8743.92252861
8745.06384401
8746.49462166
8748.12105135
8749.69127528
8750.86320874
8819.71306375
8823.41136024
8830.42981378
8839.83267166
8851.05754914
8074.27918739
2175.73022045
-0.0429633027439
8742.31665668
8742.72838866
8743.55567032
8744.76877551
8746.27916714
8748.09094276
8749.91709726
8751.41110667
8815.14523446
8820.12823085
8828.26566694
8838.92785415
8851.50499685
8171.41620459
2166.50096233
-0.0346913000939
8741.47422749
8741.91194313
8742.80330763
8744.15872483
8746.02718261
8748.37746693
8751.43365171
8755.6616406
8761.9883639
8769.38774978
8778.11769752
8787.65805801
8803.03566611
8813.06112084
8823.41440247
8835.03198579
8848.41492386
8217.48376192
2084.53269024
-0.0299383199948
8740.17981469
8740.63977349
8741.5817812
8743.02356651
8745.0030135
8747.5615481
8750.80186413
8754.99816077
8761.11316352
8767.96463217
8775.83612754
8785.44161024
8796.77462123
8806.84814795
8817.51775821
8829.11011264
8842.33428903
8173.02501385
1959.03608524
-0.0144768020096
8738.41090767
8738.88378521
8739.85302466
8741.33882962
8743.38009443
8746.03764945
8749.41642858
8753.69895179
8759.14015736
8765.51210561
8772.90879708
8781.47029008
8791.01543351
8800.53856385
8810.7660095
8821.90092857
8834.17367594
8080.66252877
1851.28752643
-0.0165110217725
8736.15318863
8736.62772822
8737.60007792
8739.08966868
8741.1319102
8743.7810856
8747.11695137
8751.24362413
8756.25638211
8762.12370698
8768.86348615
8776.47533467
8784.83467409
8793.62629797
8803.07438743
8813.1624883
8823.76574451
7985.79899764
1742.23595866
-0.0289725362585
8733.40455012
8733.86988431
8734.82268519
8736.27890065
8738.26665048
8740.82735853
8744.01463749
8747.88937819
8752.50071479
8757.84898507
8763.94119899
8770.72751773
8778.09157977
8786.02025527
8794.65858946
8803.98152861
8814.08686759
7885.41659831
1590.91562973
-0.030968253642
8730.17430887
8730.62109082
8731.53504003
8732.92784758
8734.81981131
8737.23957633
8740.22158489
8743.80395299
8748.01233755
8752.83570774
8758.2887041
8764.34233108
8770.83493315
8777.5638426
8785.4133439
8793.82374776
8802.75202365
7771.25881391
1413.08932688
-0.0226373010237
8726.481186
8726.90181095
8727.76185006
8729.06886384
8730.83607257
8733.08182789
8735.82701477
8739.09617448
8742.8945339
8747.20454677
8752.02559402
8757.34250153
8762.86420616
8768.85940468
8775.55408342
8783.02795446
8789.97839684
7619.39869397
1236.79130825
-0.0155239121619
8722.35156876
8722.74063975
8723.53592992
8724.74157763
8726.36518923
8728.41729302
8730.90916511
8733.85677554
8737.24462867
8741.05045344
8745.32055206
8749.86429698
8754.58272241
8759.88409769
8765.41085892
8771.55909528
8776.88036185
7436.93785935
1099.75227422
-0.015409231059
8717.81790174
8718.17193858
8718.89542919
8719.99006559
8721.45921935
8723.30753948
8725.53909759
8728.16151999
8731.15316059
8734.51715593
8738.2474444
8742.23671223
8746.25345018
8750.70924436
8755.34839887
8760.45076063
8764.62238258
7291.2327053
988.35861681
-0.0152796425487
8712.91712621
8713.23385694
8713.88136515
8714.85955553
8716.16857738
8717.80871777
8719.77869423
8722.07990101
8724.70450917
8727.64266476
8730.85815372
8734.30322027
8738.01551793
8741.46640223
8745.4976148
8749.73885677
8753.28369571
7177.33075785
885.445118994
-0.00857149192839
8707.68848638
8707.96634795
8708.53539738
8709.39404736
8710.54017643
8711.97102009
8713.68237913
8715.67032683
8717.93271759
8720.441026
8723.16443059
8726.15675877
8729.32546744
8732.47362505
8735.81875956
8739.28796547
8742.54278175
7056.89141472
805.161876597
-0.00600711921401
8702.17167728
8702.41004963
8702.89920977
8703.63685396
8704.61936142
8705.84260402
8707.29938698
8708.98407475
8710.89279134
8712.98677466
8715.21880972
8717.6404557
8720.26147117
8723.05753046
8725.95713984
8728.9486228
8732.09159496
6926.12301984
745.67492694
-0.0136335044378
8696.40727884
8696.6057388
8697.01400482
8697.62914857
8698.44708194
8699.46314699
8700.67119479
8702.0626853
8703.63011319
8705.35424951
8707.18120844
8708.9994674
8711.06905865
8713.33437315
8715.77402341
8718.53944204
8721.3288593
6789.89823936
676.353601508
-0.020939185726
8690.43564676
8690.594759
8690.92327267
8691.41814423
8692.07494676
8692.88875128
8693.85333659
8694.95997527
8696.19929192
8697.56703247
8699.03170555
8700.50593133
8701.94195972
8703.7219546
8705.60733441
8707.8923373
8710.08710085
6645.30690719
590.539592157
-0.0190541223556
8684.29690591
8684.41727618
8684.66742196
8685.0442502
8685.54317019
8686.15911577
8686.88560542
8687.71436174
8688.63676898
8689.64666989
8690.7292867
8691.87106584
8692.98510382
8694.01578626
8695.54943223
8697.16854345
8698.65728298
6500.6644011
497.150673418
-0.0109747773467
8678.03007841
8678.11252056
8678.28602553
8678.54720032
8678.89161096
8679.31406158
8679.80780949
8680.36502526
8680.97734841
8681.63910503
8682.33950771
8683.0595923
8683.80358012
8684.57616339
8685.38672528
8686.34155452
8687.18558937
6356.17432518
412.322957058
-0.00699953503581
8671.67392079
8671.71913
8671.81776719
8671.96605891
8672.1594734
8672.39279991
8672.65925324
8672.95113395
8673.26071926
8673.58152349
8673.90428381
8674.20832849
8674.52554812
8674.86404986
8675.15549978
8675.45924451
8675.77110593
6212.82459266
336.194405117
-0.00520539989876
8665.26594992
8665.27493709
8665.30055159
8665.33892881
8665.38515932
8665.43399927
8665.47874331
8665.51162828
8665.52532181
8665.51248464
8665.46430218
8665.36491457
8665.20276596
8665.00136133
8664.83372406
8664.56607793
8664.33215071
6065.19725044
264.251562832
-0.00127920386555
8658.8428031
8658.81676813
8658.77131464
8658.70286891
8658.6061356
8658.47555872
8658.30445964
8658.08487903
8657.80939662
8657.47006114
8657.0585417
8656.56277067
8655.96194046
8655.22885147
8654.4858822
8653.65049166
8652.72645726
5905.11677614
194.151206789
0.00318844236853
8652.43997973
8652.3801719
8652.26602627
8652.09410445
8651.85896217
8651.55451505
8651.17381375
8650.70853917
8650.15089691
8649.49310167
8648.72530812
8647.83705081
8646.81624489
8645.57652532
8644.25224562
8642.75870487
8641.0778857
5736.32639723
130.195430908
0.00749259992923
8646.09180119
8645.99947765
8645.81941135
8645.54782288
8645.17917067
8644.70685744
8644.12318977
8643.41937694
8642.58682296
8641.6173633
8640.50040196
8639.23082437
8637.78926227
8636.12384634
8634.18932741
8632.14508805
8629.68003163
5565.877214
74.193465185
0.0122856935555
8639.83119311
8639.7077487
8639.46461968
8639.09773594
8638.6010791
8637.9674506
8637.18814996
8636.25396391
8635.15563242
8633.87693201
8632.41534428
8630.76103489
8628.89185903
8626.78485861
8624.41966172
8621.74459065
8618.68815374
5398.86402647
25.870487891
0.0179376214742
8633.68981326
8633.53683219
8633.23376285
8632.77631942
8632.15788316
8631.37026022
8630.40395898
8629.24955526
8627.88936951
8626.30873641
8624.49685122
8622.43621273
8620.1358934
8617.59786058
8614.84316978
8611.67551088
8607.54181048
5225.87264015
0.138630335548
0.000346561458964
8627.69777627
8627.51696569
8627.15739477
8626.61446398
8625.88090817
8624.94766116
8623.80439191
8622.43972648
8620.8348305
8618.97117699
8616.81733405
8614.41239311
8611.74510783
8608.77530416
8605.49962703
8601.97472922
8595.31315302
5041.61465989
-0.0318170484841
-0.0241753154003
8621.88352233
8621.67702064
8621.26477918
8620.641806
8619.80033209
8618.73072718
8617.42223979
8615.86081344
8614.03338138
8611.92212447
8609.50725473
8606.77613264
8603.68680523
8600.25872492
8596.60848117
8592.52211951
8581.64263487
4863.67102114
-0.0530839391272
-0.00886179215139
8616.27405588
8616.0434047
8615.5828188
8614.88650875
8613.94605039
8612.75102995
8611.28858166
8609.54321684
8607.50450587
8605.15502341
8602.47192944
8599.40966583
8596.01605885
8592.21564344
8587.99032944
8583.33024271
8565.95116984
4685.59815753
-0.0259865792651
0.00216896955965
8610.89300015
8610.64015143
8610.13643883
8609.37429492
8608.34465518
8607.03595757
8605.43353911
8603.51935187
8601.27091514
8598.68428438
8595.73288541
8592.38894049
8588.64564863
8584.43873196
8579.73358873
8574.46655114
8547.53589881
4506.86180519
0.00319815501223
0.00834913783593
8605.76294766
8605.48851828
8604.94819738
8604.12874367
8603.02098708
8601.61205959
8599.88677096
8597.8243044
8595.40020916
8592.60198968
8589.40594401
8585.77758312
8581.67556528
8577.09323543
8571.9596647
8566.121209
8527.01025802
4335.64298557
0.00769293783966
0.0072984220526
8600.90008321
8600.61183642
8600.03898988
8599.17086564
8597.99746843
8596.50208601
8594.67392793
8592.48794363
8589.92197888
8586.94119407
8583.5235751
8579.64765039
8575.21969477
8570.27618253
8564.78932489
8558.53332355
8505.98319462
4181.60224167
0.00920397168945
0.0057982816648
8596.32268562
8596.02474363
8595.42525774
8594.51755278
8593.29029305
8591.72835214
8589.81365625
8587.52497286
8584.83369933
8581.70835544
8578.1086777
8573.98882043
8569.30004349
8564.05148815
8558.24512795
8551.82033943
8485.95246294
4042.46253186
0.00966750531573
0.00474331036623
8592.04504951
8591.73930092
8591.12115232
8590.18382612
8588.9172865
8587.30449062
8585.32616442
8582.9569169
8580.16824995
8576.92094784
8573.17554122
8568.86976778
8563.96862175
8558.421568
8552.18997206
8545.75184915
8469.24526623
3909.54154747
0.0107826577921
0.00475990062447
8588.07680594
8587.76600119
8587.13577981
8586.18064822
8584.88874153
8583.24386878
8581.22417588
8578.80439318
8575.95092713
8572.62862977
8568.77542253
8564.34360362
8559.25534328
8553.41357062
8546.69835488
8539.05533496
8457.58405862
3790.73582769
0.0180244469678
0.00507762236444
8584.42276823
8584.1106964
8583.47631809
8582.51409346
8581.21234454
8579.55466312
8577.51942746
8575.08030468
8572.2028767
8568.84567006
8564.95103614
8560.44628494
8555.25124626
8549.23877864
8542.24162918
8534.13367115
8452.49767199
3698.05268933
0.0313262194209
0.0021898556653
8581.08508899
8580.7759741
8580.14434637
8579.18616926
8577.8900775
8576.24007374
8574.21508311
8571.78868438
8568.92682646
8565.5840159
8561.70736671
8557.21916198
8552.02863131
8546.00552244
8538.99129359
8530.86755304
8452.29156405
3637.21651473
0.0996261745486
-0.000715545201163
8578.06267451
8577.75832473
8577.13758384
8576.19443549
8574.91932358
8573.29718997
8571.30824369
8568.92723292
8566.12031684
8562.84357531
8559.04743506
8554.6598525
8549.59562978
8543.71879978
8536.899746
8528.99898004
8457.02957479
3600.90631444
0.224595360615
-0.0103642321309
8575.34898324
8575.05453523
8574.44980612
8573.53206875
8572.29245363
8570.71735698
8568.78907605
8566.48408133
8563.77088465
8560.60897659
8556.9626691
8552.75455154
8547.92242438
8542.33397145
8535.8828002
8528.4762379
8469.86711817
3593.25449888
0.0139446300842
-0.0433418663978
8572.93620985
8572.65316891
8572.07095347
8571.1880047
8569.9968795
8568.48620257
8566.64073922
8564.43911612
8561.85052035
8558.86311018
8555.41179633
8551.46897641
8546.95744315
8541.77691537
8535.84476812
8529.09583557
8485.63191692
3609.60519288
0.346683334765
-0.033526887162
8570.81104198
8570.54203397
8569.98746876
8569.14729966
8568.01585891
8566.58438464
8564.84015212
8562.76192113
8560.33839998
8557.54520711
8554.35144177
8550.7445204
8546.62522761
8541.94680487
8536.6478977
8530.66943151
8502.17002666
3649.08293283
1.42862338227
0.274037921327
8568.9590869
8568.70612127
8568.18317908
8567.39197897
8566.32908593
8564.98836924
8563.35985009
8561.4293204
8559.17590168
8556.60264083
8553.74767436
8550.49671699
8546.82761283
8542.71667795
8538.12997516
8533.06389334
8520.3602228
3712.18934727
1.3194407324
-0.0782073560945
8567.36400896
8567.12829625
8566.6397199
8565.9018498
8564.91354773
8563.67147139
8562.17023519
8560.40378008
8558.34218999
8555.99654878
8553.49132182
8550.62244393
8547.4378777
8543.93655006
8540.1190216
8535.97544345
8531.0288166
3799.00631882
1.7918888836
-0.0387919365401
8566.00804904
8565.79025461
8565.33744638
8564.65512321
8563.74428186
8562.60550783
8561.23802863
8559.63647742
8557.78611656
8555.70088333
8553.45365259
8551.03398715
8548.3581097
8545.46201772
8542.4214201
8539.15557861
8535.32083178
3892.9570025
3.86011749005
-0.0312520086675
8564.87334544
8564.67330674
8564.25632316
8563.62933752
8562.79594531
8561.7595458
8560.52388676
8559.0891089
8557.46485689
8555.63093227
8553.62655848
8551.64976694
8549.46642779
8547.1743
8544.87872461
8542.46251063
8539.67133875
3983.41827137
6.80424735396
-0.0548875586643
8563.94144977
8563.75821995
8563.37523031
8562.80112576
8562.04150347
8561.10246331
8559.99274221
8558.71688848
8557.28396895
8555.68559774
8554.01329555
8552.34859902
8550.66819995
8548.96304193
8547.31026183
8545.77329026
8544.03006488
4075.00279459
11.4984500478
-0.0875198586063
8563.19538267
8563.02738793
8562.67545668
8562.14949049
8561.45700223
8560.60693048
8559.61119687
8558.4746167
8557.21229205
8555.83793255
8554.46586525
8553.10335449
8551.87445206
8550.6884654
8549.70753856
8548.91728863
8548.18024713
4162.94060413
17.0209122589
0.370788634563
8562.61987793
8562.46475539
8562.13954363
8561.65457695
8561.01961847
8560.24639082
8559.34838394
8558.32287352
8557.21646441
8556.03787483
8554.91980868
8553.8755011
8552.98593614
8552.23852871
8551.82456428
8551.71023864
8551.85629188
4236.4840953
21.5380581104
-0.116448185236
8562.20268164
8562.05730676
8561.75231817
8561.29927646
8560.71091919
8559.99759027
8559.17481098
8558.25078871
8557.21428508
8556.24712395
8555.33593917
8554.57887544
8553.9095987
8553.52164164
8553.50128315
8553.99624163
8554.9456956
4304.38655299
27.0963613283
-0.0532035126309
8561.93500364
8561.79665426
8561.50704407
8561.07684703
8560.51980219
8559.84845222
8559.07624159
8558.2181111
8557.30719427
8556.41513949
8555.69671721
8555.0701109
8554.59596885
8554.44161218
8554.71176191
8555.5562852
8557.05741725
4353.50590785
30.9192586454
-0.0237167722698
8561.8130615
8561.67881371
8561.39673855
8560.97893798
8560.43814273
8559.78879467
8559.04257128
8558.24513807
8557.40623006
8556.59051134
8555.93074841
8555.35621609
8555.0045462
8554.987729
8555.45488802
8556.52954928
8558.26608189
4370.1472147
34.4731328567
-0.0036768873121
)
;

boundaryField
{
    back
    {
        type            fixedFluxPressure;
        gradient        uniform 0;
        value           nonuniform List<scalar> 
1984
(
8560.98535641
8560.84491406
8560.55094237
8560.11557501
8559.55233665
8558.87685258
8558.10957037
8557.27701822
8556.41243059
8555.55908138
8554.76992977
8554.09556223
8553.61108387
8553.46301916
8553.78285513
8554.68996225
8556.28840563
4337.50354304
31.944378796
-0.0223041432574
8561.11382224
8560.96994447
8560.66892807
8560.22204794
8559.64320458
8558.94672998
8558.1526504
8557.28829494
8556.37633787
8555.47393825
8554.61817489
8553.85329222
8553.26266512
8552.95709105
8553.04308272
8553.68222268
8554.98458991
4316.32392223
27.9166396459
-0.0754657394608
8561.39331334
8561.24294446
8560.92799279
8560.45975309
8559.85052236
8559.11313761
8558.26817436
8557.33339497
8556.33851941
8555.31862622
8554.34067529
8553.42504894
8552.63631044
8552.07768622
8551.8738352
8552.12867554
8552.77211847
4267.48090221
23.6503238777
-0.212741920101
8561.82762698
8561.66795321
8561.33316784
8560.83375617
8560.18040854
8559.38455836
8558.46305287
8557.43704319
8556.30846684
8555.13360213
8553.95919991
8552.82678207
8551.779838
8550.88109715