/*--------------------------------*- C++ -*----------------------------------*\
| =========                 |                                                 |
| \\      /  F ield         | OpenFOAM: The Open Source CFD Toolbox           |
|  \\    /   O peration     | Version:  v2012                                 |
|   \\  /    A nd           | Website:  www.openfoam.com                      |
|    \\/     M anipulation  |                                                 |
\*---------------------------------------------------------------------------*/
FoamFile
{
    version     2.0;
    format      ascii;
    class       surfaceScalarField;
    location    "5.9";
    object      phi;
}
// * * * * * * * * * * * * * * * * * * * * * * * * * * * * * * * * * * * * * //

dimensions      [0 3 -1 0 0 0 0];
oriented        oriented;


internalField   nonuniform List<scalar> 
3840
(
1.24874398838e-05
-1.24868517773e-05
2.38749438123e-05
-1.13869567328e-05
3.4915579076e-05
-1.10402557021e-05
4.5937634347e-05
-1.10219199527e-05
5.70954765385e-05
-1.11579714068e-05
6.8532425696e-05
-1.1437441296e-05
8.02280601698e-05
-1.16964795498e-05
9.20765938167e-05
-1.18494931321e-05
0.000104338624097
-1.22633927129e-05
0.000116708344202
-1.23703507352e-05
0.000129367970593
-1.26601012409e-05
0.000141997683379
-1.26300854605e-05
0.000154425023234
-1.24276342947e-05
0.00016598171718
-1.15569083858e-05
0.000173645552367
-7.66397093687e-06
0.000175425092128
-1.77960291336e-06
0.000180257492001
-4.83242417922e-06
0.000203550213772
-2.32922835775e-05
0.00025185824499
-4.83063653493e-05
-0.000171923226463
1.12278844417e-05
-2.37141700312e-05
2.23410677928e-05
-2.24996723867e-05
3.32506177086e-05
-2.19495382451e-05
4.41318582773e-05
-2.19031477469e-05
5.51515122108e-05
-2.21778634993e-05
6.63617277456e-05
-2.2648185638e-05
7.78277262876e-05
-2.31632517049e-05
8.96260390671e-05
-2.36486846309e-05
0.000101383675432
-2.40221988969e-05
0.000113474472617
-2.44616385328e-05
0.000125946158256
-2.51321638493e-05
0.00013863993342
-2.53241520533e-05
0.00015154113813
-2.53290657195e-05
0.000163878269285
-2.38942080079e-05
0.000177169752767
-2.09555580439e-05
0.000193474082443
-1.80839809703e-05
0.000207070189253
-1.84284987528e-05
0.000209170863291
-2.53953797471e-05
0.000100967677749
5.98994577105e-05
0.000166594375377
1.05320562718e-05
-3.42457609848e-05
2.12295782947e-05
-3.31968541446e-05
3.18955864317e-05
-3.26154072749e-05
4.25693189231e-05
-3.25769694323e-05
5.33481489065e-05
-3.29569867237e-05
6.43193014439e-05
-3.36198258321e-05
7.55297002979e-05
-3.43742466159e-05
8.70092617379e-05
-3.51288096793e-05
9.88518132804e-05
-3.58655760048e-05
0.00011110079294
-3.67108387505e-05
0.000123227278153
-3.72588236921e-05
0.000135772775611
-3.78697913601e-05
0.00014843522859
-3.79916466908e-05
0.000161306355893
-3.67654364188e-05
0.00017464275781
-3.42920270573e-05
0.000192948419051
-3.63896709276e-05
0.000210771396498
-3.62514789511e-05
0.000220102757925
-3.47273139924e-05
0.000105628234726
0.000174365866802
0.00108502694025
1.01748413403e-05
-4.44202850629e-05
2.05166640382e-05
-4.35384891708e-05
3.08830655788e-05
-4.29817992867e-05
4.13196300389e-05
-4.30137048262e-05
5.19179639434e-05
-4.35556277011e-05
6.26341542701e-05
-4.43363891649e-05
7.36401180005e-05
-4.53805710332e-05
8.50134055783e-05
-4.65024071067e-05
9.67554986504e-05
-4.76080345746e-05
0.000108851491702
-4.88069439367e-05
0.000121326714004
-4.97339144616e-05
0.000134207563863
-5.07505970511e-05
0.000147095262229
-5.08793550157e-05
0.000160001970075
-4.96721775527e-05
0.000174421122611
-4.87112060209e-05
0.000194797154868
-5.67657135524e-05
0.000215251835801
-5.67061962335e-05
0.000228116860279
-4.75979485203e-05
0.000215246455578
0.000187325299243
0.00145227247881
1.00177147933e-05
-5.44378446616e-05
2.00116411005e-05
-5.35323773693e-05
3.00494726762e-05
-5.30197321275e-05
4.01772061862e-05
-5.31416597409e-05
5.04736718847e-05
-5.38523753816e-05
6.10764255576e-05
-5.49394038185e-05
7.19716578587e-05
-5.6275970138e-05
8.3300768161e-05
-5.78314900641e-05
9.50930001997e-05
-5.93999485828e-05
0.000107290182953
-6.10036991489e-05
0.000120104305698
-6.25474938608e-05
0.000133337786448
-6.39838592944e-05
0.000147246378537
-6.47878540228e-05
0.000161937092974
-6.43628640081e-05
0.000178462951444
-6.5237058707e-05
0.000195933109974
-7.42358697516e-05
0.000213091605645
-7.38646966073e-05
0.000234721736202
-6.92529866886e-05
0.000543003195765
-0.000120585490716
-0.00090213181853
9.81979640182e-06
-6.42576310824e-05
1.95286527721e-05
-6.32413163941e-05
2.92609686192e-05
-6.27522239e-05
3.90939910036e-05
-6.29749162468e-05
4.91472758722e-05
-6.3905884938e-05
5.95100952722e-05
-6.53023607245e-05
7.02534201222e-05
-6.70192889505e-05
8.14138573476e-05
-6.89916618265e-05
9.32158588783e-05
-7.12013785048e-05
0.00010564113564
-7.34282547964e-05
0.000118908472007
-7.58139460064e-05
0.000132903827736
-7.7978886284e-05
0.000148153668386
-8.00375362097e-05
0.000165207933947
-8.14170661043e-05
0.000183845497147
-8.38746001188e-05
0.000199177314137
-8.95676804551e-05
0.000211668434706
-8.63557497775e-05
0.000232419386736
-9.00202600204e-05
0.000414475585469
-0.000302508897149
-0.00151570887853
9.54207329263e-06
-7.37998003676e-05
1.89475630043e-05
-7.2646964518e-05
2.83745201722e-05
-7.21793882551e-05
3.7859764218e-05
-7.246037358e-05
4.76182809964e-05
-7.36645544647e-05
5.77125356717e-05
-7.53966428919e-05
6.82683293642e-05
-7.7574946756e-05
7.92003826787e-05
-7.99233177543e-05
9.09072779835e-05
-8.29075680482e-05
0.000103412909107
-8.59330971398e-05
0.000116720755009
-8.91207549109e-05
0.000131337443115
-9.25952160575e-05
0.000147663482864
-9.63634017136e-05
0.000166449785761
-0.000100203299121
0.000187442346274
-0.000104867139325
0.000202994357059
-0.000105119687976
0.000217252904907
-0.000100614196353
0.000233067501068
-0.000105843835952
9.19155794318e-05
-0.000161363675112
-0.000563638681916
9.13831346888e-06
-8.29382660758e-05
1.82171501436e-05
-8.17259864992e-05
2.72389876351e-05
-8.1201425078e-05
3.64289844102e-05
-8.16505420681e-05
4.57820608436e-05
-8.3017718938e-05
5.54977004266e-05
-8.51122379608e-05
6.5654440412e-05
-8.77314961862e-05
7.65019904193e-05
-9.07704399271e-05
8.78935164445e-05
-9.429845035e-05
0.000100212620782
-9.8251484836e-05
0.000113331240815
-0.000102238440765
0.000127910624463
-0.000107174298301
0.000143769596576
-0.000112222233226
0.000162339651249
-0.000118773303785
0.00018268413939
-0.000125211618414
0.000203573273075
-0.000126008824634
0.00022556245234
-0.000122603215163
0.000247744304062
-0.000128040928047
0.000163343411827
-7.69149751629e-05
-3.7231030962e-06
8.79080082423e-06
-9.17292269526e-05
1.73715296013e-05
-9.03068855117e-05
2.5938108421e-05
-8.97681679342e-05
3.46503144696e-05
-9.03628729976e-05
4.36002001164e-05
-9.19676493671e-05
5.28648773035e-05
-9.43768525453e-05
6.2603464747e-05
-9.74699116255e-05
7.29484987773e-05
-0.000101115140592
8.39555764312e-05
-0.000105305045549
9.56688958268e-05
-0.00010996432927
0.000108575871532
-0.000115144737334
0.000122121621998
-0.000120719858682
0.000137663611756
-0.000127764144801
0.00015449099557
-0.000135600670747
0.000173630655256
-0.000144351286156
0.000198635883817
-0.000151014063094
0.000229253053142
-0.000153220553593
0.000265266455126
-0.000164026028447
0.00024423276322
-5.59777954992e-05
0.00068759421204
8.25717380044e-06
-9.99865305785e-05
1.63847599289e-05
-9.84345983443e-05
2.44995264219e-05
-9.78830498208e-05
3.26428448166e-05
-9.85062751819e-05
4.10334157365e-05
-0.000100358249681
4.97886744749e-05
-0.000103132073007
5.896307615e-05
-0.000106644219323
6.87138168072e-05
-0.000110865694156
7.91187345875e-05
-0.000115709753602
9.02275746154e-05
-0.000121072955865
0.000102135529563
-0.000127052394338
0.000115339958053
-0.000133924232952
0.000129613666495
-0.000142037848978
0.000145481486914
-0.000151468511505
0.00016396865815
-0.000162838483121
0.000190260963878
-0.000177306384922
0.00022413193108
-0.000187091890905
0.000268674604549
-0.000208517265958
0.000420626231254
-0.000208109346119
-0.000465400368575
7.71589462262e-06
-0.000107702502449
1.52539705444e-05
-0.000105972744939
2.27433203744e-05
-0.000105372465096
3.03326951531e-05
-0.000106095703002
3.81202957355e-05
-0.000108145882566
4.62171934249e-05
-0.000111228983491
5.47533622675e-05
-0.000115180389589
6.37437769953e-05
-0.000119856102308
7.32797010623e-05
-0.000125245697607
8.35428203457e-05
-0.000131336147677
9.48021912119e-05
-0.000138311806269
0.00010701251232
-0.000146134620898
0.00012068959576
-0.00015571499454
0.000135620243213
-0.000166399214373
0.000152986676581
-0.000180204961026
0.000178616057542
-0.000202935795883
0.000210789750328
-0.000219265204684
0.000257902679539
-0.000255684737654
0.000417121177707
-0.000367138606401
-0.000755901097736
7.10261343841e-06
-0.000114805135409
1.4037168834e-05
-0.000112907317236
2.09005514364e-05
-0.000112235870002
2.78191386484e-05
-0.000113014320171
3.4906526782e-05
-0.000115233311365
4.22547067436e-05
-0.000118577219241
4.99269920633e-05
-0.000122852756547
5.80440490402e-05
-0.000127973278769
6.67177681368e-05
-0.00013391964003
7.5970191755e-05
-0.000140588820707
8.62195803808e-05
-0.000148561523761
9.77152839343e-05
-0.000157630483777
0.00011043153572
-0.000168431363104
0.000124956802311
-0.000180924570505
0.0001424891525
-0.000197737379067
0.000163967052616
-0.000224413739462
0.000192667391899
-0.000247965255655
0.000230989064767
-0.000294048538306
0.00018091901583
-0.000316969949893
-0.000381355488414
6.44278665596e-06
-0.000121247894484
1.27229774289e-05
-0.000119187485304
1.88808303507e-05
-0.00011839371306
2.50351806636e-05
-0.000119168679886
3.13697144783e-05
-0.000121567881488
3.79089184567e-05
-0.000125116496369
4.47116430755e-05
-0.000129655593602
5.18772976593e-05
-0.00013513912541
5.9491117034e-05
-0.000141533758487
6.78537941538e-05
-0.000148951858415
7.68994334689e-05
-0.000157607630417
8.69447760923e-05
-0.000167676037927
9.82960048657e-05
-0.000179782748598
0.000111617003431
-0.000194245692871
0.000127379334881
-0.000213499808231
0.000146649437114
-0.000243683900368
0.000168763976792
-0.000270079697096
0.000198484907722
-0.000323785563286
0.000184756279515
-0.000303233138439
-0.000172011467396
5.74395150589e-06
-0.000126991794296
1.13004690953e-05
-0.000124743962875
1.67726079851e-05
-0.000123865822951
2.22059573482e-05
-0.000124602015724
2.76677319778e-05
-0.000127029667703
3.32893414522e-05
-0.000130738150885
3.91290888924e-05
-0.000135495425563
4.5259850563e-05
-0.000141270037725
5.17674773856e-05
-0.000148041682211
5.87747361804e-05
-0.000155959471702
6.63654250253e-05
-0.000165198824329
7.48107100688e-05
-0.000176121566334
8.43807558207e-05
-0.000189352997724
9.58338708399e-05
-0.000205698994146
0.000109637507705
-0.000227303605537
0.000123646734651
-0.000257693244598
0.000140968996652
-0.000287401959388
0.000157834263864
-0.000340651834717
0.000157324665806
-0.00030274004421
-0.000114301605929
5.05293934007e-06
-0.000132044688716
9.85520938263e-06
-0.000129546203234
1.45297867107e-05
-0.000128540368076
1.91539844052e-05
-0.000129226175637
2.37681940847e-05
-0.000131643840834
2.84845947549e-05
-0.00013545448866
3.33680651503e-05
-0.000140378796101
3.84055727672e-05
-0.000146307575437
4.35736770838e-05
-0.000153209985626
4.91087409755e-05
-0.000161494800425
5.50741647596e-05
-0.000171164716821
6.15405826441e-05
-0.000182588253814
6.87656938447e-05
-0.000196578389796
7.71149386079e-05
-0.000214048504999
8.68405995722e-05
-0.000237029517512
9.7287206417e-05
-0.000268140015053
0.000108135687028
-0.000298250433057
0.000111824277532
-0.00034434588094
0.000108973925086
-0.00029987951736
-6.65080254344e-05
4.2831204448e-06
-0.000136327873657
8.40460124641e-06
-0.000133667737729
1.23144387948e-05
-0.000132450193912
1.61256414395e-05
-0.000133037319311
1.99045923027e-05
-0.000135422561308
2.36999762703e-05
-0.000139249531726
2.75265579005e-05
-0.000144205090425
3.13477359961e-05
-0.000150128620462
3.53162967053e-05
-0.000157178560732
3.92654114657e-05
-0.000165444109129
4.33707124902e-05
-0.000175270317878
4.7692154657e-05
-0.000186909960662
5.23271323344e-05
-0.000201213648313
5.74570743416e-05
-0.000219178757121
6.31124257224e-05
-0.00024268513443
6.86325024272e-05
-0.000273660277468
7.24852824629e-05
-0.000302103274767
6.55957297224e-05
-0.000337452991422
5.30174835571e-05
-0.000287302708672
-3.07225516675e-05
3.58893836939e-06
-0.000139917030379
6.93915443493e-06
-0.000137018094724
1.01684954416e-05
-0.000135679598064
1.32696312e-05
-0.000136138236196
1.62672225822e-05
-0.000138419735169
1.91268874443e-05
-0.0001421087249
2.1854524144e-05
-0.000146932320176
2.45231092591e-05
-0.000152796674231
2.70412904355e-05
-0.000159696697916
2.95061122174e-05
-0.000167909038993
3.18314643561e-05
-0.000177595931948
3.40279987276e-05
-0.000189106804697
3.59976197468e-05
-0.000203183650385
3.78775919936e-05
-0.000221059129511
3.91649668776e-05
-0.000243972893892
3.83241190129e-05
-0.000272819686777
3.45408299413e-05
-0.000298319966099
1.80570237112e-05
-0.000320977259735
4.1193772743e-06
-0.000273358756888
-1.4405049105e-05
2.82376120663e-06
-0.000142741119348
5.52172225839e-06
-0.00013971633528
8.01429185714e-06
-0.000138172217918
1.03678077611e-05
-0.000138491527183
1.25553160282e-05
-0.00014060683341
1.45458493286e-05
-0.000144098415179
1.62938328537e-05
-0.000148679726005
1.77983762825e-05
-0.000154300933621
1.91268334469e-05
-0.000161024971114
2.02391092076e-05
-0.000169021219602
2.09846775101e-05
-0.000178341489273
2.12845360457e-05
-0.000189406723855
2.09214577704e-05
-0.000202820694756
1.97693936247e-05
-0.000219907220522
1.77084917403e-05
-0.000241912143108
1.25386673983e-05
-0.000267649903628
3.52001943271e-06
-0.000289301425098
-1.56312489259e-05
-0.000301843145708
-2.58020375073e-05
-0.000263171736679
-1.87200236347e-05
2.19229843732e-06
-0.000144933920625
4.13585317502e-06
-0.00014166030004
5.87655815217e-06
-0.000139913218793
7.42194778168e-06
-0.000140036784027
8.76344951438e-06
-0.000141947850025
9.83724804893e-06
-0.000145171892438
1.06663462017e-05
-0.000149508497292
1.12766168664e-05
-0.000154910909378
1.15454433965e-05
-0.000161293561359
1.14464356469e-05
-0.000168922046464
1.0886943032e-05
-0.000177781906708
9.57254936312e-06
-0.000188092312194
7.38196829741e-06
-0.00020063015678
3.95572644482e-06
-0.000216481060907
-6.92417410622e-07
-0.000237264089081
-7.11275367847e-06
-0.000261229627162
-1.76526090759e-05
-0.000278761538732
-3.02438474606e-05
-0.000289250472123
-3.58761640286e-05
-0.000257540823306
-5.19659988172e-05
1.44479334576e-06
-0.000146379017018
2.64965714672e-06
-0.000142865434705
3.64088456335e-06
-0.00014090468423
4.36279316752e-06
-0.000140758617364
4.85839597386e-06
-0.000142443282186
5.13785122237e-06
-0.000145451095581
5.16671955508e-06
-0.000149537078653
4.89452070995e-06
-0.000154638425897
4.3085234929e-06
-0.000160707312337
3.18022731739e-06
-0.000167793549464
1.35818180562e-06
-0.00017595972277
-1.24346547229e-06
-0.000185490589802
-4.98904515947e-06
-0.000196884559503
-1.01968279408e-05
-0.000211273301997
-1.75187907231e-05
-0.000229942168038
-2.84783131298e-05
-0.000250270133927
-4.30546382084e-05
-0.000264185238266
-4.99069951576e-05
-0.000282397369671
-5.0660923752e-05
-0.000256787772394
-0.000103054218802
6.88148234416e-07
-0.000147067421559
1.16093246748e-06
-0.000143338429219
1.38097028427e-06
-0.000141124829128
1.35321665289e-06
-0.00014073084943
1.13238929855e-06
-0.000142222332661
7.0638051307e-07
-0.000145024886114
1.97711947555e-08
-0.000148850224714
-1.04743158526e-06
-0.000153570966395
-2.55149399532e-06
-0.000159203007563
-4.63065042347e-06
-0.000165714184021
-7.39177440011e-06
-0.000173198435779
-1.11188621572e-05
-0.000181763390797
-1.60530898133e-05
-0.000191950271643
-2.27314890398e-05
-0.00020459488502
-3.21333911688e-05
-0.000220540274395
-4.63087574333e-05
-0.000236094778443
-6.41345779487e-05
-0.000246359423939
-7.27344676157e-05
-0.000273798138794
-7.63402548722e-05
-0.00025318142345
-0.000145313557923
1.64424333831e-08
-0.00014708406368
-1.92326328474e-07
-0.000143129807502
-6.43766229277e-07
-0.000140673459048
-1.32761425568e-06
-0.00014004698336
-2.23205583214e-06
-0.000141317791488
-3.35577568214e-06
-0.000143901003718
-4.76248663354e-06
-0.000147443311905
-6.54780359177e-06
-0.000151785431433
-8.85972796424e-06
-0.000156890868458
-1.17616792094e-05
-0.000162812036767
-1.54148919256e-05
-0.000169545057491
-1.99648666756e-05
-0.000177213289607
-2.57886838987e-05
-0.000186126371864
-3.35766825995e-05
-0.000196806846173
-4.45216428277e-05
-0.000209595306429
-5.9839903918e-05
-0.000220776523365
-7.80693519965e-05
-0.000228129921356
-9.08274868205e-05
-0.000261045983536
-0.000105522780503
-0.000238480456614
-0.000182213331577
-6.06094241781e-07
-0.00014647805039
-1.43688278271e-06
-0.000142299058066
-2.48658848873e-06
-0.000139623742128
-3.75550625226e-06
-0.000138778001356
-5.27853224104e-06
-0.000139794653474
-7.08813239681e-06
-0.000142091255779
-9.2092598086e-06
-0.000145322015781
-1.16882612184e-05
-0.00014930625398
-1.46164843494e-05
-0.000153962469369
-1.81568905243e-05
-0.000159271459991
-2.24709049298e-05
-0.000165230885381
-2.76926875537e-05
-0.00017199137344
-3.42330723614e-05
-0.000179585891402
-4.27083220608e-05
-0.000188331548161
-5.43127256624e-05
-0.000197990899303
-6.93209342303e-05
-0.00020576833747
-8.62292667582e-05
-0.000211221555007
-9.81068885673e-05
-0.000249172100489
-0.000110685197108
-0.000225898650011
-0.000237078656734
-1.19804562725e-06
-0.000145279936286
-2.58202249221e-06
-0.000140914985423
-4.18871128953e-06
-0.000138016936867
-6.03452849218e-06
-0.000136932051924
-8.1053606693e-06
-0.000137723679348
-1.04641126296e-05
-0.000139732360315
-1.31511162023e-05
-0.000142634874269
-1.62201475613e-05
-0.000146237086181
-1.97291492008e-05
-0.000150453329644
-2.37992803601e-05
-0.000155201180399
-2.85792244607e-05
-0.000160450788257
-3.43429035722e-05
-0.000166227556727
-4.12966878582e-05
-0.000172632012649
-5.00759930882e-05
-0.000179552212065
-6.16870018262e-05
-0.000186379919182
-7.60924851722e-05
-0.000191362903511
-9.10374117363e-05
-0.000196276653208
-0.000101964587971
-0.000238244673351
-7.5023797341e-05
-0.000252839874721
-0.000314565335391
-1.73372558612e-06
-0.00014354603885
-3.64078309553e-06
-0.000139007737044
-5.76285696847e-06
-0.000135894672576
-8.09187942234e-06
-0.000134602850359
-1.06423260347e-05
-0.000135173072139
-1.3411711536e-05
-0.00013696283734
-1.65038850509e-05
-0.000139542582151
-2.0050966281e-05
-0.000142689903956
-2.41025950009e-05
-0.000146401592068
-2.86838924548e-05
-0.000150619756495
-3.38988299415e-05
-0.000155235715214
-3.99744323517e-05
-0.000160151833736
-4.7123390074e-05
-0.000165482982691
-5.58354608054e-05
-0.000170840139253
-6.70159318171e-05
-0.000175199504889
-8.0747299788e-05
-0.000177631601083
-9.48982531063e-05
-0.000182125720335
-0.000108453107968
-0.000224691483149
2.22476866165e-05
-0.000383539269937
-0.000328213403958
-2.20851017382e-06
-0.000141337251563
-4.60589919851e-06
-0.000136610045932
-7.19561993696e-06
-0.000133304655193
-9.98406428481e-06
-0.000131814131466
-1.2988759123e-05
-0.000132168134538
-1.61916186344e-05
-0.000133759772519
-1.96731414057e-05
-0.000136060894484
-2.35561898568e-05
-0.000138806709534
-2.7956377164e-05
-0.000142001218267
-3.28717578347e-05
-0.000145704213751
-3.8341452728e-05
-0.000149765844941
-4.44962151714e-05
-0.00015399691302
-5.17095214036e-05
-0.000158269581396
-6.02701738002e-05
-0.000162279486825
-7.08262697456e-05
-0.000164643493619
-8.33589391378e-05
-0.000165099033899
-9.66584405094e-05
-0.000168826256251
-0.000116069643528
-0.000205282305211
0.000122504541246
-0.000622113583166
-0.000218185234155
-2.64346189064e-06
-0.000138693563667
-5.48159266068e-06
-0.000133771680327
-8.50338578827e-06
-0.00013028263889
-1.1719045213e-05
-0.000128598271912
-1.51309636813e-05
-0.00012875604585
-1.87619174442e-05
-0.000130128681264
-2.26380120961e-05
-0.000132184693047
-2.67934188592e-05
-0.00013465122268
-3.1388087075e-05
-0.000137406435149
-3.65218892126e-05
-0.000140570344053
-4.21114585544e-05
-0.000144176214395
-4.82867936632e-05
-0.000147821537269
-5.52979401309e-05
-0.000151258433627
-6.35082623606e-05
-0.000154069209863
-7.31664022054e-05
-0.000154985429795
-8.43770694074e-05
-0.000153888434537
-9.78817452884e-05
-0.000155321597492
-0.000124766073542
-0.00017839858798
-1.47275518244e-05
-0.000732145241322
-0.000185407542509
-3.07794203066e-06
-0.000135615389914
-6.30000943881e-06
-0.000130549378408
-9.70776242034e-06
-0.000126874663535
-1.32961847336e-05
-0.000125009647853
-1.7063910829e-05
-0.000124988144772
-2.10233188277e-05
-0.000126169128414
-2.51857700674e-05
-0.000128022128893
-2.95639684439e-05
-0.000130272937636
-3.41951817961e-05
-0.000132775116051
-3.92938366242e-05
-0.000135471592841
-4.50193186121e-05
-0.000138450658752
-5.131554819e-05
-0.000141525293097
-5.83051129388e-05
-0.000144268892936
-6.63517087709e-05
-0.00014602267647
-7.62294579179e-05
-0.000145107763723
-8.84244497399e-05
-0.000141693511605
-0.000102421919404
-0.000141324106994
-0.000125168384247
-0.000155652714923
-0.000152597142016
-0.000704730511618
-0.000218627364276
-3.46451980544e-06
-0.000132150652833
-7.06409260915e-06
-0.000126949590361
-1.08238450429e-05
-0.000123114705375
-1.47393679016e-05
-0.00012109393351
-1.88120971457e-05
-0.000120915243243
-2.30453559693e-05
-0.000121935721146
-2.74511932004e-05
-0.000123616170034
-3.20539642953e-05
-0.000125670068423
-3.68957907155e-05
-0.000127933206675
-4.20157013553e-05
-0.000130351614624
-4.76147440593e-05
-0.000132851540431
-5.36944385833e-05
-0.000135445595843
-6.03692046452e-05
-0.000137594164369
-6.82763851308e-05
-0.00013811556618
-7.86173333081e-05
-0.000134766899874
-9.16014763631e-05
-0.000128709434988
-0.000106917594645
-0.000126007991786
-0.000123120990941
-0.000139449542568
-0.000155470874079
-0.000672383493461
-0.000258183302494
-3.82451786196e-06
-0.000128325953795
-7.7760780804e-06
-0.000122997853484
-1.18561867417e-05
-0.000119034424205
-1.60760860452e-05
-0.000116873866899
-2.04215740928e-05
-0.000116569597202
-2.48961233632e-05
-0.000117461029039
-2.95145343235e-05
-0.000118997636447
-3.43046036167e-05
-0.000120879895411
-3.92520174304e-05
-0.000122985700654
-4.43681201267e-05
-0.000125235436585
-4.96877551746e-05
-0.000127531820343
-5.53954659773e-05
-0.000129737884407
-6.1570068401e-05
-0.000131419598677
-6.88928646151e-05
-0.000130792835394
-7.92814030457e-05
-0.00012437843524
-9.30471351819e-05
-0.000114943758209
-0.000108800409326
-0.000110254720512
-0.000121814605868
-0.000126435500512
-0.00014723357764
-0.000646967101324
-0.000290331367586
-4.18091201796e-06
-0.000124144912551
-8.46031661838e-06
-0.000118718324802
-1.28443756146e-05
-0.000114650238811
-1.73350191014e-05
-0.000112383092805
-2.19267852266e-05
-0.00011197770013
-2.66182425362e-05
-0.000112769447665
-3.14131493386e-05
-0.000114202619613
-3.6316586768e-05
-0.000115976361376
-4.13153169571e-05
-0.000117986880919
-4.64302999183e-05
-0.000120120378961
-5.16330955028e-05
-0.000122328935702
-5.69076621474e-05
-0.000124463312062
-6.24067278253e-05
-0.000125920557262
-6.8925117559e-05
-0.000124274489268
-7.82155640004e-05
-0.000115088037387
-9.2067727583e-05
-0.000101091627575
-0.000107571071086
-9.47513721153e-05
-0.000119708808505
-0.0001142978609
-0.00015272066315
-0.000613956922887
-0.000307639520364
-4.53692908727e-06
-0.000119607914424
-9.11484169402e-06
-0.000114140348367
-1.37731215092e-05
-0.000109991887361
-1.85175385977e-05
-0.000107638592489
-2.33440503374e-05
-0.000107151097731
-2.8250383024e-05
-0.000107863025324
-3.32329205189e-05
-0.000109220001838
-3.83020520756e-05
-0.000110907157771
-4.34298436584e-05
-0.000112859019625
-4.86152618525e-05
-0.000114934899746
-5.38462672943e-05
-0.000117097849268
-5.88725910182e-05
-0.000119436971897
-6.40552647289e-05
-0.000120737881929
-7.00616723736e-05
-0.00011826808752
-7.81335594657e-05
-0.000107016156254
-8.98883203323e-05
-8.93368654325e-05
-0.000103075334626
-8.15643318918e-05
-0.000116782766381
-0.000100590432185
-0.00016282327256
-0.000567923323216
-0.000308244404389
-4.86945407958e-06
-0.000114738453656
-9.7232460622e-06
-0.000109286555707
-1.46421922805e-05
-0.00010507292984
-1.96310971334e-05
-0.000102649661209
-2.46850531373e-05
-0.00010209710483
-2.98141966488e-05
-0.00010273384333
-3.50375769006e-05
-0.000103996589387
-4.03084646933e-05
-0.000105636241002
-4.56939262947e-05
-0.000107473525174
-5.1130064729e-05
-0.00010949872583
-5.65753948912e-05
-0.000111652457776
-6.20538482988e-05
-0.00011395848497
-6.74265915293e-05
-0.000115365097182
-7.32917997059e-05
-0.000112402832022
-8.00630611361e-05
-0.000100244844136
-8.73506737395e-05
-8.20492070882e-05
-9.61172004745e-05
-7.27977633894e-05
-0.000114302457778
-8.2405151053e-05
-0.000167757057977
-0.000514475425576
-0.000291438274078
-5.11866465318e-06
-0.000109619843215
-1.03066015943e-05
-0.000104098681126
-1.54930288454e-05
-9.98865549696e-05
-2.06845217905e-05
-9.74582065807e-05
-2.59445127976e-05
-9.68371430383e-05
-3.12770833377e-05
-9.74013008437e-05
-3.66999334271e-05
-9.85737712279e-05
-4.22444889975e-05
-0.000100091714522
-4.79331440788e-05
-0.000101784885716
-5.37696036799e-05
-0.000103662262354
-5.96765927039e-05
-0.000105745432407
-6.57867065921e-05
-0.000107848312397
-7.23293368619e-05
-0.000108822374649
-7.90324414336e-05
-0.000105699614262
-8.40829312024e-05
-9.51942374648e-05
-8.66537562002e-05
-7.94782855657e-05
-9.0503291048e-05
-6.89481784721e-05
-0.000108989573391
-6.39188462307e-05
-0.000172248709144
-0.000451217034955
-0.000262791233734
-5.44067090729e-06
-0.000104179283656
-1.08245405222e-05
-9.87149341565e-05
-1.6216045211e-05
-9.44951668602e-05
-2.1645032538e-05
-9.20293270359e-05
-2.71133634989e-05
-9.13689158089e-05
-3.26593197204e-05
-9.18554495763e-05
-3.82639072205e-05
-9.29692896509e-05
-4.4018900033e-05
-9.43368162734e-05
-4.9937016162e-05
-9.58668365015e-05
-5.60996994383e-05
-9.74996051233e-05
-6.25947289526e-05
-9.92503883794e-05
-6.96739141303e-05
-0.000100769036153
-7.72771606676e-05
-0.000101218979297
-8.44118247131e-05
-9.85647676198e-05
-8.87963680408e-05
-9.08095109085e-05
-8.81538347655e-05
-8.01206736831e-05
-8.70879823745e-05
-7.00139733959e-05
-0.000103126419512
-4.78804031438e-05
-0.000181259275094
-0.000373078775919
-0.000231123048147
-5.69170211338e-06
-9.84877432891e-05
-1.13314616006e-05
-9.30753509167e-05
-1.69378269942e-05
-8.8888977971e-05
-2.25581664266e-05
-8.64091637042e-05
-2.82065716101e-05
-8.57206902188e-05
-3.39009343163e-05
-8.61612709609e-05
-3.96972893122e-05
-8.71731155173e-05
-4.56002193491e-05
-8.84340439951e-05
-5.1666521514e-05
-8.98006460589e-05
-5.80208391125e-05
-9.1145335336e-05
-6.49424082037e-05
-9.23288171752e-05
-7.25386637988e-05
-9.31726542942e-05
-8.06135929128e-05
-9.31438460446e-05
-8.79252676445e-05
-9.12528489899e-05
-9.17803153846e-05
-8.6954224415e-05
-9.05571640804e-05
-8.13436413268e-05
-8.68801039511e-05
-7.36909547372e-05
-9.67375978992e-05
-3.8022842404e-05
-0.000170089438949
-0.00029972701913
-0.000203926405032
-5.97586471204e-06
-9.25120792024e-05
-1.18252620038e-05
-8.7226171114e-05
-1.76286222844e-05
-8.30858433566e-05
-2.34125681357e-05
-8.06254535848e-05
-2.92180236051e-05
-7.991548289e-05
-3.50642647234e-05
-8.03152857761e-05
-4.09725104114e-05
-8.12651165743e-05
-4.69677530117e-05
-8.24390097806e-05
-5.3114985451e-05
-8.36535556787e-05
-5.95400432057e-05
-8.47203360289e-05
-6.63196089317e-05
-8.5549249226e-05
-7.35897389692e-05
-8.59023662963e-05
-8.12196215406e-05
-8.55137167582e-05
-8.81951307899e-05
-8.42770532942e-05
-9.20567513961e-05
-8.30923291492e-05
-9.18278910516e-05
-8.15722949626e-05
-8.93479310375e-05
-7.61708215862e-05
-9.20995929824e-05
-3.52710665344e-05
-0.00013491149301
-0.000256921279131
-0.000182261726139
-6.19040809914e-06
-8.63218933878e-05
-1.22961250852e-05
-8.11206946599e-05
-1.82897512316e-05
-7.70924752595e-05
-2.42365387454e-05
-7.4678945853e-05
-3.01832127812e-05
-7.39691099892e-05
-3.61446797179e-05
-7.43541294902e-05
-4.21330068724e-05
-7.52770808136e-05
-4.81642229587e-05
-7.64080277202e-05
-5.4276057388e-05
-7.75418728712e-05
-6.0487388297e-05
-7.85090610733e-05
-6.68377136575e-05
-7.91989065851e-05
-7.33679732751e-05
-7.93719258385e-05
-8.0017836193e-05
-7.88635858576e-05
-8.60567433512e-05
-7.82378433371e-05
-9.0222113596e-05
-7.89266743561e-05
-9.17868402081e-05
-8.00073572845e-05
-9.25614109553e-05
-7.53961774035e-05
-9.25981041599e-05
-3.52343751087e-05
-9.96851452469e-05
-0.00024982450969
-0.000160304275596
-6.51343641525e-06
-7.98086795165e-05
-1.27839382213e-05
-7.48504345528e-05
-1.89415090739e-05
-7.09351738784e-05
-2.50408376823e-05
-6.85799199813e-05
-3.11101642745e-05
-6.79001135847e-05
-3.71650436256e-05
-6.8299584695e-05
-4.31984655357e-05
-6.92439573454e-05
-4.91998673686e-05
-7.0406894506e-05
-5.51975299411e-05
-7.15443875418e-05
-6.11122035422e-05
-7.25944531857e-05
-6.69365974661e-05
-7.33744411087e-05
-7.25714496809e-05
-7.37368476813e-05
-7.80144543307e-05
-7.34202726639e-05
-8.29024166075e-05
-7.33495570979e-05
-8.68022155624e-05
-7.50265696543e-05
-9.02920574309e-05
-7.65172924241e-05
-9.41563244577e-05
-7.15318179849e-05
-9.72273958755e-05
-3.2163242912e-05
-0.000112174401738
-0.000234873245892
-0.000142399059728
-6.74472629034e-06
-7.30641515798e-05
-1.3242236219e-05
-6.83531517455e-05
-1.95946578596e-05
-6.45830328687e-05
-2.58236320145e-05
-6.23512993566e-05
-3.20135638738e-05
-6.1710527254e-05
-3.8162913353e-05
-6.21506115271e-05
-4.42344070604e-05
-6.31729318637e-05
-5.02332547316e-05
-6.44083406571e-05
-5.60659598052e-05
-6.571191432e-05
-6.16672984352e-05
-6.69930216531e-05
-6.68013985465e-05
-6.82403275782e-05
-7.12910778833e-05
-6.9246892942e-05
-7.51054829512e-05
-6.96055509458e-05
-7.86098797502e-05
-6.98447864325e-05
-8.22854179221e-05
-7.13507233516e-05
-8.76247649962e-05
-7.11776835935e-05
-9.50554743738e-05
-6.41010128413e-05
-0.000101474940043
-2.57436667103e-05
-0.000136407383687
-0.000199940540226
-0.000127524100152
-6.92509260197e-06