/*--------------------------------*- C++ -*----------------------------------*\
| =========                 |                                                 |
| \\      /  F ield         | OpenFOAM: The Open Source CFD Toolbox           |
|  \\    /   O peration     | Version:  v2012                                 |
|   \\  /    A nd           | Website:  www.openfoam.com                      |
|    \\/     M anipulation  |                                                 |
\*---------------------------------------------------------------------------*/
FoamFile
{
    version     2.0;
    format      ascii;
    class       surfaceVectorField;
    location    "5.9";
    object      Uf;
}
// * * * * * * * * * * * * * * * * * * * * * * * * * * * * * * * * * * * * * //

dimensions      [0 1 -1 0 0 0 0];


internalField   nonuniform List<vector> 
3840
(
(-0.00124276657027 0.00249748797676 6.69308161998e-22)
(-0.00249737035546 0.0012113514041 7.76247578199e-22)
(-0.0011218460831 0.00477498876247 5.09142701204e-22)
(-0.00227739134656 0.00352258416676 8.21944661825e-22)
(-0.00108888714796 0.0069831158152 3.89552981996e-23)
(-0.00220805114041 0.0057331592438 4.02487163042e-22)
(-0.00110874408953 0.00918752686939 -4.37954567805e-22)
(-0.00220438399055 0.0079046707418 -1.77592258849e-22)
(-0.00113552242257 0.0114190953077 -6.57324328486e-22)
(-0.00223159428137 0.0100951829862 -6.17033135658e-22)
(-0.00116567721304 0.0137064851392 -5.65151811505e-22)
(-0.0022874882592 0.012341696806 -6.60486071043e-22)
(-0.00120011632261 0.016045612034 -2.0200971612e-22)
(-0.00233929590996 0.0146416038025 -4.64874267703e-22)
(-0.00123142510583 0.0184153187633 2.19405095239e-22)
(-0.00236989862641 0.0169683001278 -4.22336189649e-23)
(-0.0012593302566 0.0208677248194 3.91292958844e-22)
(-0.00245267854258 0.0193497391742 2.49907814707e-22)
(-0.00128035051923 0.0233416688405 2.59450863651e-22)
(-0.00247407014704 0.0217910509087 2.49405906432e-22)
(-0.00128761792807 0.0258735941187 -8.85812725394e-24)
(-0.00253202024818 0.0242685582116 1.98444963757e-23)
(-0.00128015625656 0.0283995366757 -3.07372943922e-22)
(-0.0025260170921 0.0267472307782 -2.02360459021e-22)
(-0.00128465974798 0.0308850046468 -1.02881121206e-21)
(-0.00248552685894 0.0292352040957 -5.23221976238e-22)
(-0.00112093306369 0.0331963434359 -1.25293582024e-21)
(-0.00231138167716 0.0319366951512 -1.77284288111e-21)
(-0.000439442716031 0.0347291104735 1.28226658671e-21)
(-0.00153279418737 0.033041652485 -3.28820265848e-21)
(-0.000274752311858 0.0350850184255 6.64778244912e-21)
(-0.000355920582671 0.0383770041317 -4.32438630158e-21)
(-0.00216680056575 0.0360514984001 1.73063402569e-20)
(-0.000966484835843 0.0336054547518 -8.97996180517e-22)
(-0.0150663231999 0.0407100427545 2.79576887084e-20)
(-0.0046584567155 0.0404363412335 7.21355034817e-21)
(-0.0508335205191 0.0503716489981 2.20878829009e-20)
(-0.00966127306987 0.0371525596871 9.64887796293e-21)
(-0.0343846452925 0.028419017528 7.59090357342e-21)
(-0.0035456253717 0.00224557688833 9.28884078026e-22)
(-0.00474283400624 0.00106808308026 1.0730140569e-21)
(-0.00338159512593 0.00446821355856 7.15289123664e-22)
(-0.00449993447734 0.00328730606539 1.09622295244e-21)
(-0.00333020838793 0.00665012354173 1.85939605994e-22)
(-0.00438990764902 0.00544837409765 6.21492786531e-22)
(-0.00335464417756 0.00882637165546 -3.56670826701e-22)
(-0.00438062954937 0.00759675220467 3.90304419969e-24)
(-0.0034093389206 0.0110303024422 -6.20194878215e-22)
(-0.00443557269986 0.00976245246557 -4.47632598753e-22)
(-0.00347941000904 0.0132723455491 -5.60208527241e-22)
(-0.00452963712761 0.0119592340095 -5.34808440055e-22)
(-0.00355776282594 0.0155655452575 -3.05098170547e-22)
(-0.00463265034097 0.0141996086232 -3.88741524367e-22)
(-0.00363093925414 0.0179252078134 -1.17308994967e-23)
(-0.00472973692618 0.0164810756834 -1.22237851462e-22)
(-0.00370343982247 0.0202767350864 1.08020762296e-22)
(-0.00480443977939 0.0188207193717 5.59779421491e-23)
(-0.00378843738465 0.0226948945235 9.799539157e-24)
(-0.00489232770656 0.0212080843419 4.58452422218e-23)
(-0.00385526508746 0.0251892316512 -1.73657835391e-22)
(-0.00502643276987 0.023661443951 -1.13167968897e-22)
(-0.00387585297595 0.0277279866839 -4.18209491337e-22)
(-0.00506483041065 0.026150060735 -2.93301452468e-22)
(-0.00376715179466 0.030308227626 -1.26725364529e-21)
(-0.00506581314389 0.0286488275569 -6.86396531767e-22)
(-0.00319949853331 0.0327756538571 -3.80810971935e-21)
(-0.00477884160159 0.0314033317227 -2.30631593467e-21)
(-0.0019725139959 0.0354339505535 -8.89485554677e-21)
(-0.00419111160877 0.0328665083098 -5.81391458293e-21)
(-0.00162974763961 0.0386948164886 -1.18701649312e-20)
(-0.00361679619407 0.0390743262372 -1.73719902177e-20)
(-0.00369791005858 0.0414140378505 -1.09907860892e-20)
(-0.00368569975055 0.0357517784395 -2.05604898715e-20)
(0.00029860467549 0.0418341726583 -1.10952603973e-20)
(-0.00507907594942 0.0432210680528 -2.36958348405e-20)
(0.00280651634287 0.0201935355499 -4.84810136451e-21)
(0.0119798915421 0.0420509397684 -2.61335599187e-20)
(0.0333188750754 -0.0571327654866 -3.38585213402e-21)
(-0.00570203050734 0.00210641125436 1.24035293132e-21)
(-0.00684915219696 0.001004928629 1.2631618994e-21)
(-0.00553082641086 0.00424591565893 1.00242661531e-21)
(-0.00663937082892 0.00314060314464 1.27362053554e-21)
(-0.00546801528826 0.00637911728634 4.39456224737e-22)
(-0.00652308145498 0.00523316088987 8.24975396896e-22)
(-0.00549733332245 0.00851386378461 -8.70587278515e-23)
(-0.00651539388645 0.00733404504726 2.39328286439e-22)
(-0.00558966528526 0.0106696297813 -3.62246160592e-22)
(-0.00659139734474 0.00945116025519 -1.68735556112e-22)
(-0.00570994785641 0.0128638602888 -3.63341437181e-22)
(-0.00672396516642 0.0116025489606 -2.93894521849e-22)
(-0.00583530358086 0.0151059400596 -2.05881205282e-22)
(-0.00687484932317 0.0138042637321 -2.09041167536e-22)
(-0.00595381057468 0.0174018523476 -5.4529009816e-23)
(-0.00702576193586 0.0160598073155 -7.83566513757e-23)
(-0.00607468762741 0.0197703626561 -6.19757792483e-24)
(-0.00717311520095 0.0183806050962 -1.13873523559e-23)
(-0.00620307260211 0.0222201585879 -7.71222658318e-23)
(-0.00734216775009 0.0207528255388 -2.10024470841e-23)
(-0.00631126220442 0.0246454556305 -2.32811585973e-22)
(-0.00745176473842 0.0232031021115 -1.19123069274e-22)
(-0.00636421972701 0.0271545551222 -5.61488492898e-22)
(-0.00757395827202 0.025700985505 -3.01762244742e-22)
(-0.00625571930766 0.0296870457179 -1.72545882115e-21)
(-0.00759832933817 0.0282258929178 -7.67687147826e-22)
(-0.00586525366899 0.0322612711787 -4.31212079825e-21)
(-0.00735308728376 0.0309894464946 -1.96788375286e-21)
(-0.00554388438277 0.0349285515619 -1.42910492539e-20)
(-0.00685840541146 0.0325125512219 -4.37619638836e-21)
(-0.00539211733607 0.0385896838101 -2.6062315158e-20)
(-0.00727793418551 0.0388659215256 -1.37923325918e-20)
(-0.00552291083999 0.0421542792997 -3.32655386228e-20)
(-0.00725029579023 0.0359486511562 -2.15195450892e-20)
(0.00888121205076 0.044020551585 -3.87341343619e-20)
(-0.00694546279847 0.0434950131873 -2.807978957e-20)
(0.0752622439572 0.0211256469453 -2.46713106882e-20)
(0.0348731733604 0.0462020498729 -2.98451705333e-20)
(0.21700538805 -0.0441086489713 1.1393259248e-21)
(-0.00778127231825 0.00203496826806 1.29642950362e-21)
(-0.00888405701258 0.00098093178344 1.187386773e-21)
(-0.00762892541946 0.00410333280763 1.09616931712e-21)
(-0.00870769783416 0.0030507537735 1.26644999079e-21)
(-0.00757142703921 0.00617661311576 6.24847458598e-22)
(-0.00859635985735 0.00507990159404 9.08464561894e-22)
(-0.00761701570003 0.00826392600779 1.57651458179e-22)
(-0.00860274096524 0.00712209195277 4.09622879213e-22)
(-0.00773859767888 0.0103835927887 -1.00383917368e-22)
(-0.00871112554022 0.0091879475546 4.68215993302e-23)
(-0.00790115290806 0.012526830854 -1.39594252204e-22)
(-0.00886727783297 0.011297139642 -8.65820127656e-23)
(-0.00808247565145 0.0147280236001 -8.151661363e-23)
(-0.00907611420664 0.0134641439679 -7.59451738258e-23)
(-0.00827306103653 0.0170026811157 -3.52149939157e-23)
(-0.00930048142134 0.015692163191 -2.89368671379e-23)
(-0.00846878976932 0.0193510997301 -2.61922215152e-23)
(-0.00952160691492 0.018002286434 -1.53405684229e-23)
(-0.00865435884654 0.0217702983404 -6.3003250526e-23)
(-0.00976138878735 0.0203988432776 -2.25601461381e-23)
(-0.00881350836675 0.0242653428009 -1.88073728042e-22)
(-0.00994678289232 0.0228856402278 -9.27161535273e-23)
(-0.00889967456808 0.0268415127727 -5.0796089967e-22)
(-0.0101501194102 0.0254334417955 -2.90658944818e-22)
(-0.00878703657969 0.0294190524458 -1.01011207954e-21)
(-0.0101758710031 0.0280455516662 -7.53027473511e-22)
(-0.00849421340509 0.032000394015 -2.03195934297e-21)
(-0.00993443551054 0.0309303720203 -1.51447280416e-21)
(-0.00886585944224 0.0348842245222 -3.87747972627e-21)
(-0.00974224120419 0.0327389976327 -2.39019185452e-21)
(-0.00944474779178 0.0389594309736 -9.24956252304e-21)
(-0.0113531427105 0.0392148220294 -3.93389954819e-21)
(-0.00891280035435 0.0430503671603 -1.63337960365e-20)
(-0.0113412392467 0.0360477105448 -1.03968852321e-20)
(0.0142816149653 0.0456233720558 -1.91908257415e-20)
(-0.00951958970407 0.0427322724912 -1.25323366805e-20)
(0.149077667343 0.0430492911155 -4.0345339203e-21)
(0.0374650598485 0.0507138442928 -1.03423892324e-20)
(0.290454495762 0.186760381436 5.637145218e-21)
(-0.00980220891528 0.00200354295865 1.15740726016e-21)
(-0.0108875689323 0.000967082429357 9.85161644378e-22)
(-0.0096621323311 0.0040023282201 1.07874523556e-21)
(-0.0107064754739 0.00298084383385 1.15861872839e-21)
(-0.00961707335087 0.00600989453523 6.93239982508e-22)
(-0.0106039464255 0.0049532576164 8.80625046986e-22)
(-0.00968707729637 0.00803544123724 2.98793020364e-22)
(-0.0106283319482 0.00693349559072 4.68766227251e-22)
(-0.00984500414928 0.0100947343769 6.06235039328e-23)
(-0.0107704750763 0.00894835597848 1.54903465184e-22)
(-0.0100601864807 0.0122152851115 -2.29329343871e-23)
(-0.0109878807637 0.011013386524 1.99424965599e-23)
(-0.010312094862 0.0143943315717 -2.33654273337e-23)
(-0.0112551940276 0.0131433055023 -1.71075082104e-23)
(-0.0105836912751 0.0166601536322 -9.06244164522e-24)
(-0.0115662980128 0.015345005438 -5.44269773739e-24)
(-0.0108586494793 0.0190186000399 -1.17084930458e-23)
(-0.0118799897166 0.0176459479659 -3.30967848187e-24)
(-0.0111275933167 0.0214580365905 -5.22730491394e-23)
(-0.0122007398298 0.0200604888318 -1.33831938425e-23)
(-0.0113721645564 0.0240208611395 -1.95301370303e-22)
(-0.0125094987722 0.0225983072753 -9.02476585241e-23)
(-0.0115245000464 0.0266675572896 -5.35725518659e-22)
(-0.0127967718589 0.0252497910787 -2.95422565841e-22)
(-0.011454952102 0.0294492757075 -1.25738819813e-21)
(-0.0129575708046 0.0280338917889 -8.96568563954e-22)
(-0.0113230737889 0.0323874185949 -1.87270531572e-21)
(-0.0128725728016 0.0311606264674 -1.99483782717e-21)
(-0.0122272324796 0.0356925902889 -2.44661167644e-21)
(-0.0130474117414 0.0335353442412 -2.37582267563e-21)
(-0.0133095967812 0.0391866219948 -5.08122225724e-21)
(-0.0148471739503 0.0400221091357 -2.44181064823e-21)
(-0.0127745014989 0.0426183211291 -6.59542587606e-21)
(-0.0147729393215 0.0360064076056 -3.6930229817e-21)
(-0.00116622420063 0.0469443472404 -3.68390017136e-21)
(-0.0138505973377 0.0413250101337 3.83319288444e-22)
(0.0556612049393 0.108600639153 -6.70710094059e-22)
(-0.0241170981433 0.0460623358301 6.81003018844e-21)
(-0.180426363706 0.278307448337 2.95278671131e-21)
(-0.0117785665674 0.00196395928036 9.86373112606e-22)
(-0.0128515262165 0.000951129506217 8.59584322597e-22)
(-0.0116355541029 0.00390573055442 9.60498539819e-22)
(-0.0126482632788 0.00290511343286 1.02538843838e-21)
(-0.011604061777 0.00585219372385 6.56151291728e-22)
(-0.01255044478 0.00481809502393 8.12189822365e-22)
(-0.0117026628892 0.00781879820072 3.24876672072e-22)
(-0.0125949832494 0.00673391939699 4.5429440986e-22)
(-0.0119090232632 0.00982945517444 1.14222457811e-22)
(-0.0127811769876 0.00868940620607 1.83962672004e-22)
(-0.0121902009227 0.0119020190544 2.57679227366e-23)
(-0.0130604721449 0.0107025861043 5.25809697674e-23)
(-0.0125212394186 0.0140506840244 8.15221385971e-25)
(-0.0134038577901 0.0127914137532 9.32384918054e-24)
(-0.0128858535932 0.0162827714695 3.1006542596e-25)
(-0.0137983323653 0.014960909581 -2.29296485986e-24)
(-0.0132707730344 0.0186431717757 -4.9843792786e-24)
(-0.014240275701 0.0172407004184 -9.35892702941e-24)
(-0.0136572347741 0.021128227128 -5.13578032272e-23)
(-0.0146856509593 0.0196635355314 -7.8446319902e-24)
(-0.0140334167584 0.0237816944015 -1.90368854062e-22)
(-0.0151627892013 0.0222327271055 -1.0486475971e-22)
(-0.0143442704622 0.0265807655473 -6.56265611136e-22)
(-0.0155957772568 0.0249741121971 -3.34125777793e-22)
(-0.0144917724373 0.0296307336772 -1.63401819299e-21)
(-0.0160075072419 0.0279496266353 -1.06942813938e-21)
(-0.01465021002 0.0330415867893 -2.49795518708e-21)
(-0.0162834132209 0.0313544612164 -2.4932732831e-21)
(-0.0155849515632 0.0367690994294 -2.37102164742e-21)
(-0.0167749200238 0.0343461241365 -3.8803095238e-21)
(-0.0163809482683 0.0398354628273 -1.05361137268e-21)
(-0.017913536091 0.0409241492642 -7.40989408008e-21)
(-0.0165903272991 0.0423336869412 3.28572218281e-21)
(-0.0172711499555 0.0362051727829 -1.17689216785e-21)
(-0.0287038547858 0.0464838773472 1.08772496482e-20)
(-0.0180040520041 0.0411558487542 9.71183895033e-21)
(-0.152861047286 0.0828951170938 1.04335269938e-20)
(-0.0605017794298 0.0418324074721 1.39589009165e-20)
(-0.303141775707 0.0455750947965 6.13191260487e-21)
(-0.0137052282128 0.00190841465853 8.98599648366e-22)
(-0.0147599600735 0.000927193369863 8.43179059822e-22)
(-0.013551352387 0.00378951260086 8.77079720922e-22)
(-0.0145293929036 0.00281028800756 9.80885117323e-22)
(-0.0135349385574 0.00567490403444 6.10332940497e-22)
(-0.014435877651 0.00465266681755 7.68381392018e-22)
(-0.013666444284 0.0075719528436 3.13380409793e-22)
(-0.014492074716 0.00649981593297 4.39841032784e-22)
(-0.013923415521 0.00952365619927 1.2232118396e-22)
(-0.0147329108929 0.00838849710332 1.90391623164e-22)
(-0.0142769219162 0.0115425071343 3.61368962113e-23)
(-0.0150793285784 0.0103343951154 6.36320859971e-23)
(-0.0147050251544 0.0136536658728 6.21566293471e-24)
(-0.0155149893512 0.0123609872154 1.76050160458e-23)
(-0.0151821263157 0.0158400765357 -1.19619573152e-23)
(-0.0159846635509 0.0144865718075 1.08495773165e-23)
(-0.0156975979321 0.0181814555967 -1.2219179741e-23)
(-0.0165815136096 0.0167313418013 -1.84750553257e-23)
(-0.0162426977542 0.0206825818215 -6.13515884732e-23)
(-0.017186619428 0.0191296950719 -1.77270334561e-23)
(-0.0168110804515 0.0233441510018 -2.48621683441e-22)
(-0.0178241509822 0.0216865908553 -1.31067740194e-22)
(-0.0173958832366 0.0262674886231 -7.4728830604e-22)
(-0.0185190432115 0.0244534056406 -4.04361541566e-22)
(-0.0179982998593 0.0295326965728 -1.9286832295e-21)
(-0.0192726803427 0.0274897771415 -1.03586169582e-21)
(-0.0186557226489 0.0332899571523 -3.87562761982e-21)
(-0.0200406598242 0.0310006030909 -2.41930824225e-21)
(-0.0192808907053 0.0374884692548 -8.91918195646e-21)
(-0.020973427865 0.0342501739324 -3.9688409566e-21)
(-0.0191674301175 0.0405988714118 -7.53317487525e-21)
(-0.0210239375953 0.0409883525251 -1.16377917563e-20)
(-0.0194167185397 0.0434505809814 5.24922459967e-21)
(-0.0201228392706 0.0364670558098 -5.89839326158e-21)
(-0.0343792542285 0.0466135002136 1.27934902185e-20)
(-0.0211687671904 0.0422910469804 1.94592113059e-21)
(-0.144183456311 0.0183831158864 9.65728652753e-21)
(-0.0322727350224 0.04691991736 6.70235559399e-22)
(-0.112727736383 -0.0618054360353 2.45111047057e-21)
(-0.0155644800931 0.00182766269378 9.25464528779e-22)
(-0.0165876532152 0.000890271119426 8.45737802708e-22)
(-0.0153965985917 0.00364343002873 8.72186788419e-22)
(-0.0163451972998 0.00269247044909 9.52316752084e-22)
(-0.0153895172201 0.00544779752703 5.97889484305e-22)
(-0.0162402850156 0.00445463795496 7.42079024528e-22)
(-0.0155577132682 0.00728579688203 3.16852246156e-22)
(-0.0163301084136 0.00621896037311 4.35654890134e-22)
(-0.0158723900203 0.00915641216872 1.31702525201e-22)
(-0.0166035437876 0.00802898837472 1.94236405771e-22)
(-0.0163020397831 0.0110995400853 4.51002058316e-23)
(-0.0170224475922 0.00989333540814 7.22795789578e-23)
(-0.0168276116766 0.0131308880824 2.22389304276e-23)
(-0.0175462992372 0.011837297717 2.65766299346e-23)
(-0.0174286971666 0.0153003980839 4.33647930599e-24)
(-0.0181540879854 0.013893498053 1.22732164933e-23)
(-0.0180960982311 0.0175787032889 -2.39829090408e-23)
(-0.01885969007 0.0160756145355 -9.86603469111e-24)
(-0.0188340986891 0.0200425241563 -8.74431851769e-23)
(-0.0196502969672 0.0184002518809 -3.08599274416e-23)
(-0.0196304869155 0.022666248163 -2.86807598318e-22)
(-0.020447688153 0.0209007176215 -1.35573318143e-22)
(-0.0205352440403 0.0255821248926 -6.92934931343e-22)
(-0.0214348596602 0.0236036525404 -3.93262857181e-22)
(-0.0215905587112 0.0287539193153 -1.52648670857e-21)
(-0.0224444466452 0.0265666761783 -8.54653789279e-22)
(-0.0227276369719 0.0324679302499 -2.51252157902e-21)
(-0.023754660757 0.0299701532707 -1.68089697696e-21)
(-0.0233012997202 0.036536827878 -6.6874507564e-21)
(-0.0250423236828 0.0330834929217 -2.5470138133e-21)
(-0.0227625502174 0.040714654615 -1.00030101426e-20)
(-0.0252017649268 0.0398551440133 -6.20853877138e-21)
(-0.0226054645546 0.045112490468 -9.20169673066e-21)
(-0.0245206430326 0.0362096988722 -7.79639192421e-21)
(-0.0233505375842 0.0495488608124 -1.01773335286e-20)
(-0.0256081856095 0.0431010658553 -8.67662026334e-21)
(-0.0335018974107 0.0326686823653 -6.53594049756e-21)
(-0.0153829950326 0.0507241133044 -1.00068377063e-20)
(-0.000744620619239 -0.0277824604831 -3.05363676872e-21)
(-0.0173421170829 0.00175816016485 8.72590026012e-22)
(-0.0183458453905 0.00084367376656 7.18596941097e-22)
(-0.0171563366167 0.00347430592026 8.22208988192e-22)
(-0.0180613771023 0.0025546628287 8.372972506e-22)
(-0.0171561924294 0.00518762168419 5.79844430357e-22)
(-0.0179536335868 0.00422396998179 6.65208431484e-22)
(-0.0173604271985 0.00693006289392 3.13039049749e-22)
(-0.0180725745995 0.00588871337098 4.01521294355e-22)
(-0.0177378064499 0.00872004002329 1.34813459528e-22)
(-0.0183935298734 0.00760232312737 1.82345011845e-22)
(-0.0182479470382 0.0105729754607 5.37560030607e-23)
(-0.0188753705091 0.00937114102465 6.83654444189e-23)
(-0.0188676786508 0.0125206929494 1.66109160003e-23)
(-0.0194939823251 0.0112189951711 2.60535950807e-23)
(-0.019593986454 0.0145896997555 -1.92929750381e-24)
(-0.0202230281185 0.0131721615202 1.50676598581e-24)
(-0.0204179080594 0.0167911152862 -1.67430530919e-23)
(-0.0210610091098 0.015251748278 -6.67379311033e-24)
(-0.0213365909989 0.0191337791654 -7.89900604081e-23)
(-0.0219928658541 0.0174684797003 -2.73023258284e-23)
(-0.0223611541782 0.0217151743064 -2.42028577006e-22)
(-0.0230289474668 0.0198559275724 -1.20177242695e-22)
(-0.0235325760869 0.0244243243996 -5.54981715117e-22)
(-0.0241439717363 0.0224415233859 -3.27181066662e-22)
(-0.0248941191643 0.0275327223512 -1.00906405767e-21)
(-0.0255528289603 0.0252794976224 -6.72077612164e-22)
(-0.0264101963203 0.0308981991141 -1.71538921123e-21)
(-0.0271201341494 0.0284873606763 -1.16548724277e-21)
(-0.0275317747216 0.0347261310511 -2.06810182828e-21)
(-0.0288702572312 0.0313846624783 -2.10581497195e-21)
(-0.0277211614659 0.0397271767634 -4.00192055298e-21)
(-0.0302028126187 0.0380279357704 -2.92670357397e-21)
(-0.0281659439219 0.0458506106284 -7.27131545689e-21)
(-0.0306441107186 0.0350266218363 -8.1564244215e-21)
(-0.0205535401489 0.0530532910253 -8.50612444105e-21)
(-0.0328052056894 0.0424148413039 -9.80388712879e-21)
(0.0320251727689 0.0488465526439 -6.52453397743e-21)
(-0.0111955590998 0.0542784003307 -1.05776169902e-20)
(0.137518842408 0.0943209175287 -3.95619624067e-21)
(-0.0190289510261 0.00165143476009 6.83304165684e-22)
(-0.0199973061157 0.000789764025156 4.45880621006e-22)
(-0.0188253787892 0.00327695198577 6.80296693893e-22)
(-0.0196869196689 0.00239720314469 6.08998166418e-22)
(-0.0188317524883 0.00489990528438 4.86885295482e-22)
(-0.0195766099642 0.00396029984694 5.34870893566e-22)
(-0.0190666056857 0.00652856896333 2.7082725645e-22)
(-0.0197012550364 0.0055137852033 3.30368220626e-22)
(-0.0195024461926 0.00820668314731 1.15896996736e-22)
(-0.0200716499361 0.00711253735916 1.50863964913e-22)
(-0.0200957101113 0.00995773489497 4.06630364388e-23)
(-0.0206264146013 0.00876523322603 5.44022522258e-23)
(-0.0208199279953 0.01179261523 1.09494450662e-23)
(-0.0213288438646 0.0104954419675 1.44852788816e-23)
(-0.0216667425175 0.0137427633614 -3.23772962071e-24)
(-0.0221731388311 0.012321529179 7.7057841849e-25)
(-0.0226251007697 0.0158237469175 -1.72330658468e-23)
(-0.0231419507203 0.0142619960099 -7.13081776911e-24)
(-0.0236911118372 0.0180455149231 -6.84895081152e-23)
(-0.0242145911731 0.016334551175 -2.85580201105e-23)
(-0.024903736491 0.0204271059126 -2.05329732351e-22)
(-0.0254104788677 0.0185681082139 -1.12747851497e-22)
(-0.0263098905906 0.0230679916107 -4.44276963709e-22)
(-0.0267848465903 0.0210032582236 -2.98287323973e-22)
(-0.0279349255423 0.025922733299 -8.28500797268e-22)
(-0.0284075697956 0.0236912424956 -5.98900307913e-22)
(-0.0298194346746 0.0290962973828 -1.55591300349e-21)
(-0.0302937023011 0.0267088518149 -1.0201336376e-21)
(-0.0318872533221 0.03279373163 -2.96441671764e-21)
(-0.0325676966242 0.0295491602592 -2.02693665432e-21)
(-0.0335253262241 0.0380521927756 -7.08120744248e-21)
(-0.0354612769843 0.0359510457819 -2.10891739659e-21)
(-0.0356319483567 0.0448263862161 -1.06889960934e-20)
(-0.0374183781809 0.0328960490335 -8.62701169186e-21)
(-0.0315322471314 0.0537349209099 -1.18753796779e-20)
(-0.0417034531917 0.0401516511146 -1.1434275622e-20)
(0.0111187769012 0.0841252462508 -8.00927925344e-21)
(-0.0416218692239 0.0531982269256 -1.19329342693e-20)
(-0.0930800737151 0.179737086464 -5.28478354205e-21)
(-0.0206099057304 0.00154317892452 3.71574621739e-22)
(-0.0215405004897 0.000729065029796 2.19308893114e-22)
(-0.020387914336 0.00305079410888 4.63572366092e-22)
(-0.0211945489879 0.00222106074102 4.44962252665e-22)
(-0.0203974463866 0.00454866407488 3.7835381871e-22)
(-0.0210744930192 0.00366753441068 4.38891686889e-22)
(-0.0206608069378 0.00606653903063 2.10404929089e-22)
(-0.0212191406004 0.00509612309326 2.74199922763e-22)
(-0.021150647037 0.0076240591471 8.93692204033e-23)
(-0.0216291765132 0.00656425889851 1.24276051055e-22)
(-0.0218201214008 0.00924343868499 2.82244946687e-23)
(-0.0222457966982 0.00808377808681 4.09784431496e-23)
(-0.0226418470952 0.0109506724535 4.30641223394e-24)
(-0.0230360779177 0.00967137098662 1.1127757738e-23)
(-0.0236000141832 0.0127487553991 -3.12250972991e-24)
(-0.0239712204616 0.0113403467808 -7.96907917643e-24)
(-0.0246855763625 0.0146559402125 -1.84557720328e-23)
(-0.0250491395214 0.013109416864 -1.28597383928e-23)
(-0.0259086508031 0.0167085640691 -7.28163634925e-23)
(-0.0262672295353 0.015002089975 -3.39665735975e-23)
(-0.0273118186544 0.0189604382424 -2.05705443119e-22)
(-0.0276623612537 0.0170598593152 -1.09837429939e-22)
(-0.0289446393309 0.021402502464 -4.52910668178e-22)
(-0.0292269241795 0.019328323401 -2.53652660419e-22)
(-0.0308109063383 0.0241379191521 -7.90533148247e-22)
(-0.031142998908 0.0218514739431 -5.45497091044e-22)
(-0.0330628014667 0.0271240486426 -1.49115728843e-21)
(-0.0332798428745 0.0246849995118 -1.00705553334e-21)
(-0.0362193239296 0.0305973353161 -1.17143733327e-21)
(-0.0360409922051 0.0275180081614 -2.12869443129e-21)
(-0.039482776421 0.0357232115083 -3.65472164596e-21)
(-0.0405871591766 0.0336284822741 -1.61847677614e-21)
(-0.0437704809963 0.0421579500657 -9.37229122049e-21)
(-0.0438530409368 0.0301014725319 -6.88455456183e-21)
(-0.0521643746626 0.0515805359077 -1.14918302134e-20)
(-0.0511369475309 0.0367148774096 -1.05226704379e-20)
(-0.0886207055068 0.0834242355413 -9.20843855786e-21)
(-0.0734277212803 0.0478219288289 -1.16361963519e-20)
(-0.151180219547 0.0709212964965 -8.79345662385e-21)
(-0.0220736965411 0.00142052268768 2.92696524039e-22)
(-0.0229610270819 0.000665500290451 1.35750283517e-22)
(-0.0218288251941 0.0028074337668 4.20281573463e-22)
(-0.0225814634472 0.00203126620963 3.87249816692e-22)
(-0.0218408500573 0.00418011028729 3.34737790943e-22)
(-0.0224471740004 0.00334696836525 3.80899674218e-22)
(-0.0221297637675 0.00556382772968 1.88071044729e-22)
(-0.0226028640343 0.00463908857599 2.53041345601e-22)
(-0.0226656111986 0.00698130535639 7.58852738013e-23)
(-0.023046662273 0.00596420352485 1.12383608166e-22)
(-0.0233997578187 0.00845094134872 2.3881706219e-23)
(-0.0237154438483 0.00733280440459 3.29416293282e-23)
(-0.02430288566 0.00998539841266 -1.14773367233e-24)
(-0.0245705513095 0.00875501761795 9.29556411068e-24)
(-0.0253612457416 0.011608809808 -1.77063078393e-23)
(-0.0255946557538 0.0102453608771 -1.04769447522e-23)
(-0.0265784821806 0.0133435536274 -2.83705399575e-23)
(-0.026783928006 0.0118245836577 -1.00769269684e-23)
(-0.0279635281667 0.015194038351 -7.09876400435e-23)
(-0.0281177641415 0.0135255739388 -2.76890232327e-23)
(-0.0295605269119 0.0172439160762 -1.57784647239e-22)
(-0.0297123047521 0.015378491521 -9.63232178769e-23)
(-0.0314191610011 0.0195430567869 -3.46239083285e-22)
(-0.0315260967555 0.0174314121168 -1.82171286618e-22)
(-0.03356595351 0.0220863071441 -7.62019476137e-22)
(-0.0336862726209 0.0197196957009 -4.44026687687e-22)
(-0.0362314292664 0.0249913604621 -1.6445926762e-21)
(-0.036184914101 0.0223188802537 -9.75594755684e-22)
(-0.0402632654287 0.0284978304999 -2.57573387416e-21)
(-0.0395474758134 0.0250818584845 -2.15607219401e-21)
(-0.0448497077263 0.0327934105232 -4.84830969201e-21)
(-0.0448827478924 0.0307976159108 -4.78988171302e-21)
(-0.0511794220127 0.0385334783799 -8.03493377924e-21)
(-0.049593051131 0.0268007194136 -6.86503826359e-21)
(-0.0624803750301 0.0461978129535 -1.06670365765e-20)
(-0.0588097076612 0.0323308614644 -8.7235770452e-21)
(-0.0981896185248 0.036183803166 -1.12212144179e-20)
(-0.0633939899786 0.0436435896738 -1.05793501365e-20)
(-0.0762710976829 0.0046401684746 -6.3928318131e-21)
(-0.023412552297 0.00128855733119 2.3030357617e-22)
(-0.0242495788969 0.000597877596511 3.1780521515e-23)
(-0.0231450744797 0.00254459548577 3.47867917447e-22)
(-0.0238374970607 0.00182717276361 2.45321772632e-22)
(-0.0231570767061 0.00377616607013 2.99203228876e-22)
(-0.023678742612 0.00300084621084 2.86001172923e-22)
(-0.02346245579 0.00500703613273 1.77353909038e-22)
(-0.0238337359773 0.00415212790075 2.06114325675e-22)
(-0.0240309499436 0.00627394289567 6.94399636931e-23)
(-0.0243135762975 0.00532428546594 9.17903633221e-23)
(-0.0248158919679 0.00758178369135 1.83554872198e-23)
(-0.0250232992738 0.00652255542477 2.47996920633e-23)
(-0.0257866478743 0.00894232861511 -3.36469691598e-26)
(-0.0259311187204 0.00776475281421 5.67725233322e-24)
(-0.026934282469 0.0103754595319 -2.84756388122e-24)
(-0.027027825082 0.00906648688327 -9.40436986179e-24)
(-0.0282684293614 0.0118982234068 -9.39541024364e-24)
(-0.0283067516974 0.010439184661 -7.24351030883e-24)
(-0.0298041775871 0.0135707588308 -5.30246010661e-23)
(-0.029790371683 0.0119172351719 -1.84208344317e-23)
(-0.0315810730188 0.0153798866938 -1.20709857256e-22)
(-0.0315215260833 0.0135257586775 -9.41337927865e-23)
(-0.0336774829048 0.0173889552185 -2.7995889102e-22)
(-0.0335352075854 0.0152886459377 -1.64997621222e-22)
(-0.0361591309423 0.0196592009731 -6.57601967234e-22)
(-0.0359565497197 0.0172551952503 -4.06867784548e-22)
(-0.0392881090438 0.0223234006863 -1.4870742735e-21)
(-0.0388491385742 0.0195199852182 -8.54988950465e-22)
(-0.0439384047219 0.0254758669761 -4.37022003287e-21)
(-0.0426999616462 0.0219994146576 -2.01027931531e-21)
(-0.0493723751317 0.0293298874229 -6.8066102846e-21)
(-0.0487367800736 0.0271261660098 -3.24473696985e-21)
(-0.0570725099946 0.0337527953585 -7.55368152955e-21)
(-0.0540159394192 0.0229799333865 -5.22857662147e-21)
(-0.0623070599516 0.0396969815443 -8.63589060516e-21)
(-0.0647571126573 0.0270529310472 -9.48963039534e-21)
(-0.0572705271633 0.0369512559031 -5.75096753162e-21)
(-0.0606466276878 0.0378662080136 -9.82621231665e-21)
(-0.0344022934792 0.0217551137908 -3.76952163978e-21)
(-0.0246133483523 0.00114879030118 4.6798717977e-23)
(-0.0253983588593 0.00052714010961 -1.77951511939e-22)
(-0.0243173828144 0.00226009381906 1.83455028107e-22)
(-0.0249487925749 0.00161546236354 2.3048209075e-23)
(-0.0243162924294 0.00335452159703 1.92912269721e-22)
(-0.0247731645902 0.00264125564834 1.15432234148e-22)
(-0.0246301390722 0.00444119146964 1.20550779959e-22)
(-0.0249204031449 0.00364076532284 9.7536049872e-23)
(-0.0252279656591 0.00553354639555 4.71500916923e-23)
(-0.0254059335406 0.00464876855339 4.34823563653e-23)
(-0.026055806288 0.00665786829043 1.21214571767e-23)
(-0.026147630177 0.00567113075775 1.04862760736e-23)
(-0.0270830459259 0.00782581777847 -3.69347055941e-24)
(-0.0270990851127 0.00672696812732 6.93869152185e-25)
(-0.0283035370082 0.0090519701126 -1.38003162894e-23)
(-0.028254007545 0.00782587598705 -1.23614019229e-23)
(-0.0297279164693 0.0103534954771 -1.62689344969e-23)
(-0.0296083364423 0.00896987237655 -9.15212237356e-24)
(-0.0313885793648 0.0117549472361 -5.95300261521e-23)
(-0.0311918943404 0.010181946907 -7.15308968535e-24)
(-0.0333332440423 0.0132730850051 -1.38421556752e-22)
(-0.0330397648658 0.0114952642137 -9.03555725124e-23)
(-0.0356447920458 0.0149621420138 -2.9190651475e-22)
(-0.0352243132667 0.0129233167331 -1.34950154723e-22)
(-0.0384428857872 0.0168761511641 -6.04254767779e-22)
(-0.0378705995447 0.0144976569794 -2.85814569598e-22)
(-0.0420184382319 0.019166774168 -1.37819399227e-21)
(-0.0411397988292 0.0162990911466 -4.47473758403e-22)
(-0.0470857178317 0.021927501541 -8.8479625228e-22)
(-0.0454607211073 0.0182690526044 -7.44396229886e-22)
(-0.0529573167994 0.0247293469301 -1.66670330672e-21)
(-0.0515386489197 0.0225582935613 2.08012652464e-21)
(-0.0612577135722 0.0281937993303 -7.16452548726e-21)
(-0.0574803918775 0.0185750781894 -2.22930623808e-21)