/*--------------------------------*- C++ -*----------------------------------*\
| =========                 |                                                 |
| \\      /  F ield         | OpenFOAM: The Open Source CFD Toolbox           |
|  \\    /   O peration     | Version:  v2012                                 |
|   \\  /    A nd           | Website:  www.openfoam.com                      |
|    \\/     M anipulation  |                                                 |
\*---------------------------------------------------------------------------*/
FoamFile
{
    version     2.0;
    format      ascii;
    class       volVectorField;
    location    "0.8";
    object      ddt0(rho,U);
}
// * * * * * * * * * * * * * * * * * * * * * * * * * * * * * * * * * * * * * //

dimensions      [1 -2 -2 0 0 0 0];


internalField   nonuniform List<vector> 
167
(
(4.11545353398 -4.06660598678 2.70664954289e-19)
(5.24353169295 -10.4961447191 2.4202852663e-18)
(5.39077861914 -19.189601395 3.32114205374e-21)
(5.40114888125 -27.6601540951 -1.99000939968e-19)
(5.48095996531 -36.2147712546 -5.45981483789e-19)
(5.62738209676 -45.0257344072 -4.01785674996e-19)
(5.82713573144 -54.1972221634 -1.02840983684e-18)
(6.07363281679 -63.810772198 1.01987629351e-18)
(10.5342304601 -5.18469970782 2.01339794917e-19)
(11.8610026254 -11.6496387062 7.51715129164e-19)
(12.1785665044 -20.12862684 -3.34573641975e-20)
(12.3928205278 -28.660356352 -8.75437535974e-19)
(12.7495460561 -37.3638888765 -3.74130959112e-18)
(13.2491807881 -46.3848761342 -1.72737348442e-18)
(13.872662526 -55.7956209009 3.04102639379e-19)
(14.6105982981 -65.662061581 6.44451519058e-19)
(18.8827985564 -5.26852971562 2.06289140555e-21)
(20.0654702892 -11.6418680917 3.68130735213e-18)
(20.5545289855 -20.0362606839 5.68848790721e-19)
(21.0434049254 -28.4666278139 -1.82649708075e-19)
(21.6946097963 -37.0671098189 -7.44976280957e-19)
(22.5316054331 -45.9910823276 -2.39072117508e-19)
(23.5532435098 -55.3079434255 -3.97730758261e-19)
(24.7575507866 -65.0817282123 -2.34608883543e-19)
(26.9721866051 -5.08324182094 1.67792954311e-18)
(28.2262553242 -11.2555793734 3.75339940656e-18)
(28.871621215 -19.5369201057 4.16100148188e-19)
(29.6138185996 -27.7947781356 6.00446598596e-20)
(30.5722720837 -36.2006048214 -5.1128806909e-20)
(31.7738537666 -44.9220801458 -1.49751025897e-19)
(33.2244148979 -54.0342010136 3.24591149317e-19)
(34.9256612456 -63.6020571823 -2.66331973604e-19)
(36.8786768282 -73.6952563508 6.38185111991e-19)
(34.579052279 -4.8688441361 2.14896680386e-18)
(36.0142800816 -10.7691832007 4.61301788478e-18)
(36.802551399 -18.8257374174 7.5556496696e-19)
(37.7634401738 -26.8271536022 9.71020919112e-20)
(39.0090824761 -34.9635738074 1.65779789976e-20)
(40.5640013349 -43.4075345058 4.66304961411e-20)
(42.4353381444 -52.2379528062 6.93279969273e-20)
(44.6265762837 -61.5221612056 -2.85230545331e-20)
(47.139387722 -71.3303069357 1.75383979508e-21)
(49.9752036162 -81.7328171177 5.04625173441e-20)
(41.8073998793 -4.64499751849 -6.34889359985e-19)
(43.481732663 -10.2173492957 5.54442638112e-18)
(44.4174034132 -17.9486332611 1.01511655132e-18)
(45.5840263529 -25.6120580331 1.07418887505e-19)
(47.105631498 -33.4060754825 2.01149394706e-20)
(49.006186549 -41.5016370562 -2.92687744523e-20)
(51.2928946564 -49.9792616366 1.23953120948e-20)
(53.969940714 -58.9076606485 -8.24983377515e-21)
(57.040031911 -68.3584688201 -2.04769525317e-20)
(60.5044395311 -78.4031767431 1.55682902693e-20)
(48.6460928268 -4.39863144384 -4.44776603223e-20)
(50.5876575544 -9.58564480307 8.28517411962e-19)
(51.6769669921 -16.9103131313 -1.99029381203e-19)
(53.0456179554 -24.1601083131 3.18515835099e-20)
(54.8375624649 -31.5396936794 5.84781233509e-21)
(57.0788453863 -39.2158746535 3.31330077455e-21)
(59.7771572181 -47.2695511166 -1.75211061076e-21)
(62.9374485663 -55.7703820157 -5.93785563003e-20)
(66.5634085497 -64.7912982038 1.31717397996e-20)
(70.6570193519 -74.4055279491 -3.21409114489e-20)
(55.0323386627 -4.12219425902 5.07561352942e-19)
(57.249759012 -8.86566905189 -6.44282502126e-19)
(58.4950719136 -15.7115306746 1.21768421404e-19)
(60.0633171915 -22.4757690789 7.19771784887e-20)
(62.1210483366 -29.3700468873 -2.08778404927e-21)
(64.6981211164 -36.555811664 -6.28825968797e-21)
(67.8035442785 -44.1137653419 -1.03678132523e-20)
(71.4436070781 -52.1141870365 -5.14704456147e-20)
(75.6234271737 -60.6314352626 2.122769143e-20)
(80.346279064 -69.7406502673 -1.55957638948e-20)
(60.9048513023 -3.81229507599 3.65481135268e-19)
(63.3971538409 -8.05471042802 3.05247979663e-18)
(64.7980290492 -14.3538264512 4.45935236352e-19)
(66.5626179117 -20.5630540089 -1.79256967054e-19)
(68.8809961359 -26.9023330773 -9.75151546853e-22)
(71.7879528602 -33.5268608663 3.58322786218e-20)
(75.2946927856 -40.5167396965 -4.75704450294e-20)
(79.4096248666 -47.9427367672 3.66840827634e-20)
(84.1400884183 -55.8804943162 6.8639115367e-21)
(89.4914651056 -64.4074947299 9.73800507146e-21)
(66.2042829909 -3.467642287 -1.71473322232e-19)
(68.9660813143 -7.1528425038 1.47003386783e-19)
(70.5201878842 -12.840000979 6.73001414592e-19)
(72.476408337 -18.4268543331 6.58665566364e-20)
(75.0487993595 -24.1427560337 2.45053193693e-21)
(78.2779638355 -30.1356669294 -3.73562633095e-20)
(82.1781787922 -36.4847333878 -1.08122832385e-20)
(86.7609059361 -43.2609098915 5.05552649076e-21)
(92.0366912358 -50.5412336886 1.52208975357e-20)
(98.0141608244 -58.4054896611 -2.18609683097e-20)
(70.8708797246 -3.0882797145 -1.83886595882e-18)
(73.8942007786 -6.16223055829 -1.96378429871e-19)
(75.5974646823 -11.1746346733 5.68274132325e-19)
(77.7386412315 -16.0738583676 -5.17166055245e-19)
(80.5561484922 -21.0995209639 -2.15333862373e-20)
(84.09720872 -26.3911692549 -1.98058048662e-20)
(88.3800829314 -32.0264860658 -1.45518283191e-21)
(93.4203193491 -38.0763218492 -2.42842458051e-21)
(99.2328903599 -44.618747478 8.5754594261e-21)
(105.83100176 -51.7360610928 -2.02495957677e-20)
(74.8463606615 -2.67513509293 -1.94382624102e-18)
(78.1211807496 -5.08679753292 3.15087551166e-18)
(79.9677273441 -9.36437889304 -1.06103419571e-20)
(82.2847818919 -13.5131963035 -1.58499055904e-19)
(85.3355411124 -17.7837284094 1.65943060912e-21)
(89.174671684 -22.3056217824 -1.67122390458e-20)
(93.8253633161 -27.1544230685 -7.67097904784e-20)
(99.3084234948 -32.4002556953 -2.61358276299e-20)
(105.64463081 -38.1220169624 -8.59430821446e-20)
(112.853419603 -44.4041263742 -5.94494806004e-20)
(78.0755525175 -2.22980119631 -1.65148611756e-18)
(81.5899122037 -3.93207457062 2.80693136476e-18)
(83.5719188774 -7.4181914169 4.91672953768e-19)
(86.0529400566 -10.7569814734 2.22970100266e-20)
(89.3214301307 -14.2101008649 -8.84569475968e-20)
(93.4403581927 -17.8955471442 -2.02682671988e-20)
(98.4388642143 -21.8857528312 -3.17760439557e-20)
(104.344282447 -26.2493695313 -8.1103412937e-20)
(111.184755498 -31.0652727878 -5.96148003169e-20)
(118.987864767 -36.4197765605 -7.23752912367e-20)
(80.5074998432 -1.75449577327 -1.41962016356e-18)
(84.2474469439 -2.70526805585 1.21510177386e-18)
(86.3549098717 -5.34766294263 5.00255993557e-19)
(88.9846938375 -7.82088440411 1.42612991647e-19)
(92.4510434934 -10.3978424374 -2.82474799573e-20)
(96.8261226425 -13.1828047966 -6.55801239068e-20)
(102.146046569 -16.2438571796 -6.97709292462e-20)
(108.445808923 -19.6469756647 -9.78295841512e-21)
(115.762907388 -23.4701589104 -1.04005240393e-19)
(124.135238842 -27.8004705998 2.32636625456e-20)
(82.0966353564 -1.25209393817 -1.16421510237e-18)
(86.0461044027 -1.41543177538 6.55333423782e-18)
(88.2665504664 -3.16738870559 -3.87184255377e-19)
(91.0261399146 -4.72471450615 -9.11775637835e-20)
(94.6655065908 -6.37142442806 3.88128916261e-20)
(99.2664161822 -8.19575066368 -2.4802551863e-20)
(104.872983552 -10.2599665809 -6.70723646327e-20)
(111.530222915 -12.625591871 -2.63113608166e-20)
(119.285888206 -15.3679057144 -2.62554406792e-20)
(128.191471056 -18.5734989853 -3.41318492502e-20)
(82.8035324043 -0.726250298988 -1.31360267916e-18)
(86.9442667489 -0.0737641068393 -3.05341671544e-18)
(89.2627967089 -0.895402612034 -5.10822196833e-19)
(92.1292300249 -1.4930278086 -3.2963971628e-19)
(95.9099353541 -2.16186384561 -5.41857554618e-20)
(100.698867976 -2.97124186485 -1.38036268326e-20)
(106.548984986 -3.97442359533 -8.4929081642e-20)
(113.516070072 -5.22753473208 1.97009152686e-21)
(121.660228349 -6.80124016213 -3.96834503511e-20)
(131.048231752 -8.77948485461 -4.57830784379e-20)
(82.5965712061 -0.181289672147 -2.92338167964e-18)
(86.90822216 1.30672883068 -1.35481562127e-18)
(89.3069902973 1.4468799945 -4.84004774224e-19)
(92.2511992597 1.84330203119 -2.1046970236e-19)
(96.1365702993 2.19227215183 1.21415628858e-20)
(101.068183476 2.44678767853 -7.1564007737e-20)
(107.107982162 2.56239678639 -8.70635712584e-20)
(81.4543341215 0.377809820405 -3.11068622799e-18)
(85.9138415238 2.71043138064 -2.55976314496e-18)
(88.3710713057 3.832326704 -2.2624099679e-19)
(91.3605292338 5.2489307897 -9.74451559643e-20)
(95.3067909496 6.64726805552 2.09279694761e-20)
(86.4390181226 6.23187313953 2.21595743269e-19)
(89.4372988044 8.68197490264 -3.92406159812e-20)
)
;

boundaryField
{
    back
    {
        type            calculated;
        value           uniform (0 0 0);
    }
    sides
    {
        type            calculated;
        value           uniform (0 0 0);
    }
    bottom
    {
        type            calculated;
        value           uniform (0 0 0);
    }
    front
    {
        type            calculated;
        value           uniform (0 0 0);
    }
    atmosphere
    {
        type            calculated;
        value           nonuniform List<vector> 0();
    }
    floatingObject
    {
        type            calculated;
        value           nonuniform List<vector> 0();
    }
    procBoundary2to0
    {
        type            processor;
        value           nonuniform List<vector> 
14
(
(114.323615059 2.49169592647 -1.91809024185e-20)
(122.791284356 2.17151394586 -2.67748598915e-20)
(132.593736878 1.52383945876 -8.50791046205e-20)
(100.324454541 8.00259327342 -2.20933272632e-20)
(114.323615059 2.49169592647 -1.91809024185e-20)
(106.489828946 9.28552980009 -5.54623884218e-20)
(79.3655373602 0.94448825943 -2.30812082205e-19)
(83.9471200584 4.11821413034 1.50453840443e-18)
(100.324454541 8.00259327342 -2.20933272632e-20)
(93.3910942389 11.1460904082 -1.47402410576e-20)
(83.9471200584 4.11821413034 1.50453840443e-18)
(83.5102558957 8.61230123528 4.98780570056e-19)
(93.3910942389 11.1460904082 -1.47402410576e-20)
(86.4737472423 12.0936050372 -6.95983689558e-20)
)
;
    }
    procBoundary2to1
    {
        type            processor;
        value           nonuniform List<vector> 
18
(
(6.36400281077 -73.9433339324 1.30408762409e-18)
(15.4590770874 -76.0546389413 -5.96156211147e-19)
(26.1436471621 -75.3811779659 7.28090040994e-19)
(26.1436471621 -75.3811779659 7.28090040994e-19)
(39.0835617807 -84.3829610888 7.45631641805e-19)
(39.0835617807 -84.3829610888 7.45631641805e-19)
(53.1330760755 -92.7952715851 -1.20457373152e-20)
(64.3631587555 -89.1086134847 -6.2582768868e-21)
(75.2183165268 -84.6817718869 -1.33631561792e-20)
(85.6129582158 -79.513150349 -1.56282049753e-20)
(95.4663587191 -73.5982443385 9.81248865097e-21)
(104.69897196 -66.9319327373 -3.22566673902e-21)
(113.224942147 -59.5105895663 -6.79822617027e-21)
(120.9515534 -51.3333230929 3.3969812374e-21)
(127.779156493 -42.4040326124 -1.55058543492e-20)
(133.6002296 -32.7332395098 2.94139315155e-20)
(138.298141359 -22.3413447881 7.29031892556e-20)
(141.749128875 -11.2622469495 5.79103905974e-21)
)
;
    }
}


// ************************************************************************* //
