/*--------------------------------*- C++ -*----------------------------------*\
| =========                 |                                                 |
| \\      /  F ield         | OpenFOAM: The Open Source CFD Toolbox           |
|  \\    /   O peration     | Version:  v2012                                 |
|   \\  /    A nd           | Website:  www.openfoam.com                      |
|    \\/     M anipulation  |                                                 |
\*---------------------------------------------------------------------------*/
FoamFile
{
    version     2.0;
    format      ascii;
    class       surfaceVectorField;
    location    "0.8";
    object      ddtCorrDdt0(Uf);
}
// * * * * * * * * * * * * * * * * * * * * * * * * * * * * * * * * * * * * * //

dimensions      [0 1 -2 0 0 0 0];


internalField   nonuniform List<vector> 
305
(
(0.00468793013678 -0.00695571062209 1.34790121274e-21)
(0.00695723678337 -0.00463399327024 2.36427922403e-22)
(0.00532674249411 -0.0151281006362 1.21398828459e-21)
(0.00817395829299 -0.0110928568888 1.58885999595e-21)
(0.00540569330222 -0.0235119454795 -9.80163127253e-23)
(0.00838519143736 -0.0196945613122 -1.50952737896e-23)
(0.00545086535559 -0.0319911670788 -3.7316287704e-22)
(0.00848018188051 -0.0282110316016 -5.38187937477e-22)
(0.00556418578972 -0.0406776480983 -4.74738062178e-22)
(0.00868701817941 -0.0368556659276 -2.14751088378e-21)
(0.00573758545311 -0.0496778464567 -7.16387139417e-22)
(0.00900019474909 -0.045787715238 -1.0664991443e-21)
(0.00596111275957 -0.0590798115055 -4.27451923791e-24)
(0.00940151033015 -0.0550955804115 -3.62806515475e-22)
(0.00988206295003 -0.0648531330273 8.33664340407e-22)
(0.0112178065789 -0.00807304791089 4.77386705607e-22)
(0.0150319221369 -0.00523603868733 1.01884715029e-22)
(0.0120414572032 -0.0161705342607 3.59776437564e-22)
(0.0162730415498 -0.0116667514263 2.2205078539e-21)
(0.0123078459578 -0.0244761762426 -4.55266898542e-22)
(0.0166921461011 -0.0201186542189 2.68178404674e-22)
(0.0125938507568 -0.0330498757301 -2.31253594422e-21)
(0.017054783683 -0.0286149956235 -5.29997580098e-22)
(0.0130228026497 -0.0419236475978 -2.7392719659e-21)
(0.0175612759766 -0.0372826039852 -2.24718769673e-21)
(0.0135853726107 -0.0511525020266 -7.12918520355e-22)
(0.0182290162937 -0.0462712602772 -9.84995673469e-22)
(0.0142673078839 -0.0608022480465 4.7513234417e-22)
(0.0190506454129 -0.05565194297 -4.68983997537e-23)
(0.020021723125 -0.0654897547204 2.05290836691e-22)
(0.019509247463 -0.008091418759 1.84500586333e-21)
(0.0231249816934 -0.00518521823155 8.41510844171e-22)
(0.0203466201371 -0.0161371524646 2.12890982101e-21)
(0.0243203299451 -0.011469366422 3.72405623252e-21)
(0.0208364697917 -0.0243395012833 1.93447723118e-22)
(0.0248957474932 -0.019822267369 4.93362469876e-22)
(0.0214075386206 -0.0328055771005 -4.64649332606e-22)
(0.0255217015136 -0.0281814262978 -6.14130639534e-23)
(0.0221529803513 -0.0415788559675 -4.92911404296e-22)
(0.0263350050686 -0.036699913841 -3.98770304404e-22)
(0.0230839716583 -0.0507122908073 -3.18975552868e-22)
(0.0273623636054 -0.0455385448988 -1.9476213105e-22)
(0.0241989485019 -0.0602686337025 -3.16739907233e-22)
(0.0286068177029 -0.0547696460493 -3.66357438472e-23)
(0.0300681348328 -0.0644578928239 -2.50922045212e-22)
(0.0276489838813 -0.00779560181597 2.72056121336e-21)
(0.0309221555106 -0.00498501505923 1.91689846373e-21)
(0.0286004141522 -0.0157067732291 2.08850888138e-21)
(0.0322329636777 -0.0110322371274 4.19075151235e-21)
(0.0292954478972 -0.0237576360733 2.38501682805e-22)
(0.0329477767463 -0.0192159143539 5.86888892706e-22)
(0.0301473077322 -0.0320379526106 4.46596424817e-24)
(0.0338028037343 -0.0273602112998 7.87150570963e-23)
(0.0312292727856 -0.0406115294014 -1.00621031158e-22)
(0.0349090243219 -0.0356462501855 -1.73065648767e-23)
(0.0325577333308 -0.0495407636704 8.75776779704e-23)
(0.0362916958402 -0.0442444436524 -5.1653239954e-23)
(0.0341364743315 -0.058891712313 2.91821181739e-23)
(0.0379573509487 -0.0532318846725 1.97314710604e-22)
(0.0359668936322 -0.0687324739828 1.86261756971e-22)
(0.0399087999776 -0.0626749013035 -1.47693331431e-22)
(0.0421470026467 -0.0726434983791 3.20546348902e-22)
(0.035360307757 -0.00744829903047 3.38708876272e-21)
(0.0383718971258 -0.00476549775547 7.58403851234e-22)
(0.0364740627259 -0.015110438923 2.68913152368e-21)
(0.0398964207931 -0.0105121859739 5.08787972353e-21)
(0.0373502214587 -0.0229176239093 4.27102266998e-22)
(0.0407560068878 -0.0184203389417 8.86937152984e-22)
(0.0384554782616 -0.0309361549408 5.69425279715e-23)
(0.0418220500048 -0.026266883522 1.02444883176e-22)
(0.0398582846907 -0.0392358928775 3.16612263275e-23)
(0.0432091993056 -0.0342464666746 1.83795416945e-23)
(0.0415744996903 -0.0478851691328 5.80837926794e-23)
(0.0449412017235 -0.0425311402417 8.69651389308e-24)
(0.0436094441099 -0.0569529914621 2.04392609985e-23)
(0.0470251117117 -0.0512007621232 4.09353341083e-23)
(0.0459657006566 -0.0665093656959 -1.34087394998e-23)
(0.0494647191489 -0.0603234742815 -1.8419596157e-23)
(0.0486448288677 -0.0766249451266 2.6155246305e-23)
(0.0522623045535 -0.069970296652 -9.37843396933e-24)
(0.0554187767835 -0.0802123277885 3.30749234878e-23)
(0.0427214560391 -0.00706983624426 2.45919481204e-21)
(0.0454429835335 -0.00452996742615 -3.40295992807e-22)
(0.0440288120068 -0.0143939032118 3.28568535284e-21)
(0.0472216002049 -0.00991934963174 3.19221753284e-21)
(0.0450818565756 -0.0218695156067 5.62279769163e-22)
(0.0482324976647 -0.0174608998222 4.08779344314e-22)
(0.0464283969757 -0.0295498319593 6.38818968993e-23)
(0.0495029858516 -0.0249309563937 6.97608003727e-23)
(0.0481425642614 -0.0375041135685 -4.58517073996e-24)
(0.0511638901528 -0.0325314400551 1.30047840762e-23)
(0.0502399697761 -0.0458025519824 -8.45194467807e-24)
(0.0532399376973 -0.0404315322585 -1.30011384865e-23)
(0.0527263159463 -0.0545157307346 2.07647695273e-24)
(0.055738438866 -0.0487120842449 5.33119655022e-24)
(0.0556050563051 -0.0637151026967 -1.43892906266e-23)
(0.0586638751319 -0.0574424026631 -3.38751667013e-23)
(0.0588781873608 -0.0734727386459 -2.45875678651e-24)
(0.0620193191813 -0.0666949038535 -3.65919180613e-24)
(0.0658064321917 -0.0765420818011 -8.30125140783e-24)
(0.0497063356448 -0.00664323234009 3.92726727991e-22)
(0.0520872039484 -0.00426809439038 2.31959364978e-22)
(0.0512245067418 -0.0135551402723 3.15311524316e-22)
(0.0541343463113 -0.00924229074876 9.22833989828e-23)
(0.0524557060616 -0.0206220338764 -8.3739624476e-23)
(0.0553000466938 -0.0163403314735 -3.87001558735e-23)
(0.0540388568881 -0.027890482839 1.88836875496e-23)
(0.0567719197933 -0.0233599842543 5.20079919405e-23)
(0.0560591094785 -0.0354278305508 4.58881632969e-24)
(0.0587016135142 -0.0305097870631 1.88340419783e-24)
(0.058533359625 -0.0433043884005 7.82002741844e-25)
(0.0611168160366 -0.037954160929 -1.49016173495e-24)
(0.061467936846 -0.0515914470723 -3.06204471038e-23)
(0.0640257719126 -0.0457740491455 -6.07088937498e-24)
(0.0648671705143 -0.0603616681944 -2.31450678808e-23)
(0.0674339574872 -0.0540395434587 -5.55244395955e-23)
(0.0687339053172 -0.069688517027 -9.50168642745e-24)
(0.0713457385565 -0.0628244243702 1.72307271369e-23)
(0.0757634577509 -0.0722030143519 -2.39113727504e-23)
(0.0562422716019 -0.00615994095511 -6.84839640303e-23)
(0.0582477930265 -0.00397439751357 4.37308362124e-22)
(0.0579767619681 -0.0125910198328 -2.61728281206e-22)
(0.0605659088576 -0.00847544316501 1.20626959958e-21)
(0.0593860815548 -0.0191778568839 9.7047460543e-23)
(0.061887242623 -0.0150597830599 2.84363633753e-22)
(0.0612023433402 -0.0259633223501 3.50077085888e-23)
(0.0635576797146 -0.0215582138827 -5.37366174854e-23)
(0.0635239273286 -0.0330128033262 -4.19557386681e-24)
(0.0657513917347 -0.0281869256869 -1.53422937812e-24)
(0.0663702982925 -0.0403960581199 -8.34305385177e-24)
(0.0685004295205 -0.0351045249568 1.47986470834e-23)
(0.0697491164592 -0.0481847193219 -3.09748818667e-23)
(0.0718147736451 -0.0423915557415 -2.90213672119e-23)
(0.0736660967129 -0.0564523368754 -1.51486445778e-23)
(0.0757016713518 -0.050118665083 -7.40651220481e-24)
(0.0781254480718 -0.0652743269342 2.82104081394e-24)
(0.080167128078 -0.0583609909313 1.40711269598e-23)
(0.0852154945039 -0.0671949873633 -2.93416033485e-24)
(0.0622630600651 -0.00561681184828 1.71206192573e-21)
(0.0638648249971 -0.00364653132882 9.71788156919e-23)
(0.064213161099 -0.0115011181141 1.75236151454e-21)
(0.0664502491577 -0.00761748548725 1.60262592065e-21)
(0.0657987516614 -0.0175397840426 1.33579555724e-22)
(0.0679258784986 -0.0136214290386 5.60477106305e-22)
(0.0678439217182 -0.0237730749014 -9.02785554523e-23)
(0.0697909847067 -0.0195301057522 -5.67974378152e-23)
(0.0704613044069 -0.0302644625063 1.74599915721e-23)
(0.0722429337547 -0.0255685670819 7.39020414715e-25)
(0.0736739353843 -0.037082851117 -5.87966627666e-24)
(0.075319123966 -0.031888663801 -7.63366426713e-25)
(0.0774916363118 -0.0442998769453 -5.45299755001e-24)
(0.0790321940444 -0.038570161543 -2.92440030332e-23)
(0.081922296959 -0.0519900593223 2.18132593328e-23)
(0.0833919091826 -0.045684045205 2.09074365173e-23)
(0.0869722945349 -0.0602304156683 8.31592581105e-24)
(0.0884071442841 -0.0533067943729 1.10623150723e-23)
(0.0940845171362 -0.0615171898317 -6.07241077623e-24)
(0.0677070357972 -0.00501319604409 -1.22571893967e-23)
(0.06887771237 -0.00328387082266 -1.00698205146e-21)
(0.0698688818024 -0.0102869034156 4.10741512412e-22)
(0.0717234310144 -0.00666953917103 -2.47321649635e-23)
(0.0716272154409 -0.0157117045208 3.70100112766e-22)
(0.0733501446299 -0.0120289665475 6.21756873096e-22)
(0.0738956103727 -0.0213253853658 3.42201380518e-23)
(0.0754042832712 -0.0172814600873 -2.26056635939e-22)
(0.0768016233196 -0.0271893674583 -1.74843375841e-23)
(0.0781067924572 -0.0226619287074 -9.55863235915e-24)
(0.080372741334 -0.0333713448535 -2.41277031833e-23)
(0.081501273216 -0.0283143839323 -2.86325728406e-23)
(0.0846218540436 -0.0399427251846 -2.88356896595e-24)
(0.0856038665799 -0.0343173792131 -6.14479366755e-24)
(0.0895599853745 -0.0469786624845 1.01564922567e-23)
(0.090427964525 -0.040741942222 1.31591943197e-24)
(0.0951967457925 -0.0545583255039 -3.32602151502e-24)
(0.0959860422836 -0.0476657679814 1.19196323462e-23)
(0.10228900956 -0.0551700499489 -2.10932460362e-23)
(0.0725130414437 -0.00435021828486 -1.01945702702e-21)
(0.0732269802941 -0.00288690265547 -1.8947563324e-21)
(0.0748805979262 -0.00895172221601 1.86283195721e-22)
(0.0763237262927 -0.00563465383158 1.47991217418e-21)
(0.0768062900269 -0.0136992876073 2.56001243918e-23)
(0.0780965370152 -0.0102880216257 2.79334680561e-22)
(0.0792901095649 -0.0186278070698 -2.69835406349e-22)
(0.0803318730584 -0.0148202004271 -3.38441724662e-22)
(0.0824751317999 -0.0237962074051 -2.07068676156e-23)
(0.0832746442139 -0.0194766808722 -9.95489597865e-24)
(0.0863941533712 -0.0292705631537 -1.06496633249e-23)
(0.0869754485562 -0.0243923008163 -1.82919475743e-23)
(0.0910641070093 -0.0351215547996 -1.94530526963e-24)
(0.0914549105947 -0.0296438107977 -3.91529618729e-23)
(0.0965002822062 -0.041424905921 3.07905952139e-24)
(0.0967310242084 -0.03530182245 -1.43078795172e-23)
(0.102716798941 -0.0482612975978 -5.84759217499e-24)
(0.102821573132 -0.0414449623234 -3.87535624643e-23)
(0.109742397013 -0.048156745116 -3.9921389573e-23)
(0.0766216640315 -0.0036303457482 6.04612868809e-22)
(0.0768556183394 -0.00245688936133 -1.80089744149e-21)
(0.0791869673597 -0.00750081103208 1.57296365902e-21)
(0.0801921774771 -0.0045175650531 2.98427450902e-21)
(0.0812725278152 -0.0115104632054 -8.47071684929e-23)
(0.0821042369831 -0.00840641294449 2.40964980488e-22)
(0.0839612816621 -0.0156905490353 -7.8561214291e-23)
(0.084510320313 -0.012156967728 -6.82238196661e-23)
(0.0874124440383 -0.0200968169569 -7.53997593736e-24)
(0.087679729852 -0.0160257584097 -4.34770156518e-23)
(0.0916650103575 -0.0247930009339 -4.67952461224e-23)
(0.0916709339998 -0.020136828737 -1.85235955055e-23)
(0.0967410157008 -0.0298485284054 -5.15155361205e-23)
(0.0965099779336 -0.0245642999372 -5.43407300374e-23)
(0.1026612908 -0.0353389867342 -5.61405015029e-23)
(0.102220815057 -0.0293776820266 -5.37163063629e-23)
(0.109445986535 -0.0413468659413 -7.28273598623e-23)
(0.108827602524 -0.034656004437 -7.29101677124e-23)
(0.116353791016 -0.0404847935432 -6.60312310754e-23)
(0.0799766613725 -0.00285717064901 5.78764198721e-22)
(0.0797102270813 -0.00199573964463 -1.5383217587e-21)
(0.0827298025116 -0.00594135577728 1.65227583049e-21)
(0.0832734440406 -0.00332465310049 2.01464244003e-21)
(0.084965346204 -0.00915580984795 2.57448329315e-22)
(0.0853158429296 -0.00639443329894 4.96858726979e-22)
(0.0878452929498 -0.0125271409697 -3.31396210269e-23)
(0.0878791502486 -0.00930567902868 8.26036890738e-23)
(0.091545668547 -0.0161069515505 -5.446063522e-23)
(0.0912575619356 -0.0123261553027 -5.8457434804e-23)
(0.0961126064226 -0.0199557540635 -2.60690794205e-23)
(0.0955182741911 -0.0155671936555 -4.30015974261e-23)
(0.101574391836 -0.0241407439823 -5.65415002798e-23)
(0.100693860339 -0.0190991782375 -5.08650422347e-23)
(0.107958814223 -0.0287368739131 -7.04859725724e-23)
(0.106815428115 -0.0229895419652 -4.5525128856e-23)
(0.115293792553 -0.0338272621762 -6.61140389255e-23)
(0.11391557508 -0.0273168636131 -8.19575297859e-23)
(0.1220265148 -0.0321679943559 -2.46000885566e-23)
(0.0825259882196 -0.00203541282988 -1.02443517398e-22)
(0.0817421775459 -0.00150600453453 -1.29424697202e-21)
(0.0854549673494 -0.004282688096 8.59225336521e-22)
(0.0855168615551 -0.00206406273444 3.8912216275e-21)
(0.0878278673444 -0.00664900383693 3.22014086738e-22)
(0.0876783633481 -0.00426519930544 5.66378186297e-23)
(0.0908814375254 -0.00915511799167 5.72858752968e-23)
(0.0903818289191 -0.00628410638783 2.57641057306e-23)
(0.0948092272925 -0.0118473107286 -4.69983970101e-23)
(0.0939468873409 -0.00839974878826 5.29223256665e-24)
(0.0996654703195 -0.0147816258418 -6.77975602403e-23)
(0.0984503813508 -0.0107085482113 -4.52728277558e-23)
(0.105485781601 -0.0180219103647 -3.9848670811e-23)
(0.103932361621 -0.0132758002934 -6.85450254367e-23)
(0.112306471726 -0.0216411987812 -5.69966860695e-23)
(0.110432216613 -0.0161653669735 -1.80797048427e-23)
(0.120165315251 -0.0257228305169 -4.04435794169e-23)
(0.117992853268 -0.0194540242877 -6.52477770492e-23)
(0.126658521966 -0.0232287631001 -5.44388854822e-24)
(0.0842229369015 -0.00117101301832 2.69941817287e-21)
(0.0829088709089 -0.000990954750596 -1.24114261927e-21)
(0.0873134588566 -0.00253656119259 3.0886341096e-21)
(0.0868776815789 -0.000745938247522 1.75311419699e-21)
(0.0898079714098 -0.00400728727099 -2.39612162378e-22)
(0.0891444207481 -0.00203505497132 -4.49812795989e-22)
(0.0930132252766 -0.00559671514314 -2.62295369995e-23)
(0.0919669899385 -0.00311447253527 -2.10788022144e-22)
(0.0971407968549 -0.00734441438136 7.0178018209e-24)
(0.0956910355125 -0.00427433198924 -7.70028922816e-24)
(0.102253734721 -0.00930056465418 -4.60202929523e-23)
(0.100403026432 -0.00559355692977 -1.93378958768e-23)
(0.108396684913 -0.011524248481 -4.67760594684e-23)
(0.106151591722 -0.00713001657765 -7.61377688953e-23)
(0.115616115069 -0.0140844620638 -2.63307958224e-23)
(0.112987898811 -0.00894264234664 -1.21925829288e-23)
(0.123961744402 -0.0170631794368 -3.02480861805e-23)
(0.120965239905 -0.0111045348294 -3.30288918552e-23)
(0.130143058709 -0.0137011193019 -4.00295058441e-23)
(0.0850269099384 -0.000271344159023 -2.18744659515e-21)
(0.0831739747454 -0.000454587162002 -2.12231175882e-21)
(0.0882623678948 -0.000717532941816 -1.7853327086e-21)
(0.0873174181503 0.000617596334207 -2.20809030041e-21)
(0.0908595291565 -0.00125196197579 -4.20988655755e-22)
(0.0896733008098 0.00027623971537 -4.98310345754e-22)
(0.0941890914597 -0.00187957421264 -1.92258774372e-22)
(0.092589807031 0.000175458901637 -2.70541628879e-22)
(0.0984816347192 -0.00263244670323 -3.40559869258e-23)
(0.096436865985 1.52396403674e-05 -2.10600009928e-23)
(0.1038107495 -0.00355183029156 -4.94553718197e-23)
(0.101315599379 -0.000262689269621 -4.2760781183e-23)
(0.110230898623 -0.00468887725746 -4.15542923557e-23)
(0.107283805168 -0.00070727117317 -8.61513948564e-23)
(0.117800133113 -0.00610978903208 -1.88906789616e-23)
(0.12658200415 -0.00789024236867 -4.28103115188e-23)
(0.0849051828221 0.000654970080236 -2.14295546408e-21)
(0.0825105442477 9.84383512616e-05 -3.02247371057e-21)
(0.0882664446803 0.00115750234547 -9.21067937562e-22)
(0.0868072007199 0.00201220438419 -1.96081859336e-21)
(0.0909427461256 0.00159126212924 -3.47863318878e-22)
(0.0892324244894 0.00264436761734 -3.55763203869e-22)
(0.0943636923141 0.00196043974603 -9.93428554997e-23)
(0.0922097173299 0.00355251824272 -1.54235012166e-22)
(0.0987801386685 0.00224756673516 -2.976479525e-23)
(0.0961419650471 0.00442774960549 1.65645857868e-23)
(0.104275735838 0.00241797052213 -7.94568042196e-23)
(0.0838349403307 0.00159812365348 -2.84033683985e-21)
(0.0872995404315 0.00306765747123 -1.39551385967e-21)
(0.0900277935528 0.00448928027173 -1.62134897157e-22)
(0.0877984748979 0.0050411791934 -2.32685190701e-24)
(0.0935019074419 0.00588591687072 -3.83275708798e-23)
(0.0908042508257 0.0069780206422 -6.846609396e-23)
(0.0880966648428 0.00740904180149 9.13419512903e-23)
)
;

boundaryField
{
    back
    {
        type            calculated;
        value           uniform (0 0 0);
    }
    sides
    {
        type            calculated;
        value           uniform (0 0 0);
    }
    bottom
    {
        type            calculated;
        value           uniform (0 0 0);
    }
    front
    {
        type            calculated;
        value           uniform (0 0 0);
    }
    atmosphere
    {
        type            calculated;
        value           nonuniform List<vector> 0();
    }
    floatingObject
    {
        type            calculated;
        value           nonuniform List<vector> 0();
    }
    procBoundary2to0
    {
        type            processor;
        value           nonuniform List<vector> 
14
(
(0.114402518919 -0.0013703615694 -8.62092047667e-24)
(0.122739500173 -0.00231900984893 -3.32890693146e-23)
(0.132369718003 -0.00363432864929 -6.55490609307e-23)
(0.101137919902 0.00523412513977 -4.69131012352e-23)
(0.110915383941 0.00243041117138 -5.32180229774e-23)
(0.10726441185 0.00593466131347 -7.13914758427e-23)
(0.0809026817953 0.000662342380784 -1.67376158868e-21)
(0.0853277960445 0.00342048210648 -5.2856403011e-22)
(0.0979919470491 0.00724578755351 -5.83720198431e-25)
(0.0947714843229 0.00891273298268 3.09945484648e-24)
(0.0853466222949 0.00498804392141 8.64622977648e-22)
(0.085362812934 0.00743547669782 3.60837597055e-22)
(0.091578970439 0.00984624711358 -2.70390682337e-23)
(0.0883562235814 0.0104065289957 -5.45175601829e-23)
)
;
    }
    procBoundary2to1
    {
        type            processor;
        value           nonuniform List<vector> 
18
(
(0.00623003008935 -0.0689625879412 1.1640769832e-21)
(0.0150619442295 -0.0709421831377 2.41912165188e-23)
(0.0254964843349 -0.070316208186 2.47185436064e-22)
(0.0317472267155 -0.0746725954546 6.84369238246e-22)
(0.0380495916016 -0.0791341721331 6.9315583143e-22)
(0.0446737924533 -0.0832076197429 3.98764728833e-22)
(0.0516470779607 -0.0873714083969 1.92430168945e-23)
(0.0625463509289 -0.0838611042775 4.66339897786e-24)
(0.0730691586013 -0.0796464966165 -2.27930557333e-23)
(0.0831292154261 -0.0747271028841 -1.56401336948e-23)
(0.0926456361358 -0.0691005066472 9.79287168491e-24)
(0.101539296538 -0.0627638456379 -1.25659341818e-23)
(0.109725433503 -0.0557165072145 -1.35482955939e-23)
(0.117113241118 -0.0479605446661 -2.80767836362e-23)
(0.123605946128 -0.0395036299681 -4.40198017251e-23)
(0.129100049538 -0.0303600126825 2.63862884681e-23)
(0.133484999061 -0.0205542756847 1.94206210816e-23)
(0.136644549008 -0.0101252851652 -2.00320758219e-23)
)
;
    }
}


// ************************************************************************* //
