/*--------------------------------*- C++ -*----------------------------------*\
| =========                 |                                                 |
| \\      /  F ield         | OpenFOAM: The Open Source CFD Toolbox           |
|  \\    /   O peration     | Version:  v2012                                 |
|   \\  /    A nd           | Website:  www.openfoam.com                      |
|    \\/     M anipulation  |                                                 |
\*---------------------------------------------------------------------------*/
FoamFile
{
    version     2.0;
    format      ascii;
    class       surfaceVectorField;
    location    "4";
    object      Uf;
}
// * * * * * * * * * * * * * * * * * * * * * * * * * * * * * * * * * * * * * //

dimensions      [0 1 -1 0 0 0 0];


internalField   nonuniform List<vector> 
302
(
(-0.0334416087616 0.0149448503237 1.49651275231e-23)
(-0.0343489070413 0.0137144952288 1.32940336649e-23)
(-0.03380226487 0.0171108781942 1.09373533254e-23)
(-0.0347364821964 0.0158315237648 1.71775624199e-23)
(-0.0341370987827 0.0194135241548 -1.28695023319e-24)
(-0.0351597639289 0.01808445238 1.40471107313e-23)
(-0.0344392378987 0.0218355701637 -4.61669337008e-23)
(-0.03557365661 0.0204805555876 -1.13381116457e-23)
(-0.0347069994538 0.0244518436057 -9.29801197245e-23)
(-0.0359326573009 0.0230478323093 -7.08604481572e-23)
(-0.0349937630204 0.0272318533172 -1.60644779729e-22)
(-0.0362596520055 0.0257962062876 -1.12269364057e-22)
(-0.035484790005 0.0302263678228 -6.82082127033e-22)
(-0.0367144176242 0.028770860506 -3.07720884322e-22)
(-0.0361554569585 0.033576351335 3.30491011679e-22)
(-0.0375143579682 0.0318911799792 -1.21232749489e-21)
(-0.0357569155462 0.0374105684511 1.12669379446e-21)
(-0.0384943865153 0.0367215558647 -1.23631825838e-21)
(-0.0370972361399 0.0419490802835 -9.73655815621e-22)
(-0.0375266676368 0.0365878863875 -5.39613978573e-21)
(-0.0756523656369 0.0461939057259 -3.11939827865e-21)
(-0.0415662152406 0.0375628179324 -6.11186006794e-21)
(-0.00491575757401 0.0829530872925 -4.15581174628e-21)
(-0.128642820998 0.0503239488866 -1.25089924828e-20)
(-0.0445156644448 0.127860580995 -6.22345354949e-21)
(-0.0346661035356 0.0105612322402 -4.49842181883e-24)
(-0.0354135470923 0.00942545532908 -8.54535685041e-24)
(-0.0350852587202 0.0125022207082 5.07766732383e-24)
(-0.0358583113029 0.0112933777593 6.6078707702e-25)
(-0.0355475675154 0.0145226091201 1.55064685618e-23)
(-0.0363692984315 0.0132594703246 3.84213613398e-24)
(-0.0360398734287 0.0167162652349 2.02873198259e-23)
(-0.036930125517 0.015356826158 1.78216363954e-23)
(-0.0365346314012 0.0190501290179 3.99594931883e-24)
(-0.0374935933604 0.0176225478448 1.10169037332e-23)
(-0.0369997424059 0.0215454376457 -3.60316261021e-23)
(-0.0380689117788 0.0200707236658 1.68324122442e-24)
(-0.0374415005548 0.0242625669234 -9.01496924896e-23)
(-0.0386497123406 0.0227198835409 -5.86107365406e-23)
(-0.0379250273684 0.0271869241692 -2.5934546865e-22)
(-0.0391839251282 0.0256058461154 -2.06522002149e-22)
(-0.038663108569 0.0302934838159 -8.3796625218e-22)
(-0.0398208913915 0.0287846530815 -7.41556272697e-22)
(-0.0398438100656 0.0338801994926 -2.77913676495e-21)
(-0.0411010012917 0.0320846777216 -2.75920181997e-21)
(-0.0402671257645 0.0381427759262 -7.75915183857e-21)
(-0.0427569154054 0.0372986270554 -4.88642868742e-21)
(-0.0419608786852 0.0433681919246 -1.05343440381e-20)
(-0.0427520975954 0.0381615168451 -1.35496035218e-20)
(-0.0875332328036 0.0485247109062 -1.55014542721e-20)
(-0.046722267929 0.0399678814017 -1.12914319369e-20)
(-0.073205902845 0.0584579648998 -1.4576634286e-20)
(-0.138567547969 0.0479910814171 -2.1535043824e-20)
(0.0506527500473 0.0170907616962 -5.43330882656e-20)
(-0.0369393154051 0.00167620146639 1.01335831694e-22)
(-0.0383003640634 0.000841464379578 6.58131472024e-24)
(-0.0372570370347 0.00244547500867 2.70249583673e-22)
(-0.036094667139 0.00832038323389 4.09916312015e-24)
(-0.036777265349 0.00724094882233 1.84696595132e-23)
(-0.0365338807565 0.0101066901935 -3.38614795457e-24)
(-0.0371999378123 0.00894717710595 -1.56392384529e-24)
(-0.0370638708156 0.0119943898153 -5.74744112822e-25)
(-0.0377460664235 0.0107487500419 4.97564883222e-24)
(-0.0376550546201 0.0140069715692 6.15730396763e-24)
(-0.0383819103777 0.01266967005 -1.09020676721e-23)
(-0.0382918657056 0.0161634715117 8.55122030276e-24)
(-0.0390866311687 0.0147359585236 -4.12385972597e-24)
(-0.0389627208592 0.018532574895 8.70419563882e-24)
(-0.0398626758644 0.016983021635 -6.34106737773e-24)
(-0.039632286367 0.0210990748427 -2.08958692141e-23)
(-0.0406353649601 0.0194561841764 -2.98445648852e-23)
(-0.0402868518153 0.0238780839486 -1.749830462e-22)
(-0.0414286524395 0.0221828940939 -4.97748314538e-23)
(-0.0410226859997 0.027044555321 -6.88732806196e-22)
(-0.0423503145695 0.0251880726694 -3.44014949149e-22)
(-0.0420906790515 0.0304806787552 -2.66279184048e-21)
(-0.0432569320509 0.0285918668651 -1.23473872677e-21)
(-0.0438516893956 0.0342189891505 -4.86649374243e-21)
(-0.0448392407806 0.0321503636924 -4.00490279185e-21)
(-0.0452391416399 0.0388244131728 -1.06768803707e-20)
(-0.0473622928861 0.0377979939096 -6.28268807926e-22)
(-0.0475533276931 0.0445292257458 -1.43066914207e-20)
(-0.0484569054123 0.0393793082614 -1.50291719217e-20)
(-0.0945575667916 0.0505939538165 -1.73250214887e-20)
(-0.052786601429 0.0419753363876 -1.61065268994e-20)
(-0.0325201236274 0.065538832143 -6.12914978035e-20)
(-0.153516433265 0.0490740068142 -2.55529785318e-20)
(0.1554227409 -0.0140040789426 -6.93997082807e-20)
(-0.0385433890855 0.00157821469984 1.75495066699e-22)
(-0.039878670697 0.000793273900441 -1.47675346426e-22)
(-0.0377127846644 0.00311641673259 2.20608579692e-22)
(-0.038795354616 0.00227829525481 9.47259696491e-23)
(-0.0373614915781 0.00465171790729 1.26152979089e-22)
(-0.0381951897416 0.00373408113429 5.22058198501e-23)
(-0.0374379560129 0.00621611433458 6.70258055274e-23)
(-0.0381064328643 0.00523021962502 8.3135434254e-23)
(-0.0378005944223 0.00783074186261 1.28065725478e-23)
(-0.038392008501 0.00676025252697 1.40091189486e-23)
(-0.0383345929527 0.00953773588691 6.7978729415e-24)
(-0.0389070267769 0.00837017697959 -5.04057109783e-24)
(-0.0389859012167 0.0113596323006 -5.35167472703e-24)
(-0.0395680355529 0.0100844035494 6.87446429427e-24)
(-0.0397294434636 0.013321228851 -2.11832313657e-23)
(-0.0403435535369 0.0119289017786 -1.44956301481e-23)
(-0.0405448657795 0.015454443933 -1.90161474065e-23)
(-0.0412198648005 0.0139336824011 -1.77912646125e-23)
(-0.0414197203209 0.0177774302997 -4.48898279017e-23)
(-0.0421856500601 0.0161317945047 -2.13038289072e-23)
(-0.0423455270844 0.0203964088886 -5.87235271249e-23)
(-0.0432543029616 0.0185736284357 -5.14405022585e-23)
(-0.0433095396169 0.0233055547185 -2.18806734403e-22)
(-0.0443377339747 0.021320327602 -5.57254137421e-23)
(-0.0443930630381 0.0265123352448 -8.9002086972e-22)
(-0.0455570178505 0.0243991158262 -3.7145729978e-22)
(-0.0458950669121 0.0302706548875 -2.57684967814e-21)
(-0.047015173626 0.0279375800368 -1.22130063431e-21)
(-0.0482033587992 0.0344707909103 2.33322142654e-22)
(-0.0490393103501 0.0317324385319 -3.48737081089e-21)
(-0.0504138816209 0.0391838278183 -4.98056035895e-21)
(-0.0520752862138 0.0378288975927 3.01761491748e-21)
(-0.0531619912635 0.0448701685726 -1.68290074005e-20)
(-0.0541432062987 0.0400688221969 -7.8511671378e-21)
(-0.0948364908655 0.0500766281751 -2.43344839425e-20)
(-0.0579934626782 0.0437215843258 -1.64012585473e-20)
(0.0602526957864 0.0245871465371 -3.3661189009e-20)
(-0.128027305885 0.048870840791 -3.09251262836e-20)
(0.248587556168 0.15543949063 -2.70366881689e-20)
(-0.0400444101097 0.00145378244017 -2.28444443476e-22)
(-0.041332540755 0.000736955408787 -4.7786722039e-22)
(-0.0391948792347 0.00288151299321 -7.36767901927e-23)
(-0.040223186287 0.00208607656685 -1.89098570708e-22)
(-0.0388542440104 0.00430045133133 9.18827501508e-24)
(-0.039614241772 0.0034174328574 -6.01909723838e-23)
(-0.0389749232248 0.00574786267062 3.01187476753e-23)
(-0.0395539605392 0.00479236285776 5.5982506145e-23)
(-0.0394128010651 0.0072600323722 -3.83802469702e-24)
(-0.0399042886516 0.00620291653644 1.48703125192e-23)
(-0.0400506896636 0.00886617745412 -4.96397974506e-24)
(-0.0405132694766 0.0076954970987 7.58167773491e-24)
(-0.0408325796555 0.0105888100111 -2.26949112678e-24)
(-0.0412907467017 0.00929509824029 3.05525860882e-24)
(-0.0417382236842 0.0124622345566 -1.11036633949e-23)
(-0.0422170316533 0.0110271667758 -6.44224237393e-24)
(-0.0427563699788 0.0145167058438 -2.00789461131e-23)
(-0.0432743604712 0.01292612486 9.72263921656e-24)
(-0.0438752697392 0.0167994424799 -2.78545032639e-23)
(-0.0444683799709 0.015031685965 -1.17485977554e-23)
(-0.0450966295931 0.0193398624838 -4.84423888757e-23)
(-0.0457946874517 0.0173874744811 -2.66323559085e-23)
(-0.0464419670422 0.022251473791 -2.08375979119e-22)
(-0.0472492872578 0.0200609726608 -5.89601241694e-23)
(-0.0479748790676 0.025582678316 -7.0273706437e-22)
(-0.0488881522146 0.0231216748705 -3.41348365218e-22)
(-0.0499703939866 0.0294090068595 -2.13182176706e-21)
(-0.0508414318425 0.026671214126 -9.73301674211e-22)
(-0.0527529107159 0.0338400720759 -7.03078036057e-22)
(-0.0534703160275 0.03056402983 -3.39112718368e-21)
(-0.0557732649875 0.0388751149986 1.47008138628e-22)
(-0.0571102897653 0.0368521336727 1.33369539127e-21)
(-0.0595332515143 0.0451275775718 -7.42341828468e-21)
(-0.0603956791102 0.0394315547056 -2.37999601552e-21)
(-0.104162317088 0.0532245468135 -2.29919008884e-20)
(-0.0660901192429 0.044497147894 -1.20063320223e-20)
(-0.0132269368159 0.0931129302516 -2.43006254435e-20)
(-0.167913543144 0.0469492028474 -3.44016151056e-20)
(-0.210696825663 0.295226764438 -6.05139714272e-21)
(-0.0414221315407 0.00131679422729 -4.38521347622e-22)
(-0.0426494152348 0.000672226902015 -5.94140156605e-22)
(-0.0405540681366 0.00261147703498 -1.75612752899e-22)
(-0.0415179568358 0.00186961999423 -2.49854954238e-22)
(-0.0402236904939 0.00389914558778 -1.33967412539e-23)
(-0.040902006531 0.00305958232228 -4.3460734473e-23)
(-0.0403907610298 0.00521659413447 4.0734070989e-23)
(-0.0408715098693 0.00429430101964 5.7155328101e-23)
(-0.0409069420778 0.00659873183201 2.62900149512e-23)
(-0.0412865254794 0.00556450644672 2.55205574161e-23)
(-0.0416519407567 0.00807839458146 1.56009160888e-23)
(-0.0419930226905 0.00691378270172 1.76062805214e-23)
(-0.0425693919722 0.0096719001209 -1.11749263833e-24)
(-0.042884326739 0.00836901874961 1.04995948242e-23)
(-0.0436423465627 0.0114153135726 1.43840602375e-23)
(-0.0439604970254 0.0099560723234 1.44197991928e-23)
(-0.0448684831255 0.013345881373 1.80529875743e-23)
(-0.0452049528352 0.0117087256235 3.25518719461e-23)
(-0.0462505564984 0.0155082957008 -1.05264503999e-23)
(-0.0466307898847 0.0136661289268 1.30039133523e-23)
(-0.0477935850689 0.0179512908956 -3.71500912021e-23)
(-0.0482376517212 0.0158763146258 -1.06794749621e-23)
(-0.049532899326 0.0207542082928 -1.91932510268e-22)
(-0.0500521538115 0.0183990839295 -4.16930416858e-23)
(-0.0515725606021 0.0240086053115 -6.11912975059e-22)
(-0.0521424881759 0.0213031727311 -2.50310662598e-22)
(-0.0541234037198 0.0278391227697 -2.23260709083e-21)
(-0.0546718885507 0.0247034121319 -7.21612738743e-22)
(-0.0574172692834 0.0322030664368 -1.35435375636e-21)
(-0.0578342081401 0.0284381117143 -1.8017111543e-21)
(-0.0612174827785 0.036961792374 -1.19330876288e-21)
(-0.0618689807249 0.0344939111151 5.49461036556e-22)
(-0.0663429922718 0.0426360117425 -6.96290975314e-21)
(-0.0660698929762 0.0368586360815 -5.86798261999e-21)
(-0.124166308201 0.0494092792775 -2.34160462395e-20)
(-0.07286323447 0.0432879177036 -8.40808943078e-21)
(-0.351175963645 0.0720111910055 -1.61523868048e-20)
(-0.190518221612 0.0449139611014 -2.66005319437e-20)
(-0.527856729412 0.0762086890762 5.3912598683e-21)
(-0.0426542379837 0.00116531951275 -4.05473763222e-22)
(-0.0438147956917 0.000594785981236 -5.19984226903e-22)
(-0.0417719896794 0.00230854502783 -1.17702935812e-22)
(-0.0426612482972 0.0016254507963 -1.89398888701e-22)
(-0.0414530455021 0.00344646470811 2.70913348819e-23)
(-0.0420399999575 0.00265932858312 1.4459569123e-23)
(-0.0416664605635 0.00461342178343 4.19418145281e-23)
(-0.04203854746 0.00373494217951 8.58695521599e-23)
(-0.0422595897828 0.00584558549634 1.68368229864e-23)
(-0.0425187722708 0.00484365367746 3.39019679161e-23)
(-0.0431095385729 0.00716025457101 1.25049592568e-23)
(-0.0433077710516 0.00602516153708 8.19650226834e-24)
(-0.0441609194721 0.00859789416366 2.60368866553e-23)
(-0.0443220342584 0.00730820875802 8.86226431164e-24)
(-0.0454002119711 0.0101797650439 3.25876109014e-23)
(-0.0455424169559 0.00871835399594 1.57420330198e-23)
(-0.0468318962738 0.011943540157 2.75027977241e-23)
(-0.0469687525429 0.0102861554753 2.53675089595e-23)
(-0.0484684182418 0.0139245198213 1.28508887901e-23)
(-0.0486117670327 0.0120470327028 1.6149417362e-23)
(-0.0503313163488 0.0161812467814 -1.52224254458e-23)
(-0.0504943510855 0.0140454317723 1.10606830518e-23)
(-0.0524690441906 0.0187839090807 -1.00071194016e-22)
(-0.0526547700275 0.0163335980417 1.0904695866e-24)
(-0.0549942590037 0.0218063952968 -3.60010426282e-22)
(-0.0551649190864 0.0189684913371 -1.18766228582e-22)
(-0.0580783421881 0.0253059298215 -2.9071680221e-22)
(-0.0581713675366 0.022060493853 -3.54884428069e-22)
(-0.0618353684415 0.0293321918552 1.02103638614e-22)
(-0.0618604210601 0.0253527290333 -1.15106574544e-21)
(-0.0661095932363 0.0335276906354 -4.12521282056e-21)
(-0.0660644432226 0.0308369442409 1.85979983339e-21)
(-0.0717045521268 0.0381979236834 -7.31316229762e-21)
(-0.0707400997612 0.0327694990692 -4.89232707506e-21)
(-0.127723881783 0.0428609385679 -1.1592575135e-20)
(-0.0775264313342 0.0400996653024 -3.86126538543e-21)
(-0.318964292073 0.0270117894945 -5.0568852706e-21)
(-0.174665539158 0.0399881480623 -9.22417915054e-21)
(-0.315057816188 -0.075491202757 -8.17083612166e-21)
(-0.0437268890254 0.000999251494121 -3.03909352383e-22)
(-0.044814080442 0.000507655270215 -3.69179526871e-22)
(-0.0428304214215 0.00197224596811 -5.72363837662e-23)
(-0.0436342815817 0.00135699228132 -1.01598622447e-22)
(-0.0425238267884 0.00294228830619 7.3237786401e-23)
(-0.0430100914376 0.00221842021703 3.01277488478e-23)
(-0.0427824201529 0.0039404638309 7.78297055479e-23)
(-0.0430367832954 0.00311638527527 1.05767382099e-22)
(-0.0434504856758 0.00499459628314 2.52616471981e-23)
(-0.0435729730858 0.00404337142489 4.32247003282e-23)
(-0.044400440991 0.00613261858402 4.55380732316e-24)
(-0.0444458634302 0.00503734236279 6.84922630039e-24)
(-0.0455773745645 0.00738143006785 -1.43258932383e-24)
(-0.0455709088138 0.00612462141754 -7.87094239637e-25)
(-0.0469724689026 0.00876348490263 8.52193107794e-24)
(-0.0469245215632 0.00732724396685 -1.21861961983e-23)
(-0.0485980359246 0.0103167737691 1.40141285974e-23)
(-0.0485220664016 0.00867159482702 6.04918594191e-24)
(-0.0504740860597 0.0120692225488 1.43592116237e-23)
(-0.0503642132087 0.0101902635506 9.67179817168e-24)
(-0.052632743632 0.0140747286757 2.73735780842e-23)
(-0.0524998296494 0.0119197117937 9.88314518009e-24)
(-0.0551326590953 0.0163803374864 -1.76045649798e-23)
(-0.0549603335006 0.0139014263872 4.52242797136e-23)
(-0.0580841534991 0.0190481704121 -1.13640230369e-22)
(-0.0578326976631 0.0161788997977 -3.27152600799e-23)
(-0.061623143247 0.0221261587406 -1.2152333713e-21)
(-0.0612492991482 0.0188336140395 -4.31703218819e-23)
(-0.0656218994225 0.0255730317588 6.0663044933e-22)
(-0.06530724056 0.0215641783264 -1.87968208309e-21)
(-0.0699596152321 0.0289430670376 1.09268557888e-21)
(-0.0694344367732 0.0262974430591 2.71089528657e-21)
(-0.0753657488507 0.0320771215122 -1.44043016287e-21)
(-0.0738741426025 0.0279053316904 -4.65768315657e-21)
(-0.121807549539 0.0344880721285 -1.49286940097e-21)
(-0.0799373595386 0.035710226313 -4.75844369468e-21)
(-0.176977965556 0.0212198034521 -1.23381300016e-20)
(-0.161394737852 0.0313529307294 -1.08393489843e-20)
(-0.174888440136 -0.0427284763079 -3.14837059446e-20)
(-0.0446213049264 0.000813605966946 -1.66868796935e-22)
(-0.0437121828686 0.00160464975927 -1.4234489833e-23)
(-0.0434168990442 0.0023898446392 6.26573445456e-23)
(-0.0437166926533 0.00319940718485 7.11623768791e-23)
(-0.0444527217311 0.0040602978639 2.48122794305e-23)
(-0.0454942246417 0.00499721056092 1.5083247376e-24)
(-0.0467872808926 0.00603123879238 -1.15407011141e-23)
(-0.0483255040835 0.00718627878616 -1.46589413344e-23)
(-0.0501243176519 0.00848397879036 1.70685551615e-24)
(-0.052210701041 0.00996211281245 5.19573172806e-24)
(-0.0546242817278 0.0116504222237 2.77338468095e-23)
(-0.0574286498101 0.013589408247 3.01135846134e-23)
(-0.0607291428334 0.0158291392602 3.77546484069e-23)
(-0.0646007395687 0.0183806471612 -7.07619033668e-22)
(-0.0687052289496 0.0211372451954 2.24582754154e-22)
(-0.0728160940498 0.0238473000081 -3.03947344888e-21)
(-0.0775544543839 0.0260322436685 -7.97569668838e-21)
(-0.117004824406 0.0268401893557 -1.41049232781e-20)
(-0.154289625645 0.0144191448538 -2.99849249273e-20)
)
;

boundaryField
{
    back
    {
        type            calculated;
        value           uniform (0 0 0);
    }
    sides
    {
        type            calculated;
        value           nonuniform List<vector> 0();
    }
    bottom
    {
        type            calculated;
        value           uniform (0 0 0);
    }
    front
    {
        type            calculated;
        value           uniform (0 0 0);
    }
    atmosphere
    {
        type            calculated;
        value           nonuniform List<vector> 9((0.102294848351 0.357517976802 -4.46208104482e-21) (0 -0.0367151127053 0) (0 -0.0392275619026 0) (0 -0.0685747525985 0) (0.119985005287 0.552390352638 -1.59553102535e-20) (-0.523543090935 0.389174585768 3.85251596803e-21) (0 -0.185790334824 0) (0 -0.118951789669 0) (0 -0.038842654147 0));
    }
    floatingObject
    {
        type            calculated;
        value           nonuniform List<vector> 0();
    }
    procBoundary0to1
    {
        type            processor;
        value           nonuniform List<vector> 10((-0.0331516916748 0.0207515315377 -2.04331080374e-23) (-0.0333164951552 0.0232386053732 -7.01549188772e-23) (-0.0334797590079 0.0258602856122 -1.4717611025e-22) (-0.0337200310599 0.0287058454229 -2.05478986427e-22) (-0.0341644730312 0.031711132329 -6.43068273578e-22) (-0.0346602389181 0.0362458136804 3.05760035049e-21) (-0.0329881790611 0.0349609888913 1.35218295605e-21) (-0.037321428402 0.0352310928827 -4.3352623782e-21) (-0.0918851222006 0.0526571851472 -5.03369491123e-21) (0.230058581711 0.122064454198 -3.66194510338e-21));
    }
    procBoundary0to2
    {
        type            processor;
        value           nonuniform List<vector> 
14
(
(-0.0322685557078 0.0140547955649 1.10976458282e-23)
(-0.0325705192246 0.0161756199903 1.06651489619e-23)
(-0.0328572054638 0.0183997090213 1.68745382546e-23)
(-0.0335609551335 0.0098003154518 -9.07320338001e-24)
(-0.0330845731603 0.0128644179059 1.73170755201e-23)
(-0.0339173101815 0.0117129620615 9.10070917903e-24)
(-0.0366240287445 0.000878117734708 -2.89126283757e-22)
(-0.0356162650007 0.00258588448444 3.40302498386e-23)
(-0.0343109192611 0.00870874565428 -2.09668254699e-23)
(-0.0350623209513 0.00764198661347 -8.32230549934e-24)
(-0.0361261312428 0.00331680512363 1.90142606023e-22)
(-0.0366596686201 0.00400731884196 1.40501602042e-22)
(-0.035799546377 0.0066056620114 5.72219896281e-23)
(-0.0365418370712 0.00560808477791 1.05778135642e-22)
)
;
    }
    procBoundary0to4
    {
        type            processor;
        value           nonuniform List<vector> 8((-0.0456276953847 0.000415453113392 -2.61786305613e-22) (-0.0444253394298 0.00106856310409 -6.30210706498e-23) (-0.0437953119837 0.00174166606515 1.58417385266e-24) (-0.0438463854417 0.00244527309948 8.38930072807e-23) (-0.0444339152368 0.0031726237176 3.5748000176e-23) (-0.0453828334225 0.00395959899058 -1.09604898633e-25) (-0.0466049963327 0.00482805816861 -4.22805145329e-24) (-0.0480796089206 0.00579669010883 -1.35237642817e-23));
    }
    procBoundary0to5
    {
        type            processor;
        value           nonuniform List<vector> 
12
(
(-0.0498197953486 0.00688696733126 -7.01065544484e-25)
(-0.0518423479788 0.00812484182256 4.95767430701e-24)
(-0.0541881149238 0.00953879314358 -5.44058086898e-24)
(-0.0568992785694 0.0111598074426 4.56997693679e-23)
(-0.060072377691 0.0130146441779 7.66596470517e-24)
(-0.0638007513807 0.0151627351388 9.50133726572e-23)
(-0.0680637846459 0.0172967825272 -1.42667809348e-21)
(-0.0721444489565 0.0213207085208 1.55388018389e-21)
(-0.0760590744119 0.0231631908983 -4.99909089132e-21)
(-0.0807452880205 0.0317742821395 -7.71812563215e-21)
(-0.14897164959 0.0258625143973 -1.34017849884e-20)
(-0.121628612618 -0.0118385954952 -2.48439148976e-20)
)
;
    }
}


// ************************************************************************* //
