/*--------------------------------*- C++ -*----------------------------------*\
| =========                 |                                                 |
| \\      /  F ield         | OpenFOAM: The Open Source CFD Toolbox           |
|  \\    /   O peration     | Version:  v2012                                 |
|   \\  /    A nd           | Website:  www.openfoam.com                      |
|    \\/     M anipulation  |                                                 |
\*---------------------------------------------------------------------------*/
FoamFile
{
    version     2.0;
    format      ascii;
    class       surfaceVectorField;
    location    "4";
    object      Uf_0;
}
// * * * * * * * * * * * * * * * * * * * * * * * * * * * * * * * * * * * * * //

dimensions      [0 1 -1 0 0 0 0];


internalField   nonuniform List<vector> 
302
(
(-0.0277344913615 0.0142539571551 1.34621455137e-23)
(-0.0287762217311 0.0132608986115 1.2062588113e-23)
(-0.0276761854037 0.0162847076389 1.03227219055e-23)
(-0.0287722116572 0.0152887679237 1.63436140529e-23)
(-0.0275114601711 0.0184281376837 -1.9524603618e-24)
(-0.0287277295747 0.0174366290714 1.35367726321e-23)
(-0.0272212980957 0.0206580855991 -4.75039782302e-23)
(-0.0285842513435 0.0197062090113 -1.19125612754e-23)
(-0.0267882364868 0.0230427536723 -9.44143795248e-23)
(-0.0282804624818 0.0221194156874 -7.52217565402e-23)
(-0.0262478235425 0.0255385751572 -1.60564564588e-22)
(-0.0278214287113 0.0246770609822 -1.11342582921e-22)
(-0.0257649579828 0.0281817365918 -6.42179211326e-22)
(-0.0273474132193 0.0274139719735 -3.01879865845e-22)
(-0.0252926460833 0.0310952137277 4.209827791e-22)
(-0.0270486936863 0.0302357632427 -1.19756910543e-21)
(-0.0234448787123 0.0343648817056 1.18460667503e-21)
(-0.0267306611474 0.0346739995889 -1.20526982192e-21)
(-0.0229000147888 0.0381816044197 -9.68680709413e-22)
(-0.0240259685281 0.0337521793156 -5.09407469862e-21)
(-0.0487315826838 0.041587676586 1.38834127277e-22)
(-0.0259177671827 0.0345505684179 -6.02957337523e-21)
(0.049705960504 0.0569236996629 -3.7133341821e-21)
(-0.0811662359204 0.0475775854862 -9.04484821535e-21)
(0.182056738965 0.083052493949 -8.50329533605e-21)
(-0.029525690846 0.0103530755657 -5.20311370991e-24)
(-0.0303864162783 0.00935801745928 -9.25006067677e-24)
(-0.0296485566999 0.0122509898818 4.99469773314e-24)
(-0.0305637617809 0.0112139350343 3.671786224e-25)
(-0.0297506193058 0.0142213061944 1.49440566522e-23)
(-0.0307462631502 0.013166363653 4.17689471663e-24)
(-0.0298094877113 0.0163577432662 1.95576647794e-23)
(-0.0309091942924 0.0152477796644 1.73699976299e-23)
(-0.0297851131464 0.0186218760186 3.57667171848e-24)
(-0.0309932518668 0.0174940382248 1.11748080894e-23)
(-0.0296306806028 0.0210307582913 -3.96303395853e-23)
(-0.0309952383903 0.0199162114944 1.48102769045e-25)
(-0.0293356558818 0.0236398176284 -9.21499599365e-23)
(-0.0308920177566 0.0225293981531 -6.28566433765e-23)
(-0.0289437498805 0.0264252195005 -2.52657884178e-22)
(-0.0306092286062 0.0253655586514 -2.04321893473e-22)
(-0.0286427470728 0.0293498638071 -8.57269759946e-22)
(-0.0302738640366 0.0284740290055 -7.40365193917e-22)
(-0.0285901011815 0.0327027642853 -2.82382170645e-21)
(-0.0304025484224 0.0316710876629 -2.76704558184e-21)
(-0.0274513662727 0.0366477300593 -7.48395119557e-21)
(-0.0306758486652 0.0367646352723 -5.03918424089e-21)
(-0.0272069086544 0.0414637916775 -1.01549673644e-20)
(-0.0288419571177 0.0369301302845 -1.27094465828e-20)
(-0.0595044441564 0.0463129700648 -1.52132557179e-20)
(-0.0307661084768 0.0385138172144 -1.08535111417e-20)
(0.0202961218051 0.0677215729608 -1.38348093693e-20)
(-0.102563790947 0.0486179984513 -1.9647544904e-20)
(0.10621015189 0.131605654302 -2.47870149359e-20)
(-0.0325231037729 0.00168308511266 9.79887195625e-23)
(-0.0339234515329 0.000846704799275 4.80408572594e-24)
(-0.0328071126375 0.00248682372612 2.76646302416e-22)
(-0.0311786415266 0.00836559894002 2.90250528683e-24)
(-0.0319728802372 0.00737377972059 1.66753026419e-23)
(-0.0313791498914 0.0101667059103 -3.67976834446e-24)
(-0.0321858206114 0.00911961567195 -2.20324244482e-24)
(-0.0316128724732 0.0120719499957 -4.50624394117e-25)
(-0.0324678977707 0.0109661929437 4.04273029137e-24)
(-0.0318420708921 0.0141047075673 6.60283569435e-24)
(-0.0327785927599 0.0129387881996 -9.36376940179e-24)
(-0.0320415862268 0.016283282987 8.98714093984e-24)
(-0.0330881288009 0.0150643132566 -4.40431373352e-24)
(-0.0321876842996 0.0186774764029 7.74623913996e-24)
(-0.0333885777823 0.0173794524425 -7.41034088865e-24)
(-0.0322283204776 0.0212692208386 -2.30782010221e-23)
(-0.0335887000048 0.0199308965809 -2.78141156659e-23)
(-0.0321304552505 0.0240713544944 -1.75028576913e-22)
(-0.033696064063 0.0227460259526 -5.31363699238e-23)
(-0.0319690993159 0.0272605520039 -6.92029203212e-22)
(-0.033800057448 0.0258496343965 -3.46066903231e-22)
(-0.03196546227 0.0307074977974 -2.65014101581e-21)
(-0.033721769323 0.0293641466969 -1.25044400734e-21)
(-0.0324515068684 0.0344341267394 -4.98240811628e-21)
(-0.0341293684131 0.0330340491949 -3.96930949696e-21)
(-0.0322387193849 0.0390234534 -1.02646796281e-20)
(-0.0352649058253 0.0388565804237 -8.69299391094e-22)
(-0.0326903820929 0.0447158982929 -1.340799036e-20)
(-0.0345341547738 0.0399135643124 -1.41514920924e-20)
(-0.0722837087653 0.0510222698634 -1.52878003278e-20)
(-0.037073929461 0.042126720678 -1.62979501721e-20)
(-0.0105883819795 0.0762111116911 -3.05997504706e-20)
(-0.127723774828 0.0498151470886 -1.73941668482e-20)
(0.0757848305057 0.000722116351511 -4.87363157262e-20)
(-0.0341505604687 0.00162367072843 1.83461668579e-22)
(-0.0355454686959 0.000818073927114 -1.44639102191e-22)
(-0.0332455903579 0.00320741098689 2.28304772106e-22)
(-0.0343887794906 0.00237654320006 1.03275105505e-22)
(-0.032799616415 0.00479274822837 1.27398809445e-22)
(-0.0337148213051 0.00389815865965 5.43413056912e-23)
(-0.0327400617372 0.0064120089724 6.61900589774e-23)
(-0.0335144155935 0.00546681275803 8.33651098888e-23)
(-0.0329210541854 0.00808716547409 1.15695549102e-23)
(-0.0336458662699 0.00707669227107 1.29073479372e-23)
(-0.0332227965926 0.00986268306272 5.51925619101e-24)
(-0.0339595316855 0.00877596051814 -5.78352229499e-24)
(-0.0335851126246 0.011762780364 -4.8704147163e-24)
(-0.0343666934759 0.0105913044637 5.40354390748e-24)
(-0.0339752276104 0.0138142012498 -2.03709188297e-23)
(-0.0348293755059 0.0125516155553 -1.32566210994e-23)
(-0.0343626114601 0.0160512239055 -2.0801795562e-23)
(-0.0353252681873 0.0146901170213 -1.88850395543e-23)
(-0.0347223312394 0.0184937399331 -4.29706956946e-23)
(-0.0358319115956 0.0170434442868 -2.30677261182e-23)
(-0.0350299745146 0.0212532378345 -5.78722845676e-23)
(-0.0363494627036 0.0196668449744 -4.84758777778e-23)
(-0.0352516357385 0.0243245898424 -2.24174696243e-22)
(-0.0367687049967 0.0226268640498 -5.83274575994e-23)
(-0.0354463029444 0.0277155852417 -9.04481707356e-22)
(-0.0371919167869 0.0259546794175 -3.75803847557e-22)
(-0.0358849980912 0.0316902363708 -2.56961248849e-21)
(-0.0376965800492 0.0297870796096 -1.24479714668e-21)
(-0.0369294757167 0.0361351165234 1.43799228232e-22)
(-0.0385737682158 0.0339176374931 -3.4409879284e-21)
(-0.0375667315786 0.0411271488972 -4.75611185542e-21)
(-0.0402562680949 0.0404767361884 2.95917217504e-21)
(-0.038767523999 0.0471841897248 -1.70414519045e-20)
(-0.0405908740569 0.0423816893675 -7.66577743506e-21)
(-0.0802219120893 0.0535896083496 -1.84043166925e-20)
(-0.0434805511028 0.0454153756321 -1.72419243625e-20)
(0.0601659838918 0.0504473575205 -3.55307321038e-20)
(-0.124509813182 0.0534017333157 -1.93262733718e-20)
(0.374226153678 0.118971381223 -2.35849220717e-20)
(-0.035713813749 0.00153613442612 -2.24825665266e-22)
(-0.0370799442055 0.000780476142072 -4.7826052707e-22)
(-0.0347920631349 0.00304773258835 -7.06883609101e-23)
(-0.0358984642095 0.00223839938348 -1.86452278183e-22)
(-0.0343618026476 0.00455584079906 1.03076061351e-23)
(-0.0352207729944 0.00367295692944 -5.98108770093e-23)
(-0.0343540231092 0.00610003266061 3.00823988486e-23)
(-0.0350563628951 0.00515983532764 5.58206744581e-23)
(-0.0346200443684 0.00771921421802 -4.44572926797e-24)
(-0.0352628750377 0.00669297708468 1.36205905667e-23)
(-0.0350378700886 0.00944557544348 -5.89923457852e-24)
(-0.0356839623821 0.00832220443653 6.90001323242e-24)
(-0.0355459128571 0.0113049362112 -2.98266247566e-24)
(-0.0362245618413 0.0100761905908 2.1672698133e-24)
(-0.036116672554 0.0133357989688 -1.17707418241e-23)
(-0.0368593609845 0.0119848951909 -6.37242342045e-24)
(-0.0367292926972 0.0155728887135 -2.11509701104e-23)
(-0.0375621776221 0.0140881516418 7.43565230416e-24)
(-0.0373594653397 0.0180691994988 -2.85729082014e-23)
(-0.0383286525051 0.01643207576 -1.27550190388e-23)
(-0.0379937817587 0.020859885355 -4.89310508096e-23)
(-0.039140906044 0.0190679303592 -2.70100876647e-23)
(-0.0386344887679 0.0240684951809 -2.09956608914e-22)
(-0.0399779832657 0.022073121696 -6.16299419453e-23)
(-0.0393202995643 0.0277515555649 -7.16119286878e-22)
(-0.0408751681405 0.0255286960225 -3.42515833874e-22)
(-0.0402990250839 0.0319926358456 -2.11617258659e-21)
(-0.0419372106921 0.0295500499099 -9.93374631666e-22)
(-0.041867901173 0.036913504796 -6.25614981595e-22)
(-0.043493728872 0.0340058573318 -3.38051793011e-21)
(-0.0433726238377 0.0425160665003 4.95065953989e-23)
(-0.0458579642028 0.0410437466372 1.40011005049e-21)
(-0.0456591809431 0.0493719921052 -7.86624989307e-21)
(-0.0474464290763 0.0435849237468 -2.54993795797e-21)
(-0.0911185979375 0.0574799098028 -1.81638810418e-20)
(-0.0515901020538 0.0478025809545 -1.25960196922e-20)
(0.0308908309884 0.0811956162746 -7.38046333967e-21)
(-0.148150794467 0.0565667211802 -2.6619804797e-20)
(-0.164160090548 0.358890361076 6.31822081624e-21)
(-0.0371902944362 0.0014335082762 -4.39887139987e-22)
(-0.0385118459525 0.000733152050621 -5.99916408294e-22)
(-0.0362536678273 0.00284755462025 -1.75574794282e-22)
(-0.0373107447211 0.00207165749081 -2.49706939709e-22)
(-0.0358409032607 0.00426123762322 -1.42978086863e-23)
(-0.0366324962046 0.00339918694125 -4.35766671518e-23)
(-0.0358899345714 0.00571485147935 3.93588661763e-23)
(-0.0365078759134 0.00478215409058 5.65011385044e-23)
(-0.0362482388637 0.00724711354368 2.49663330671e-23)
(-0.0367930161817 0.00621418722163 2.37131651683e-23)
(-0.0367912350945 0.00889527493275 1.49665176242e-23)
(-0.0373301541733 0.00774337756277 1.68588367856e-23)
(-0.0374575956407 0.0106801162138 -1.22249113149e-24)
(-0.0380077878487 0.00940160581026 9.5194779687e-24)
(-0.0382238317306 0.01264364167 1.28339707078e-23)
(-0.0388218031687 0.0112207087942 1.36733076548e-23)
(-0.0390790350963 0.0148300707693 1.58316033758e-23)
(-0.0397481330848 0.01324173634 3.03916089608e-23)
(-0.0400149542618 0.01729254475 -1.1192198502e-23)
(-0.0407911718175 0.015512640746 1.24749764157e-23)
(-0.0410223670416 0.0200901561101 -3.97089788004e-23)
(-0.0419388125628 0.0180923302062 -1.12584125719e-23)
(-0.0421192646619 0.0233153993113 -1.94189166905e-22)
(-0.0432034098025 0.0210541059193 -4.59964943277e-23)
(-0.0433888227271 0.0270762503075 -6.19771178662e-22)
(-0.044635792826 0.024483780534 -2.530432407e-22)
(-0.0450142546924 0.0315188893953 -2.25771997519e-21)
(-0.046379146128 0.0285175465944 -7.34718163897e-22)
(-0.0472014028162 0.036621392169 -1.35479289803e-21)
(-0.048595274377 0.0330258619815 -1.84242756465e-21)
(-0.0496123892578 0.0422852516176 -1.19933450287e-21)
(-0.0515210483161 0.0401043408558 5.07506746563e-22)
(-0.0531662866818 0.049104979898 -7.27970775711e-21)
(-0.0542658273399 0.0428516385703 -6.03163576759e-21)
(-0.104798308022 0.0570087486673 -2.10519434474e-20)
(-0.059495528446 0.0482719390843 -8.77004801525e-21)
(-0.340702582784 0.0737346999315 -1.29211206411e-20)
(-0.164801613873 0.0554091842748 -1.57319316335e-20)
(-0.699043940064 0.125925645116 1.68964330158e-20)
(-0.0385545447025 0.00131340304381 -4.09736208015e-22)
(-0.0398239420434 0.00067129717373 -5.28396318822e-22)
(-0.0376086981837 0.0026080183444 -1.17708812578e-22)
(-0.0386039201766 0.00187164757622 -1.90611081547e-22)
(-0.0372164155266 0.00390525153628 2.72222800389e-23)
(-0.0379280664117 0.00307382638434 1.52680202229e-23)
(-0.0373250604549 0.00524393610786 4.08554374964e-23)
(-0.037844662258 0.00432986523893 8.58282768235e-23)
(-0.0377782042625 0.00666516558618 1.56056688868e-23)
(-0.0382121872357 0.00563504908644 3.25923761189e-23)
(-0.0384494081979 0.00819110588218 1.141179713e-23)
(-0.0388540303792 0.0070343386661 7.73221599215e-24)
(-0.0392791963388 0.009868860411 2.4415276755e-23)
(-0.0396836836543 0.00856269403768 8.18578996294e-24)
(-0.0402485760935 0.0117266499415 3.12309459078e-23)
(-0.0406781504627 0.0102529530457 1.50963290903e-23)
(-0.041354869227 0.0138111120107 2.70349820006e-23)
(-0.0418316945211 0.0121444378957 2.42654237559e-23)
(-0.0426015053849 0.0161681959924 1.24087623458e-23)
(-0.0431478825684 0.014283172242 1.60703400274e-23)
(-0.0439985821657 0.0188704061876 -1.75459280993e-23)
(-0.0446410062468 0.0167269965488 9.40595721114e-24)
(-0.0455803345159 0.0220052970669 -1.04850568122e-22)
(-0.0463383728862 0.019544731235 -2.48051920999e-24)
(-0.047443258817 0.025668038421 -3.67990225935e-22)
(-0.0482984582735 0.022814032914 -1.23208202892e-22)
(-0.0497363572209 0.0299433598662 -3.1942575336e-22)
(-0.050654161568 0.0266720754248 -3.54526073017e-22)
(-0.0525671022876 0.0349206357719 1.98720799348e-23)
(-0.0535721235372 0.0308980465112 -1.14526695442e-21)
(-0.0557148366755 0.0403084370036 -4.32479451816e-21)
(-0.0569085444492 0.0375970867491 1.85507141857e-21)
(-0.0601118574848 0.0465875539814 -7.52197602573e-21)
(-0.0605446669072 0.0401904209784 -4.9890410558e-21)
(-0.112412694161 0.0537169608317 -3.45003620138e-21)
(-0.0666265665233 0.0463639952206 -3.81285382074e-21)
(-0.384309685345 0.051299250527 1.40856220234e-20)
(-0.162378410286 0.0500324677212 1.9398256034e-22)
(-0.373364448115 -0.0882466681471 1.6523972444e-20)
(-0.0397895440905 0.00117502713849 -3.09271192354e-22)
(-0.0409981513442 0.000597664237437 -3.77911016371e-22)
(-0.0388351494244 0.00232718803554 -5.76342487457e-23)
(-0.0397550775844 0.0016410148063 -1.01158904173e-22)
(-0.0384658198691 0.00348553319175 7.38740170075e-23)
(-0.0390850665581 0.00269701764064 3.1203593945e-23)
(-0.0386352489376 0.00468622556039 7.7565215446e-23)
(-0.0390436022941 0.00380269582295 1.062441151e-22)
(-0.0391845370046 0.00596254382809 2.47189232243e-23)
(-0.0394863908908 0.00495522013841 4.26936071413e-23)
(-0.039983257489 0.00734866474109 4.50620882506e-24)
(-0.040237839032 0.00619844115522 6.71693814459e-24)
(-0.040973503381 0.00887866113327 -1.13315770168e-24)
(-0.0412114318605 0.00756582609842 -9.53572827342e-25)
(-0.042142528279 0.0105834156485 8.13080693843e-24)
(-0.0423808662094 0.00908760142566 -1.19732266942e-23)
(-0.0434974607741 0.0125113668135 1.33007817826e-23)
(-0.0437582630878 0.0108000111627 5.34970394801e-24)
(-0.0450517284955 0.0147027791571 1.30675348927e-23)
(-0.0453386889879 0.0127475921376 9.01070483467e-24)
(-0.0468292661019 0.0172280206597 2.44713661004e-23)
(-0.0471663253027 0.0149818235478 8.96555358487e-24)
(-0.0488785206086 0.0201538466831 -2.08381539796e-23)
(-0.0492647142112 0.0175629410828 4.33177412786e-23)
(-0.0512987535044 0.0235669778623 -1.09744049975e-22)
(-0.0517122532343 0.0205575402513 -3.43498152982e-23)
(-0.0542120605819 0.0275452758482 -1.18036727408e-21)
(-0.0546330282075 0.0240754048348 -2.21192049528e-23)
(-0.0574923076967 0.0320846093994 6.89932384213e-22)
(-0.0581118586228 0.0278478860274 -1.8073618035e-21)
(-0.0610012612989 0.0367676734554 1.19082488093e-21)
(-0.06159188061 0.0338995597949 2.82377487615e-21)
(-0.0657202889662 0.041511773161 -1.27991885081e-21)
(-0.0652888385061 0.036259451749 -4.86014385458e-21)
(-0.111661595743 0.0459309129662 -1.68835059021e-22)
(-0.0710461066733 0.0427668161434 -4.71246495168e-21)
(-0.191726862017 0.0363561784568 2.63233298092e-21)
(-0.152813156567 0.0418519622386 -5.17026472884e-21)
(-0.181600119837 -0.0472795444538 -1.73614307207e-20)
(-0.0408722066499 0.00101228100144 -1.6979872819e-22)
(-0.0399114347743 0.00200599476545 -1.23210614823e-23)
(-0.0395651065267 0.00300359088135 6.35736920374e-23)
(-0.0397930111892 0.0040409017508 7.13725067952e-23)
(-0.0404337397084 0.00515096061696 2.46916220615e-23)
(-0.0413545901745 0.00636517639927 1.25715649218e-24)
(-0.0425000518225 0.00771267016754 -1.17936418198e-23)
(-0.0438615201888 0.00922658960782 -1.47543296846e-23)
(-0.0454512525055 0.0109397913926 1.05962700005e-24)
(-0.0472925605445 0.0129037692883 4.90872352682e-24)
(-0.0494205397911 0.0151659230442 2.78119287631e-23)
(-0.0518926333817 0.0177886059436 2.980607996e-23)
(-0.0548074608363 0.020848363454 5.32750297236e-23)
(-0.0582295470613 0.0243846159411 -6.49113734373e-22)
(-0.0618140933875 0.0283148776929 3.26480688432e-22)
(-0.0653160626152 0.0323845979513 -3.22719385937e-21)
(-0.0696613857143 0.0360743478325 -8.29268995546e-21)
(-0.11009578491 0.0386814769428 -9.7138946215e-21)
(-0.145389309391 0.0315230816936 -2.51640284305e-20)
)
;

boundaryField
{
    back
    {
        type            calculated;
        value           uniform (0 0 0);
    }
    sides
    {
        type            calculated;
        value           nonuniform List<vector> 0();
    }
    bottom
    {
        type            calculated;
        value           uniform (0 0 0);
    }
    front
    {
        type            calculated;
        value           uniform (0 0 0);
    }
    atmosphere
    {
        type            calculated;
        value           nonuniform List<vector> 9((0.172946312216 0.00564880100312 -1.00974994886e-20) (0.131464054572 0.143580564923 -6.90909118347e-21) (0.0896240715281 0.106630473075 -4.26649386883e-20) (0 -0.248097972257 0) (0.196624387605 0.619527991326 7.63784862069e-21) (-0.527372044095 0.608500103503 4.9985930118e-21) (0 -0.274412227542 0) (0 -0.155354527971 0) (0 -0.0521055225742 0));
    }
    floatingObject
    {
        type            calculated;
        value           nonuniform List<vector> 0();
    }
    procBoundary0to1
    {
        type            processor;
        value           nonuniform List<vector> 10((-0.0263504546691 0.0193849554473 -1.91872718795e-23) (-0.0258911066119 0.0216087539036 -7.14703839827e-23) (-0.0253206366029 0.0239112768356 -1.47451149354e-22) (-0.0246998952578 0.0263704985607 -2.04678809713e-22) (-0.0241321339664 0.0289026628611 -5.80763878776e-22) (-0.0234594929397 0.0328234820207 3.02433888839e-21) (-0.0202088987733 0.030739925483 1.32558860817e-21) (-0.0225179594001 0.0307512484362 -4.3233974382e-21) (-0.065850018837 0.0475968811192 -1.60222676405e-21) (0.130767218715 0.0297934546613 -8.05942267467e-21));
    }
    procBoundary0to2
    {
        type            processor;
        value           nonuniform List<vector> 
14
(
(-0.0268117813644 0.0132520810461 9.62762689702e-24)
(-0.0267401796845 0.0152141018175 1.01537051401e-23)
(-0.0265818043843 0.0172525758066 1.51393093652e-23)
(-0.0285754784304 0.0094928687547 -1.01580350287e-23)
(-0.0277266945792 0.0122888794875 1.48673585518e-23)
(-0.0286671827577 0.0113368512646 7.79946817202e-24)
(-0.032242823524 0.000863435911205 -2.99591653475e-22)
(-0.0311630288864 0.00256888473661 3.04959100193e-23)
(-0.0294097161697 0.00853882244622 -2.25518200741e-23)
(-0.0302489813559 0.00758585257955 -1.03992541105e-23)
(-0.0316347804912 0.0033302488285 1.89456836753e-22)
(-0.0321334149712 0.00407490175823 1.41115306444e-22)
(-0.0310706162998 0.00663739587733 5.5273383979e-23)
(-0.0318987522896 0.00570622278415 1.04788140315e-22)
)
;
    }
    procBoundary0to4
    {
        type            processor;
        value           nonuniform List<vector> 8((-0.0420100682177 0.000516854652833 -2.67799629809e-22) (-0.0407482196862 0.00138359238236 -6.23144576182e-23) (-0.0400816837336 0.00227239941878 2.21025491487e-24) (-0.04007942399 0.00320554674861 8.54752137273e-23) (-0.0405944776686 0.0041813330039 3.57237245973e-23) (-0.0414497673901 0.00524190787427 -2.0065872837e-25) (-0.042556319796 0.00641676022559 -4.57737360546e-24) (-0.0438924755295 0.00773333131836 -1.36864073986e-23));
    }
    procBoundary0to5
    {
        type            processor;
        value           nonuniform List<vector> 
12
(
(-0.0454697340422 0.00922379205805 -1.1442355296e-24)
(-0.0473020377128 0.0109265862569 3.9229431938e-24)
(-0.0494287941932 0.012885998944 -4.63177787912e-24)
(-0.0518883951182 0.0151534211334 4.48989011762e-23)
(-0.0547733218771 0.0177807153595 7.78660257224e-24)
(-0.0581705761604 0.0208577616797 1.11536511036e-22)
(-0.062043184594 0.0241122585507 -1.37893324804e-21)
(-0.0656623287076 0.0295431696266 1.67922476099e-21)
(-0.0689789615654 0.0322374327054 -5.07549388045e-21)
(-0.0736532899944 0.039355491578 -7.84606858139e-21)
(-0.145649332549 0.0362567020688 -9.1415612565e-21)
(-0.0979739911694 -0.0292336193918 -2.59695829717e-20)
)
;
    }
}


// ************************************************************************* //
