/*--------------------------------*- C++ -*----------------------------------*\
| =========                 |                                                 |
| \\      /  F ield         | OpenFOAM: The Open Source CFD Toolbox           |
|  \\    /   O peration     | Version:  v2012                                 |
|   \\  /    A nd           | Website:  www.openfoam.com                      |
|    \\/     M anipulation  |                                                 |
\*---------------------------------------------------------------------------*/
FoamFile
{
    version     2.0;
    format      ascii;
    class       volScalarField;
    location    "0.4";
    object      alpha.water;
}
// * * * * * * * * * * * * * * * * * * * * * * * * * * * * * * * * * * * * * //

dimensions      [0 0 0 0 0 0 0];


internalField   nonuniform List<scalar> 
166
(
1.00000003862
1.00000003403
1.00000002275
1.00000000764
0.999999992711
0.999999979482
0.999999975359
0.999999976396
0.999999987892
1.00000000409
1.0000000166
1.00000002408
1.00000002355
1.00000001534
0.999999997418
0.999999995793
0.999999996041
0.999999933741
0.998996350917
0.409559066151
1.00000002326
1.00000002082
1.00000001391
1.00000000465
0.99999999583
0.999999989237
0.999999985999
0.999999990364
0.999999999333
1.00000000858
1.00000001897
1.00000002664
1.00000003031
1.0000000293
1.00000000767
1
0.999999999924
0.999999953224
0.999993858732
0.448872422858
1.00000002257
1.00000002056
1.00000001426
1.00000000581
0.999999997923
0.999999992471
0.999999991528
0.999999996345
1.00000000498
1.00000001655
1.00000002863
1.00000003853
1.00000004455
1.00000004568
1.0000000276
1
0.999999999927
0.99999996397
0.999998195639
0.485490080131
1.0000000231
1.00000002127
1.00000001533
1.00000000748
1.00000000029
0.999999995835
0.999999996032
1.00000000205
1.00000001173
1.00000002511
1.00000003862
1.00000005001
1.00000005675
1.00000005805
1.00000004087
1
0.99999999994
0.999999972944
0.999998539127
0.518813058143
1.00000002412
1.0000000223
1.0000000166
1.00000000941
1.00000000285
0.999999999308
1.00000000023
1.00000000677
1.00000001808
1.00000003266
1.00000004714
1.00000005967
1.00000006545
1.00000006466
1.00000004622
1
1.00000000001
0.999999979637
0.999998816775
0.54914965707
1.00000002493
1.00000002315
1.00000001824
1.00000001321
1.00000000647
1.00000000251
1.00000000356
1.00000001116
1.00000002382
1.00000004008
1.00000005654
1.00000007616
1.00000008036
1.00000007209
1.00000004734
1
0.999999999984
0.999999986459
0.99999902842
0.576796849861
1.00000002589
1.00000002759
1.00000002949
1.00000001816
1.00000001025
1.00000000356
1.00000000729
1.00000001371
1.00000003182
1.0000000472
1.000000097
1.00000009449
1.00000009236
1.00000006858
1.00000004103
1
0.999999999983
0.999999986641
0.999999200161
0.602009040983
1.00000004035
1.00000004272
1.00000002896
1.00000002707
1.00000001112
1.00000000751
1.00000000584
1.00000002002
1.00000003334
1.00000009133
1.00000008381
1.00000013775
1.00000009315
1.00000007206
1.00000001903
0.999999997726
0.999999985876
0.999999983271
0.999999332366
0.625005260616
1.00000004551
1.00000004314
1.00000003931
1.0000000506
1.00000005103
1.00000004927
)
;

boundaryField
{
    back
    {
        type            zeroGradient;
    }
    sides
    {
        type            zeroGradient;
    }
    bottom
    {
        type            zeroGradient;
    }
    front
    {
        type            zeroGradient;
    }
    atmosphere
    {
        type            inletOutlet;
        inletValue      uniform 0;
        value           uniform 0;
    }
    floatingObject
    {
        type            zeroGradient;
    }
    procBoundary9to6
    {
        type            processor;
        value           nonuniform List<scalar> 4(0.99999999195 0.999999907472 0.996514703871 0.367609202194);
    }
    procBoundary9to7
    {
        type            processor;
        value           nonuniform List<scalar> 
16
(
1.00000003126
1.00000002694
1.00000001752
1.00000000546
0.999999993752
0.999999983755
0.999999978996
0.99999998161
0.999999990705
1.00000000249
1.00000001104
1.00000001488
1.000000012
1.0000000023
0.99999999483
0.999999993198
)
;
    }
    procBoundary9to10
    {
        type            processor;
        value           nonuniform List<scalar> 
15
(
1.00000004718
1.00000001929
1.00000000818
1.00000001216
1.00000002082
1.00000005724
1.00000007055
1.00000018213
1.00000008635
1.00000004718
1.00000004517
1.00000008635
1.00000006642
1.00000005953
1.00000006072
)
;
    }
    procBoundary9to11
    {
        type            processor;
        value           nonuniform List<scalar> 9(1.00000016678 1.00000014341 1.00000008498 1.00000003718 0.999999978201 0.999999967873 0.999999965929 0.99999942596 0.645974380728);
    }
}


// ************************************************************************* //
