/*--------------------------------*- C++ -*----------------------------------*\
| =========                 |                                                 |
| \\      /  F ield         | OpenFOAM: The Open Source CFD Toolbox           |
|  \\    /   O peration     | Version:  v2012                                 |
|   \\  /    A nd           | Website:  www.openfoam.com                      |
|    \\/     M anipulation  |                                                 |
\*---------------------------------------------------------------------------*/
FoamFile
{
    version     2.0;
    format      ascii;
    class       volScalarField;
    location    "2.4";
    object      p_rgh;
}
// * * * * * * * * * * * * * * * * * * * * * * * * * * * * * * * * * * * * * //

dimensions      [1 -1 -2 0 0 0 0];


internalField   nonuniform List<scalar> 
164
(
8629.59278712
8628.08886006
8626.36223995
8624.38568225
8622.12149837
8619.51459989
8616.49444376
8612.92173569
8608.50925539
5149.37087945
56.6600759107
0.00993075700343
8622.31975732
8620.40835002
8618.19736609
8615.64395114
8612.68968729
8609.25233987
8605.2148283
8600.41295103
8594.49299907
4900.74538775
7.55357799699
-0.00211306340182
8610.36813707
8607.29779961
8603.73629558
8599.58697168
8594.70173797
8588.88084477
8581.54615767
4639.26534068
2.80377979954
0.00600839749088
8602.95943855
8599.44067932
8595.3723416
8590.66652216
8585.19424596
8578.8124138
8571.00076819
4451.20314076
2.17904179142
-0.000392547688526
8596.03128423
8592.13257986
8587.64682283
8582.51116826
8576.6636692
8570.10575111
8562.72847806
4332.62653472
1.65492002809
0.000404087128806
8589.6305811
8585.41130754
8580.56864315
8575.05662975
8568.8526797
8562.16959352
8539.65568416
4254.24851598
0.294366181075
0.00634099963582
8583.79595201
8579.30780091
8574.14684953
8568.26210912
8561.53018472
8554.63326272
8504.58509419
4148.00183737
-0.0116230151707
0.00815856030106
8578.56664073
8573.86830902
8568.42029218
8562.10038734
8554.74643585
8546.22797749
8460.96291907
3934.78964557
0.00215408738322
0.00894644247206
8573.98483486
8569.16716632
8563.54252343
8556.91461571
8548.95714812
8539.01895815
8407.18537095
3683.73579108
0.0402426883457
0.00791049054947
8570.07697922
8565.26657415
8559.66045476
8553.04867244
8545.08947643
8534.99827084
8388.60441598
3504.40476104
0.0865346278705
0.00325655926698
8566.82447972
8562.14748108
8556.78178845
8550.5921261
8543.33842694
8534.76226472
8416.95487533
3477.54776354
0.135280858437
-0.00279768896651
8564.19191944
8559.75886667
8554.78548944
8549.25693417
8543.11026632
8536.39860563
8423.38216349
3689.45963758
0.190105638806
-0.00511276202516
8562.07464309
8557.90956061
8553.36078201
8548.55463103
8543.73049749
8539.61821421
8439.85806079
4065.07456917
20.991871006
-0.0233834850804
8560.37085105
8556.42790764
8552.17928997
8547.83238568
8543.75997253
8540.9697175
8404.78285343
4257.13339161
48.9969415434
-0.0045790037169
8559.0215144
8555.22172575
8551.08658689
8546.80955744
8542.73602578
8539.58470978
8387.78791356
4159.20511017
39.3609024778
0.00655263187336
8558.07186302
8554.37975471
8550.25658976
8545.75470566
8541.02633754
8536.47341911
8444.99388166
3884.09771794
3.97707637586
-0.0121171994752
)
;

boundaryField
{
    back
    {
        type            fixedFluxPressure;
        gradient        uniform 0;
        value           nonuniform List<scalar> 
164
(
8629.59278712
8628.08886006
8626.36223995
8624.38568225
8622.12149837
8619.51459989
8616.49444376
8612.92173569
8608.50925539
5149.37087945
56.6600759107
0.00993075700343
8622.31975732
8620.40835002
8618.19736609
8615.64395114
8612.68968729
8609.25233987
8605.2148283
8600.41295103
8594.49299907
4900.74538775
7.55357799699
-0.00211306340182
8610.36813707
8607.29779961
8603.73629558
8599.58697168
8594.70173797
8588.88084477
8581.54615767
4639.26534068
2.80377979954
0.00600839749088
8602.95943855
8599.44067932
8595.3723416
8590.66652216
8585.19424596
8578.8124138
8571.00076819
4451.20314076
2.17904179142
-0.000392547688526
8596.03128423
8592.13257986
8587.64682283
8582.51116826
8576.6636692
8570.10575111
8562.72847806
4332.62653472
1.65492002809
0.000404087128806
8589.6305811
8585.41130754
8580.56864315
8575.05662975
8568.8526797
8562.16959352
8539.65568416
4254.24851598
0.294366181075
0.00634099963582
8583.79595201
8579.30780091
8574.14684953
8568.26210912
8561.53018472
8554.63326272
8504.58509419
4148.00183737
-0.0116230151707
0.00815856030106
8578.56664073
8573.86830902
8568.42029218
8562.10038734
8554.74643585
8546.22797749
8460.96291907
3934.78964557
0.00215408738322
0.00894644247206
8573.98483486
8569.16716632
8563.54252343
8556.91461571
8548.95714812
8539.01895815
8407.18537095
3683.73579108
0.0402426883457
0.00791049054947
8570.07697922
8565.26657415
8559.66045476
8553.04867244
8545.08947643
8534.99827084
8388.60441598
3504.40476104
0.0865346278705
0.00325655926698
8566.82447972
8562.14748108
8556.78178845
8550.5921261
8543.33842694
8534.76226472
8416.95487533
3477.54776354
0.135280858437
-0.00279768896651
8564.19191944
8559.75886667
8554.78548944
8549.25693417
8543.11026632
8536.39860563
8423.38216349
3689.45963758
0.190105638806
-0.00511276202516
8562.07464309
8557.90956061
8553.36078201
8548.55463103
8543.73049749
8539.61821421
8439.85806079
4065.07456917
20.991871006
-0.0233834850804
8560.37085105
8556.42790764
8552.17928997
8547.83238568
8543.75997253
8540.9697175
8404.78285343
4257.13339161
48.9969415434
-0.0045790037169
8559.0215144
8555.22172575
8551.08658689
8546.80955744
8542.73602578
8539.58470978
8387.78791356
4159.20511017
39.3609024778
0.00655263187336
8558.07186302
8554.37975471
8550.25658976
8545.75470566
8541.02633754
8536.47341911
8444.99388166
3884.09771794
3.97707637586
-0.0121171994752
)
;
    }
    sides
    {
        type            fixedFluxPressure;
        gradient        nonuniform List<scalar> 0();
        value           nonuniform List<scalar> 0();
    }
    bottom
    {
        type            fixedFluxPressure;
        gradient        nonuniform List<scalar> 0();
        value           nonuniform List<scalar> 0();
    }
    front
    {
        type            fixedFluxPressure;
        gradient        uniform 0;
        value           nonuniform List<scalar> 
164
(
8629.59278712
8628.08886006
8626.36223995
8624.38568225
8622.12149837
8619.51459989
8616.49444376
8612.92173569
8608.50925539
5149.37087945
56.6600759107
0.00993075700343
8622.31975732
8620.40835002
8618.19736609
8615.64395114
8612.68968729
8609.25233987
8605.2148283
8600.41295103
8594.49299907
4900.74538775
7.55357799699
-0.00211306340182
8610.36813707
8607.29779961
8603.73629558
8599.58697168
8594.70173797
8588.88084477
8581.54615767
4639.26534068
2.80377979954
0.00600839749088
8602.95943855
8599.44067932
8595.3723416
8590.66652216
8585.19424596
8578.8124138
8571.00076819
4451.20314076
2.17904179142
-0.000392547688526
8596.03128423
8592.13257986
8587.64682283
8582.51116826
8576.6636692
8570.10575111
8562.72847806
4332.62653472
1.65492002809
0.000404087128806
8589.6305811
8585.41130754
8580.56864315
8575.05662975
8568.8526797
8562.16959352
8539.65568416
4254.24851598
0.294366181075
0.00634099963582
8583.79595201
8579.30780091
8574.14684953
8568.26210912
8561.53018472
8554.63326272
8504.58509419
4148.00183737
-0.0116230151707
0.00815856030106
8578.56664073
8573.86830902
8568.42029218
8562.10038734
8554.74643585
8546.22797749
8460.96291907
3934.78964557
0.00215408738322
0.00894644247206
8573.98483486
8569.16716632
8563.54252343
8556.91461571
8548.95714812
8539.01895815
8407.18537095
3683.73579108
0.0402426883457
0.00791049054947
8570.07697922
8565.26657415
8559.66045476
8553.04867244
8545.08947643
8534.99827084
8388.60441598
3504.40476104
0.0865346278705
0.00325655926698
8566.82447972
8562.14748108
8556.78178845
8550.5921261
8543.33842694
8534.76226472
8416.95487533
3477.54776354
0.135280858437
-0.00279768896651
8564.19191944
8559.75886667
8554.78548944
8549.25693417
8543.11026632
8536.39860563
8423.38216349
3689.45963758
0.190105638806
-0.00511276202516
8562.07464309
8557.90956061
8553.36078201
8548.55463103
8543.73049749
8539.61821421
8439.85806079
4065.07456917
20.991871006
-0.0233834850804
8560.37085105
8556.42790764
8552.17928997
8547.83238568
8543.75997253
8540.9697175
8404.78285343
4257.13339161
48.9969415434
-0.0045790037169
8559.0215144
8555.22172575
8551.08658689
8546.80955744
8542.73602578
8539.58470978
8387.78791356
4159.20511017
39.3609024778
0.00655263187336
8558.07186302
8554.37975471
8550.25658976
8545.75470566
8541.02633754
8536.47341911
8444.99388166
3884.09771794
3.97707637586
-0.0121171994752
)
;
    }
    atmosphere
    {
        type            totalPressure;
        rho             rho;
        psi             none;
        gamma           1;
        p0              uniform 0;
        value           nonuniform List<scalar> 
16
(
-2.14475146558e-06
0
0
0
-3.71476551694e-05
-0.000186278240613
-0.000486164557516
-7.61845568806e-05
0
0
-1.74639936022e-05
0
0
-0.00028001882995
-0.00245110038377
0
)
;
    }
    floatingObject
    {
        type            fixedFluxPressure;
        gradient        nonuniform List<scalar> 0();
        value           nonuniform List<scalar> 0();
    }
    procBoundary5to0
    {
        type            processor;
        value           nonuniform List<scalar> 
12
(
8637.06060106
8635.98815865
8634.77632819
8633.41709992
8631.89821543
8630.19778509
8628.29253435
8626.09774788
8623.45074015
5404.81119294
116.711508465
0.00245934773777
)
;
    }
    procBoundary5to3
    {
        type            processor;
        value           nonuniform List<scalar> 10(8557.51623866 8553.92613283 8549.77104296 8544.89490398 8539.19828108 8532.38742205 8422.60328452 3623.06251981 0.0790210182024 -0.00118245927165);
    }
    procBoundary5to4
    {
        type            processor;
        value           nonuniform List<scalar> 
18
(
8630.8862825
8623.95545812
8615.31179472
8613.02335618
8613.02335618
8606.00832502
8599.41844123
8593.30160085
8587.6953555
8582.63600268
8578.14957507
8574.24821252
8570.91944661
8568.13573687
8565.83768807
8563.96544089
8562.48032568
8561.37736694
)
;
    }
}


// ************************************************************************* //
