/*--------------------------------*- C++ -*----------------------------------*\
| =========                 |                                                 |
| \\      /  F ield         | OpenFOAM: The Open Source CFD Toolbox           |
|  \\    /   O peration     | Version:  v2012                                 |
|   \\  /    A nd           | Website:  www.openfoam.com                      |
|    \\/     M anipulation  |                                                 |
\*---------------------------------------------------------------------------*/
FoamFile
{
    version     2.0;
    format      ascii;
    class       surfaceVectorField;
    location    "2.4";
    object      Uf_0;
}
// * * * * * * * * * * * * * * * * * * * * * * * * * * * * * * * * * * * * * //

dimensions      [0 1 -1 0 0 0 0];


internalField   nonuniform List<vector> 
300
(
(-0.0583831603358 0.0111269597811 -3.75485415861e-24)
(-0.058059939739 0.00948076868417 5.83105906729e-24)
(-0.0604939518033 0.0125700797719 -1.27465536865e-23)
(-0.0600606458442 0.0107773969524 9.23550792026e-25)
(-0.0628690457588 0.0139996331057 -6.36377086836e-24)
(-0.0622918765824 0.0120932791885 -5.13249552259e-24)
(-0.0655336210842 0.0153924984611 5.54511613514e-23)
(-0.0647753536966 0.013394094038 1.97942243899e-23)
(-0.0685603401939 0.0166628915401 1.53341611429e-22)
(-0.0675251097168 0.0146065489408 1.94393323888e-22)
(-0.072088169026 0.0176472029536 6.84735233566e-23)
(-0.0706034672126 0.0156048640115 4.08525238142e-22)
(-0.0759865214516 0.0180497641782 -9.11264372872e-22)
(-0.0741069397449 0.0163863741809 -2.59107198459e-22)
(-0.0792400886259 0.0174051231298 -3.41500151514e-21)
(-0.077496243274 0.0158034882516 -1.88529932008e-21)
(-0.0752414814234 0.0144325377032 -6.71064992777e-21)
(-0.0789260933349 0.0135226667399 -6.32109104807e-21)
(-0.0066082131375 0.00807610949255 -8.11225318833e-21)
(-0.0676154073194 0.00644113293787 -8.75606752288e-21)
(0.0348368635971 -0.00284700165565 -7.36105921391e-21)
(0.0586834435901 0.0125232269934 -7.81860672956e-21)
(0.000895441733969 0.0779043760395 -4.7235929332e-20)
(-0.0596791243277 0.00913252725532 1.05094640179e-23)
(-0.061802824824 0.0103259166214 8.53760895595e-24)
(-0.0641498285517 0.0115188428357 2.10254997357e-23)
(-0.0634827765472 0.00976387284829 1.04860382229e-23)
(-0.0667195632002 0.0126685649388 1.58736386926e-22)
(-0.0659227062355 0.0108593589886 5.20335014381e-23)
(-0.0695094472886 0.01368590763 4.49576950601e-22)
(-0.0685398241093 0.0119073933956 2.73235391769e-22)
(-0.0725398679481 0.0144032848875 8.09445163269e-23)
(-0.0713182139456 0.0127778955399 5.19367606567e-22)
(-0.0755385498957 0.0143851332273 -1.23314214566e-21)
(-0.0740864947178 0.0135022607934 -5.50789639357e-22)
(-0.0768628006794 0.0132408175481 -4.79138885301e-21)
(-0.0763504258923 0.0131907198721 -2.7524734971e-21)
(-0.0716559127025 0.00904558744678 -8.36650864318e-21)
(-0.0747303613637 0.0108012950262 -8.29764539786e-21)
(-0.0267210441831 0.00770114508737 -8.4624210641e-21)
(-0.0662715450593 0.00242918807504 -8.37745730272e-21)
(-0.000742251628182 0.11167798426 -4.76934768476e-20)
(-0.0452929144176 0.0141075680686 -9.0912874032e-21)
(-0.0318449716612 0.10389008257 -5.28870022831e-20)
(-0.0652264549556 0.00910007131734 4.14940399254e-23)
(-0.0644893351021 0.00744418038042 1.4231899858e-23)
(-0.0677209107619 0.0100955125812 1.66532506281e-22)
(-0.0669154138496 0.00839776889947 8.04262464466e-23)
(-0.0703221588854 0.0110109472447 3.43026047735e-22)
(-0.0694523765384 0.00938584323695 3.25958286685e-22)
(-0.0728862162369 0.0117594457262 -1.12366549117e-22)
(-0.0720638931786 0.0103598341237 5.85232372068e-22)
(-0.0750145784271 0.0119685452527 -2.07012099079e-21)
(-0.0742931805725 0.0113322475162 -4.67613335653e-22)
(-0.0746395459408 0.0112843716404 -6.25873004195e-21)
(-0.0756646939412 0.012314382146 -3.64088643938e-21)
(-0.0700970797891 0.00846000669127 -8.30859405739e-21)
(-0.0719054741679 0.0106098920505 -9.23299049981e-21)
(-0.063156679223 0.00761076572249 -9.00632364181e-21)
(-0.0654235067218 0.00345970904047 -9.23792986982e-21)
(-0.0537381926654 0.0295605004114 -1.42848128387e-20)
(-0.0672413586778 0.0125824546173 -1.0857263452e-20)
(-0.0384989168665 0.0204148272787 -1.30339133976e-20)
(-0.0661718894351 0.00670205247598 5.31641063792e-23)
(-0.0653469644847 0.00508038026128 2.32703531926e-23)
(-0.0686850072991 0.0076403709068 2.39852026851e-22)
(-0.0678504582114 0.00591190108459 1.12049883982e-22)
(-0.0712594153277 0.00867449300512 5.68164611019e-22)
(-0.0704831977774 0.00687278817916 3.74058157393e-22)
(-0.073619903544 0.00976142129173 2.29985585533e-22)
(-0.0731476856272 0.00804952810667 6.36095647527e-22)
(-0.0752083437081 0.0108043352628 -2.03837878424e-21)
(-0.0753334638214 0.00934088502523 -9.12501086762e-22)
(-0.0737225219633 0.0112489369968 -6.61514689724e-21)
(-0.0761076148964 0.0118981332899 -3.96732377936e-21)
(-0.0686131420822 0.0104446495316 -1.01623263122e-20)
(-0.0711006323208 0.0107931672723 -1.12542232478e-20)
(-0.0664116673352 0.00890846938688 -1.108886968e-20)
(-0.0638875976285 0.00534862689863 -2.32506745341e-20)
(-0.048436636288 0.00653158827089 -9.60636401092e-21)
(-0.0648645053296 0.0126164516593 -2.34321344265e-20)
(-0.0255088414526 -0.008490888036 -4.89854830056e-21)
(-0.0670116782995 0.00423547388427 8.21561307957e-23)
(-0.06602443681 0.00261040829985 4.35802849685e-23)
(-0.0696747593735 0.0050799300256 2.46256014524e-22)
(-0.0686910935984 0.00326774725194 1.5275612924e-22)
(-0.0724574849509 0.00618085041661 4.41989193901e-22)
(-0.0715803937104 0.00412490407914 2.55206538287e-22)
(-0.0750433942575 0.00769007858942 -5.06391024768e-22)
(-0.074653467941 0.00536212882183 2.41826370209e-22)
(-0.0764515222523 0.00967193999123 -2.84144608187e-21)
(-0.0773124868697 0.00679556421124 -2.00668293675e-21)
(-0.0739065672419 0.0111022332606 -8.60640012989e-21)
(-0.0775361181276 0.0101837768453 -5.34931028556e-21)
(-0.0670570445987 0.0109879019617 -2.43425714697e-20)
(-0.0709857273986 0.00880050154413 -8.93474560231e-21)
(-0.0620375207627 0.00860777970018 -3.55939392806e-20)
(-0.0615071351373 0.00457452484303 -1.69775561794e-20)
(-0.0391656972822 -0.000799603733012 -1.87243187161e-20)
(-0.0554577602759 0.00853501923658 -1.70843635152e-20)
(-0.00908456121816 -0.0192659622283 -1.41047671115e-21)
(-0.0677051209368 0.00156501815789 1.14180283413e-22)
(-0.0664952393476 -7.51400164871e-06 6.11185378665e-23)
(-0.0706071921643 0.00222425107799 1.61706653003e-22)
(-0.0693460815487 0.000370807265859 1.40288775872e-22)
(-0.0738144877834 0.00320194238935 5.50437145953e-23)
(-0.0725540397088 0.00091203764833 1.74405118582e-22)
(-0.0769855181044 0.00478045455536 -1.25846554178e-21)
(-0.0762283106243 0.00177182708181 -1.93674270951e-22)
(-0.0782978433199 0.0070717885365 -4.51454714044e-21)
(-0.079600846316 0.00289696460653 -2.26355148846e-21)
(-0.0740429832061 0.00834996181101 -5.67765575798e-21)
(-0.0788124429115 0.0055477779345 -8.56348072649e-21)
(-0.0644915684456 0.00641375701129 -1.56973031202e-21)
(-0.0690489369862 0.00210258876946 -8.7684077682e-22)
(-0.054789231266 0.00230653916187 1.53201958599e-21)
(-0.0573997982303 -0.00131180081573 1.60364955358e-20)
(-0.0263007867007 -0.00901694008533 2.29478489739e-22)
(-0.0441347071217 -0.00185785748637 1.54705782807e-20)
(0.00427496132692 -0.02722270828 -1.8949139864e-21)
(-0.0681056173831 -0.00130518385723 8.72270303255e-23)
(-0.0666703802562 -0.00274563865906 1.07221130854e-23)
(-0.0712308637365 -0.00105126899881 1.5298724145e-22)
(-0.0695955286598 -0.00273921358494 -6.5758876948e-23)
(-0.0748974105517 -0.00062318468005 -7.43128669644e-23)
(-0.0729779122153 -0.00274700475001 -1.83207027217e-22)
(-0.0787289521478 0.000196345401803 -1.19876021763e-21)
(-0.0770440587192 -0.00284098622576 -8.53821842813e-22)
(-0.0800468095441 0.00107481759272 -6.31248507451e-21)
(-0.0804762761766 -0.00310205710923 -1.75601443574e-21)
(-0.073397212856 0.000708820173014 -3.76266574534e-21)
(-0.0784445742124 -0.00364501172182 -9.21247931225e-22)
(-0.0596916503541 -0.00325112403259 1.6729385071e-20)
(-0.0650883818413 -0.0106780122512 1.63806531839e-20)
(-0.0458545078974 -0.0114781015926 2.99750542305e-20)
(-0.0491750993414 -0.0127158229311 2.99097790998e-20)
(-0.0152972978856 -0.0196903508417 1.33461858046e-20)
(-0.0359204595849 -0.0155683615931 2.92089115306e-20)
(0.0112881630235 -0.0228012445262 2.1439515484e-21)
(-0.0681246070857 -0.00428942204965 -1.42263794188e-22)
(-0.0664945868002 -0.00551242952832 -1.25867981e-22)
(-0.071268240687 -0.00454373585569 -4.01953145615e-22)
(-0.069336733283 -0.00584620939597 -2.75499051735e-22)
(-0.0749454777658 -0.0050773514612 -9.62716003065e-22)
(-0.0724400542196 -0.0063827675576 -7.9694225203e-22)
(-0.0785685520625 -0.00606534724299 -1.41107606093e-21)
(-0.0760522436383 -0.00749300220682 -5.41106824505e-22)
(-0.0789160305688 -0.00815479581332 3.63522270754e-21)
(-0.0783837595821 -0.00983227160737 4.72343378608e-21)
(-0.0699890278145 -0.0121591512356 1.9222070998e-20)
(-0.0744383410502 -0.0144659905442 3.27530779937e-20)
(-0.0524284889293 -0.0176664491143 2.95610472127e-20)
(-0.059580460206 -0.0240849345167 7.56027051438e-20)
(-0.0375999663129 -0.0243730714627 2.91436363999e-20)
(-0.0424716072143 -0.0253403013344 1.02345039704e-19)
(-0.0101534863512 -0.0199714000803 1.80066772744e-20)
(-0.0403190150159 -0.0230148047436 1.02652043029e-19)
(0.00204980116161 0.0060884803016 3.74381019714e-20)
(-0.0678296256518 -0.00718724150669 -2.59103238547e-22)
(-0.0660676903556 -0.00826383457662 -1.53623056527e-22)
(-0.070748829526 -0.00778343459674 -6.7048815815e-22)
(-0.068736186823 -0.00880125791807 -2.02690918767e-22)
(-0.0737148125721 -0.00881910152357 -3.7533307347e-22)
(-0.0714001781917 -0.00958382075474 -3.20342278441e-22)
(-0.0756424495294 -0.0112375785189 5.5934030225e-21)
(-0.0736299223853 -0.0110049205743 4.74517469374e-21)
(-0.0732864591757 -0.0159602774172 3.38412890723e-20)
(-0.0736579437196 -0.0140474844047 2.95257403359e-20)
(-0.0633221346277 -0.0222013412189 8.91337121396e-20)
(-0.068195345411 -0.0192636927826 1.04212032252e-19)
(-0.0498236868739 -0.0261849552547 1.48386697635e-19)
(-0.0555962087498 -0.0279473887112 1.96379628683e-19)
(-0.0453909010834 -0.0230549243534 1.75853446333e-19)
(-0.0456034157225 -0.0282589693188 2.83800575533e-19)
(-0.0274267349349 -0.00320038736427 1.22083467726e-19)
(-0.0601712890729 -0.0157201363238 2.84255130541e-19)
(-0.0268434239084 0.0158806436837 7.66257564514e-20)
(-0.0672043705811 -0.0100490317879 -9.72107367467e-23)
(-0.0654806291052 -0.0109581618793 -1.49124359595e-23)
(-0.0698187210893 -0.0107526985938 1.47454960942e-22)
(-0.0680283117433 -0.0115575275021 -1.15369378328e-22)
(-0.0720355558512 -0.0118417714103 4.80016548877e-21)
(-0.0703069034706 -0.0123016559379 9.56174004755e-22)
(-0.0726208398039 -0.013767668745 2.86775120071e-20)
(-0.0717001052412 -0.0133226120466 1.06177373091e-20)
(-0.0694080574738 -0.0170393135368 9.98964835156e-20)
(-0.0703830254752 -0.014939103976 5.24785838454e-20)
(-0.0616709574197 -0.0197655491879 2.11457948796e-19)
(-0.0654670372837 -0.0154207060176 1.64024172864e-19)
(-0.0548195692501 -0.0186669557347 3.31793506581e-19)
(-0.0566941324568 -0.0199768472545 3.0544294869e-19)
(-0.0619438428541 -0.0140476284737 3.92202259741e-19)
(-0.0502227775874 -0.0172433969833 4.30254158413e-19)
(-0.0573510883934 -0.00429876185995 2.38797419266e-19)
(-0.0699191346775 0.000206657401219 4.25085969466e-19)
(-0.0277636607801 -0.012263683334 7.73642052746e-20)
(-0.0664645631421 -0.0127296711668 -3.30710775409e-23)
(-0.0648347438818 -0.0134846229363 3.66114541353e-22)
(-0.0688605480616 -0.0134034033072 6.93349665485e-22)
(-0.0673503589743 -0.0137980192963 1.44689716871e-22)
(-0.0706433694378 -0.0140732278551 6.77374582509e-21)
(-0.0696327108994 -0.0138695833879 1.40985827296e-21)
(-0.0708708021606 -0.0146899625476 3.44188091473e-20)
(-0.0710791862579 -0.0138021803607 7.14325130399e-21)
(-0.0684645357484 -0.0138896865872 1.16606273194e-19)
(-0.0711797177015 -0.0131773263648 3.51009161266e-20)
(-0.0628643851064 -0.0100560139966 2.58009172758e-19)
(-0.0692984246838 -0.00883490683802 1.06379445658e-19)
(-0.0539526769203 -0.00306972381742 4.03903600522e-19)
(-0.0636796897859 -0.00892842063744 2.26551380745e-19)
(-0.0580260721846 -0.00280941800763 4.63137868139e-19)
(-0.0504816269962 -0.00147458251755 3.32756432937e-19)
(-0.0375640660699 -0.00471206784116 2.63652755474e-19)
(-0.0680170846887 0.0180088782697 3.22135876635e-19)
(0.0108486854995 0.01325973994 8.76127878591e-20)
(-0.06595874498 -0.0149203845218 5.43875335765e-22)
(-0.0645430596173 -0.0162190558823 2.69165672552e-22)
(-0.0684415554665 -0.0147088654158 8.61198324344e-22)
(-0.0675573913761 -0.0162032734455 -9.83236471114e-23)
(-0.0702858417683 -0.0140587789637 1.77936375186e-21)
(-0.0702780223593 -0.0154981687906 -2.24383954493e-22)
(-0.0712860813519 -0.0128131083407 7.82535828327e-21)
(-0.0723201892367 -0.0140378725493 -1.02004001116e-21)
(-0.0719473908127 -0.0100899979905 2.4874088591e-20)
(-0.0738988482255 -0.0113448788031 6.12175374753e-21)
(-0.0706355495536 -0.00434024946226 7.49216536452e-20)
(-0.0750456397251 -0.00505460093883 1.88683234644e-20)
(-0.0624086939264 0.00475904282906 1.5540421316e-19)
(-0.0727781361049 -0.00139565985367 4.29852958934e-20)
(-0.0676766929796 0.022272427583 1.91754441434e-19)
(-0.0679953683585 0.0127085371994 5.59855263071e-20)
(-0.0249625977466 0.0469532249322 1.4609590902e-19)
(-0.0926931007892 0.032183365775 5.19417585136e-20)
(0.0242299086759 0.096734038597 2.1036247537e-20)
(-0.0661180069699 -0.0179728510658 -3.73033310324e-22)
(-0.0642599999398 -0.0196104914406 2.06412376477e-22)
(-0.0695188288558 -0.0175202746461 -1.18390592595e-21)
(-0.0680049875127 -0.0196822508184 -3.39302901008e-22)
(-0.0726468349857 -0.0160486684195 -3.02378771751e-21)
(-0.07174430583 -0.0189085367272 3.57763699278e-23)
(-0.0752834412135 -0.0132422213606 -2.7236445469e-21)
(-0.0751214460272 -0.0169405031028 -3.57027841252e-22)
(-0.0772054778364 -0.00856410242958 1.15988620844e-22)
(-0.078572614131 -0.0138753922458 2.51604735248e-21)
(-0.0771760946258 -0.00138399272942 -1.30680342874e-20)
(-0.082222984251 -0.00753493289985 -9.06783191311e-22)
(-0.0766065353984 0.0127461108129 -5.64333909598e-20)
(-0.0869073355564 -0.00043693963399 -3.32791441812e-20)
(-0.0974486345388 0.0424782588945 -8.38271566133e-20)
(-0.0977257450444 0.0195090368532 -8.34521626495e-20)
(-0.0523776542387 0.0907315366881 -7.31179029695e-20)
(-0.140952738726 0.0254344776679 -7.67435822642e-20)
(-0.00451563804074 0.0862052914399 -4.85450123257e-20)
(-0.0660208794472 -0.0218612467771 2.40142785793e-22)
(-0.0637012379336 -0.0236417290859 3.64473132063e-22)
(-0.0703212287474 -0.0216848156675 8.80379394868e-22)
(-0.068175116236 -0.0240836702333 -2.34735683037e-22)
(-0.0749001003256 -0.0205833031891 2.70253624619e-21)
(-0.0728391307505 -0.0237296781883 1.3819173337e-21)
(-0.0798653164832 -0.0182842384023 4.88266405813e-21)
(-0.0774140130255 -0.0222405955613 2.58736606897e-21)
(-0.0852472257811 -0.0144127167576 1.49327554032e-21)
(-0.0824387595581 -0.0203158759078 5.60177028713e-21)
(-0.0900656358821 -0.00670879943195 -2.11178930851e-20)
(-0.0899234253873 -0.0137937170831 5.0077568971e-21)
(-0.0967844347045 0.00849139561676 -6.02979158709e-20)
(-0.102106335024 -0.00352152722003 -1.60782582044e-20)
(-0.11122883791 0.0283348313075 -7.63685883004e-20)
(-0.117570518277 0.0172516031916 -2.28621104323e-20)
(-0.0740034560148 0.00186976544011 -5.21706916203e-20)
(-0.114481436357 0.00517797020435 -1.9734226408e-20)
(-0.062016420294 -0.0145026921852 4.68712785988e-21)
(-0.0654911350265 -0.0264228735732 -1.10405336766e-22)
(-0.0627221773988 -0.02813761423 2.92681599378e-22)
(-0.0703065654067 -0.0267607427611 2.66802255792e-22)
(-0.0678289272351 -0.0287323431761 6.10745845239e-23)
(-0.0750913921627 -0.0264244622706 1.26674715648e-21)
(-0.0731664618595 -0.0282131640544 1.694289383e-21)
(-0.0804191376973 -0.0252411703219 3.30647229797e-21)
(-0.0785891109727 -0.0261850352356 9.51183069944e-22)
(-0.0894163314043 -0.0216770945218 9.11625164391e-21)
(-0.0859961039579 -0.0238231016297 4.85612025829e-21)
(-0.104895736513 -0.0107995084099 1.00473917778e-20)
(-0.1007970685 -0.0163541293988 1.32584344102e-20)
(-0.121215662365 0.00579957112045 2.13575472342e-20)
(-0.118704173939 -0.00890756121624 2.0476349819e-20)
(-0.110909853698 0.00831734196948 3.37722514601e-20)
(-0.120089832429 0.00573742728792 4.83508700136e-20)
(-0.0826647526574 -0.0509280793166 3.71235930721e-20)
(-0.0552362763102 0.0114481247927 4.5271072233e-20)
(-0.0696540703022 0.0205980114404 4.09229461516e-20)
(-0.0648015702271 -0.0310582350822 4.64161520668e-22)
(-0.0704868096807 -0.0308997310427 1.48856171173e-21)
(-0.0761741365611 -0.0291737225337 1.37872529646e-21)
(-0.0827854901259 -0.0260220869447 2.50083103026e-21)
(-0.0947830007072 -0.0213713346745 8.99830302453e-21)
(-0.115626710672 -0.0154826996903 2.36873924514e-20)
(-0.134384065064 -0.00470266658975 4.74696725984e-20)
(-0.107224331403 0.0215687178404 5.98496907865e-20)
(-0.0786395420802 0.0751507292187 4.90704253124e-20)
)
;

boundaryField
{
    back
    {
        type            calculated;
        value           uniform (0 0 0);
    }
    sides
    {
        type            calculated;
        value           nonuniform List<vector> 0();
    }
    bottom
    {
        type            calculated;
        value           nonuniform List<vector> 0();
    }
    front
    {
        type            calculated;
        value           uniform (0 0 0);
    }
    atmosphere
    {
        type            calculated;
        value           nonuniform List<vector> 
16
(
(0 -0.00635393376786 0)
(-0.0145862170029 0.144417629108 -8.76232771134e-20)
(-0.0479774380615 0.0362139500019 -1.81507274528e-20)
(0 -0.00645891805261 0)
(0 -0.0172242255543 0)
(0 -0.022376755363 0)
(0 -0.0267037197942 0)
(0 -0.0107330209776 0)
(-0.00754177933205 0.0256930796872 6.77394290369e-20)
(0 -0.00337815594919 0)
(0 -0.0433239568484 0)
(0.0295705041627 0.0335711724851 1.06009249035e-19)
(0.0133397872657 0.11947989033 -6.3936753961e-20)
(-0.0270104153177 0.0593647581405 -3.31532706904e-20)
(0 -0.0432956245877 0)
(-0.0833160647965 0.0769924839147 3.93183658931e-20)
)
;
    }
    floatingObject
    {
        type            calculated;
        value           nonuniform List<vector> 0();
    }
    procBoundary5to0
    {
        type            processor;
        value           nonuniform List<vector> 
12
(
(-0.0566673679193 0.0113258607606 -7.84407581864e-24)
(-0.0586190472064 0.0128745705901 -1.03389146125e-23)
(-0.0608649406779 0.014451359456 -1.63531661442e-23)
(-0.0633860720012 0.0160264245006 9.94610219411e-24)
(-0.066258922153 0.0175382801318 1.12927149225e-22)
(-0.0696234328276 0.0188913910728 3.30727006792e-22)
(-0.0737081485924 0.0200284866806 -8.35450629303e-23)
(-0.0781435114045 0.0201674513825 -2.02784962607e-21)
(-0.0818997364258 0.0188527494498 -6.10097469491e-21)
(-0.0739714981566 0.0150095394546 -9.96953087122e-21)
(0.0477620071685 0.0113176179841 -9.45591282463e-21)
(-0.0026101108822 -0.0265256568751 -2.07415818181e-21)
)
;
    }
    procBoundary5to3
    {
        type            processor;
        value           nonuniform List<vector> 10((-0.0616185338094 -0.0334159039376 4.72959706013e-22) (-0.0679783136673 -0.0343271670951 3.69372089305e-22) (-0.0748833055708 -0.0337705056675 1.20395474662e-21) (-0.0817320729776 -0.0313701608241 3.16825527649e-22) (-0.0906403130705 -0.0282037136751 2.44333415632e-21) (-0.106681875563 -0.0211353228638 6.55570024635e-21) (-0.129483098262 -0.0227123571262 2.21403512721e-20) (-0.146364527378 -0.0175218778612 3.8058654069e-20) (-0.108821936108 0.00729004245804 3.72663520748e-20) (-0.0715003975006 0.0347705116667 2.24412538648e-20));
    }
    procBoundary5to4
    {
        type            processor;
        value           nonuniform List<vector> 
18
(
(-0.0565251709603 0.00973449156541 -3.56714194532e-24)
(-0.0577841880396 0.00796859231581 4.46987278321e-24)
(-0.0592234398413 0.00759853454602 1.768001181e-23)
(-0.061252476102 0.00866734634361 1.68379036081e-23)
(-0.0628894961882 0.00809009653197 1.87863328751e-23)
(-0.0637927676586 0.00583991644834 2.26653027143e-23)
(-0.0645309710671 0.00355237552058 3.11785206111e-23)
(-0.0650798010707 0.0010876861831 3.04821572028e-23)
(-0.0653581258121 -0.00148736297906 4.24964832889e-23)
(-0.0653466484887 -0.00412070453675 -1.7789273377e-23)
(-0.0650809748239 -0.00676705296193 -7.87489861203e-23)
(-0.0645389559742 -0.00946812112655 2.52025272636e-24)
(-0.0638434770435 -0.0120895102991 4.31159605833e-23)
(-0.0631977679803 -0.0146343998133 3.81971582607e-22)
(-0.062720287199 -0.017695979981 1.13122448379e-23)
(-0.0619945656068 -0.0213100417936 3.2222723718e-22)
(-0.0608927681786 -0.025454425739 1.8354547801e-22)
(-0.0594558852367 -0.0299649922752 2.51142084104e-22)
)
;
    }
}


// ************************************************************************* //
