/*--------------------------------*- C++ -*----------------------------------*\
| =========                 |                                                 |
| \\      /  F ield         | OpenFOAM: The Open Source CFD Toolbox           |
|  \\    /   O peration     | Version:  v2012                                 |
|   \\  /    A nd           | Website:  www.openfoam.com                      |
|    \\/     M anipulation  |                                                 |
\*---------------------------------------------------------------------------*/
FoamFile
{
    version     2.0;
    format      ascii;
    class       volScalarField;
    location    "1.2";
    object      alpha.water;
}
// * * * * * * * * * * * * * * * * * * * * * * * * * * * * * * * * * * * * * //

dimensions      [0 0 0 0 0 0 0];


internalField   nonuniform List<scalar> 
166
(
0.999999949654
0.999999940028
0.999999913695
0.999999893437
0.999999886157
0.999999913177
0.999999965315
1.00000005348
1.00000023599
1.00000047103
1.00000073138
1.00000097453
1.00000113511
1.00000110256
1.00000069399
1
1
0.885083637355
0.165710597168
2.13722790768e-23
1.00000004133
1.00000003746
1.00000001809
1
0.999999995155
1.00000000397
1.00000004248
1.00000012921
1.00000025437
1.00000040883
1.00000057228
1.0000007105
1.00000076221
1.00000062652
1.00000017912
1
1
0.862411202426
0.139782042833
-2.57141433452e-37
1.00000007362
1.00000007406
1.00000006029
1.00000004474
1.00000003892
1.00000005669
1.00000010613
1.00000019217
1.00000031133
1.00000045419
1.00000059917
1.00000070811
1.00000071476
1.00000051569
1.0000000121
1
1
0.839603677693
0.117496972887
-1.61401409888e-38
1.00000010205
1.00000010719
1.00000009904
1.0000000904
1.00000008932
1.00000011216
1.00000016546
1.00000025294
1.0000003703
1.0000005092
1.00000064595
1.00000073153
1.00000069171
1.00000042526
1
1
0.999999990919
0.817387187808
0.098672789437
-1.82355264267e-119
1.00000013051
1.00000014252
1.00000014006
1.00000013902
1.00000014043
1.00000016712
1.00000022403
1.00000031288
1.00000043212
1.00000057518
1.00000071679
1.00000078406
1.00000069124
1.00000034328
1
1.00000000001
0.999999969434
0.796289564592
0.0829587964748
-7.26564325287e-126
1.00000016512
1.00000018947
1.00000019223
1.00000020454
1.00000020568
1.00000023695
1.00000029739
1.00000038827
1.00000051202
1.00000066794
1.00000082747
1.00000088716
1.00000072826
1.00000027264
1
1.00000000007
0.999999932678
0.776667187073
0.0699656301007
0
1.0000002182
1.00000026601
1.00000027987
1.00000028754
1.00000028368
1.00000030993
1.00000038038
1.00000046016
1.00000059855
1.00000076562
1.00000102677
1.00000100672
1.000000764
1.00000018011
1
1.00000000007
0.999999876598
0.758761940776
0.0592873574375
0
1.00000031052
1.00000039158
1.00000031293
1.00000037537
1.00000033062
1.00000037277
1.00000041691
1.00000051712
1.00000064064
1.00000094206
1.00000105925
1.00000120813
1.0000007815
1.00000010599
1
1.00000000017
0.999999791907
0.74269927884
0.0505473548161
0
1.00000038934
1.00000047208
1.0000003848
1.00000048303
1.00000053946
1.00000059484
)
;

boundaryField
{
    back
    {
        type            zeroGradient;
    }
    sides
    {
        type            zeroGradient;
    }
    bottom
    {
        type            zeroGradient;
    }
    front
    {
        type            zeroGradient;
    }
    atmosphere
    {
        type            inletOutlet;
        inletValue      uniform 0;
        value           uniform 0;
    }
    floatingObject
    {
        type            zeroGradient;
    }
    procBoundary9to6
    {
        type            processor;
        value           nonuniform List<scalar> 4(1 0.907428430733 0.195815880663 1.8859999751e-07);
    }
    procBoundary9to7
    {
        type            processor;
        value           nonuniform List<scalar> 
16
(
0.999999949659
0.99999993692
0.999999904056
0.99999986669
0.999999850419
0.999999833911
0.999999913537
1.00000002034
1.00000018919
1.00000041372
1.00000066196
1.0000008999
1.0000010742
1.00000110715
1.00000068454
1.00000017768
)
;
    }
    procBoundary9to10
    {
        type            processor;
        value           nonuniform List<scalar> 
15
(
1.00000041845
1.00000038908
1.00000041167
1.00000048428
1.00000055015
1.00000073793
1.00000087812
1.00000137
1.00000065128
1.00000041845
1.0000003914
1.00000065128
1.00000064471
1.00000056177
1.00000057614
)
;
    }
    procBoundary9to11
    {
        type            processor;
        value           nonuniform List<scalar> 9(1.00000122295 1.00000085797 1.00000002392 1 1.00000000052 0.999999685881 0.72852261544 0.0434253534727 -5.32089722062e-46);
    }
}


// ************************************************************************* //
