/*--------------------------------*- C++ -*----------------------------------*\
| =========                 |                                                 |
| \\      /  F ield         | OpenFOAM: The Open Source CFD Toolbox           |
|  \\    /   O peration     | Version:  v2012                                 |
|   \\  /    A nd           | Website:  www.openfoam.com                      |
|    \\/     M anipulation  |                                                 |
\*---------------------------------------------------------------------------*/
FoamFile
{
    version     2.0;
    format      ascii;
    class       volVectorField;
    location    "1.9";
    object      ddt0(rho,U);
}
// * * * * * * * * * * * * * * * * * * * * * * * * * * * * * * * * * * * * * //

dimensions      [1 -2 -2 0 0 0 0];


internalField   nonuniform List<vector> 
167
(
(105.299574678 20.5730532132 1.14722823216e-19)
(104.902515538 26.479876445 -1.79229063652e-19)
(104.356451677 32.3173783758 -1.43913435924e-20)
(103.496495789 38.1856511123 -5.69252021524e-21)
(102.178228773 44.0593999675 -7.94374412717e-20)
(99.9676800945 49.7162354781 -2.98970155776e-20)
(97.0504401548 55.047956201 -4.34364854008e-21)
(92.8771716019 60.1089540914 -3.22551867612e-20)
(100.405346108 8.33539958453 -4.1353390285e-19)
(100.067660654 14.6507672275 7.25409998753e-19)
(99.5648058169 20.215772195 1.07181779059e-19)
(99.1703673358 26.0202137505 -1.67679224101e-19)
(98.654361496 31.6107316279 -6.36963167456e-20)
(97.8869071394 37.1088806669 5.78119143308e-21)
(96.712081316 42.4003471518 5.19865727112e-20)
(94.9218984731 47.3207700366 -5.06854901168e-20)
(92.4565144705 51.7327644713 1.81639428661e-20)
(89.0222066052 55.4671270499 2.73818811683e-19)
(84.2179232185 58.2009076019 -1.27075024528e-19)
(94.5577194048 8.25505503269 2.66379076304e-19)
(94.248533265 14.5265751992 4.43682781554e-20)
(93.883496424 19.9669935667 3.43674506121e-19)
(93.5952510781 25.6414631373 6.08012602442e-20)
(93.2336909141 31.0459106766 5.15640714952e-20)
(92.6858816659 36.2443412241 2.00467738167e-21)
(91.8423253922 41.0931872006 8.85856651249e-21)
(90.5805162188 45.4611599957 -4.45185219559e-20)
(88.8204082072 49.1448513414 8.2441654938e-21)
(86.3834037943 51.8512982121 2.8612710864e-20)
(82.9911586492 53.2417719437 -1.85352589015e-20)
(88.7967035451 8.20549273929 -1.43444005113e-18)
(88.4973130627 14.5055313862 -2.20084486509e-19)
(88.2768072897 19.8459379751 5.17421244174e-19)
(88.1559693368 25.4420609738 -3.58671967993e-21)
(88.0119496675 30.7148862704 -3.58150957869e-20)
(87.7688928166 35.7160891972 -8.20987636036e-23)
(87.374561316 40.2931933114 2.12353509346e-20)
(86.7662207199 44.2970275209 -2.16494141612e-19)
(85.8769274885 47.5305455942 1.98000267037e-21)
(84.630298486 49.6249249341 -5.49086301205e-22)
(80.7103343214 3.51296988805 -7.10533443436e-19)
(83.0699868887 8.18698049823 -7.4003961143e-19)
(82.8145871268 14.5311662136 3.27139020662e-19)
(82.7188088606 19.8941084647 2.3424257975e-19)
(82.780671222 25.4451622455 1.08763064694e-20)
(82.8855444205 30.6733360204 -3.25929937172e-20)
(83.0007207906 35.6077890929 9.23034336228e-21)
(83.0878786212 40.0932444831 -4.42655178929e-20)
(83.1945681015 43.9636296636 3.60077256634e-20)
(83.2675150359 47.0024493058 -6.01614671043e-20)
(83.3072956621 48.9146513837 -1.96747844054e-20)
(75.0176220354 3.61111008158 6.14944909202e-19)
(77.2477489368 8.24386899141 -3.77367069615e-19)
(77.1196942241 14.6686098928 2.71674089468e-19)
(77.1305021387 20.0741910974 3.44476707919e-19)
(77.3854131813 25.6765307798 1.98084542231e-20)
(77.7592969296 30.952966847 -2.19829504236e-21)
(78.2475474739 35.9233579941 -9.12885788209e-21)
(78.8476150428 40.4897372107 -8.24026504406e-21)
(79.6262536455 44.4772138008 -2.97905001276e-20)
(80.6260316274 47.6405595416 -4.59931286191e-22)
(81.9458842791 49.7550606509 -3.88875541531e-21)
(69.2451865806 3.73270586303 1.22915933756e-18)
(71.3564927979 8.35916025046 -1.28876904579e-18)
(71.3141851907 14.9060487037 1.53066357545e-20)
(71.459777745 20.410570868 1.54881202882e-19)
(71.8982689449 26.1397392614 -4.31778909636e-20)
(72.5249054779 31.553475442 -1.80414297194e-20)
(73.3626916431 36.7003379085 2.45649764948e-20)
(74.4498359036 41.4728966862 7.5829000501e-20)
(75.8367179026 45.7414207044 -1.53257192035e-20)
(77.6735977176 49.3199969561 9.92088999688e-21)
(63.3657333366 3.86825794685 -5.58361597919e-20)
(65.3455060947 8.52675085888 -9.186321186e-19)
(65.3905294813 15.2418018034 2.58799806618e-19)
(65.6445026365 20.8901686334 1.5883452613e-19)
(66.2435648388 26.8034893609 3.5229417497e-20)
(67.0845487682 32.4381027209 3.59109181324e-20)
(68.2151219416 37.8544220077 2.66334176346e-20)
(69.6933808119 42.9656229989 1.5563866543e-20)
(71.6078896193 47.7020665218 5.68019136981e-21)
(57.3427790626 4.01824607646 -3.41084454279e-19)
(59.1841315874 8.74704741656 -1.04691505939e-18)
(59.2840052522 15.6478667586 1.3524347681e-19)
(59.6488474278 21.4796899519 1.64110146244e-19)
(60.3680771448 27.6369510689 3.42414820614e-20)
(61.3746009262 33.5454731843 8.55805933263e-21)
(62.706917619 39.317078603 1.62130866262e-20)
(64.4838266276 44.8721027899 2.75075641519e-20)
(66.7819342454 50.1633507561 1.20746769934e-20)
(51.153298485 4.17921694182 1.12185213488e-18)
(52.838487407 8.98690645347 -2.12323989494e-18)
(52.9774450456 16.1166022212 -5.8252483283e-20)
(53.429799982 22.1716463843 3.53983767662e-19)
(54.2214084168 28.5815137386 7.54860065171e-20)
(55.3300729947 34.7982858061 -1.60516478486e-20)
(56.7970384172 40.9726965079 2.88624766173e-20)
(58.734778982 47.0462653239 9.96398797032e-20)
(61.2471627383 52.9752583946 9.40448953639e-21)
(64.4971161878 58.7433787653 5.96450477055e-20)
(44.7787836569 4.33963208356 5.8149610527e-19)
(46.2747676155 9.25078049289 6.00327292546e-19)
(46.4720527686 16.6123572716 6.2867794692e-19)
(46.9464791831 22.9009819047 6.08667256263e-19)
(47.7677781382 29.5833417423 1.53164086284e-19)
(48.8980402173 36.1406200024 -6.41871299352e-20)
(50.4264284078 42.7318134725 7.09856695864e-20)
(52.4063344943 49.3312385069 -2.27065031702e-20)
(54.9738189597 55.934261834 3.60074691724e-20)
(58.2828479415 62.5598682188 2.27829533876e-19)
(38.2153493038 4.48622505012 8.87824073408e-19)
(39.5328346658 9.52264872155 -1.29769136931e-18)
(39.7433122139 17.1193009799 3.38781518436e-20)
(40.2078360627 23.6239268697 3.30747189107e-19)
(40.998885265 30.574485464 3.13057499568e-20)
(42.1054554356 37.4741980534 6.14873995804e-20)
(43.5772796751 44.4885665811 4.32407500708e-21)
(45.4887961566 51.6005263758 5.27349130295e-21)
(47.9572388714 58.8596632593 1.15962229562e-19)
(51.1262611576 66.312650255 1.64660401064e-19)
(31.4589867135 4.6337506771 1.19429099568e-18)
(32.6285636979 9.78648504021 -6.70038787243e-19)
(32.8067261855 17.5746129381 2.92155203831e-19)
(33.2353361338 24.2915834038 3.00704930058e-19)
(33.9605245638 31.5167027674 -1.50225007904e-21)
(34.9713192005 38.7345934608 4.62364551292e-20)
(36.2967993407 46.122256541 -2.77700827666e-20)
(38.0238855984 53.7171499106 -4.65405429663e-21)
(40.2478668865 61.5782417903 3.31829198098e-20)
(43.0948139892 69.7856945001 1.13608221771e-19)
(24.4869659083 4.77575891118 8.27130285987e-20)
(25.5196095985 10.0495418819 -1.06967680311e-18)
(25.6490354591 17.9739516441 -2.50956599966e-19)
(26.0038864611 24.9003534531 8.57982645958e-20)
(26.6244619483 32.3504026037 -4.60550017995e-19)
(27.4657205975 39.8347426897 -1.9386886776e-19)
(28.578683044 47.5595098799 -2.30660053019e-19)
(30.0234652327 55.5700870708 6.47875630707e-21)
(31.8798450682 63.948356968 3.34673811503e-19)
(34.249285511 72.7997709237 -3.37166241128e-19)
(17.458192262 4.91318230409 7.17686028933e-19)
(18.4596697275 10.3198079362 -2.93709326246e-18)
(18.5296887382 18.2898568128 6.48204814137e-19)
(18.7746062141 25.3966830512 4.5722757554e-19)
(19.2000656725 33.0350390137 -6.42608682964e-20)
(19.8130413673 40.7315293658 -8.81186617205e-21)
(20.6332389098 48.720668198 4.61651499455e-19)
(21.7023322646 57.0593103927 -4.20162869538e-19)
(23.0770329976 65.8435453532 5.67078756957e-19)
(9.57379892739 4.90642005419 4.28309052588e-19)
(10.7304964076 10.5330195391 6.64744743445e-19)
(10.654955454 18.4848838847 5.77521292756e-19)
(10.7130808191 25.6684417526 1.38808166164e-18)
(10.9444135382 33.3870321167 -3.76951320859e-19)
(11.3146310004 41.2321779394 -1.58904993433e-18)
(11.8150902667 49.3930877417 3.01719579567e-18)
(12.4678246411 57.939033261 -1.58738098262e-18)
(13.3070052258 66.9760463802 -4.14169035116e-19)
(3.91662128805 3.81957417237 6.2454404493e-20)
(4.91847748577 9.54812764944 2.06333153148e-19)
(4.8823010539 17.6279467858 -2.76325923229e-19)
(4.87426776558 24.7083433628 -1.09664750885e-19)
(4.99266905047 32.2227591552 2.31525071404e-20)
(5.16441778701 39.8121680477 -2.66367630289e-19)
(5.38514118941 47.7178812871 -1.87915682189e-19)
(5.66664608368 56.0140216517 -1.46593710187e-18)
(6.02154704716 64.8083535486 3.13745456653e-19)
)
;

boundaryField
{
    back
    {
        type            calculated;
        value           uniform (0 0 0);
    }
    sides
    {
        type            calculated;
        value           uniform (0 0 0);
    }
    bottom
    {
        type            calculated;
        value           uniform (0 0 0);
    }
    front
    {
        type            calculated;
        value           uniform (0 0 0);
    }
    atmosphere
    {
        type            calculated;
        value           nonuniform List<vector> 0();
    }
    floatingObject
    {
        type            calculated;
        value           nonuniform List<vector> 0();
    }
    procBoundary10to9
    {
        type            processor;
        value           nonuniform List<vector> 
15
(
(110.765693998 21.156234624 1.67437131968e-19)
(110.803761497 26.8992654052 -2.73909613207e-19)
(110.382412768 33.0078644823 -5.56443300217e-20)
(109.533419453 39.2867533834 -3.28889279633e-20)
(108.151601883 45.9275645365 -1.1855523797e-19)
(106.047277959 52.4491072258 -1.69490639796e-19)
(102.915366672 58.8272910704 -1.85916121319e-19)
(98.3925581618 65.4859158672 -5.07540144987e-20)
(106.244142063 8.39782591394 -6.25661995065e-19)
(106.117805265 14.8210308069 4.50441894512e-19)
(106.117805265 14.8210308069 4.50441894512e-19)
(97.7689373937 3.33574114457 2.77675471173e-19)
(92.0516548235 3.37900895631 -3.96434213827e-19)
(86.3687043411 3.41772685566 3.13299143543e-19)
(86.3687043411 3.41772685566 3.13299143543e-19)
)
;
    }
    procBoundary10to11
    {
        type            processor;
        value           nonuniform List<vector> 
23
(
(87.0511225794 64.7516959702 -2.93398320468e-20)
(87.0511225794 64.7516959702 -2.93398320468e-20)
(77.5705543551 59.3791197846 5.35661158624e-21)
(78.4209519917 52.744732703 4.95786411781e-21)
(82.9537644138 50.1942492576 -1.64383524888e-19)
(82.9537644138 50.1942492576 -1.64383524888e-19)
(83.4135025767 49.3074549052 -1.21973838401e-19)
(83.7354457297 50.5294719375 -6.51555462265e-20)
(80.0795538678 52.0127875099 7.61217130919e-21)
(80.0795538678 52.0127875099 7.61217130919e-21)
(74.1062999901 51.8830448815 7.55155987903e-20)
(74.1062999901 51.8830448815 7.55155987903e-20)
(69.7479210761 55.0993155041 1.4787505112e-19)
(69.7479210761 55.0993155041 1.4787505112e-19)
(68.7011609457 64.3345309629 1.09716534492e-19)
(62.5372221218 69.244930542 6.08825827881e-21)
(55.1794041843 74.0411099834 4.28515171239e-21)
(46.7210242554 78.459908594 -1.14324522408e-20)
(37.2551124323 82.2757748272 -1.65443183956e-19)
(24.8284814082 75.1938556746 9.13747676799e-19)
(24.8284814082 75.1938556746 9.13747676799e-19)
(14.3753109679 76.6377721334 2.35682030176e-18)
(6.46072145594 74.2392824447 -2.55006956728e-19)
)
;
    }
}


// ************************************************************************* //
