/*--------------------------------*- C++ -*----------------------------------*\
| =========                 |                                                 |
| \\      /  F ield         | OpenFOAM: The Open Source CFD Toolbox           |
|  \\    /   O peration     | Version:  v2012                                 |
|   \\  /    A nd           | Website:  www.openfoam.com                      |
|    \\/     M anipulation  |                                                 |
\*---------------------------------------------------------------------------*/
FoamFile
{
    version     2.0;
    format      ascii;
    class       volScalarField;
    location    "1.9";
    object      p;
}
// * * * * * * * * * * * * * * * * * * * * * * * * * * * * * * * * * * * * * //

dimensions      [1 -1 -2 0 0 0 0];


internalField   nonuniform List<scalar> 
167
(
6861.03296079
6370.15889987
5878.96023739
5387.43467056
4895.57910398
4403.38990168
3910.85912607
3418.00553695
7837.0510643
7346.82846551
6856.28594983
6365.43536491
5874.27407586
5382.80336848
4891.02630446
4398.94812
3906.57804257
3413.93671141
2921.04726448
7832.58717599
7342.37297519
6851.84515684
6361.01740615
5869.89070306
5378.46969328
4886.76259161
4394.7818869
3902.54682122
3410.08580189
2917.4382828
7828.42463211
7338.21824377
6847.70200879
6356.89271415
5865.7934516
5374.41128721
4882.75844011
4390.85202801
3898.71686694
3406.3881118
8314.45416416
7824.55902479
7334.35727572
6843.84864671
6353.05087206
5861.96881767
5370.61094393
4878.99144907
4387.12976892
3895.05262193
3402.79795213
8310.87453492
7820.98445019
7330.78494502
6840.27849721
6349.4841627
5858.40781134
5367.05776398
4875.44818559
4383.59839815
3891.53471729
3399.29288608
8307.58507745
7817.69795867
7327.49729587
6836.98781736
6346.18858771
5855.1057802
5363.74666104
4872.12385906
4380.25404176
3888.16018055
8304.58494772
7814.69915323
7324.49365245
6833.97563276
6343.16357683
5852.06278218
5360.67856929
4869.02101151
4377.10285786
8301.8745586
7811.98838437
7321.774856
6831.24370885
6340.41170076
5849.28306174
5357.86037284
4866.15032976
4374.16072731
8299.45536133
7809.56729884
7319.34360051
6828.79520698
6337.93790577
5846.77413079
5355.30316751
4863.5277841
4371.45028541
3879.07325124
8297.32990707
7807.43885127
7317.20342468
6826.63527255
6335.74915106
5844.545711
5353.02088432
4861.17275479
4368.99818745
3876.49257124
8295.50153838
7805.606751
7315.35900534
6824.77011887
6333.85397931
5842.60933381
5351.02880661
4859.10610357
4366.83281994
3874.19746077
8293.97393898
7804.07496346
7313.81511626
6823.20632657
6332.26123289
5840.97692446
5349.34271865
4857.34886817
4364.98213443
3872.22493759
8292.75075989
7802.84683739
7312.57602849
6821.9496708
6330.97884051
5839.65901704
5347.97727714
4855.92073055
4363.47221
3870.60855539
8291.83612547
7801.92539628
7311.64576541
6821.00496293
6330.01324037
5838.66495598
5346.94530677
4854.83885095
4362.32510064
8291.24444369
7801.33158076
7311.04606164
6820.39594615
6329.39058597
5838.02377043
5346.27909582
4854.13930361
4361.58204086
8290.99311441
7801.07743175
7310.78921311
6820.13904611
6329.13031448
5837.75736119
5346.00338255
4853.85068342
4361.27569348
)
;

boundaryField
{
    back
    {
        type            calculated;
        value           nonuniform List<scalar> 
167
(
6861.03296079
6370.15889987
5878.96023739
5387.43467056
4895.57910398
4403.38990168
3910.85912607
3418.00553695
7837.0510643
7346.82846551
6856.28594983
6365.43536491
5874.27407586
5382.80336848
4891.02630446
4398.94812
3906.57804257
3413.93671141
2921.04726448
7832.58717599
7342.37297519
6851.84515684
6361.01740615
5869.89070306
5378.46969328
4886.76259161
4394.7818869
3902.54682122
3410.08580189
2917.4382828
7828.42463211
7338.21824377
6847.70200879
6356.89271415
5865.7934516
5374.41128721
4882.75844011
4390.85202801
3898.71686694
3406.3881118
8314.45416416
7824.55902479
7334.35727572
6843.84864671
6353.05087206
5861.96881767
5370.61094393
4878.99144907
4387.12976892
3895.05262193
3402.79795213
8310.87453492
7820.98445019
7330.78494502
6840.27849721
6349.4841627
5858.40781134
5367.05776398
4875.44818559
4383.59839815
3891.53471729
3399.29288608
8307.58507745
7817.69795867
7327.49729587
6836.98781736
6346.18858771
5855.1057802
5363.74666104
4872.12385906
4380.25404176
3888.16018055
8304.58494772
7814.69915323
7324.49365245
6833.97563276
6343.16357683
5852.06278218
5360.67856929
4869.02101151
4377.10285786
8301.8745586
7811.98838437
7321.774856
6831.24370885
6340.41170076
5849.28306174
5357.86037284
4866.15032976
4374.16072731
8299.45536133
7809.56729884
7319.34360051
6828.79520698
6337.93790577
5846.77413079
5355.30316751
4863.5277841
4371.45028541
3879.07325124
8297.32990707
7807.43885127
7317.20342468
6826.63527255
6335.74915106
5844.545711
5353.02088432
4861.17275479
4368.99818745
3876.49257124
8295.50153838
7805.606751
7315.35900534
6824.77011887
6333.85397931
5842.60933381
5351.02880661
4859.10610357
4366.83281994
3874.19746077
8293.97393898
7804.07496346
7313.81511626
6823.20632657
6332.26123289
5840.97692446
5349.34271865
4857.34886817
4364.98213443
3872.22493759
8292.75075989
7802.84683739
7312.57602849
6821.9496708
6330.97884051
5839.65901704
5347.97727714
4855.92073055
4363.47221
3870.60855539
8291.83612547
7801.92539628
7311.64576541
6821.00496293
6330.01324037
5838.66495598
5346.94530677
4854.83885095
4362.32510064
8291.24444369
7801.33158076
7311.04606164
6820.39594615
6329.39058597
5838.02377043
5346.27909582
4854.13930361
4361.58204086
8290.99311441
7801.07743175
7310.78921311
6820.13904611
6329.13031448
5837.75736119
5346.00338255
4853.85068342
4361.27569348
)
;
    }
    sides
    {
        type            calculated;
        value           nonuniform List<scalar> 9(8290.99311441 7801.07743175 7310.78921311 6820.13904611 6329.13031448 5837.75736119 5346.00338255 4853.85068342 4361.27569348);
    }
    bottom
    {
        type            calculated;
        value           nonuniform List<scalar> 
13
(
8559.26289333
8555.68321535
8552.39374618
8549.39361364
8546.68322396
8544.26402716
8542.13857421
8540.31020783
8538.78261202
8537.55943837
8536.64481683
8536.05314154
8535.8017421
)
;
    }
    front
    {
        type            calculated;
        value           nonuniform List<scalar> 
167
(
6861.03296079
6370.15889987
5878.96023739
5387.43467056
4895.57910398
4403.38990168
3910.85912607
3418.00553695
7837.0510643
7346.82846551
6856.28594983
6365.43536491
5874.27407586
5382.80336848
4891.02630446
4398.94812
3906.57804257
3413.93671141
2921.04726448
7832.58717599
7342.37297519
6851.84515684
6361.01740615
5869.89070306
5378.46969328
4886.76259161
4394.7818869
3902.54682122
3410.08580189
2917.4382828
7828.42463211
7338.21824377
6847.70200879
6356.89271415
5865.7934516
5374.41128721
4882.75844011
4390.85202801
3898.71686694
3406.3881118
8314.45416416
7824.55902479
7334.35727572
6843.84864671
6353.05087206
5861.96881767
5370.61094393
4878.99144907
4387.12976892
3895.05262193
3402.79795213
8310.87453492
7820.98445019
7330.78494502
6840.27849721
6349.4841627
5858.40781134
5367.05776398
4875.44818559
4383.59839815
3891.53471729
3399.29288608
8307.58507745
7817.69795867
7327.49729587
6836.98781736
6346.18858771
5855.1057802
5363.74666104
4872.12385906
4380.25404176
3888.16018055
8304.58494772
7814.69915323
7324.49365245
6833.97563276
6343.16357683
5852.06278218
5360.67856929
4869.02101151
4377.10285786
8301.8745586
7811.98838437
7321.774856
6831.24370885
6340.41170076
5849.28306174
5357.86037284
4866.15032976
4374.16072731
8299.45536133
7809.56729884
7319.34360051
6828.79520698
6337.93790577
5846.77413079
5355.30316751
4863.5277841
4371.45028541
3879.07325124
8297.32990707
7807.43885127
7317.20342468
6826.63527255
6335.74915106
5844.545711
5353.02088432
4861.17275479
4368.99818745
3876.49257124
8295.50153838
7805.606751
7315.35900534
6824.77011887
6333.85397931
5842.60933381
5351.02880661
4859.10610357
4366.83281994
3874.19746077
8293.97393898
7804.07496346
7313.81511626
6823.20632657
6332.26123289
5840.97692446
5349.34271865
4857.34886817
4364.98213443
3872.22493759
8292.75075989
7802.84683739
7312.57602849
6821.9496708
6330.97884051
5839.65901704
5347.97727714
4855.92073055
4363.47221
3870.60855539
8291.83612547
7801.92539628
7311.64576541
6821.00496293
6330.01324037
5838.66495598
5346.94530677
4854.83885095
4362.32510064
8291.24444369
7801.33158076
7311.04606164
6820.39594615
6329.39058597
5838.02377043
5346.27909582
4854.13930361
4361.58204086
8290.99311441
7801.07743175
7310.78921311
6820.13904611
6329.13031448
5837.75736119
5346.00338255
4853.85068342
4361.27569348
)
;
    }
    atmosphere
    {
        type            calculated;
        value           nonuniform List<scalar> 0();
    }
    floatingObject
    {
        type            calculated;
        value           nonuniform List<scalar> 0();
    }
    procBoundary10to9
    {
        type            processor;
        value           nonuniform List<scalar> 
15
(
6866.09487181
6375.20183877
5883.96737048
5392.38856541
4900.45546716
4408.15906691
3915.44386902
3422.3590421
7841.82031887
7351.59069019
7351.59069019
8326.97134256
8322.49771379
8318.32702088
8318.32702088
)
;
    }
    procBoundary10to11
    {
        type            processor;
        value           nonuniform List<scalar> 
23
(
2924.83689559
2924.83689559
2427.93616721
2424.66027958
2913.91556462
2913.91556462
2910.41894352
2906.92213775
3395.87316476
3395.87316476
3884.94140752
3884.94140752
3881.90166913
3881.90166913
3386.39973514
3383.64887968
3381.18401875
3379.05316083
3377.29975332
3869.37716937
3869.37716937
3868.57780725
3868.24797042
)
;
    }
}


// ************************************************************************* //
