/*--------------------------------*- C++ -*----------------------------------*\
| =========                 |                                                 |
| \\      /  F ield         | OpenFOAM: The Open Source CFD Toolbox           |
|  \\    /   O peration     | Version:  v2012                                 |
|   \\  /    A nd           | Website:  www.openfoam.com                      |
|    \\/     M anipulation  |                                                 |
\*---------------------------------------------------------------------------*/
FoamFile
{
    version     2.0;
    format      ascii;
    class       volVectorField;
    location    "1.9";
    object      U;
}
// * * * * * * * * * * * * * * * * * * * * * * * * * * * * * * * * * * * * * //

dimensions      [0 1 -1 0 0 0 0];


internalField   nonuniform List<vector> 
167
(
(0.0462495087502 0.0022415924742 -5.72922273457e-23)
(0.0472857793093 0.00264433460937 -5.66695522513e-23)
(0.0486354378673 0.00303939752095 -5.73594658056e-24)
(0.0502845270553 0.00333179830964 4.80953713416e-24)
(0.0522388254292 0.00349168849864 4.65384124441e-24)
(0.0545174342562 0.00348720279542 1.71248604312e-23)
(0.0571552079055 0.00326725493703 1.14582539387e-23)
(0.0601695607343 0.00275114990331 1.54001426172e-23)
(0.0452508945377 0.00169921333858 7.03272488341e-22)
(0.0449817163188 0.00224969418487 -4.41257057712e-22)
(0.0456173212542 0.0032012905339 -1.54837583674e-22)
(0.0467159902988 0.00389462196088 -6.28884356683e-23)
(0.0481444374402 0.00458934213885 4.72743989774e-24)
(0.0498925285295 0.00519418244324 -3.07686078272e-25)
(0.0519810660777 0.00568956507512 -4.51749057325e-24)
(0.0544431588443 0.00605316971842 2.11714674998e-23)
(0.0573051854743 0.00623250448444 3.50548784395e-24)
(0.0606177091559 0.0061683439103 5.69566108426e-24)
(0.0644661504845 0.00580510089649 -1.27676411952e-23)
(0.0442327252155 0.00212611769474 8.62200727244e-23)
(0.0440257369823 0.00295176347045 -2.99515172519e-22)
(0.0446997222961 0.00420153640633 -5.74414681235e-23)
(0.0458447368115 0.00520567901476 -5.36704484164e-23)
(0.0473287008189 0.00621574243303 -1.14235116824e-23)
(0.0491558783277 0.00716227977241 -6.38875305411e-24)
(0.0513524745677 0.0080337665693 -8.7344308795e-24)
(0.0539562111639 0.0088020372249 3.97871313694e-24)
(0.0569958479271 0.00943084571661 -3.7332857391e-24)
(0.0605332359448 0.00989222613103 -1.24152627488e-23)
(0.0646700289649 0.0101326471871 2.35924012333e-24)
(0.0429124028828 0.00256013937538 9.2157916429e-22)
(0.0427780975754 0.00366138139323 2.2539509211e-22)
(0.0434760266349 0.00522799662055 9.08117158051e-23)
(0.0446473411635 0.0065531720941 -3.30696653175e-23)
(0.0461694675488 0.00789831956168 -5.15332626131e-24)
(0.0480524146494 0.00920964492343 -7.71093175167e-24)
(0.0503185118062 0.010479348743 -1.69733069845e-23)
(0.0530081853024 0.0116848417236 -4.30636722978e-24)
(0.0561695519105 0.0127982150121 -4.60984102346e-24)
(0.0598651682894 0.0138234756302 -5.63664364198e-24)
(0.0427242247325 0.000762570040145 1.02611171076e-21)
(0.0412758876821 0.00300849160225 1.41569420976e-21)
(0.0412134553242 0.00439538483042 2.76193845339e-22)
(0.0419301796989 0.00626117097663 -1.75470975555e-23)
(0.0431156555372 0.00792487732397 -2.96542311889e-23)
(0.0446573240799 0.00961742094897 -5.31107495578e-24)
(0.0465653959824 0.0113026855265 -7.06071543361e-24)
(0.0488709800621 0.0129796778448 1.85226545909e-23)
(0.0515966397559 0.0146412480559 -9.35570699177e-24)
(0.0548099093869 0.0162755272478 5.57709157461e-24)
(0.0585826062179 0.0178827968724 1.26269422418e-23)
(0.0406681947189 0.000908864939071 5.86492602126e-22)
(0.0393588715735 0.00345185533759 1.28644185811e-21)
(0.0393347679888 0.00513078579891 -5.24540371196e-23)
(0.0400690990175 0.00730546059471 1.44930392723e-23)
(0.041250169878 0.00930304379891 -4.08076910209e-23)
(0.0427833418071 0.0113445924467 -1.37291322565e-23)
(0.0446813372322 0.0134145645572 -2.91208332878e-24)
(0.0469794870408 0.0154998120424 9.27311218464e-26)
(0.0497024867615 0.0176121898238 1.05272733256e-23)
(0.0529086245253 0.0197735191764 3.13059836298e-23)
(0.0566655799945 0.0219765782608 3.04545225201e-23)
(0.0383299687004 0.00105505462552 -4.2423264133e-22)
(0.0371556159454 0.00388509206416 1.46044483192e-21)
(0.0371651672776 0.00585475725091 -1.07938685098e-22)
(0.0378950314467 0.0083363334382 9.24814235825e-24)
(0.0390500383227 0.0106596948647 -1.96017497352e-23)
(0.0405482237345 0.0130449560097 1.53432205211e-23)
(0.0424009515837 0.015490023886 1.62262625659e-23)
(0.0446430912629 0.0179898438202 2.85366119001e-24)
(0.0473164555208 0.0205589960751 1.44658834391e-23)
(0.0504536575964 0.0232287715651 4.57172680365e-23)
(0.03571127462 0.0011983869395 2.58989420025e-22)
(0.0346649496374 0.00430376115474 1.62231138497e-21)
(0.0347016839815 0.00655339750651 6.4750355622e-22)
(0.0354128820435 0.00933408988534 1.09267822785e-22)
(0.0365224569381 0.0119742960824 4.08300799702e-24)
(0.0379621778356 0.0146926323775 9.77408184953e-24)
(0.0397417036322 0.0175017383818 -4.64940653171e-24)
(0.0418918509578 0.0204057809851 -9.03855473585e-24)
(0.0444558259118 0.0234130433119 2.62702587775e-24)
(0.0328230252504 0.0013333710157 1.16712085747e-21)
(0.03189733899 0.00469838074617 2.09819803115e-21)
(0.0319584779759 0.00721935298755 5.14430679356e-22)
(0.0326299582691 0.010285636576 1.19161932491e-22)
(0.0336756292248 0.013224365444 -1.29226417428e-23)
(0.0350321007767 0.0162613229743 -9.22470956294e-24)
(0.0367153968241 0.0194129890249 1.63285725935e-23)
(0.0387374820968 0.0226968650807 3.77469707512e-24)
(0.041146415035 0.0261302197358 1.26145190745e-23)
(0.0296826650967 0.00145546732562 5.97221731411e-22)
(0.0288727202384 0.00506775106245 3.00228709554e-21)
(0.0289495299073 0.00783558000456 1.16024029212e-21)
(0.0295640254442 0.011164446998 2.16331912185e-22)
(0.030529236343 0.0143893886013 2.36737155613e-23)
(0.0317799058034 0.0177299563009 1.13678576359e-23)
(0.0333340056938 0.021201037517 -1.83232852379e-24)
(0.0352007576306 0.0248298304816 1.77993211654e-23)
(0.0374182553646 0.0286541610619 -2.21073220442e-23)
(0.0400243263769 0.0327104973609 1.24566408287e-24)
(0.026314905133 0.00156271013862 1.65559015372e-22)
(0.0256191314334 0.0053987089455 1.26781169484e-21)
(0.0256897651289 0.00839325101191 6.01339011399e-22)
(0.0262437664523 0.0119637101281 2.02336969637e-22)
(0.0271121225247 0.0154507489648 5.16589462819e-23)
(0.0282401432774 0.019063554722 -1.17103683149e-23)
(0.0296307234118 0.0228286026475 1.87823902065e-23)
(0.031311225019 0.0267758974354 -2.59302330728e-24)
(0.033303490154 0.0309491079181 1.3321261996e-24)
(0.0356384535308 0.0353905635061 2.46871611683e-23)
(0.0227452167583 0.00165665446861 -1.83542159801e-22)
(0.0221450031507 0.00568117320278 1.8998466521e-21)
(0.0222045195529 0.00887703118681 1.02640824817e-21)
(0.0226900676031 0.0126718664754 2.47662584001e-22)
(0.023450334218 0.0163955740675 7.6215117377e-23)
(0.0244323146857 0.0202471336937 3.77574151891e-23)
(0.0256446258373 0.0242683624322 3.34622739887e-23)
(0.0271092314663 0.0284990836208 2.02786565801e-23)
(0.0288441674376 0.0329794522545 7.06944545528e-24)
(0.0308741687623 0.0377580325615 1.73826829607e-23)
(0.0190128607623 0.00171392881831 -5.06627222879e-22)
(0.0184705426446 0.00590780813364 1.62223423369e-21)
(0.0185180702666 0.00929381020762 9.15272079334e-22)
(0.0189237839857 0.0132850615946 2.6737674358e-22)
(0.0195603293926 0.0172056021476 1.74852594939e-22)
(0.0203826892747 0.0212622071531 1.43238800875e-22)
(0.0214035210752 0.0255089619075 1.1998922168e-22)
(0.0226318355423 0.0299800205438 1.01763479187e-22)
(0.0240838889032 0.0347208962516 1.89686363948e-23)
(0.0257798713532 0.0397850789452 8.52803726938e-23)
(0.0151830866903 0.00172389515784 5.72932618926e-22)
(0.0146459485473 0.00607446323136 2.13190587051e-21)
(0.014663491697 0.00964196569257 5.27480921304e-22)
(0.0149876386925 0.0137969950763 2.71492004379e-22)
(0.015495513705 0.0178891690348 2.72371899943e-22)
(0.0161558527055 0.0221236926088 3.5396398416e-22)
(0.0169688982831 0.0265556412543 2.13913332413e-22)
(0.0179430012458 0.0312241506103 3.3008304188e-22)
(0.0190915286132 0.0361792021466 1.56142322583e-22)
(0.0204296525383 0.0414773812464 1.29924183657e-22)
(0.0111391614666 0.00172972788473 1.14794076898e-21)
(0.0105182265332 0.00623293511429 3.99854605891e-21)
(0.0104823786587 0.00997983578235 9.93752788486e-22)
(0.0107328085122 0.0142752182316 1.31402971838e-22)
(0.011134224285 0.0185097777586 3.72192684501e-22)
(0.0116341560264 0.0228938782838 8.05353906852e-22)
(0.0122345190988 0.0274827981854 1.43281991135e-23)
(0.0129457752362 0.0323182279019 1.09954804599e-21)
(0.0137791042882 0.0374523591251 6.83385804055e-22)
(0.00747390538828 0.00188193144046 3.40598048944e-22)
(0.00669808810137 0.00657756125658 1.03640024257e-21)
(0.00662676154411 0.0104649375016 2.56795094696e-22)
(0.00682435405223 0.0148917052216 -2.99273914285e-22)
(0.00710701746331 0.0192791991813 5.2665760189e-22)
(0.00742935878279 0.0238145881627 1.61222752025e-21)
(0.00780107718558 0.0285663602292 -1.02935244011e-21)
(0.00823410020305 0.0335770157587 1.24252435197e-21)
(0.00873707691476 0.0388965058162 1.25764898961e-21)
(0.00262788086994 0.00257500822518 1.25953018857e-22)
(0.00197468781131 0.00751598545113 3.01069587908e-22)
(0.0019390212767 0.0113570675826 3.55244608769e-22)
(0.00206508550057 0.0158448245313 5.15111252494e-22)
(0.00220456289038 0.0203890594053 4.87555532301e-22)
(0.00233803832348 0.0251389838595 1.16623427812e-21)
(0.00248031276932 0.030132052358 3.31846007699e-22)
(0.00263897921252 0.0353959043231 2.02343598569e-21)
(0.00281845376639 0.0409747121156 1.39595073e-21)
)
;

boundaryField
{
    back
    {
        type            noSlip;
    }
    sides
    {
        type            noSlip;
    }
    bottom
    {
        type            noSlip;
    }
    front
    {
        type            noSlip;
    }
    atmosphere
    {
        type            pressureInletOutletVelocity;
        value           nonuniform List<vector> 0();
    }
    floatingObject
    {
        type            movingWallVelocity;
        value           nonuniform List<vector> 0();
    }
    procBoundary10to9
    {
        type            processor;
        value           nonuniform List<vector> 
15
(
(0.0466213649009 0.00133294730124 -2.05320265046e-23)
(0.0475788763914 0.00147119894626 -4.33439119004e-23)
(0.0488333602394 0.00159020655651 -3.17565948553e-24)
(0.0503632867191 0.00159606027254 2.96290263837e-24)
(0.0521665031042 0.00146386978326 -2.33047518016e-24)
(0.054244988247 0.00114625560185 -3.41745016658e-24)
(0.0566191078389 0.000591193960155 1.72062503789e-24)
(0.0592980277395 -0.000282141171184 -6.34880973681e-24)
(0.0460136927262 0.0012894852876 7.60642186336e-22)
(0.0456591981782 0.00157602579585 5.14907186428e-24)
(0.0456591981782 0.00157602579585 5.14907186428e-24)
(0.0471069890739 0.000322377127225 -3.91769980247e-22)
(0.045942392592 0.000462157577738 1.59839952116e-22)
(0.0444871307139 0.000621493043094 -1.24679943564e-22)
(0.0444871307139 0.000621493043094 -1.24679943564e-22)
)
;
    }
    procBoundary10to11
    {
        type            processor;
        value           nonuniform List<vector> 
23
(
(0.0636253013743 0.00186465558375 -1.53637173893e-23)
(0.0636253013743 0.00186465558375 -1.53637173893e-23)
(0.0689491571693 0.00505660967045 7.21939195482e-23)
(0.0695116499158 0.0101071886846 3.12277585926e-23)
(0.0641803871468 0.0147174600378 2.27809165139e-23)
(0.0641803871468 0.0147174600378 2.27809165139e-23)
(0.0629834762603 0.0194437934091 3.52243599043e-23)
(0.0610538185255 0.024207952312 8.00031155881e-23)
(0.0541262472614 0.0260089143497 -5.81382530537e-24)
(0.0541262472614 0.0260089143497 -5.81382530537e-24)
(0.0474692944878 0.0265752713668 -1.90202240253e-23)
(0.0474692944878 0.0265752713668 -1.90202240253e-23)
(0.0439843745939 0.0297573327078 3.14679654584e-23)
(0.0439843745939 0.0297573327078 3.14679654584e-23)
(0.0430550741472 0.0370385041983 -2.63112752414e-23)
(0.0383509723816 0.0401433426857 -4.81533729513e-24)
(0.0332287280338 0.0428821904119 7.35023295175e-24)
(0.0277434796196 0.0452228358491 7.48562074937e-23)
(0.0219750257313 0.0471720578764 2.49169475486e-22)
(0.0147452271006 0.0429438783102 -2.71989460575e-22)
(0.0147452271006 0.0429438783102 -2.71989460575e-22)
(0.00931602118802 0.0445801122785 -6.63112679893e-22)
(0.00302231084675 0.0469179777394 7.17291928728e-22)
)
;
    }
}


// ************************************************************************* //
