/*--------------------------------*- C++ -*----------------------------------*\
| =========                 |                                                 |
| \\      /  F ield         | OpenFOAM: The Open Source CFD Toolbox           |
|  \\    /   O peration     | Version:  v2012                                 |
|   \\  /    A nd           | Website:  www.openfoam.com                      |
|    \\/     M anipulation  |                                                 |
\*---------------------------------------------------------------------------*/
FoamFile
{
    version     2.0;
    format      ascii;
    class       volScalarField;
    location    "2";
    object      ddt0(k);
}
// * * * * * * * * * * * * * * * * * * * * * * * * * * * * * * * * * * * * * //

dimensions      [0 2 -3 0 0 0 0];


internalField   nonuniform List<scalar> 
164
(
-0.00465246187284
-0.00571858380751
-0.0060361128972
-0.00614236148364
-0.00617842193056
-0.00619460547611
-0.00620643649915
-0.00621787716456
-0.00465938025701
-0.00573305463579
-0.00604529590992
-0.00614558213153
-0.00617761610783
-0.00619125417299
-0.00620111524705
-0.00621065490766
-0.00622009767744
-0.00622871831806
-0.00623391552798
-0.00466468015084
-0.00574435028731
-0.00605097913975
-0.00614555180482
-0.00617396459525
-0.00618543388098
-0.00619373993861
-0.00620184986449
-0.00620987489314
-0.00621708853026
-0.00622138222471
-0.00621393451352
-0.00614515058727
-0.0046685034005
-0.00575269224965
-0.00605356543012
-0.00614270712772
-0.00616791757469
-0.00617763138621
-0.00618473452515
-0.00619175912549
-0.00619877832715
-0.00620509177338
-0.00620883226136
-0.00620328706496
-0.00615740844852
-0.00591688382022
-0.00467120886361
-0.00575839138287
-0.00605346209736
-0.00613752813799
-0.00615994413338
-0.00616823691826
-0.00617444657143
-0.00618072189829
-0.00618709208638
-0.00619295224302
-0.00619643266234
-0.00619170000657
-0.00615750742354
-0.00600909391908
-0.00467293260815
-0.00576177478185
-0.00605104895684
-0.00613043381747
-0.00615044552754
-0.0061576224626
-0.00616321052104
-0.00616904817375
-0.00617505127047
-0.00618066037183
-0.00618425532239
-0.00618091158688
-0.00615559366093
-0.00606332934904
-0.00467398364627
-0.00576310405518
-0.00604667834196
-0.00612180918776
-0.00613977843021
-0.00614610522752
-0.00615127277458
-0.00615684866163
-0.00616271986464
-0.00616832494642
-0.00617229780502
-0.00617056875125
-0.00615260401837
-0.00609449847269
-0.00467433485426
-0.00576264731286
-0.00604066091423
-0.00611195319153
-0.00612821172112
-0.00613391475004
-0.00613884243002
-0.00614433413831
-0.0061502625311
-0.00615613404102
-0.00616073719236
-0.00616090884726
-0.00615040143778
-0.00612093234664
-0.00467427853857
-0.00576053246707
-0.00603325687387
-0.00610112924688
-0.00611598818525
-0.00612126647202
-0.00612611601621
-0.00613166851131
-0.00613779568901
-0.0061440797947
-0.00614954537619
-0.00615206074927
-0.00614976057262
-0.00614885844189
-0.00467392897955
-0.00575708333097
-0.00602463673882
-0.0060895285592
-0.00610328409328
-0.00610830364864
-0.00611318773271
-0.00611891571683
-0.00612536452234
-0.00613219313327
-0.00613870182582
-0.00614392856278
-0.0061504733124
-0.00617822446242
-0.00629580216094
-0.00674576443077
-0.00467409549684
-0.00575232761659
-0.00601493641397
-0.006077303183
-0.00609023753091
-0.00609513834489
-0.00610014938482
-0.00610614982855
-0.00611301153594
-0.00612048081368
-0.00612817133224
-0.00613642821203
-0.00615254327424
-0.00621018836693
-0.00641478451883
-0.00710804797231
-0.00467442923374
-0.00574636160569
-0.00600435386995
-0.00606463126528
-0.00607698394867
-0.00608187855203
-0.00608707825974
-0.00609337954709
-0.00610068607738
-0.00610885641234
-0.00611783296615
-0.00612932590764
-0.0061551795852
-0.00624224437632
-0.00652712419853
-0.00741692607312
)
;

boundaryField
{
    back
    {
        type            calculated;
        value           nonuniform List<scalar> 
164
(
-0.00465246187284
-0.00571858380751
-0.0060361128972
-0.00614236148364
-0.00617842193056
-0.00619460547611
-0.00620643649915
-0.00621787716456
-0.00465938025701
-0.00573305463579
-0.00604529590992
-0.00614558213153
-0.00617761610783
-0.00619125417299
-0.00620111524705
-0.00621065490766
-0.00622009767744
-0.00622871831806
-0.00623391552798
-0.00466468015084
-0.00574435028731
-0.00605097913975
-0.00614555180482
-0.00617396459525
-0.00618543388098
-0.00619373993861
-0.00620184986449
-0.00620987489314
-0.00621708853026
-0.00622138222471
-0.00621393451352
-0.00614515058727
-0.0046685034005
-0.00575269224965
-0.00605356543012
-0.00614270712772
-0.00616791757469
-0.00617763138621
-0.00618473452515
-0.00619175912549
-0.00619877832715
-0.00620509177338
-0.00620883226136
-0.00620328706496
-0.00615740844852
-0.00591688382022
-0.00467120886361
-0.00575839138287
-0.00605346209736
-0.00613752813799
-0.00615994413338
-0.00616823691826
-0.00617444657143
-0.00618072189829
-0.00618709208638
-0.00619295224302
-0.00619643266234
-0.00619170000657
-0.00615750742354
-0.00600909391908
-0.00467293260815
-0.00576177478185
-0.00605104895684
-0.00613043381747
-0.00615044552754
-0.0061576224626
-0.00616321052104
-0.00616904817375
-0.00617505127047
-0.00618066037183
-0.00618425532239
-0.00618091158688
-0.00615559366093
-0.00606332934904
-0.00467398364627
-0.00576310405518
-0.00604667834196
-0.00612180918776
-0.00613977843021
-0.00614610522752
-0.00615127277458
-0.00615684866163
-0.00616271986464
-0.00616832494642
-0.00617229780502
-0.00617056875125
-0.00615260401837
-0.00609449847269
-0.00467433485426
-0.00576264731286
-0.00604066091423
-0.00611195319153
-0.00612821172112
-0.00613391475004
-0.00613884243002
-0.00614433413831
-0.0061502625311
-0.00615613404102
-0.00616073719236
-0.00616090884726
-0.00615040143778
-0.00612093234664
-0.00467427853857
-0.00576053246707
-0.00603325687387
-0.00610112924688
-0.00611598818525
-0.00612126647203
-0.00612611601621
-0.00613166851131
-0.00613779568901
-0.0061440797947
-0.00614954537619
-0.00615206074927
-0.00614976057262
-0.00614885844189
-0.00467392897955
-0.00575708333097
-0.00602463673882
-0.0060895285592
-0.00610328409328
-0.00610830364864
-0.00611318773271
-0.00611891571683
-0.00612536452234
-0.00613219313327
-0.00613870182582
-0.00614392856278
-0.0061504733124
-0.00617822446242
-0.00629580216094
-0.00674576443077
-0.00467409549684
-0.00575232761659
-0.00601493641397
-0.006077303183
-0.00609023753091
-0.00609513834489
-0.00610014938482
-0.00610614982855
-0.00611301153594
-0.00612048081368
-0.00612817133224
-0.00613642821203
-0.00615254327424
-0.00621018836693
-0.00641478451883
-0.00710804797231
-0.00467442923374
-0.00574636160569
-0.00600435386995
-0.00606463126528
-0.00607698394867
-0.00608187855203
-0.00608707825974
-0.00609337954709
-0.00610068607738
-0.00610885641234
-0.00611783296615
-0.00612932590764
-0.0061551795852
-0.00624224437632
-0.00652712419853
-0.00741692607312
)
;
    }
    sides
    {
        type            calculated;
        value           nonuniform List<scalar> 0();
    }
    bottom
    {
        type            calculated;
        value           nonuniform List<scalar> 
12
(
-0.00465246187284
-0.00465938025701
-0.00466468015084
-0.0046685034005
-0.00467120886361
-0.00467293260815
-0.00467398364627
-0.00467433485426
-0.00467427853857
-0.00467392897955
-0.00467409549684
-0.00467442923374
)
;
    }
    front
    {
        type            calculated;
        value           nonuniform List<scalar> 
164
(
-0.00465246187284
-0.00571858380751
-0.0060361128972
-0.00614236148364
-0.00617842193056
-0.00619460547611
-0.00620643649915
-0.00621787716456
-0.00465938025701
-0.00573305463579
-0.00604529590992
-0.00614558213153
-0.00617761610783
-0.00619125417299
-0.00620111524705
-0.00621065490766
-0.00622009767744
-0.00622871831806
-0.00623391552798
-0.00466468015084
-0.00574435028731
-0.00605097913975
-0.00614555180482
-0.00617396459525
-0.00618543388098
-0.00619373993861
-0.00620184986449
-0.00620987489314
-0.00621708853026
-0.00622138222471
-0.00621393451352
-0.00614515058727
-0.0046685034005
-0.00575269224965
-0.00605356543012
-0.00614270712772
-0.00616791757469
-0.00617763138621
-0.00618473452515
-0.00619175912549
-0.00619877832715
-0.00620509177338
-0.00620883226136
-0.00620328706496
-0.00615740844852
-0.00591688382022
-0.00467120886361
-0.00575839138287
-0.00605346209736
-0.00613752813799
-0.00615994413338
-0.00616823691826
-0.00617444657143
-0.00618072189829
-0.00618709208638
-0.00619295224302
-0.00619643266234
-0.00619170000657
-0.00615750742354
-0.00600909391908
-0.00467293260815
-0.00576177478185
-0.00605104895684
-0.00613043381747
-0.00615044552754
-0.0061576224626
-0.00616321052104
-0.00616904817375
-0.00617505127047
-0.00618066037183
-0.00618425532239
-0.00618091158688
-0.00615559366093
-0.00606332934904
-0.00467398364627
-0.00576310405518
-0.00604667834196
-0.00612180918776
-0.00613977843021
-0.00614610522752
-0.00615127277458
-0.00615684866163
-0.00616271986464
-0.00616832494642
-0.00617229780502
-0.00617056875125
-0.00615260401837
-0.00609449847269
-0.00467433485426
-0.00576264731286
-0.00604066091423
-0.00611195319153
-0.00612821172112
-0.00613391475004
-0.00613884243002
-0.00614433413831
-0.0061502625311
-0.00615613404102
-0.00616073719236
-0.00616090884726
-0.00615040143778
-0.00612093234664
-0.00467427853857
-0.00576053246707
-0.00603325687387
-0.00610112924688
-0.00611598818525
-0.00612126647203
-0.00612611601621
-0.00613166851131
-0.00613779568901
-0.0061440797947
-0.00614954537619
-0.00615206074927
-0.00614976057262
-0.00614885844189
-0.00467392897955
-0.00575708333097
-0.00602463673882
-0.0060895285592
-0.00610328409328
-0.00610830364864
-0.00611318773271
-0.00611891571683
-0.00612536452234
-0.00613219313327
-0.00613870182582
-0.00614392856278
-0.0061504733124
-0.00617822446242
-0.00629580216094
-0.00674576443077
-0.00467409549684
-0.00575232761659
-0.00601493641397
-0.006077303183
-0.00609023753091
-0.00609513834489
-0.00610014938482
-0.00610614982855
-0.00611301153594
-0.00612048081368
-0.00612817133224
-0.00613642821203
-0.00615254327424
-0.00621018836693
-0.00641478451883
-0.00710804797231
-0.00467442923374
-0.00574636160569
-0.00600435386995
-0.00606463126528
-0.00607698394867
-0.00608187855203
-0.00608707825974
-0.00609337954709
-0.00610068607738
-0.00610885641234
-0.00611783296615
-0.00612932590764
-0.0061551795852
-0.00624224437632
-0.00652712419853
-0.00741692607312
)
;
    }
    atmosphere
    {
        type            calculated;
        value           nonuniform List<scalar> 0();
    }
    floatingObject
    {
        type            calculated;
        value           nonuniform List<scalar> 0();
    }
    procBoundary7to6
    {
        type            processor;
        value           nonuniform List<scalar> 
11
(
-0.00478983073904
-0.00538415331168
-0.00574657823329
-0.00593620703682
-0.00606775219939
-0.00618460206707
-0.00618460206707
-0.00640908167352
-0.00879698040963
-0.0098401472019
-0.010327637391
)
;
    }
    procBoundary7to8
    {
        type            processor;
        value           nonuniform List<scalar> 
17
(
-0.00464317796794
-0.00570054598764
-0.00602304280129
-0.00613537534958
-0.00617585048795
-0.006194996571
-0.00620920056632
-0.00622304297558
-0.00622944132551
-0.00622944132551
-0.00624040756181
-0.00624907508701
-0.00622143001103
-0.00622143001103
-0.00610009498646
-0.00572990485633
-0.00572990485633
)
;
    }
    procBoundary7to9
    {
        type            processor;
        value           nonuniform List<scalar> 
16
(
-0.00467345266319
-0.00573929084489
-0.00599330088968
-0.00605173248275
-0.00606359294277
-0.00606851355419
-0.00607392490511
-0.00608054091988
-0.0060882986788
-0.00609717223057
-0.00610744866249
-0.0061221719685
-0.0061573282401
-0.0062703322713
-0.00661584338371
-0.00760184880552
)
;
    }
}


// ************************************************************************* //
