/*--------------------------------*- C++ -*----------------------------------*\
| =========                 |                                                 |
| \\      /  F ield         | OpenFOAM: The Open Source CFD Toolbox           |
|  \\    /   O peration     | Version:  v2012                                 |
|   \\  /    A nd           | Website:  www.openfoam.com                      |
|    \\/     M anipulation  |                                                 |
\*---------------------------------------------------------------------------*/
FoamFile
{
    version     2.0;
    format      ascii;
    class       volScalarField;
    location    "2";
    object      epsilon;
}
// * * * * * * * * * * * * * * * * * * * * * * * * * * * * * * * * * * * * * //

dimensions      [0 2 -3 0 0 0 0];


internalField   nonuniform List<scalar> 
164
(
0.00538657296274
0.00556711370005
0.00606206175248
0.00623983864719
0.00630854497094
0.00634459092005
0.00637380871406
0.00640424546168
0.00540871950445
0.00559044200705
0.00608344927802
0.00625700009372
0.00632212337027
0.00635548003335
0.00638245179147
0.00641070077595
0.00644239728393
0.00647832850293
0.00651933522648
0.00542710737615
0.00561010906857
0.00610106216074
0.00627061050036
0.006332423665
0.00636337301241
0.00638834167551
0.00641459030243
0.00644411144542
0.00647761057846
0.00651578865564
0.00656122040171
0.00662578304238
0.00544233347216
0.00562635933387
0.00611513054952
0.00628092421654
0.00633975315657
0.00636855659938
0.00639172060253
0.00641615846137
0.00644366225904
0.00647484204287
0.00651048693767
0.00655332413931
0.00661507274896
0.00674651548894
0.00545459605422
0.00563933293077
0.00612590610927
0.00628822147803
0.00634436898672
0.00637126575961
0.00639281436672
0.00641558916426
0.00644125955679
0.0064703166361
0.00650353558875
0.00654397772835
0.00660414070552
0.00673194924133
0.00546404537832
0.00564931139095
0.0061336323452
0.00629275523341
0.00634652017142
0.00637174345791
0.00639186448154
0.00641314776129
0.00643712322701
0.0064642712788
0.00649538831154
0.00653394840782
0.00659404325918
0.0067269092033
0.00547105335199
0.00565647459472
0.00613857015958
0.00629479250965
0.00634645735288
0.00637021553145
0.00638908107076
0.0064090453341
0.00643151359569
0.00645694302025
0.00648626834489
0.0065235038602
0.00658476359841
0.00672684339861
0.00547560397899
0.00566111153294
0.00614094836209
0.00629456423186
0.00634440386641
0.0063669024424
0.00638467473543
0.00640348422231
0.00642463729312
0.0064485770236
0.00647638776618
0.00651277864327
0.00657604641998
0.00672882215303
0.00547847465389
0.00566333884365
0.00614098099742
0.00629228740076
0.00634056813518
0.00636200086566
0.00637883776242
0.00639665202396
0.00641668548917
0.00643938541004
0.00646602133004
0.0065020565533
0.00656817133183
0.00673297407379
0.00547909325198
0.00566335468795
0.00613883947813
0.00628814349149
0.00633513510847
0.00635569711369
0.00637176260677
0.00638874269116
0.00640783597031
0.00642953165869
0.0064553189394
0.00649148730374
0.00656117143418
0.00673872807546
0.00724383286358
0.00872279823056
0.00547836760729
0.00566138137675
0.00613471462696
0.00628229975326
0.0063282502754
0.00634811826525
0.0063635648285
0.00637987882339
0.00639822564951
0.00641914984127
0.00644440513599
0.00648119555206
0.0065552365183
0.00674642791284
0.00728370900165
0.00882090634986
0.00547653866241
0.00565760156829
0.00612878085196
0.00627492006765
0.00632005642776
0.00633939255051
0.00635435753667
0.00637015665031
0.00638794981891
0.0064083361961
0.00643336276374
0.00647122197363
0.00655034387907
0.00675658603053
0.00732807065515
0.00893234135073
)
;

boundaryField
{
    back
    {
        lowReCorrection 0;
        blending        stepwise;
        n               2;
        type            epsilonWallFunction;
        value           nonuniform List<scalar> 
164
(
0.00538657296274
0.00556711370005
0.00606206175248
0.00623983864719
0.00630854497094
0.00634459092005
0.00637380871406
0.00640424546168
0.00540871950445
0.00559044200705
0.00608344927802
0.00625700009372
0.00632212337027
0.00635548003335
0.00638245179147
0.00641070077595
0.00644239728393
0.00647832850293
0.00651933522648
0.00542710737615
0.00561010906857
0.00610106216074
0.00627061050036
0.006332423665
0.00636337301241
0.00638834167551
0.00641459030243
0.00644411144542
0.00647761057846
0.00651578865564
0.00656122040171
0.00662578304238
0.00544233347216
0.00562635933387
0.00611513054952
0.00628092421654
0.00633975315657
0.00636855659938
0.00639172060253
0.00641615846137
0.00644366225904
0.00647484204287
0.00651048693767
0.00655332413931
0.00661507274896
0.00674651548894
0.00545459605422
0.00563933293077
0.00612590610927
0.00628822147803
0.00634436898672
0.00637126575961
0.00639281436672
0.00641558916426
0.00644125955679
0.0064703166361
0.00650353558875
0.00654397772835
0.00660414070552
0.00673194924133
0.00546404537832
0.00564931139095
0.0061336323452
0.00629275523341
0.00634652017142
0.00637174345791
0.00639186448154
0.00641314776129
0.00643712322701
0.0064642712788
0.00649538831154
0.00653394840782
0.00659404325918
0.0067269092033
0.00547105335199
0.00565647459472
0.00613857015958
0.00629479250965
0.00634645735288
0.00637021553145
0.00638908107076
0.0064090453341
0.00643151359569
0.00645694302025
0.00648626834489
0.0065235038602
0.00658476359841
0.00672684339861
0.00547560397899
0.00566111153294
0.00614094836209
0.00629456423186
0.00634440386641
0.0063669024424
0.00638467473543
0.00640348422231
0.00642463729312
0.0064485770236
0.00647638776618
0.00651277864327
0.00657604641998
0.00672882215303
0.00547847465389
0.00566333884365
0.00614098099742
0.00629228740076
0.00634056813518
0.00636200086566
0.00637883776242
0.00639665202396
0.00641668548917
0.00643938541004
0.00646602133004
0.0065020565533
0.00656817133183
0.00673297407379
0.00547909325198
0.00566335468795
0.00613883947813
0.00628814349149
0.00633513510847
0.00635569711369
0.00637176260677
0.00638874269116
0.00640783597031
0.00642953165869
0.0064553189394
0.00649148730374
0.00656117143418
0.00673872807546
0.00724383286358
0.00872279823056
0.00547836760729
0.00566138137675
0.00613471462696
0.00628229975326
0.0063282502754
0.00634811826525
0.0063635648285
0.00637987882339
0.00639822564951
0.00641914984127
0.00644440513599
0.00648119555206
0.0065552365183
0.00674642791284
0.00728370900165
0.00882090634986
0.00547653866241
0.00565760156829
0.00612878085196
0.00627492006765
0.00632005642776
0.00633939255051
0.00635435753667
0.00637015665031
0.00638794981891
0.0064083361961
0.00643336276374
0.00647122197363
0.00655034387907
0.00675658603053
0.00732807065515
0.00893234135073
)
;
    }
    sides
    {
        lowReCorrection 0;
        blending        stepwise;
        n               2;
        type            epsilonWallFunction;
        value           nonuniform List<scalar> 0();
    }
    bottom
    {
        lowReCorrection 0;
        blending        stepwise;
        n               2;
        type            epsilonWallFunction;
        value           nonuniform List<scalar> 
12
(
0.00538657296274
0.00540871950445
0.00542710737615
0.00544233347216
0.00545459605422
0.00546404537832
0.00547105335199
0.00547560397899
0.00547847465389
0.00547909325198
0.00547836760729
0.00547653866241
)
;
    }
    front
    {
        lowReCorrection 0;
        blending        stepwise;
        n               2;
        type            epsilonWallFunction;
        value           nonuniform List<scalar> 
164
(
0.00538657296274
0.00556711370005
0.00606206175248
0.00623983864719
0.00630854497094
0.00634459092005
0.00637380871406
0.00640424546168
0.00540871950445
0.00559044200705
0.00608344927802
0.00625700009372
0.00632212337027
0.00635548003335
0.00638245179147
0.00641070077595
0.00644239728393
0.00647832850293
0.00651933522648
0.00542710737615
0.00561010906857
0.00610106216074
0.00627061050036
0.006332423665
0.00636337301241
0.00638834167551
0.00641459030243
0.00644411144542
0.00647761057846
0.00651578865564
0.00656122040171
0.00662578304238
0.00544233347216
0.00562635933387
0.00611513054952
0.00628092421654
0.00633975315657
0.00636855659938
0.00639172060253
0.00641615846137
0.00644366225904
0.00647484204287
0.00651048693767
0.00655332413931
0.00661507274896
0.00674651548894
0.00545459605422
0.00563933293077
0.00612590610927
0.00628822147803
0.00634436898672
0.00637126575961
0.00639281436672
0.00641558916426
0.00644125955679
0.0064703166361
0.00650353558875
0.00654397772835
0.00660414070552
0.00673194924133
0.00546404537832
0.00564931139095
0.0061336323452
0.00629275523341
0.00634652017142
0.00637174345791
0.00639186448154
0.00641314776129
0.00643712322701
0.0064642712788
0.00649538831154
0.00653394840782
0.00659404325918
0.0067269092033
0.00547105335199
0.00565647459472
0.00613857015958
0.00629479250965
0.00634645735288
0.00637021553145
0.00638908107076
0.0064090453341
0.00643151359569
0.00645694302025
0.00648626834489
0.0065235038602
0.00658476359841
0.00672684339861
0.00547560397899
0.00566111153294
0.00614094836209
0.00629456423186
0.00634440386641
0.0063669024424
0.00638467473543
0.00640348422231
0.00642463729312
0.0064485770236
0.00647638776618
0.00651277864327
0.00657604641998
0.00672882215303
0.00547847465389
0.00566333884365
0.00614098099742
0.00629228740076
0.00634056813518
0.00636200086566
0.00637883776242
0.00639665202396
0.00641668548917
0.00643938541004
0.00646602133004
0.0065020565533
0.00656817133183
0.00673297407379
0.00547909325198
0.00566335468795
0.00613883947813
0.00628814349149
0.00633513510847
0.00635569711369
0.00637176260677
0.00638874269116
0.00640783597031
0.00642953165869
0.0064553189394
0.00649148730374
0.00656117143418
0.00673872807546
0.00724383286358
0.00872279823056
0.00547836760729
0.00566138137675
0.00613471462696
0.00628229975326
0.0063282502754
0.00634811826525
0.0063635648285
0.00637987882339
0.00639822564951
0.00641914984127
0.00644440513599
0.00648119555206
0.0065552365183
0.00674642791284
0.00728370900165
0.00882090634986
0.00547653866241
0.00565760156829
0.00612878085196
0.00627492006765
0.00632005642776
0.00633939255051
0.00635435753667
0.00637015665031
0.00638794981891
0.0064083361961
0.00643336276374
0.00647122197363
0.00655034387907
0.00675658603053
0.00732807065515
0.00893234135073
)
;
    }
    atmosphere
    {
        type            inletOutlet;
        inletValue      nonuniform List<scalar> 0();
        value           nonuniform List<scalar> 0();
    }
    floatingObject
    {
        lowReCorrection 0;
        blending        stepwise;
        n               2;
        type            epsilonWallFunction;
        value           nonuniform List<scalar> 0();
    }
    procBoundary7to6
    {
        type            processor;
        value           nonuniform List<scalar> 
11
(
0.00716559365388
0.00710453432253
0.00710562244164
0.00713361814899
0.00716794752352
0.00720578288317
0.00720578288317
0.00862010951952
0.0130629078618
0.0132446822543
0.0135478026955
)
;
    }
    procBoundary7to8
    {
        type            processor;
        value           nonuniform List<scalar> 
17
(
0.0053610435516
0.005539939943
0.00603664706076
0.00621880218661
0.00629140626617
0.00633044582335
0.00636218883932
0.00639504896587
0.00643826245029
0.00643826245029
0.00647664015064
0.00652000084076
0.00656850761613
0.00656850761613
0.00664379117784
0.00676783396831
0.00676783396831
)
;
    }
    procBoundary7to9
    {
        type            processor;
        value           nonuniform List<scalar> 
16
(
0.00547289995633
0.00565206001665
0.00612125935769
0.00626619085606
0.00631069414739
0.00632963974991
0.00634426382628
0.00635970146572
0.00637709475046
0.0063971432422
0.00642220202046
0.0064614869204
0.00654618619145
0.00676800190155
0.00737333131257
0.00904246710657
)
;
    }
}


// ************************************************************************* //
