/*--------------------------------*- C++ -*----------------------------------*\
| =========                 |                                                 |
| \\      /  F ield         | OpenFOAM: The Open Source CFD Toolbox           |
|  \\    /   O peration     | Version:  v2012                                 |
|   \\  /    A nd           | Website:  www.openfoam.com                      |
|    \\/     M anipulation  |                                                 |
\*---------------------------------------------------------------------------*/
FoamFile
{
    version     2.0;
    format      ascii;
    class       volScalarField;
    location    "2";
    object      k_0;
}
// * * * * * * * * * * * * * * * * * * * * * * * * * * * * * * * * * * * * * //

dimensions      [0 2 -2 0 0 0 0];


internalField   nonuniform List<scalar> 
164
(
0.00633330679118
0.00784274413793
0.00830095813171
0.00846246513463
0.0085244713378
0.00855691207597
0.00858316253058
0.00861046552265
0.00635065423477
0.00786463823639
0.00832047104443
0.00847797425937
0.00853669890042
0.0085666999991
0.00859092013
0.00861625063584
0.0086446282404
0.00867674092563
0.00871331727445
0.00636503951874
0.00788307253015
0.00833652299681
0.0084902641622
0.00854596863994
0.00857379128571
0.00859620459286
0.00861973540797
0.00864616158596
0.00867609987965
0.00871015691138
0.00875059808345
0.00880790847934
0.00637693897527
0.00789828795104
0.00834933348964
0.00849957130361
0.00855256174776
0.00857844677906
0.00859923546686
0.00862114018092
0.00864575979452
0.00867362758915
0.00870543146037
0.00874357592586
0.00879841418342
0.00891458233552
0.00638651432888
0.00791042485383
0.00835913893199
0.00850615330635
0.00855671252803
0.00858087943279
0.00860021645129
0.00862063021193
0.00864361044975
0.00866958566129
0.00869923374009
0.00873526050306
0.00878871802824
0.00890174619954
0.00639388802896
0.00791975345121
0.00836616604057
0.00851024139239
0.00855864663465
0.00858130833974
0.00859936451347
0.00861844306365
0.0086399096569
0.00866418469863
0.00869196693635
0.00872633309687
0.00877975736328
0.00889730263866
0.00639935389696
0.00792644675377
0.00837065549933
0.00851207808412
0.00855859015828
0.00857993643557
0.00859686787091
0.00861476724983
0.00863488942781
0.00865763532536
0.00868382895634
0.0087170312276
0.00877151838274
0.00889724461447
0.00640290190807
0.00793077800562
0.00837281733052
0.00851187229177
0.00855674388972
0.0085769612816
0.00859291476845
0.00860978318828
0.00862873362463
0.00865015548052
0.00867500795693
0.00870747422778
0.00876377527798
0.00889898932573
0.00640513959658
0.00793285806222
0.00837284699472
0.00850981959325
0.0085532946896
0.00857255871899
0.00858767678227
0.00860365795918
0.00862161227217
0.0086419337404
0.0086657483792
0.00869791476903
0.00875677722468
0.0089026496097
0.00640562174205
0.00793287285804
0.00837090032901
0.00850608297731
0.00854840796478
0.00856689506976
0.00858132553254
0.00859656432905
0.00861368349869
0.00863311538342
0.0086561835249
0.00868848643355
0.00875055454524
0.00890772102556
0.0093474596731
0.0105799887002
0.00640505616087
0.00793103002378
0.00836715015374
0.00850081220865
0.00854221340842
0.00856008332184
0.00857396358247
0.00858861112719
0.00860506894531
0.00862381957256
0.00864642428334
0.00867930072255
0.00874527686596
0.00891450518892
0.00938173245419
0.0106591717539
0.00640363053588
0.00792749954136
0.00836175389148
0.00849415375422
0.00853483815139
0.00855223743073
0.00856569127641
0.00857988356481
0.00859585306564
0.00861413177593
0.00863654446555
0.00867039435105
0.00874092484308
0.00892345134379
0.00941978704378
0.0107487557318
)
;

boundaryField
{
    back
    {
        type            kqRWallFunction;
        value           nonuniform List<scalar> 
164
(
0.00633330679118
0.00784274413793
0.00830095813171
0.00846246513463
0.0085244713378
0.00855691207597
0.00858316253058
0.00861046552265
0.00635065423477
0.00786463823639
0.00832047104443
0.00847797425937
0.00853669890042
0.0085666999991
0.00859092013
0.00861625063584
0.0086446282404
0.00867674092563
0.00871331727445
0.00636503951874
0.00788307253015
0.00833652299681
0.0084902641622
0.00854596863994
0.00857379128571
0.00859620459286
0.00861973540797
0.00864616158596
0.00867609987965
0.00871015691138
0.00875059808345
0.00880790847934
0.00637693897527
0.00789828795104
0.00834933348964
0.00849957130361
0.00855256174776
0.00857844677906
0.00859923546686
0.00862114018092
0.00864575979452
0.00867362758915
0.00870543146037
0.00874357592586
0.00879841418342
0.00891458233552
0.00638651432888
0.00791042485383
0.00835913893199
0.00850615330635
0.00855671252803
0.00858087943279
0.00860021645129
0.00862063021193
0.00864361044975
0.00866958566129
0.00869923374009
0.00873526050306
0.00878871802824
0.00890174619954
0.00639388802896
0.00791975345121
0.00836616604057
0.00851024139239
0.00855864663465
0.00858130833974
0.00859936451347
0.00861844306365
0.0086399096569
0.00866418469863
0.00869196693635
0.00872633309687
0.00877975736328
0.00889730263866
0.00639935389696
0.00792644675377
0.00837065549933
0.00851207808412
0.00855859015828
0.00857993643557
0.00859686787091
0.00861476724983
0.00863488942781
0.00865763532536
0.00868382895634
0.0087170312276
0.00877151838274
0.00889724461447
0.00640290190807
0.00793077800562
0.00837281733052
0.00851187229177
0.00855674388972
0.0085769612816
0.00859291476845
0.00860978318828
0.00862873362463
0.00865015548052
0.00867500795693
0.00870747422778
0.00876377527798
0.00889898932573
0.00640513959658
0.00793285806222
0.00837284699472
0.00850981959325
0.0085532946896
0.00857255871899
0.00858767678227
0.00860365795918
0.00862161227217
0.0086419337404
0.0086657483792
0.00869791476903
0.00875677722468
0.0089026496097
0.00640562174205
0.00793287285804
0.00837090032901
0.00850608297731
0.00854840796478
0.00856689506976
0.00858132553254
0.00859656432905
0.00861368349869
0.00863311538342
0.0086561835249
0.00868848643355
0.00875055454524
0.00890772102556
0.0093474596731
0.0105799887002
0.00640505616087
0.00793103002378
0.00836715015374
0.00850081220865
0.00854221340842
0.00856008332184
0.00857396358247
0.00858861112719
0.00860506894531
0.00862381957256
0.00864642428334
0.00867930072255
0.00874527686596
0.00891450518892
0.00938173245419
0.0106591717539
0.00640363053588
0.00792749954136
0.00836175389148
0.00849415375422
0.00853483815139
0.00855223743073
0.00856569127641
0.00857988356481
0.00859585306564
0.00861413177593
0.00863654446555
0.00867039435105
0.00874092484308
0.00892345134379
0.00941978704378
0.0107487557318
)
;
    }
    sides
    {
        type            kqRWallFunction;
        value           nonuniform List<scalar> 0();
    }
    bottom
    {
        type            kqRWallFunction;
        value           nonuniform List<scalar> 
12
(
0.00633330679118
0.00635065423477
0.00636503951874
0.00637693897527
0.00638651432888
0.00639388802896
0.00639935389696
0.00640290190807
0.00640513959658
0.00640562174205
0.00640505616087
0.00640363053588
)
;
    }
    front
    {
        type            kqRWallFunction;
        value           nonuniform List<scalar> 
164
(
0.00633330679118
0.00784274413793
0.00830095813171
0.00846246513463
0.0085244713378
0.00855691207597
0.00858316253058
0.00861046552265
0.00635065423477
0.00786463823639
0.00832047104443
0.00847797425937
0.00853669890042
0.0085666999991
0.00859092013
0.00861625063584
0.0086446282404
0.00867674092563
0.00871331727445
0.00636503951874
0.00788307253015
0.00833652299681
0.0084902641622
0.00854596863994
0.00857379128571
0.00859620459286
0.00861973540797
0.00864616158596
0.00867609987965
0.00871015691138
0.00875059808345
0.00880790847934
0.00637693897527
0.00789828795104
0.00834933348964
0.00849957130361
0.00855256174776
0.00857844677906
0.00859923546686
0.00862114018092
0.00864575979452
0.00867362758915
0.00870543146037
0.00874357592586
0.00879841418342
0.00891458233552
0.00638651432888
0.00791042485383
0.00835913893199
0.00850615330635
0.00855671252803
0.00858087943279
0.00860021645129
0.00862063021193
0.00864361044975
0.00866958566129
0.00869923374009
0.00873526050306
0.00878871802824
0.00890174619954
0.00639388802896
0.00791975345121
0.00836616604057
0.00851024139239
0.00855864663465
0.00858130833974
0.00859936451347
0.00861844306365
0.0086399096569
0.00866418469863
0.00869196693635
0.00872633309687
0.00877975736328
0.00889730263866
0.00639935389696
0.00792644675377
0.00837065549933
0.00851207808412
0.00855859015828
0.00857993643557
0.00859686787091
0.00861476724983
0.00863488942781
0.00865763532536
0.00868382895634
0.0087170312276
0.00877151838274
0.00889724461447
0.00640290190807
0.00793077800562
0.00837281733052
0.00851187229177
0.00855674388972
0.0085769612816
0.00859291476845
0.00860978318828
0.00862873362463
0.00865015548052
0.00867500795693
0.00870747422778
0.00876377527798
0.00889898932573
0.00640513959658
0.00793285806222
0.00837284699472
0.00850981959325
0.0085532946896
0.00857255871899
0.00858767678227
0.00860365795918
0.00862161227217
0.0086419337404
0.0086657483792
0.00869791476903
0.00875677722468
0.0089026496097
0.00640562174205
0.00793287285804
0.00837090032901
0.00850608297731
0.00854840796478
0.00856689506976
0.00858132553254
0.00859656432905
0.00861368349869
0.00863311538342
0.0086561835249
0.00868848643355
0.00875055454524
0.00890772102556
0.0093474596731
0.0105799887002
0.00640505616087
0.00793103002378
0.00836715015374
0.00850081220865
0.00854221340842
0.00856008332184
0.00857396358247
0.00858861112719
0.00860506894531
0.00862381957256
0.00864642428334
0.00867930072255
0.00874527686596
0.00891450518892
0.00938173245419
0.0106591717539
0.00640363053588
0.00792749954136
0.00836175389148
0.00849415375422
0.00853483815139
0.00855223743073
0.00856569127641
0.00857988356481
0.00859585306564
0.00861413177593
0.00863654446555
0.00867039435105
0.00874092484308
0.00892345134379
0.00941978704378
0.0107487557318
)
;
    }
    atmosphere
    {
        type            inletOutlet;
        inletValue      nonuniform List<scalar> 0();
        value           nonuniform List<scalar> 0();
    }
    floatingObject
    {
        type            kqRWallFunction;
        value           nonuniform List<scalar> 0();
    }
    procBoundary7to6
    {
        type            processor;
        value           nonuniform List<scalar> 
11
(
0.00928003121479
0.00922723816688
0.00922818029553
0.0092524033749
0.00928206340631
0.00931469775754
0.00931469775754
0.0104967899917
0.0138486645301
0.0139768406954
0.0141892866192
)
;
    }
    procBoundary7to8
    {
        type            processor;
        value           nonuniform List<scalar> 
17
(
0.00631328000968
0.00781720240753
0.0082777411707
0.0084434346755
0.00850902513162
0.00854418907353
0.00857272757649
0.00860222046348
0.00864092900416
0.00864092900416
0.00867523333183
0.00871391034205
0.00875707611473
0.00875707611473
0.00882386053064
0.00893335206359
0.00893335206359
)
;
    }
    procBoundary7to9
    {
        type            processor;
        value           nonuniform List<scalar> 
16
(
0.00640079376716
0.00792232210326
0.00835491123041
0.00848627429477
0.00852640728902
0.00854346375441
0.00855661797383
0.00857049302415
0.00858611232746
0.00860409842081
0.00862655299343
0.00866169656794
0.00873722571101
0.00893349984111
0.00945853376614
0.0108369219227
)
;
    }
}


// ************************************************************************* //
