/*--------------------------------*- C++ -*----------------------------------*\
| =========                 |                                                 |
| \\      /  F ield         | OpenFOAM: The Open Source CFD Toolbox           |
|  \\    /   O peration     | Version:  v2012                                 |
|   \\  /    A nd           | Website:  www.openfoam.com                      |
|    \\/     M anipulation  |                                                 |
\*---------------------------------------------------------------------------*/
FoamFile
{
    version     2.0;
    format      ascii;
    class       volScalarField;
    location    "2";
    object      rAU;
}
// * * * * * * * * * * * * * * * * * * * * * * * * * * * * * * * * * * * * * //

dimensions      [-1 3 1 0 0 0 0];


internalField   nonuniform List<scalar> 
164
(
9.45783967243e-06
9.40241048863e-06
9.39380368429e-06
9.39256881669e-06
9.39236779197e-06
9.39233936288e-06
9.39243904442e-06
9.39282204582e-06
9.45844395747e-06
9.40260526343e-06
9.39413233224e-06
9.39302491399e-06
9.39279726865e-06
9.39269286828e-06
9.39288251831e-06
9.39333534299e-06
9.39369949124e-06
9.39412255576e-06
9.39431685778e-06
9.45868191598e-06
9.40285265626e-06
9.39445157532e-06
9.39340159814e-06
9.39313684203e-06
9.39319996144e-06
9.39346442365e-06
9.39369134224e-06
9.39396423833e-06
9.3944748339e-06
9.39526066011e-06
9.39567781579e-06
9.39531790264e-06
9.4592992503e-06
9.40335689193e-06
9.39491646234e-06
9.39390012608e-06
9.39362164114e-06
9.39370096211e-06
9.39376852024e-06
9.39402888486e-06
9.39482588671e-06
9.39586830542e-06
9.39703910546e-06
9.39874865718e-06
9.40055987755e-06
9.39628306581e-06
9.46016550124e-06
9.40397424779e-06
9.3954542728e-06
9.39449840757e-06
9.39421083895e-06
9.39416378606e-06
9.39439891606e-06
9.39480709144e-06
9.39529201825e-06
9.3957962973e-06
9.39608506955e-06
9.39577608862e-06
9.39469151667e-06
9.38090290414e-06
9.46103206146e-06
9.40455750806e-06
9.39601239947e-06
9.39516932583e-06
9.39480795536e-06
9.39477601918e-06
9.39493649165e-06
9.39516795659e-06
9.39529604561e-06
9.39547353238e-06
9.39621865857e-06
9.39745872163e-06
9.39850919811e-06
9.39638902677e-06
9.46162762252e-06
9.40523176305e-06
9.39673021463e-06
9.39581887759e-06
9.3953815756e-06
9.39521814499e-06
9.39519613827e-06
9.39532461392e-06
9.39558895188e-06
9.39605062266e-06
9.39661945668e-06
9.39739086782e-06
9.39821081112e-06
9.39680267357e-06
9.46308242889e-06
9.40642684848e-06
9.39755846614e-06
9.39651128891e-06
9.39593352207e-06
9.39569568962e-06
9.39568299276e-06
9.39577400347e-06
9.3959915633e-06
9.39640323848e-06
9.39667922464e-06
9.39705548185e-06
9.39749655428e-06
9.39624608036e-06
9.46556337946e-06
9.40750089606e-06
9.39839489864e-06
9.39723110187e-06
9.39648589177e-06
9.39613457053e-06
9.39595017092e-06
9.3958777974e-06
9.39599626641e-06
9.39627083373e-06
9.39667376549e-06
9.3971776966e-06
9.39731489656e-06
9.39606912107e-06
9.46681674331e-06
9.40835669464e-06
9.3991627205e-06
9.39789120229e-06
9.39690153757e-06
9.39632946205e-06
9.39607027499e-06
9.39609636925e-06
9.39619695372e-06
9.3963677888e-06
9.39673986458e-06
9.3972307779e-06
9.39740569512e-06
9.39511887255e-06
9.38905620734e-06
9.3655674099e-06
9.46904124479e-06
9.41006080352e-06
9.400363429e-06
9.39868003484e-06
9.39735867123e-06
9.39661087753e-06
9.39622463776e-06
9.39603544529e-06
9.39603734727e-06
9.39629638519e-06
9.39674173674e-06
9.39726619954e-06
9.39744027589e-06
9.39579600958e-06
9.38944605821e-06
9.36795575216e-06
9.47186880062e-06
9.41130332641e-06
9.40125307227e-06
9.39887452422e-06
9.39721343323e-06
9.39631906351e-06
9.3958126722e-06
9.3954466984e-06
9.39553665111e-06
9.39603211048e-06
9.3967441018e-06
9.39760384084e-06
9.39802948754e-06
9.39747655626e-06
9.39293494886e-06
9.37647581611e-06
)
;

boundaryField
{
    back
    {
        type            calculated;
        value           nonuniform List<scalar> 
164
(
9.45783967243e-06
9.40241048863e-06
9.39380368429e-06
9.39256881669e-06
9.39236779197e-06
9.39233936288e-06
9.39243904442e-06
9.39282204582e-06
9.45844395747e-06
9.40260526343e-06
9.39413233224e-06
9.39302491399e-06
9.39279726865e-06
9.39269286828e-06
9.39288251831e-06
9.39333534299e-06
9.39369949124e-06
9.39412255576e-06
9.39431685778e-06
9.45868191598e-06
9.40285265626e-06
9.39445157532e-06
9.39340159814e-06
9.39313684203e-06
9.39319996144e-06
9.39346442365e-06
9.39369134224e-06
9.39396423833e-06
9.3944748339e-06
9.39526066011e-06
9.39567781579e-06
9.39531790264e-06
9.4592992503e-06
9.40335689193e-06
9.39491646234e-06
9.39390012608e-06
9.39362164114e-06
9.39370096211e-06
9.39376852024e-06
9.39402888486e-06
9.39482588671e-06
9.39586830542e-06
9.39703910546e-06
9.39874865718e-06
9.40055987755e-06
9.39628306581e-06
9.46016550124e-06
9.40397424779e-06
9.3954542728e-06
9.39449840757e-06
9.39421083895e-06
9.39416378606e-06
9.39439891606e-06
9.39480709144e-06
9.39529201825e-06
9.3957962973e-06
9.39608506955e-06
9.39577608862e-06
9.39469151667e-06
9.38090290414e-06
9.46103206146e-06
9.40455750806e-06
9.39601239947e-06
9.39516932583e-06
9.39480795536e-06
9.39477601918e-06
9.39493649165e-06
9.39516795659e-06
9.39529604561e-06
9.39547353238e-06
9.39621865857e-06
9.39745872163e-06
9.39850919811e-06
9.39638902677e-06
9.46162762252e-06
9.40523176305e-06
9.39673021463e-06
9.39581887759e-06
9.3953815756e-06
9.39521814499e-06
9.39519613827e-06
9.39532461392e-06
9.39558895188e-06
9.39605062266e-06
9.39661945668e-06
9.39739086782e-06
9.39821081112e-06
9.39680267357e-06
9.46308242889e-06
9.40642684848e-06
9.39755846614e-06
9.39651128891e-06
9.39593352207e-06
9.39569568962e-06
9.39568299276e-06
9.39577400347e-06
9.3959915633e-06
9.39640323848e-06
9.39667922464e-06
9.39705548185e-06
9.39749655428e-06
9.39624608036e-06
9.46556337946e-06
9.40750089606e-06
9.39839489864e-06
9.39723110187e-06
9.39648589177e-06
9.39613457053e-06
9.39595017092e-06
9.3958777974e-06
9.39599626641e-06
9.39627083373e-06
9.39667376549e-06
9.3971776966e-06
9.39731489656e-06
9.39606912107e-06
9.46681674331e-06
9.40835669464e-06
9.3991627205e-06
9.39789120229e-06
9.39690153757e-06
9.39632946205e-06
9.39607027499e-06
9.39609636925e-06
9.39619695372e-06
9.3963677888e-06
9.39673986458e-06
9.3972307779e-06
9.39740569512e-06
9.39511887255e-06
9.38905620734e-06
9.3655674099e-06
9.46904124479e-06
9.41006080352e-06
9.400363429e-06
9.39868003484e-06
9.39735867123e-06
9.39661087753e-06
9.39622463776e-06
9.39603544529e-06
9.39603734727e-06
9.39629638519e-06
9.39674173674e-06
9.39726619954e-06
9.39744027589e-06
9.39579600958e-06
9.38944605821e-06
9.36795575216e-06
9.47186880062e-06
9.41130332641e-06
9.40125307227e-06
9.39887452422e-06
9.39721343323e-06
9.39631906351e-06
9.3958126722e-06
9.3954466984e-06
9.39553665111e-06
9.39603211048e-06
9.3967441018e-06
9.39760384084e-06
9.39802948754e-06
9.39747655626e-06
9.39293494886e-06
9.37647581611e-06
)
;
    }
    sides
    {
        type            calculated;
        value           nonuniform List<scalar> 0();
    }
    bottom
    {
        type            calculated;
        value           nonuniform List<scalar> 
12
(
9.45783967243e-06
9.45844395747e-06
9.45868191598e-06
9.4592992503e-06
9.46016550124e-06
9.46103206146e-06
9.46162762252e-06
9.46308242889e-06
9.46556337946e-06
9.46681674331e-06
9.46904124479e-06
9.47186880062e-06
)
;
    }
    front
    {
        type            calculated;
        value           nonuniform List<scalar> 
164
(
9.45783967243e-06
9.40241048863e-06
9.39380368429e-06
9.39256881669e-06
9.39236779197e-06
9.39233936288e-06
9.39243904442e-06
9.39282204582e-06
9.45844395747e-06
9.40260526343e-06
9.39413233224e-06
9.39302491399e-06
9.39279726865e-06
9.39269286828e-06
9.39288251831e-06
9.39333534299e-06
9.39369949124e-06
9.39412255576e-06
9.39431685778e-06
9.45868191598e-06
9.40285265626e-06
9.39445157532e-06
9.39340159814e-06
9.39313684203e-06
9.39319996144e-06
9.39346442365e-06
9.39369134224e-06
9.39396423833e-06
9.3944748339e-06
9.39526066011e-06
9.39567781579e-06
9.39531790264e-06
9.4592992503e-06
9.40335689193e-06
9.39491646234e-06
9.39390012608e-06
9.39362164114e-06
9.39370096211e-06
9.39376852024e-06
9.39402888486e-06
9.39482588671e-06
9.39586830542e-06
9.39703910546e-06
9.39874865718e-06
9.40055987755e-06
9.39628306581e-06
9.46016550124e-06
9.40397424779e-06
9.3954542728e-06
9.39449840757e-06
9.39421083895e-06
9.39416378606e-06
9.39439891606e-06
9.39480709144e-06
9.39529201825e-06
9.3957962973e-06
9.39608506955e-06
9.39577608862e-06
9.39469151667e-06
9.38090290414e-06
9.46103206146e-06
9.40455750806e-06
9.39601239947e-06
9.39516932583e-06
9.39480795536e-06
9.39477601918e-06
9.39493649165e-06
9.39516795659e-06
9.39529604561e-06
9.39547353238e-06
9.39621865857e-06
9.39745872163e-06
9.39850919811e-06
9.39638902677e-06
9.46162762252e-06
9.40523176305e-06
9.39673021463e-06
9.39581887759e-06
9.3953815756e-06
9.39521814499e-06
9.39519613827e-06
9.39532461392e-06
9.39558895188e-06
9.39605062266e-06
9.39661945668e-06
9.39739086782e-06
9.39821081112e-06
9.39680267357e-06
9.46308242889e-06
9.40642684848e-06
9.39755846614e-06
9.39651128891e-06
9.39593352207e-06
9.39569568962e-06
9.39568299276e-06
9.39577400347e-06
9.3959915633e-06
9.39640323848e-06
9.39667922464e-06
9.39705548185e-06
9.39749655428e-06
9.39624608036e-06
9.46556337946e-06
9.40750089606e-06
9.39839489864e-06
9.39723110187e-06
9.39648589177e-06
9.39613457053e-06
9.39595017092e-06
9.3958777974e-06
9.39599626641e-06
9.39627083373e-06
9.39667376549e-06
9.3971776966e-06
9.39731489656e-06
9.39606912107e-06
9.46681674331e-06
9.40835669464e-06
9.3991627205e-06
9.39789120229e-06
9.39690153757e-06
9.39632946205e-06
9.39607027499e-06
9.39609636925e-06
9.39619695372e-06
9.3963677888e-06
9.39673986458e-06
9.3972307779e-06
9.39740569512e-06
9.39511887255e-06
9.38905620734e-06
9.3655674099e-06
9.46904124479e-06
9.41006080352e-06
9.400363429e-06
9.39868003484e-06
9.39735867123e-06
9.39661087753e-06
9.39622463776e-06
9.39603544529e-06
9.39603734727e-06
9.39629638519e-06
9.39674173674e-06
9.39726619954e-06
9.39744027589e-06
9.39579600958e-06
9.38944605821e-06
9.36795575216e-06
9.47186880062e-06
9.41130332641e-06
9.40125307227e-06
9.39887452422e-06
9.39721343323e-06
9.39631906351e-06
9.3958126722e-06
9.3954466984e-06
9.39553665111e-06
9.39603211048e-06
9.3967441018e-06
9.39760384084e-06
9.39802948754e-06
9.39747655626e-06
9.39293494886e-06
9.37647581611e-06
)
;
    }
    atmosphere
    {
        type            calculated;
        value           nonuniform List<scalar> 0();
    }
    floatingObject
    {
        type            calculated;
        value           nonuniform List<scalar> 0();
    }
    procBoundary7to6
    {
        type            processor;
        value           nonuniform List<scalar> 
11
(
9.38998135124e-06
9.3292098112e-06
9.37178636843e-06
9.37885381225e-06
9.38850131547e-06
9.39130976396e-06
9.39130976396e-06
9.37182491243e-06
9.34006831092e-06
9.36861533147e-06
9.39623071588e-06
)
;
    }
    procBoundary7to8
    {
        type            processor;
        value           nonuniform List<scalar> 
17
(
9.45713351005e-06
9.40201193846e-06
9.39350449051e-06
9.39228325079e-06
9.39202938462e-06
9.39201432553e-06
9.39229206616e-06
9.39257068955e-06
9.39314635495e-06
9.39314635495e-06
9.39342839074e-06
9.3940618346e-06
9.3923939159e-06
9.3923939159e-06
9.38587197484e-06
9.38892974553e-06
9.38892974553e-06
)
;
    }
    procBoundary7to9
    {
        type            processor;
        value           nonuniform List<scalar> 
16
(
9.47825724759e-06
9.41332883389e-06
9.40213060713e-06
9.39819137918e-06
9.3962654866e-06
9.39526863748e-06
9.39471652896e-06
9.39482974556e-06
9.3952653691e-06
9.39570106355e-06
9.39661795763e-06
9.39806508089e-06
9.3997781316e-06
9.40030543317e-06
9.39728830784e-06
9.38484212905e-06
)
;
    }
}


// ************************************************************************* //
