/*--------------------------------*- C++ -*----------------------------------*\
| =========                 |                                                 |
| \\      /  F ield         | OpenFOAM: The Open Source CFD Toolbox           |
|  \\    /   O peration     | Version:  v2012                                 |
|   \\  /    A nd           | Website:  www.openfoam.com                      |
|    \\/     M anipulation  |                                                 |
\*---------------------------------------------------------------------------*/
FoamFile
{
    version     2.0;
    format      ascii;
    class       surfaceScalarField;
    location    "0.5";
    object      alphaPhi0.water;
}
// * * * * * * * * * * * * * * * * * * * * * * * * * * * * * * * * * * * * * //

dimensions      [0 3 -1 0 0 0 0];
oriented        oriented;


internalField   nonuniform List<scalar> 
300
(
-1.98435587272e-05
0.000592563797318
-4.05069687444e-05
0.000606210651995
-6.18348794902e-05
0.000610854049607
-8.40889288607e-05
0.000615799941682
-0.000107574011536
0.000622067158369
-0.000132599356652
0.000629641350713
-0.000159472679445
0.000638352994625
0.000647974659022
-1.82370133076e-05
0.000610800808923
-3.73062318669e-05
0.000625279873007
-5.71009126777e-05
0.000630648740517
-7.79206674037e-05
0.000636619714439
-0.000100108765493
0.00064425529216
-0.000124017098267
0.00065354974481
-0.000150001328766
0.000664337319291
0.000676391245221
-1.62998747917e-05
0.000627100681176
-3.34365471603e-05
0.000642416546232
-5.13556973242e-05
0.000648567897281
-7.03948110601e-05
0.00065565883852
-9.09357153503e-05
0.000664796211429
-0.000113374384226
0.000675988438469
-0.000138117248559
0.000689080219712
-0.000165578987958
0.000703853030928
-0.000196179011455
0.000720025255891
0.000737241739249
-1.40029958626e-05
0.000641103676502
-2.88379645279e-05
0.000657251517956
-4.45043369466e-05
0.000664234277645
-6.13768643581e-05
0.000672531375644
-7.98755491123e-05
0.000683294909518
-0.000100441078478
0.000696553982426
-0.000123532441948
0.000712171593735
-0.000149626010995
0.000729946603711
-0.000179213551838
0.000749612821997
0.00077082623132
-1.13203081662e-05
0.000652423987981
-2.34569741432e-05
0.000669388191428
-3.64587474285e-05
0.000677236059818
-5.07388666104e-05
0.000686811508117
-6.67549267959e-05
0.00069931098671
-8.49916019968e-05
0.000714790677215
-0.000105960469117
0.000733140474411
-0.000130201341298
0.000754187483066
-0.000158282426723
0.000777693922984
0.000803342136276
-8.2341224175e-06
0.00066065811973
-1.7250887468e-05
0.000678404970462
-2.7139112596e-05
0.000687124299866
-3.83620845856e-05
0.000698034499178
-5.14119475278e-05
0.000712360871938
-6.68127887028e-05
0.000730191541291
-8.51261603824e-05
0.000751453860722
-0.000106954957684
0.000776016291266
-0.000132945936209
0.000803684909831
0.000834186258345
-4.74364471692e-06
0.000665401781181
-1.01825251896e-05
0.000683843868329
-1.64687654937e-05
0.000693410562566
-2.41406593254e-05
0.000705706417377
-3.37050425947e-05
0.000721925282223
-4.57154538157e-05
0.000742201973829
-6.07788936177e-05
0.000766517313648
-7.95591817301e-05
0.00079479658755
-0.000102781950753
0.000826907682918
0.000862639728962
-8.28940864391e-07
0.000666230742187
-2.15844104346e-06
0.000685173393982
-4.37132357292e-06
0.00069562347299
-7.99748549789e-06
0.000709332606464
-1.35301187103e-05
0.000727457937634
-2.15510396869e-05
0.000750222911749
-3.27097150896e-05
0.000777675997471
-4.77264663086e-05
0.000809813341992
-6.74070616628e-05
0.000846588278749
0.00088786218637
3.60161715459e-06
0.000662629152491
6.89704568127e-06
0.000681877996603
9.12295368472e-06
0.000693397594891
1.0070992227e-05
0.000708384592993
9.15067317985e-06
0.000728378275615
5.76071405255e-06
0.00075361287783
-7.72708018956e-07
0.000784209418145
-1.12289971872e-05
0.000820269626313
-2.6502627683e-05
0.000861861905146
0.000908889995815
8.45514180871e-06
0.000654174041897
1.65765702674e-05
0.000673756599231
2.39501719954e-05
0.000686024019023
3.00278009113e-05
0.000702306979462
3.43325010199e-05
0.000724073577369
3.62511046826e-05
0.000751694266484
3.50921049507e-05
0.000785368401861
3.00046171237e-05
0.000825357097816
2.01459935059e-05
0.000871720519413
0.000924632985965
1.36761349642e-05
0.000640497936449
2.71492392909e-05
0.000660283520571
4.00203715855e-05
0.000673152902445
5.17978834497e-05
0.000690529467363
6.19398611894e-05
0.000713931581803
6.98530390463e-05
0.000743781058727
7.48117140445e-05
0.000780409689074
7.60800390686e-05
0.000824088742057
7.26609415103e-05
0.000875139600755
0.000933904417243
1.92596091422e-05
0.000621238354262
3.8487438865e-05
0.00064105571032
5.73118264222e-05
0.000654328520185
7.52327943482e-05
0.00067260848498
9.18077908743e-05
0.000697356556901
0.000106476718207
0.000729112075851
0.000118539988442
0.000768346357853
0.000127104401205
0.000815524284082
0.000131124782262
0.00087111919851
0.000935493068063
2.5102221391e-05
0.000596136151677
5.04027703572e-05
0.000615755169131
7.55142295431e-05
0.000629217054383
0.000100062855116
0.00064805983811
0.000123664414964
0.000673754935058
0.000145798680897
0.000706977735781
0.000165754944472
0.000748390015806
0.000182625449912
0.000798653724903
0.000195350888896
0.000858393740266
0.000928116716135
3.10870055706e-05
0.000565049151592
6.26579216414e-05
0.000584184243192
9.43455806496e-05
0.0005975293638
0.000125902575567
0.000616502784683
0.00015705964896
0.000642597791942
0.000187365274026
0.000676672030295
0.000216118609832
0.000719636593539
0.000242380404406
0.000772391863206
0.000264989679244
0.000835784453935
0.000910445320136
3.70764164304e-05
0.00052797269842
7.49828184464e-05
0.000546277786398
0.000113389946116
0.000559122142744
0.000152244120537
0.000577648480234
0.000191436220834
0.000603405563426
0.000230624039181
0.000637484076425
0.000269134718608
0.000681125751971
0.000305936909398
0.000735589602026
0.000339680691544
0.000802040693812
0.000881210548855
4.2891981939e-05
0.000485080630281
8.70148815512e-05
0.000502154751885
0.000132111003837
0.000514025840893
0.000178401535454
0.000531357747573
0.000226015450225
0.000555791375888
0.000274783889379
0.000588715359137
0.000324075916731
0.000631833565767
0.000372741455742
0.000419046718227
4.83051697279e-05
9.82747032671e-05
0.00014978343253
0.000203434537032
0.000259711499306
0.000499514031517
0.000318740464699
)
;

boundaryField
{
    back
    {
        type            calculated;
        value           uniform 0;
    }
    sides
    {
        type            calculated;
        value           nonuniform List<scalar> 0();
    }
    bottom
    {
        type            calculated;
        value           uniform 0;
    }
    front
    {
        type            calculated;
        value           uniform 0;
    }
    atmosphere
    {
        type            calculated;
        value           nonuniform List<scalar> 0();
    }
    floatingObject
    {
        type            calculated;
        value           nonuniform List<scalar> 0();
    }
    procBoundary4to0
    {
        type            processor;
        value           nonuniform List<scalar> 8(-0.000572720216686 -0.000585547217061 -0.000589526109594 -0.000593545860016 -0.000598582029026 -0.00060461592543 -0.000611479632541 -0.000618950951092);
    }
    procBoundary4to3
    {
        type            processor;
        value           nonuniform List<scalar> 
13
(
0.000686923966483
0.000755735452113
0.000839092662804
0.000436775316265
0.000452185038152
0.000462516813674
0.000477706207264
0.000529686105443
0.000380000115786
0.000570573680083
-0.000226074006189
0.000291014889939
0.000434572480887
)
;
    }
    procBoundary4to5
    {
        type            processor;
        value           nonuniform List<scalar> 
18
(
-0.000188496348214
-0.000178417816021
-0.000689425216473
-0.00070308504576
-0.000230335692976
-0.00021279803467
-0.000190798326643
-0.000163790057649
-0.000131235423009
-9.26295211567e-05
-4.75304388199e-05
4.40300311151e-06
6.3389509064e-05
0.000129536132232
0.000202727252022
0.000282661116616
0.000368915568598
0.000461164760466
)
;
    }
}


// ************************************************************************* //
