/*--------------------------------*- C++ -*----------------------------------*\
| =========                 |                                                 |
| \\      /  F ield         | OpenFOAM: The Open Source CFD Toolbox           |
|  \\    /   O peration     | Version:  v2012                                 |
|   \\  /    A nd           | Website:  www.openfoam.com                      |
|    \\/     M anipulation  |                                                 |
\*---------------------------------------------------------------------------*/
FoamFile
{
    version     2.0;
    format      ascii;
    class       volScalarField;
    location    "0.5";
    object      epsilon;
}
// * * * * * * * * * * * * * * * * * * * * * * * * * * * * * * * * * * * * * //

dimensions      [0 2 -3 0 0 0 0];


internalField   nonuniform List<scalar> 
164
(
0.0608082843712
0.0582603896922
0.0605578688095
0.0609265507074
0.0609889833206
0.0610165890334
0.061044400758
0.0610759428588
0.0608900449928
0.0583283931273
0.0606299208978
0.0610009937546
0.0610657898077
0.0610962282796
0.0611274362287
0.0611629485147
0.0609659977697
0.0583939556136
0.0607005374741
0.061074536183
0.0611421694626
0.0611759970884
0.0612112685105
0.0612515404185
0.0612968903775
0.0613469913325
0.0610343550167
0.0584560011392
0.0607687870915
0.0611463174567
0.0612173190998
0.0612551572361
0.0612952409933
0.0613411575393
0.0613929912791
0.0614504280013
0.0610930841755
0.0585132810271
0.0608335725639
0.0612153167131
0.0612902807892
0.0613328273042
0.0613785706755
0.0614311411618
0.0614906397302
0.0615567631734
0.0611399307918
0.0585643685917
0.0608936161142
0.0612803344772
0.0613599215769
0.0614079539766
0.0614603033783
0.0615206595396
0.0615891519988
0.0616654999875
0.0611724456546
0.0586076495787
0.0609474431967
0.0613399775171
0.0614249174706
0.0614792972535
0.0615393049472
0.0616087108302
0.0616876890053
0.0617759985217
0.061188072542
0.0586412523619
0.0609933445669
0.0613926450063
0.0614837425183
0.0615454169852
0.061614245219
0.0616941039632
0.0617852318073
0.0618874489139
0.0611886310976
0.058660268209
0.0610283025466
0.0614363113531
0.0615346309337
0.0616046502722
0.0616835798595
0.0617754391068
0.0618805599628
0.0619988458874
0.061183220672
0.0586559948737
0.061047255472
0.0614682011527
0.0615755882982
0.0616551902074
0.0617455209588
0.0618509938799
0.0619720846643
0.0621088919438
0.0611675249294
0.0586273513089
0.0610478614335
0.061486072218
0.0616045487911
0.0616951842826
0.0617984807928
0.0619193184898
0.0620583547106
0.0622158928457
0.0611368772691
0.0585727358617
0.0610278187297
0.0614875671677
0.0616192697786
0.0617224851649
0.0618404131036
0.06197858012
0.0621379565631
0.062319002026
0.0610865059637
0.0584914864887
0.0609852011716
0.061470384739
0.0616174193179
0.0617348072074
0.0618691262735
0.0620268212777
0.0622091631753
0.0624166920605
0.0610123768202
0.0583835347279
0.0609185079624
0.0614322865359
0.0615966413789
0.0617298487558
0.0618824637841
0.0620620376867
0.0622701324315
0.0625074334801
0.0609105637445
0.0582492182232
0.0608266598942
0.0613713025774
0.0615547136624
0.061705362278
0.0618782455961
0.0620822330423
0.0623192158844
0.06258991586
0.0607779742521
0.0580894835763
0.0607091470464
0.061285895526
0.0614897202363
0.0616592831132
0.0618544068814
0.0620855701482
0.0623550478007
0.062663289341
0.0606133767734
0.0579063569146
0.0605663726213
0.0611752548816
0.061400262356
0.0615899536562
0.0618092739743
0.0612858386888
)
;

boundaryField
{
    back
    {
        lowReCorrection 0;
        blending        stepwise;
        n               2;
        type            epsilonWallFunction;
        value           nonuniform List<scalar> 
164
(
0.0608082843712
0.0582603896922
0.0605578688095
0.0609265507074
0.0609889833206
0.0610165890334
0.061044400758
0.0610759428588
0.0608900449928
0.0583283931273
0.0606299208978
0.0610009937546
0.0610657898077
0.0610962282796
0.0611274362287
0.0611629485147
0.0609659977697
0.0583939556136
0.0607005374741
0.061074536183
0.0611421694626
0.0611759970884
0.0612112685105
0.0612515404185
0.0612968903775
0.0613469913325
0.0610343550167
0.0584560011392
0.0607687870915
0.0611463174567
0.0612173190998
0.0612551572361
0.0612952409933
0.0613411575393
0.0613929912791
0.0614504280013
0.0610930841755
0.0585132810271
0.0608335725639
0.0612153167131
0.0612902807892
0.0613328273042
0.0613785706755
0.0614311411618
0.0614906397302
0.0615567631734
0.0611399307918
0.0585643685917
0.0608936161142
0.0612803344772
0.0613599215769
0.0614079539766
0.0614603033783
0.0615206595396
0.0615891519988
0.0616654999875
0.0611724456546
0.0586076495787
0.0609474431967
0.0613399775171
0.0614249174706
0.0614792972535
0.0615393049472
0.0616087108302
0.0616876890053
0.0617759985217
0.061188072542
0.0586412523619
0.0609933445669
0.0613926450063
0.0614837425183
0.0615454169852
0.061614245219
0.0616941039632
0.0617852318073
0.0618874489139
0.0611886310976
0.058660268209
0.0610283025466
0.0614363113531
0.0615346309337
0.0616046502722
0.0616835798595
0.0617754391068
0.0618805599628
0.0619988458874
0.061183220672
0.0586559948737
0.061047255472
0.0614682011527
0.0615755882982
0.0616551902074
0.0617455209588
0.0618509938799
0.0619720846643
0.0621088919438
0.0611675249294
0.0586273513089
0.0610478614335
0.061486072218
0.0616045487911
0.0616951842826
0.0617984807928
0.0619193184898
0.0620583547106
0.0622158928457
0.0611368772691
0.0585727358617
0.0610278187297
0.0614875671677
0.0616192697786
0.0617224851649
0.0618404131036
0.06197858012
0.0621379565631
0.062319002026
0.0610865059637
0.0584914864887
0.0609852011716
0.061470384739
0.0616174193179
0.0617348072074
0.0618691262735
0.0620268212777
0.0622091631753
0.0624166920605
0.0610123768202
0.0583835347279
0.0609185079624
0.0614322865359
0.0615966413789
0.0617298487558
0.0618824637841
0.0620620376867
0.0622701324315
0.0625074334801
0.0609105637445
0.0582492182232
0.0608266598942
0.0613713025774
0.0615547136624
0.061705362278
0.0618782455961
0.0620822330423
0.0623192158844
0.06258991586
0.0607779742521
0.0580894835763
0.0607091470464
0.061285895526
0.0614897202363
0.0616592831132
0.0618544068814
0.0620855701482
0.0623550478007
0.062663289341
0.0606133767734
0.0579063569146
0.0605663726213
0.0611752548816
0.061400262356
0.0615899536562
0.0618092739743
0.0612858386888
)
;
    }
    sides
    {
        lowReCorrection 0;
        blending        stepwise;
        n               2;
        type            epsilonWallFunction;
        value           nonuniform List<scalar> 0();
    }
    bottom
    {
        lowReCorrection 0;
        blending        stepwise;
        n               2;
        type            epsilonWallFunction;
        value           nonuniform List<scalar> 
17
(
0.0608082843712
0.0608900449928
0.0609659977697
0.0610343550167
0.0610930841755
0.0611399307918
0.0611724456546
0.061188072542
0.0611886310976
0.061183220672
0.0611675249294
0.0611368772691
0.0610865059637
0.0610123768202
0.0609105637445
0.0607779742521
0.0606133767734
)
;
    }
    front
    {
        lowReCorrection 0;
        blending        stepwise;
        n               2;
        type            epsilonWallFunction;
        value           nonuniform List<scalar> 
164
(
0.0608082843712
0.0582603896922
0.0605578688095
0.0609265507074
0.0609889833206
0.0610165890334
0.061044400758
0.0610759428588
0.0608900449928
0.0583283931273
0.0606299208978
0.0610009937546
0.0610657898077
0.0610962282796
0.0611274362287
0.0611629485147
0.0609659977697
0.0583939556136
0.0607005374741
0.061074536183
0.0611421694626
0.0611759970884
0.0612112685105
0.0612515404185
0.0612968903775
0.0613469913325
0.0610343550167
0.0584560011392
0.0607687870915
0.0611463174567
0.0612173190998
0.0612551572361
0.0612952409933
0.0613411575393
0.0613929912791
0.0614504280013
0.0610930841755
0.0585132810271
0.0608335725639
0.0612153167131
0.0612902807892
0.0613328273042
0.0613785706755
0.0614311411618
0.0614906397302
0.0615567631734
0.0611399307918
0.0585643685917
0.0608936161142
0.0612803344772
0.0613599215769
0.0614079539766
0.0614603033783
0.0615206595396
0.0615891519988
0.0616654999875
0.0611724456546
0.0586076495787
0.0609474431967
0.0613399775171
0.0614249174706
0.0614792972535
0.0615393049472
0.0616087108302
0.0616876890053
0.0617759985217
0.061188072542
0.0586412523619
0.0609933445669
0.0613926450063
0.0614837425183
0.0615454169852
0.061614245219
0.0616941039632
0.0617852318073
0.0618874489139
0.0611886310976
0.058660268209
0.0610283025466
0.0614363113531
0.0615346309337
0.0616046502722
0.0616835798595
0.0617754391068
0.0618805599628
0.0619988458874
0.061183220672
0.0586559948737
0.061047255472
0.0614682011527
0.0615755882982
0.0616551902074
0.0617455209588
0.0618509938799
0.0619720846643
0.0621088919438
0.0611675249294
0.0586273513089
0.0610478614335
0.061486072218
0.0616045487911
0.0616951842826
0.0617984807928
0.0619193184898
0.0620583547106
0.0622158928457
0.0611368772691
0.0585727358617
0.0610278187297
0.0614875671677
0.0616192697786
0.0617224851649
0.0618404131036
0.06197858012
0.0621379565631
0.062319002026
0.0610865059637
0.0584914864887
0.0609852011716
0.061470384739
0.0616174193179
0.0617348072074
0.0618691262735
0.0620268212777
0.0622091631753
0.0624166920605
0.0610123768202
0.0583835347279
0.0609185079624
0.0614322865359
0.0615966413789
0.0617298487558
0.0618824637841
0.0620620376867
0.0622701324315
0.0625074334801
0.0609105637445
0.0582492182232
0.0608266598942
0.0613713025774
0.0615547136624
0.061705362278
0.0618782455961
0.0620822330423
0.0623192158844
0.06258991586
0.0607779742521
0.0580894835763
0.0607091470464
0.061285895526
0.0614897202363
0.0616592831132
0.0618544068814
0.0620855701482
0.0623550478007
0.062663289341
0.0606133767734
0.0579063569146
0.0605663726213
0.0611752548816
0.061400262356
0.0615899536562
0.0618092739743
0.0612858386888
)
;
    }
    atmosphere
    {
        type            inletOutlet;
        inletValue      nonuniform List<scalar> 0();
        value           nonuniform List<scalar> 0();
    }
    floatingObject
    {
        lowReCorrection 0;
        blending        stepwise;
        n               2;
        type            epsilonWallFunction;
        value           nonuniform List<scalar> 0();
    }
    procBoundary4to0
    {
        type            processor;
        value           nonuniform List<scalar> 8(0.060722240131 0.0581908278885 0.0604851291189 0.0608518916384 0.0609123835271 0.0609376500799 0.0609626545403 0.0609909126584);
    }
    procBoundary4to3
    {
        type            processor;
        value           nonuniform List<scalar> 
13
(
0.0620706593272
0.0623769325431
0.0627274382186
0.0604177653841
0.0577037866171
0.0604003176751
0.0610397286353
0.0614963540369
0.0620706593272
0.0617416941405
0.0610397286353
0.0614963540369
0.0611471297932
)
;
    }
    procBoundary4to5
    {
        type            processor;
        value           nonuniform List<scalar> 
18
(
0.0611112870226
0.0612028346361
0.0612028346361
0.0612467953076
0.0614014434151
0.0615130535358
0.0616290994072
0.0617493097595
0.0618732861133
0.0620004734023
0.0621301286174
0.0622612748918
0.0623921526201
0.0625221649717
0.0626501594112
0.062774871717
0.062895193026
0.063010536165
)
;
    }
}


// ************************************************************************* //
