/*--------------------------------*- C++ -*----------------------------------*\
| =========                 |                                                 |
| \\      /  F ield         | OpenFOAM: The Open Source CFD Toolbox           |
|  \\    /   O peration     | Version:  v2012                                 |
|   \\  /    A nd           | Website:  www.openfoam.com                      |
|    \\/     M anipulation  |                                                 |
\*---------------------------------------------------------------------------*/
FoamFile
{
    version     2.0;
    format      ascii;
    class       surfaceScalarField;
    location    "1.2";
    object      phi;
}
// * * * * * * * * * * * * * * * * * * * * * * * * * * * * * * * * * * * * * //

dimensions      [0 3 -1 0 0 0 0];
oriented        oriented;


internalField   nonuniform List<scalar> 
306
(
-0.000333800838468
4.06853549617e-05
-0.000375876777127
4.20752709297e-05
-0.00041951395789
4.36368881792e-05
-0.000464864775048
4.53507841576e-05
-0.000511798164207
4.69335206934e-05
-0.000559261546853
4.74637120504e-05
-0.000605841081282
4.65799508879e-05
-0.000652611940065
4.67712374346e-05
-0.000707458840041
5.48470592825e-05
-0.000811217870497
0.00010375913373
-0.0010394111111
0.000228191615361
0.000183126993252
-0.000344890552093
8.26451348001e-05
-0.000388252747797
8.54364226725e-05
-0.000433192419645
8.8576151277e-05
-0.000479901352359
9.20597389804e-05
-0.00052876304156
9.57955260469e-05
-0.000580936433992
9.96375516281e-05
-0.000638292331758
0.000103936383752
-0.000701084328319
0.000109563647847
-0.000763636550124
0.000117399466591
-0.000794015658153
0.000134138098217
-0.000750508532609
0.000184686882385
0.000138948535213
-0.000344522060443
-0.00038778680631
0.000128700981088
-0.000432638907236
0.000133427877379
-0.000479277475155
0.000138698428814
-0.000527961565261
0.000144480034421
-0.000579152069756
0.000150828679293
-0.000633207426987
0.000157992368899
-0.000689206433814
0.000165563162843
-0.000744870664996
0.000173063923001
-0.000795075658039
0.000184343057912
-0.000830845564201
0.000220455924941
0.000151749621769
-0.000383607159571
-0.00042796952356
0.000177790349134
-0.000474110107736
0.000184839327499
-0.000522240453625
0.000192611014026
-0.000572570441879
0.000201159446876
-0.000625142986897
0.000210565719894
-0.00067942158688
0.000219842389731
-0.000734054507673
0.000227697122303
-0.00078528319227
0.00023557171184
-0.000820622789412
0.000255795213368
0.000172524417124
-0.000421014460147
0.000221413749649
-0.000466374817875
0.000230200257265
-0.000513659213346
0.000239896257163
-0.000563034205623
0.000250535457418
-0.000614535995825
0.000262068522642
-0.000667756843852
0.000273064019
-0.000721765966596
0.000281706586886
-0.000774295710883
0.000288101432065
-0.000821017403812
0.000302516562661
0.000196820990182
-0.000412242408629
0.000264102155999
-0.000456613974321
0.000274572685065
-0.00050284110145
0.000286124529118
-0.000551080099323
0.000298775748099
-0.000601396655136
0.000312386335672
-0.000653553977868
0.000325222297037
-0.000707101889478
0.000335254906412
-0.000760447573851
0.000341447093778
-0.000808759600642
0.000350828102299
0.00022510463157
-0.000401773922422
0.0003056750752
-0.000444976621138
0.000317776577397
-0.000489978356701
0.000331127732301
-0.000536936555712
0.000345735547541
-0.000585941319803
0.000361392622073
-0.00063687659451
0.000376158707583
-0.00068946132707
0.000387840106819
-0.000742621504361
0.000394607267349
-0.000790333485658
0.000398540187756
0.000255708176505
-0.000389671812112
0.000345959191659
-0.000431530964641
0.000359637294238
-0.00047513861927
0.000374737202274
-0.000520663203634
0.000391262050232
-0.000568224314671
0.000408955519342
-0.000617796320516
0.000425732021447
-0.000669082337202
0.0004391266522
-0.000721070088868
0.000446595001135
-0.000767494816243
0.000444964689679
0.000287757751928
-0.000375994442233
0.000384782971706
-0.000416333003321
0.000399977781118
-0.000458367476442
0.000416773822851
-0.000502283076551
0.000435179863878
-0.000548220862007
0.000454895328791
-0.000596212615959
0.000473725233726
-0.000646095477699
0.000489010095668
-0.000696768841486
0.000497268340334
-0.00074002739854
0.000488222763444
0.00032037931595
-0.000360802162147
0.000421975225656
-0.0003994376768
0.000438615548193
-0.000439701319243
0.000457039897304
-0.000481782447467
0.000477263448234
-0.00052583223202
0.000498947325096
-0.000571954462019
0.00051984903683
-0.000619964542098
0.000537020794182
-0.000668991275113
0.000546295057713
-0.000709298654954
0.000528530367557
0.000352443166234
-0.00034416588908
0.000457366861741
-0.000380915525847
0.000475367676096
-0.000419210556015
0.000495337558303
-0.000459250717455
0.000517306226915
-0.000501202169193
0.000540901103219
-0.000545208118156
0.000563856621603
-0.000591120346071
0.000582933658058
-0.000637932921717
0.00059310762743
-0.000674105201664
0.00056470276934
0.000384332292105
-0.000326169680803
0.000490792443553
-0.000360850240026
0.000510050838713
-0.00039696956118
0.000531459584879
-0.000434723805891
0.000555063140521
-0.000474274540359
0.000580454179939
-0.000515796501704
0.00060538021641
-0.000559209196756
0.000626346973079
-0.000603733582717
0.000637632012128
-0.000635339247371
0.00059630804975
0.000415053172966
-0.000306915819736
0.000522093961576
-0.000339349610654
0.000542487201938
-0.000373090125711
0.000565202751324
-0.000408324390385
0.00059029999891
-0.000445209698046
0.000617341738076
-0.000483950342097
0.000644122405284
-0.000524495098648
0.000666892293118
-0.000566125356458
0.000679262271981
-0.000593199616615
0.000623381725373
0.00044487082317
-0.000286527044367
0.0005511254379
-0.000316548216541
0.000572510887659
-0.000347719695644
0.000596376824245
-0.000380217970624
0.000622800902148
-0.000414192368888
0.000651318354741
-0.000449835135954
0.000679766762217
-0.000487111340614
0.000704169087479
-0.000525398250861
0.000717549192161
-0.000547904813949
0.000645887520478
0.000473150071803
-0.000265145707594
0.000577757569419
-0.000292603364178
0.000599970979855
-0.000321026678851
0.0006248030533
-0.00035057281802
0.000652349575091
-0.000381374992113
0.000682123017963
-0.000413604188951
0.000711997417432
-0.000447299193266
0.000737864682956
-0.000482059860448
0.000752309879475
-0.000500229996514
0.000664056529678
0.000499500129605
-0.000242933887988
-0.000267698689424
-0.000293216598953
-0.000319614394395
-0.000347002740488
-0.000375518641636
-0.000405302861229
-0.00043625555716
-0.000450743862318
)
;

boundaryField
{
    back
    {
        type            calculated;
        value           uniform 0;
    }
    sides
    {
        type            calculated;
        value           uniform 0;
    }
    bottom
    {
        type            calculated;
        value           nonuniform List<scalar> 0();
    }
    front
    {
        type            calculated;
        value           uniform 0;
    }
    atmosphere
    {
        type            calculated;
        value           nonuniform List<scalar> 
16
(
-0.00122253656336
-0.000706331590393
-0.000843645665237
-0.000841396845697
-0.000845313143131
-0.000837042230406
-0.000820936417727
-0.000799543419465
-0.000772647727191
-0.000741361808959
-0.000705993562301
-0.000666058956778
-0.000623015989873
-0.000576183006883
-0.000526579253219
-0.000474753018591
)
;
    }
    floatingObject
    {
        type            calculated;
        value           nonuniform List<scalar> 0();
    }
    procBoundary1to0
    {
        type            processor;
        value           nonuniform List<scalar> 10(0.000601880353287 0.000624738298811 0.00065032328432 0.000678750032953 0.000709513285051 0.000740514776316 0.000767649414386 0.000783262581414 0.000678543340923 0.000523510212097);
    }
    procBoundary1to2
    {
        type            processor;
        value           nonuniform List<scalar> 
18
(
0.000293113973052
0.000302929820778
0.000302658009134
0.000124506148165
0.000340820767715
0.000171484661678
0.000377390383383
0.000369554304773
0.000360201855381
0.000349389232068
0.000337172780005
0.000323612662
0.000308777463055
0.000292747596988
0.000275617816932
0.000257498767808
0.000238517180066
0.000218813304564
)
;
    }
}


// ************************************************************************* //
