/*--------------------------------*- C++ -*----------------------------------*\
| =========                 |                                                 |
| \\      /  F ield         | OpenFOAM: The Open Source CFD Toolbox           |
|  \\    /   O peration     | Version:  v2012                                 |
|   \\  /    A nd           | Website:  www.openfoam.com                      |
|    \\/     M anipulation  |                                                 |
\*---------------------------------------------------------------------------*/
FoamFile
{
    version     2.0;
    format      ascii;
    class       volScalarField;
    location    "2.4";
    object      epsilon_0;
}
// * * * * * * * * * * * * * * * * * * * * * * * * * * * * * * * * * * * * * //

dimensions      [0 2 -3 0 0 0 0];


internalField   nonuniform List<scalar> 
164
(
0.00342744949529
0.00357482052908
0.00391657268661
0.00405316902091
0.0041057272445
0.00409461839822
0.00396501591501
0.00363479399146
0.00426619781527
0.00426147993194
0.00444199653101
0.00480423797604
0.00389509039592
0.00445735274321
0.0034554026218
0.00359713797647
0.00394019497112
0.00408047058055
0.00414440507653
0.00417275070702
0.0041694352817
0.00412613387328
0.00405673560713
0.00410605314444
0.00419176908622
0.00425311832201
0.00432530336962
0.00467057031777
0.0034865525092
0.00362372343293
0.0039679613913
0.00410984761771
0.00417831448659
0.0042206934233
0.00425261296688
0.00427872646685
0.00430594792371
0.00436076084549
0.00442778771472
0.00448872552219
0.00454721007503
0.00470988811631
0.00351958432704
0.00365317958062
0.00399841514301
0.00414044529093
0.00420952341526
0.00425483689038
0.00429460087664
0.00433524824715
0.0043801448522
0.00443398710142
0.00449423286033
0.00455605494698
0.00462046126824
0.00473781476045
0.00355306222034
0.00368401047251
0.00403006156804
0.00417120898285
0.00423903165017
0.00428324964639
0.00432250914467
0.00436347758547
0.00440847932051
0.00445859651861
0.00451327739723
0.00457123080415
0.00463592330347
0.00474817219073
0.00358575676636
0.00371486843304
0.00406155854071
0.00420119844857
0.00426691707456
0.0043088096454
0.00434551352061
0.00438369901152
0.00442548748618
0.00447144811199
0.00452138052227
0.00457535964509
0.00463976416891
0.00476155520355
0.00361679889322
0.00374474626317
0.00409190469472
0.00422965197375
0.00429288405147
0.00433215384186
0.00436604353344
0.00440113669118
0.0044395634553
0.00448186097155
0.00452807201872
0.00457955100286
0.00464767300947
0.00479993934151
0.00364566128561
0.00377294685647
0.00412040119552
0.00425603140113
0.00431660839339
0.00435324296216
0.00438448776438
0.00441679932845
0.00445225617804
0.00449148129436
0.00453489874486
0.00458559214147
0.00466394412728
0.00487736494636
0.00367218299374
0.0037990676878
0.00414665649906
0.00427999964518
0.0043379261322
0.00437203973668
0.00440083885275
0.00443068286106
0.00446361746022
0.00450040525702
0.0045423231371
0.00459709575332
0.00471168578888
0.00511278809449
0.00369586857982
0.00382278506594
0.00417037469126
0.00430143431204
0.00435677237713
0.00438853764676
0.00441513304239
0.00444276112136
0.00447342236046
0.00450784697183
0.00454719758667
0.00459751413275
0.00469377036694
0.00500876007172
0.00371684059615
0.00384402252888
0.00419150935688
0.00432029273881
0.00437316297373
0.0044027483996
0.0044273709747
0.00445301738441
0.00448161768416
0.00451389378219
0.00455090609149
0.00459777511805
0.00468168828486
0.00493296889258
0.00448823747764
0.00451860380367
0.00455388181494
0.00460045162418
0.00469086267765
0.00496833357931
0.00460502762138
0.00471272308486
0.00505762377574
0.00499874803345
)
;

boundaryField
{
    back
    {
        lowReCorrection 0;
        blending        stepwise;
        n               2;
        type            epsilonWallFunction;
        value           nonuniform List<scalar> 
164
(
0.00342744949529
0.00357482052908
0.00391657268661
0.00405316902091
0.0041057272445
0.00409461839822
0.00396501591501
0.00363479399146
0.00426619781527
0.00426147993194
0.00444199653101
0.00480423797604
0.00389509039592
0.00445735274321
0.0034554026218
0.00359713797647
0.00394019497112
0.00408047058055
0.00414440507653
0.00417275070702
0.0041694352817
0.00412613387328
0.00405673560713
0.00410605314444
0.00419176908622
0.00425311832201
0.00432530336962
0.00467057031777
0.0034865525092
0.00362372343293
0.0039679613913
0.00410984761771
0.00417831448659
0.0042206934233
0.00425261296688
0.00427872646685
0.00430594792371
0.00436076084549
0.00442778771472
0.00448872552219
0.00454721007503
0.00470988811631
0.00351958432704
0.00365317958062
0.00399841514301
0.00414044529093
0.00420952341526
0.00425483689038
0.00429460087664
0.00433524824715
0.0043801448522
0.00443398710142
0.00449423286033
0.00455605494698
0.00462046126824
0.00473781476045
0.00355306222034
0.00368401047251
0.00403006156804
0.00417120898285
0.00423903165017
0.00428324964639
0.00432250914467
0.00436347758547
0.00440847932051
0.00445859651861
0.00451327739723
0.00457123080415
0.00463592330347
0.00474817219073
0.00358575676636
0.00371486843304
0.00406155854071
0.00420119844857
0.00426691707456
0.0043088096454
0.00434551352061
0.00438369901152
0.00442548748618
0.00447144811199
0.00452138052227
0.00457535964509
0.00463976416891
0.00476155520355
0.00361679889322
0.00374474626317
0.00409190469472
0.00422965197375
0.00429288405147
0.00433215384186
0.00436604353344
0.00440113669118
0.0044395634553
0.00448186097155
0.00452807201872
0.00457955100286
0.00464767300947
0.00479993934151
0.00364566128561
0.00377294685647
0.00412040119552
0.00425603140113
0.00431660839339
0.00435324296216
0.00438448776438
0.00441679932845
0.00445225617804
0.00449148129436
0.00453489874486
0.00458559214147
0.00466394412728
0.00487736494636
0.00367218299374
0.0037990676878
0.00414665649906
0.00427999964518
0.0043379261322
0.00437203973668
0.00440083885275
0.00443068286106
0.00446361746022
0.00450040525702
0.0045423231371
0.00459709575332
0.00471168578888
0.00511278809449
0.00369586857982
0.00382278506594
0.00417037469126
0.00430143431204
0.00435677237713
0.00438853764676
0.00441513304239
0.00444276112136
0.00447342236046
0.00450784697183
0.00454719758667
0.00459751413275
0.00469377036694
0.00500876007172
0.00371684059615
0.00384402252888
0.00419150935688
0.00432029273881
0.00437316297373
0.0044027483996
0.0044273709747
0.00445301738441
0.00448161768416
0.00451389378219
0.00455090609149
0.00459777511805
0.00468168828486
0.00493296889258
0.00448823747764
0.00451860380367
0.00455388181494
0.00460045162418
0.00469086267765
0.00496833357931
0.00460502762138
0.00471272308486
0.00505762377574
0.00499874803345
)
;
    }
    sides
    {
        lowReCorrection 0;
        blending        stepwise;
        n               2;
        type            epsilonWallFunction;
        value           nonuniform List<scalar> 0();
    }
    bottom
    {
        lowReCorrection 0;
        blending        stepwise;
        n               2;
        type            epsilonWallFunction;
        value           nonuniform List<scalar> 
11
(
0.00342744949529
0.0034554026218
0.0034865525092
0.00351958432704
0.00355306222034
0.00358575676636
0.00361679889322
0.00364566128561
0.00367218299374
0.00369586857982
0.00371684059615
)
;
    }
    front
    {
        lowReCorrection 0;
        blending        stepwise;
        n               2;
        type            epsilonWallFunction;
        value           nonuniform List<scalar> 
164
(
0.00342744949529
0.00357482052908
0.00391657268661
0.00405316902091
0.0041057272445
0.00409461839822
0.00396501591501
0.00363479399146
0.00426619781527
0.00426147993194
0.00444199653101
0.00480423797604
0.00389509039592
0.00445735274321
0.0034554026218
0.00359713797647
0.00394019497112
0.00408047058055
0.00414440507653
0.00417275070702
0.0041694352817
0.00412613387328
0.00405673560713
0.00410605314444
0.00419176908622
0.00425311832201
0.00432530336962
0.00467057031777
0.0034865525092
0.00362372343293
0.0039679613913
0.00410984761771
0.00417831448659
0.0042206934233
0.00425261296688
0.00427872646685
0.00430594792371
0.00436076084549
0.00442778771472
0.00448872552219
0.00454721007503
0.00470988811631
0.00351958432704
0.00365317958062
0.00399841514301
0.00414044529093
0.00420952341526
0.00425483689038
0.00429460087664
0.00433524824715
0.0043801448522
0.00443398710142
0.00449423286033
0.00455605494698
0.00462046126824
0.00473781476045
0.00355306222034
0.00368401047251
0.00403006156804
0.00417120898285
0.00423903165017
0.00428324964639
0.00432250914467
0.00436347758547
0.00440847932051
0.00445859651861
0.00451327739723
0.00457123080415
0.00463592330347
0.00474817219073
0.00358575676636
0.00371486843304
0.00406155854071
0.00420119844857
0.00426691707456
0.0043088096454
0.00434551352061
0.00438369901152
0.00442548748618
0.00447144811199
0.00452138052227
0.00457535964509
0.00463976416891
0.00476155520355
0.00361679889322
0.00374474626317
0.00409190469472
0.00422965197375
0.00429288405147
0.00433215384186
0.00436604353344
0.00440113669118
0.0044395634553
0.00448186097155
0.00452807201872
0.00457955100286
0.00464767300947
0.00479993934151
0.00364566128561
0.00377294685647
0.00412040119552
0.00425603140113
0.00431660839339
0.00435324296216
0.00438448776438
0.00441679932845
0.00445225617804
0.00449148129436
0.00453489874486
0.00458559214147
0.00466394412728
0.00487736494636
0.00367218299374
0.0037990676878
0.00414665649906
0.00427999964518
0.0043379261322
0.00437203973668
0.00440083885275
0.00443068286106
0.00446361746022
0.00450040525702
0.0045423231371
0.00459709575332
0.00471168578888
0.00511278809449
0.00369586857982
0.00382278506594
0.00417037469126
0.00430143431204
0.00435677237713
0.00438853764676
0.00441513304239
0.00444276112136
0.00447342236046
0.00450784697183
0.00454719758667
0.00459751413275
0.00469377036694
0.00500876007172
0.00371684059615
0.00384402252888
0.00419150935688
0.00432029273881
0.00437316297373
0.0044027483996
0.0044273709747
0.00445301738441
0.00448161768416
0.00451389378219
0.00455090609149
0.00459777511805
0.00468168828486
0.00493296889258
0.00448823747764
0.00451860380367
0.00455388181494
0.00460045162418
0.00469086267765
0.00496833357931
0.00460502762138
0.00471272308486
0.00505762377574
0.00499874803345
)
;
    }
    atmosphere
    {
        type            inletOutlet;
        inletValue      nonuniform List<scalar> 0();
        value           nonuniform List<scalar> 0();
    }
    floatingObject
    {
        lowReCorrection 0;
        blending        stepwise;
        n               2;
        type            epsilonWallFunction;
        value           nonuniform List<scalar> 4(0.00426619781527 0.00426147993194 0.00444199653101 0.00480423797604);
    }
    procBoundary8to3
    {
        type            processor;
        value           nonuniform List<scalar> 8(0.00340476781055 0.0035581582647 0.00389847001267 0.00402926507265 0.00406615218175 0.00401363390246 0.00378566333252 0.00404517513315);
    }
    procBoundary8to6
    {
        type            processor;
        value           nonuniform List<scalar> 
16
(
0.0046502740003
0.00429374079933
0.00523316942004
0.00553367195307
0.00517096563761
0.00513443285028
0.00513990911962
0.00520304135071
0.00537188846478
0.00568111917802
0.00656756093542
0.00619833349304
0.00587069854818
0.00594609521762
0.00617721903521
0.00601427887817
)
;
    }
    procBoundary8to7
    {
        type            processor;
        value           nonuniform List<scalar> 
17
(
0.00373507409424
0.00386278247449
0.00421004381619
0.00433661984915
0.00438717415157
0.00441476884016
0.00443759813084
0.00446148383475
0.00446148383475
0.00449332765357
0.00452208138111
0.00455629928015
0.00455629928015
0.00460098070734
0.00469632486228
0.00469632486228
0.00491097652835
)
;
    }
}


// ************************************************************************* //
