/*--------------------------------*- C++ -*----------------------------------*\
| =========                 |                                                 |
| \\      /  F ield         | OpenFOAM: The Open Source CFD Toolbox           |
|  \\    /   O peration     | Version:  v2012                                 |
|   \\  /    A nd           | Website:  www.openfoam.com                      |
|    \\/     M anipulation  |                                                 |
\*---------------------------------------------------------------------------*/
FoamFile
{
    version     2.0;
    format      ascii;
    class       volVectorField;
    location    "2.4";
    object      U;
}
// * * * * * * * * * * * * * * * * * * * * * * * * * * * * * * * * * * * * * //

dimensions      [0 1 -1 0 0 0 0];


internalField   nonuniform List<vector> 
164
(
(0.0109249754192 -0.002412053949 2.18732756488e-21)
(0.00991001598471 -0.00681743657257 1.17958826739e-21)
(0.00895120518649 -0.0109399741633 5.45479281347e-21)
(0.00779492102821 -0.0156861458548 3.31739764162e-20)
(0.00557911900754 -0.0210914869721 1.73629380283e-19)
(0.00100826426662 -0.0276221548247 8.57615412054e-19)
(-0.00777523252065 -0.0382058076533 3.72343370405e-18)
(-0.0120144914352 -0.0570786027766 1.16592353102e-17)
(0.00914162765966 -0.0742994854367 2.32534828382e-17)
(0.00720032222812 -0.0838818989116 2.44408530229e-17)
(0.0108162172814 -0.0949329871754 1.20158519476e-17)
(0.0622142394074 -0.142135871933 1.71784508012e-17)
(0.14847347139 -0.115002114708 8.72909770296e-18)
(0.104791387841 -0.099320089046 5.53867655458e-18)
(0.0154315955328 -0.00242435500323 2.20431708577e-21)
(0.0143291048507 -0.00693131955144 -3.62404475325e-22)
(0.0135190336381 -0.0111931453612 8.66052074003e-22)
(0.0130407608723 -0.0160387004039 9.73538154287e-21)
(0.012671804067 -0.0212096291548 5.45345928154e-20)
(0.0123274203389 -0.0273148717954 2.77003026364e-19)
(0.0115345056384 -0.0374588940755 1.18285127856e-18)
(0.0125461048731 -0.053250913077 3.52995815583e-18)
(0.0175733881355 -0.0657056575185 7.27453727555e-18)
(0.0176165113468 -0.0765753117156 8.00218167746e-18)
(0.0192794638922 -0.0946757750209 5.52809087803e-18)
(0.0429338251041 -0.116938498604 7.42376168913e-18)
(0.106517018325 -0.106859219637 5.96760824378e-18)
(0.0988172527748 -0.0875894734487 3.30292595708e-18)
(0.0199525772186 -0.00240342025965 3.49522758295e-21)
(0.0188108377586 -0.0068930624017 -2.57309463737e-22)
(0.018111098953 -0.0111607190553 -4.19916821828e-23)
(0.017970470713 -0.016029677337 2.31109235464e-21)
(0.0181594446308 -0.0212092145482 1.30576603337e-20)
(0.018634708319 -0.0271553768047 6.24918333542e-20)
(0.0192770411015 -0.0348120417177 2.56789044879e-19)
(0.0220293058672 -0.0445588404981 7.77509477552e-19)
(0.0276635458044 -0.053792138169 1.59757824846e-18)
(0.031309547735 -0.0634528623862 1.89014473656e-18)
(0.0386044603348 -0.0769755503923 1.54200541628e-18)
(0.0579955980288 -0.0887591890968 1.82921418807e-18)
(0.0861805621964 -0.082352908388 1.4815309198e-18)
(0.0910946150529 -0.0713798485249 8.32165672317e-19)
(0.0243948360522 -0.00235151268495 3.5727315044e-21)
(0.0232109727379 -0.00671876455052 -2.53898364724e-22)
(0.0226121086509 -0.0108726194788 2.71368303554e-23)
(0.0227741279212 -0.0155975685741 8.39906705649e-22)
(0.0234600454272 -0.0205257922597 2.86964933149e-21)
(0.0247104701711 -0.0259961037441 1.23332627132e-20)
(0.0266329550912 -0.0322878199391 4.9115738251e-20)
(0.0301533930574 -0.0391893608124 1.38549651975e-19)
(0.0351410677154 -0.0458863486361 2.60124300696e-19)
(0.0404442650704 -0.0531047596924 3.24461066656e-19)
(0.0487430889901 -0.0615351327036 2.64260457137e-19)
(0.0633843705395 -0.0678831418778 2.69041610763e-19)
(0.080422078901 -0.0659768972259 2.05024837349e-19)
(0.0882074057408 -0.0616473926493 1.05131523366e-19)
(0.0286911449577 -0.00225905823257 2.68080759209e-21)
(0.027449427231 -0.00640664168949 -6.48160766093e-22)
(0.0269313909483 -0.0103254928304 -4.77594867383e-23)
(0.0273403927884 -0.0147465474927 3.02787405244e-22)
(0.0284155713734 -0.0192581785857 9.1912409684e-22)
(0.0301574468619 -0.024112019414 2.22115834011e-21)
(0.0326743351259 -0.0293716777291 8.07107216187e-21)
(0.0364219263462 -0.0347943664326 2.14328623901e-20)
(0.0412405824422 -0.0400510967374 3.88259548892e-20)
(0.0469952328101 -0.0453642608135 4.81332274435e-20)
(0.0548095431798 -0.050656354448 3.80435767725e-20)
(0.0657985035392 -0.0542120340121 3.39744399245e-20)
(0.0780689040153 -0.0538567567967 2.30350851604e-20)
(0.0875520079308 -0.0518089280513 1.32778895673e-20)
(0.0327597514709 -0.00212563430418 2.50475697763e-21)
(0.0314403774589 -0.00598077406593 -9.36690727473e-22)
(0.0309609393221 -0.00959763886119 -2.28085061185e-22)
(0.0315229795346 -0.0136341463401 1.67900157314e-22)
(0.0328283034214 -0.0176715239349 5.68090387832e-22)
(0.0348025850862 -0.0219033811176 6.37892333321e-22)
(0.0375149378838 -0.0262962130335 1.50678563039e-21)
(0.0412141855575 -0.0306555038087 3.03687759608e-21)
(0.0458465104216 -0.0347798717653 5.35167268247e-21)
(0.0514301721052 -0.0386460715293 6.69496366108e-21)
(0.0584395025325 -0.0419940176528 5.10625987592e-21)
(0.067156704204 -0.0439478609992 4.15053129265e-21)
(0.0765866828584 -0.0435709397849 1.89496589265e-21)
(0.0852819109476 -0.0412661651685 -1.45203901829e-22)
(0.0365289220868 -0.00195886936796 3.09316018066e-21)
(0.0351164386028 -0.00547094617002 -1.84472980335e-22)
(0.0346339351416 -0.00874538085448 3.84118922276e-22)
(0.0352810250754 -0.0123614245465 5.02031181463e-22)
(0.0366959400287 -0.015914615005 4.83264253627e-22)
(0.03876566782 -0.0195498978612 4.30126637437e-22)
(0.041511441764 -0.0231860196469 5.59071454841e-22)
(0.0450459378662 -0.0266838462437 6.80484409686e-22)
(0.0493680659568 -0.0298999090074 1.07151026107e-21)
(0.0545090318543 -0.0327116644627 1.11983416862e-21)
(0.0606506389571 -0.034844245393 9.13783600549e-22)
(0.0678249140176 -0.0358836803037 3.29373857369e-22)
(0.0755530692929 -0.035385164701 -5.99074051625e-22)
(0.0833931785541 -0.0330635419843 -2.80472305657e-21)
(0.0399675399809 -0.00176683589801 2.49053390014e-21)
(0.0384478324056 -0.0049013537665 -3.78373985066e-22)
(0.0379260057993 -0.00780743636095 2.6973637789e-22)
(0.0385942608205 -0.0110013388852 2.28574475802e-22)
(0.0400413888809 -0.0140799356061 3.85146072047e-22)
(0.0421137189433 -0.0171501729276 3.5142658288e-22)
(0.0447895545887 -0.0201503349301 3.35305413884e-22)
(0.0481018783238 -0.0229662666649 3.18693408134e-22)
(0.0520469117625 -0.0254571937093 6.19714116557e-22)
(0.0566316352437 -0.0274775663405 7.43759280143e-22)
(0.0618687442337 -0.0287835591135 3.43492763508e-22)
(0.0676079453894 -0.0290644177676 3.22053025856e-22)
(0.073472158773 -0.0278397321344 8.12231873032e-23)
(0.0790940843206 -0.0247207357794 -4.93776392715e-21)
(0.043015779155 -0.00158138664021 7.382376051e-22)
(0.0413990770642 -0.00431750227851 -1.32862259956e-21)
(0.0408175372091 -0.00685487480456 -4.71722378016e-22)
(0.0414629248307 -0.00962440874137 3.50521235099e-23)
(0.0428950747339 -0.0122509083147 2.89190868886e-22)
(0.0449071355081 -0.0148238482695 2.18565905636e-22)
(0.0474416359247 -0.0172794854691 2.03282151964e-22)
(0.0505111853238 -0.01953481388 1.4789200477e-22)
(0.0540982837138 -0.0214807961207 2.28420408158e-22)
(0.0581819933904 -0.0230035043918 1.98604925814e-22)
(0.0627359941276 -0.0239941558564 1.13492619967e-23)
(0.0676185852964 -0.0244397637725 -6.30542629908e-22)
(0.0725617532738 -0.0241683047773 -7.28392998742e-22)
(0.0772837506381 -0.0229172107899 -5.93666647313e-21)
(0.0456451735376 -0.00138018240184 -1.49970171603e-22)
(0.0439564220236 -0.00371902876858 -1.56129513011e-21)
(0.0433099401538 -0.00589928465872 -5.80960905059e-22)
(0.0439209847603 -0.00826525053516 8.8419403818e-23)
(0.0453040938084 -0.0104737764244 2.75747516941e-22)
(0.0472238260947 -0.0126085278036 2.14806429167e-22)
(0.049603214041 -0.0146002642632 2.0916493953e-22)
(0.0524251917297 -0.0163837011612 2.23261806973e-22)
(0.0556791673913 -0.0178775229765 1.9057980222e-22)
(0.0593296389861 -0.0189680637707 4.71355850077e-23)
(0.0633349125951 -0.0195526617212 2.11342535077e-22)
(0.0676297917191 -0.0195661936425 4.26608078354e-22)
(0.0722167409648 -0.0187838451643 2.24856437142e-21)
(0.0771030247096 -0.0169718842722 -1.67051384712e-21)
(0.0479013683478 -0.00118001711254 4.37768299355e-23)
(0.0461525740848 -0.00313116505048 -8.07766618811e-22)
(0.0454359740401 -0.00496424788375 -7.35793957167e-23)
(0.0459946363782 -0.00694831478255 1.36279455817e-22)
(0.047305697193 -0.00877836023472 3.00238886101e-22)
(0.0491146893228 -0.010517579964 2.05828438018e-22)
(0.0513320949729 -0.0121160458045 1.66243381125e-22)
(0.0539152847683 -0.0135123274233 8.91559938977e-23)
(0.0568516080487 -0.0146373914543 1.81374701399e-22)
(0.0600896234511 -0.0154045744169 7.99375310411e-23)
(0.063554496066 -0.0156919886679 -3.2026670451e-22)
(0.0671573415776 -0.0153898053516 -5.73358755293e-22)
(0.0707389358539 -0.0142899021655 -1.89308922091e-21)
(0.0740166587611 -0.012080544016 -7.33274184696e-21)
(0.0577049104391 -0.0117504501377 1.35691969326e-22)
(0.0605583506635 -0.0123142918826 2.59517755366e-22)
(0.0634952101596 -0.012492612885 3.19922374975e-22)
(0.0663238729982 -0.0122132199641 1.30487130446e-22)
(0.0688305956581 -0.0113464636615 -7.17728236268e-22)
(0.0706221086485 -0.0100883808463 -4.93211043534e-21)
(0.0663872913833 -0.0101789248971 -2.15926500497e-22)
(0.0687456077422 -0.010368746686 -1.52464183354e-22)
(0.0703353953684 -0.0104696898473 -2.4456303656e-21)
(0.0712126351362 -0.00853661964405 1.00271871671e-21)
)
;

boundaryField
{
    back
    {
        type            noSlip;
    }
    sides
    {
        type            noSlip;
    }
    bottom
    {
        type            noSlip;
    }
    front
    {
        type            noSlip;
    }
    atmosphere
    {
        type            pressureInletOutletVelocity;
        value           nonuniform List<vector> 0();
    }
    floatingObject
    {
        type            movingWallVelocity;
        value           nonuniform List<vector> 4((0 -2.08166817117e-15 2.60208521397e-16) (0 -2.08166817117e-15 2.60208521397e-16) (0 0 0) (0 -4.16333634234e-15 2.60208521397e-16));
    }
    procBoundary8to3
    {
        type            processor;
        value           nonuniform List<vector> 8((0.00649714545622 -0.00239958482816 3.58405876967e-21) (0.00577433000528 -0.00650610040865 4.12986087801e-21) (0.00502896218441 -0.00999704692734 1.47999871837e-20) (0.00400355406961 -0.0132156120001 8.22319483815e-20) (0.00198116639003 -0.0156900772496 3.78777314275e-19) (-0.00262671500641 -0.0160916943474 1.56576021771e-18) (-0.0118508998506 -0.0131753239535 4.76740476624e-18) (-0.0214005046002 -0.0110778501355 1.02876823558e-17));
    }
    procBoundary8to6
    {
        type            processor;
        value           nonuniform List<vector> 
16
(
(0.148791322026 -0.0513297070537 7.55109578477e-18)
(0.0865400038632 -0.089098893219 6.00140751396e-18)
(0.0881754553564 -0.104929554844 2.93104326082e-18)
(0.0958267379285 -0.0883606322849 1.40393416249e-18)
(0.0961670507862 -0.0709830864044 3.2887941703e-19)
(0.0960966400573 -0.0624191732971 3.52843680451e-20)
(0.0983117410353 -0.0507759448613 2.03522556355e-21)
(0.0955244702883 -0.0379899425396 -7.03805945632e-21)
(0.0935604723453 -0.0294469178146 -1.11576366409e-20)
(0.0866256280082 -0.021196179413 -1.88339331143e-20)
(0.0832454986256 -0.0215588884537 -2.97946944751e-20)
(0.0825654252065 -0.0148886927999 -2.14138613702e-20)
(0.0770404948522 -0.0085512834748 -1.73660240118e-20)
(0.071906606472 -0.00785025769425 -1.35945588813e-20)
(0.0698914896804 -0.0101568677929 -8.06816644171e-21)
(0.0705756534624 -0.0102020450805 1.99819172203e-21)
)
;
    }
    procBoundary8to7
    {
        type            processor;
        value           nonuniform List<vector> 
17
(
(0.0497993567615 -0.000980274937139 -3.94389147174e-22)
(0.0479927573574 -0.00256493022517 -8.93836533877e-22)
(0.0472103383963 -0.00407883354012 -2.49997809347e-22)
(0.0477086505454 -0.00570593923598 1.10575928655e-22)
(0.0489418477599 -0.00718316726493 2.14871858375e-22)
(0.0506322865283 -0.00856857145079 1.3481661898e-22)
(0.0526851997025 -0.00982591118059 1.06729038521e-22)
(0.0550580624757 -0.0109018423221 1.24122879531e-22)
(0.0550580624757 -0.0109018423221 1.24122879531e-22)
(0.0583765342876 -0.00917311331845 2.04578834509e-23)
(0.0609992387637 -0.00965302382516 3.19230726691e-23)
(0.0637188277083 -0.00996558165726 3.33115411074e-23)
(0.0637188277083 -0.00996558165726 3.33115411074e-23)
(0.0667488348034 -0.00750818459926 -1.68740783409e-22)
(0.0693138045586 -0.00785411349045 -1.36048652664e-21)
(0.0693138045586 -0.00785411349045 -1.36048652664e-21)
(0.072697233271 -0.00583433655244 -2.45573100854e-21)
)
;
    }
}


// ************************************************************************* //
