/*--------------------------------*- C++ -*----------------------------------*\
| =========                 |                                                 |
| \\      /  F ield         | OpenFOAM: The Open Source CFD Toolbox           |
|  \\    /   O peration     | Version:  v2012                                 |
|   \\  /    A nd           | Website:  www.openfoam.com                      |
|    \\/     M anipulation  |                                                 |
\*---------------------------------------------------------------------------*/
FoamFile
{
    version     2.0;
    format      ascii;
    class       volVectorField;
    location    "2.4";
    object      U_0;
}
// * * * * * * * * * * * * * * * * * * * * * * * * * * * * * * * * * * * * * //

dimensions      [0 1 -1 0 0 0 0];


internalField   nonuniform List<vector> 
164
(
(0.0111213206521 -0.00242863902121 2.19405634979e-21)
(0.010083684471 -0.00693453522236 1.10424026878e-21)
(0.00911802223766 -0.0111083808641 5.07384094549e-21)
(0.00796173567906 -0.0159053518758 3.11590357144e-20)
(0.00575009143143 -0.0213603467314 1.63586939925e-19)
(0.00120565315996 -0.0279148844478 8.0970982835e-19)
(-0.00772787787801 -0.0385779214426 3.54821320214e-18)
(-0.012512886181 -0.0577233985384 1.13047607887e-17)
(0.0093845397115 -0.0755637012491 2.31747317506e-17)
(0.00745293047022 -0.085898291761 2.45357821842e-17)
(0.010076447413 -0.0971796741338 1.22953637745e-17)
(0.0579500035193 -0.142726766146 1.76959265383e-17)
(0.146159794089 -0.115495946786 8.97793018666e-18)
(0.101833764901 -0.0978747833363 5.71151128539e-18)
(0.0157055477492 -0.00244287801162 2.23688274429e-21)
(0.0145712800465 -0.00705620299667 -4.18493672916e-22)
(0.0137431381112 -0.011377383436 7.15512469197e-22)
(0.0132431794122 -0.0162880805881 8.9256170346e-21)
(0.0128445973024 -0.0215148274044 5.04662329558e-20)
(0.0124799641078 -0.027639194453 2.57032140409e-19)
(0.0116280611813 -0.0377348954894 1.10873747708e-18)
(0.0125890073617 -0.0536451647134 3.36307444865e-18)
(0.0177569694641 -0.0661971523676 7.03381688269e-18)
(0.0180496385064 -0.0767687922643 7.86442096845e-18)
(0.0198455590089 -0.0944516124247 5.45881316362e-18)
(0.0414387479357 -0.116284572092 7.18910953674e-18)
(0.103228576735 -0.106549613311 5.83768739294e-18)
(0.0954641752296 -0.0866773738091 3.21935940661e-18)
(0.020309538346 -0.00242588963453 3.5881317686e-21)
(0.0191290827412 -0.00702941182573 -2.8421769993e-22)
(0.0184055358654 -0.0113652375109 -8.19934859109e-23)
(0.0182353872791 -0.0163106621936 2.09717281828e-21)
(0.0183803255564 -0.0215577042684 1.1912088976e-20)
(0.0187997826227 -0.0275598608346 5.71796229094e-20)
(0.0193624975213 -0.0352419527019 2.37038217268e-19)
(0.022048181084 -0.0450009890197 7.25518250762e-19)
(0.0277256388061 -0.0542108663976 1.49876151267e-18)
(0.0313085267815 -0.0636601770967 1.79031209475e-18)
(0.0382531648586 -0.0767085299063 1.4438565975e-18)
(0.0565663631463 -0.0883746013321 1.66115835587e-18)
(0.0836501097732 -0.0825913376476 1.33409720623e-18)
(0.0881552756113 -0.072038785438 7.41726332303e-19)
(0.0248428013225 -0.00237959792167 3.63868862025e-21)
(0.0236134696148 -0.00686963518563 -2.82939589516e-22)
(0.022986820586 -0.0111028145707 2.35592614249e-23)
(0.0231148611272 -0.0159177347221 7.98638510272e-22)
(0.0237510654813 -0.020928953957 2.6013299659e-21)
(0.0249361040103 -0.0264795594769 1.10648161952e-20)
(0.0267726868013 -0.0328427382908 4.4482888261e-20)
(0.0302019803196 -0.0397970972947 1.26379442678e-19)
(0.0350894442305 -0.0465153400673 2.36884237905e-19)
(0.0402274138255 -0.0536810251903 2.97565780036e-19)
(0.048137581278 -0.0619969747962 2.39043994609e-19)
(0.0620245102756 -0.0684674250163 2.33950609061e-19)
(0.0784528540902 -0.0671585135546 1.73616332374e-19)
(0.0857954477036 -0.0635886433798 8.76283932683e-20)
(0.0292406600602 -0.00229390300646 2.71762885469e-21)
(0.0279473567767 -0.00657414158577 -6.90825857621e-22)
(0.0273993182696 -0.0105849136851 -4.97430450836e-23)
(0.027772032054 -0.0151098795071 3.0761610084e-22)
(0.0287953448432 -0.01972074582 8.74569894372e-22)
(0.0304683621187 -0.0246735631778 1.97644328862e-21)
(0.0328961064102 -0.030029340054 7.18048208185e-21)
(0.0365395469889 -0.0355410886834 1.91202501833e-20)
(0.0412261031967 -0.0408768882973 3.45703717684e-20)
(0.0467907073436 -0.0462542082709 4.28782456312e-20)
(0.05429077605 -0.0516292232664 3.33810193287e-20)
(0.064799918055 -0.0554309321221 2.87548854378e-20)
(0.0766288857797 -0.0555809714255 1.84560592853e-20)
(0.0857645227298 -0.0542477516813 1.05369311273e-20)
(0.0334220740184 -0.00216764666845 2.55979263609e-21)
(0.0320459644496 -0.00616525881597 -9.88136049618e-22)
(0.0315359525007 -0.00988756406565 -2.31354259926e-22)
(0.0320614918238 -0.0140418221623 1.85672591839e-22)
(0.0333154314006 -0.0181942858161 5.64131751758e-22)
(0.0352212065197 -0.022543504084 6.00137491158e-22)
(0.037845072916 -0.0270546089926 1.36392217831e-21)
(0.0414354546406 -0.0315332262005 2.66112447095e-21)
(0.0459315031323 -0.0357797133943 4.66996658066e-21)
(0.0513365120361 -0.0397783014526 5.84163031445e-21)
(0.0581025911163 -0.0432960441488 4.38364055143e-21)
(0.0665196132465 -0.0455316547808 3.42950816148e-21)
(0.0756893049458 -0.0456012301892 1.34834453241e-21)
(0.0841969701658 -0.0438902520712 -5.46049045569e-22)
(0.0373152619683 -0.00200815241027 3.15755467951e-21)
(0.0358419395173 -0.00567191965339 -2.05481370928e-22)
(0.0353295809012 -0.00906506903031 3.90923543151e-22)
(0.0359424397553 -0.0128120851003 5.12089670291e-22)
(0.0373081647776 -0.0164958566082 4.81538920111e-22)
(0.0393129170965 -0.0202660372067 4.16930642822e-22)
(0.0419756705991 -0.0240402291186 5.34393272972e-22)
(0.0454064819796 -0.0276815608568 6.18568853866e-22)
(0.0496010523186 -0.0310509734575 9.60013524018e-22)
(0.054586291231 -0.0340332181444 1.00237061936e-21)
(0.0605416168924 -0.0363689888161 8.14973010486e-22)
(0.0675209426904 -0.0376833532602 2.61036772413e-22)
(0.0751168864643 -0.037563411279 -5.97949380657e-22)
(0.0829435230458 -0.0357031298706 -2.76364485376e-21)
(0.0408894193023 -0.0018232541552 2.51097864982e-21)
(0.039305508879 -0.00511761687538 -4.26643054791e-22)
(0.0387555017669 -0.00815467887625 2.6426471737e-22)
(0.0393925397036 -0.011492474271 2.30357288902e-22)
(0.0407947045809 -0.0147162252422 3.84847740922e-22)
(0.0428076928949 -0.0179366201092 3.42798807047e-22)
(0.0454079450225 -0.0210931783968 3.25262761028e-22)
(0.0486264072509 -0.0240739791724 2.96745462847e-22)
(0.0524580665536 -0.0267405144525 5.65857635928e-22)
(0.0569103952101 -0.0289510508776 6.86592862988e-22)
(0.0620012543311 -0.0304669081432 3.20117956624e-22)
(0.0675988522336 -0.0309827588967 2.62319139066e-22)
(0.0733686108057 -0.0299938704176 7.80740606322e-23)
(0.0789721945606 -0.0270558645963 -4.85051965416e-21)
(0.0440821269579 -0.0016447941235 7.35256558335e-22)
(0.0423992577891 -0.00454775745604 -1.39157296123e-21)
(0.0417921011042 -0.00722764790609 -4.86073031797e-22)
(0.0424103931227 -0.0101523099482 3.5763248773e-23)
(0.0438036544082 -0.0129367849888 2.87216191682e-22)
(0.0457636146258 -0.01567441528 2.15900771706e-22)
(0.0482313042559 -0.0183020748491 1.98581555719e-22)
(0.0512187424746 -0.0207388194247 1.46260538011e-22)
(0.0547075010832 -0.0228773488799 2.20724899464e-22)
(0.0586771884883 -0.0246048579839 1.82293177436e-22)
(0.0631068502509 -0.0258137986399 1.68929949595e-23)
(0.0678700243726 -0.0264939828494 -6.38455670537e-22)
(0.0727357141703 -0.0264477314107 -6.48053522619e-22)
(0.0774397498121 -0.0253320910657 -5.63596743289e-21)
(0.04686355666 -0.00144958430419 -1.48290497299e-22)
(0.0451080088112 -0.00396081162158 -1.61501141829e-21)
(0.0444392474379 -0.00629362344381 -5.81537590738e-22)
(0.0450290731559 -0.00882450494279 9.63499808723e-23)
(0.046380293424 -0.0112021088429 2.76466385692e-22)
(0.0482566164465 -0.0135140691206 2.14614743564e-22)
(0.0505800284482 -0.0156915539333 2.05273738332e-22)
(0.0533319109323 -0.0176708194257 2.14531477692e-22)
(0.0565008422545 -0.0193713112155 1.84188729691e-22)
(0.0600499325679 -0.0206764140352 5.03576901332e-23)
(0.0639374901276 -0.0214762403221 1.98094699266e-22)
(0.0680984541476 -0.0216858615811 4.20852337882e-22)
(0.0725369358849 -0.0210267054997 2.30766892071e-21)
(0.0772569845133 -0.0191661376454 -1.32391295871e-21)
(0.0492796670592 -0.00125467328618 5.83957072534e-23)
(0.0474639649574 -0.00338203396641 -7.97508065784e-22)
(0.0467288513032 -0.00537567093158 -6.39260180883e-23)
(0.0472724685299 -0.00753246703139 1.39344751236e-22)
(0.0485594976464 -0.00954110661109 2.98226571039e-22)
(0.0503349416664 -0.0114677784771 2.02020977218e-22)
(0.0525083652135 -0.0132643697634 1.62075812052e-22)
(0.0550348297023 -0.0148708991652 9.04100856686e-23)
(0.057899704524 -0.0162193254995 1.71570122236e-22)
(0.0610467227243 -0.0172226083529 7.7709273251e-23)
(0.0643934454393 -0.0177537689853 -3.03810740531e-22)
(0.067838494967 -0.0176927106765 -5.83271201875e-22)
(0.0711937738342 -0.0168059300824 -1.93488712387e-21)
(0.074095142966 -0.0147308488823 -7.35865230697e-21)
(0.0589983889782 -0.0134069897897 1.26645642348e-22)
(0.0617801763011 -0.0142331414768 2.49091675312e-22)
(0.0646170618403 -0.0146967161309 3.21365332969e-22)
(0.0672982689776 -0.0147307488073 1.35678957485e-22)
(0.0695805496507 -0.0142075810726 -6.41031277688e-22)
(0.0709867544238 -0.0133608435736 -4.78126990979e-21)
(0.0677549319428 -0.0128827450541 -2.27972294469e-22)
(0.0699644869584 -0.0135496427595 -1.08684547181e-22)
(0.0713186677325 -0.0142597982652 -2.29960143776e-21)
(0.0729800411086 -0.0124005032832 1.16310887563e-21)
)
;

boundaryField
{
    back
    {
        type            noSlip;
    }
    sides
    {
        type            noSlip;
    }
    bottom
    {
        type            noSlip;
    }
    front
    {
        type            noSlip;
    }
    atmosphere
    {
        type            pressureInletOutletVelocity;
        value           nonuniform List<vector> 0();
    }
    floatingObject
    {
        type            movingWallVelocity;
        value           nonuniform List<vector> 4((0 -2.08166817117e-15 2.60208521397e-16) (0 -2.08166817117e-15 2.60208521397e-16) (0 0 0) (0 -4.16333634234e-15 2.60208521397e-16));
    }
    procBoundary8to3
    {
        type            processor;
        value           nonuniform List<vector> 8((0.00661397228534 -0.0024194556399 3.5973829477e-21) (0.00587735298795 -0.00662766298921 4.05720303191e-21) (0.00513077599267 -0.0101788919531 1.40418578327e-20) (0.00411209525728 -0.0134609162002 7.85800818942e-20) (0.0021067849701 -0.0160000650948 3.64743389331e-19) (-0.00247133831179 -0.016454593798 1.52426739293e-18) (-0.0118630751795 -0.013738680059 4.68442727404e-18) (-0.0220713216613 -0.0109396140778 1.0218183691e-17));
    }
    procBoundary8to6
    {
        type            processor;
        value           nonuniform List<vector> 
16
(
(0.147304769617 -0.0493121383153 7.71197141513e-18)
(0.0845283136758 -0.0881994160019 6.1179500726e-18)
(0.0844665849361 -0.103376062696 2.94201121944e-18)
(0.0919590137992 -0.0876334514831 1.34452630662e-18)
(0.0924318152536 -0.0719050291673 2.93955204754e-19)
(0.093023289583 -0.0652976234234 2.8691669945e-20)
(0.0961857445981 -0.0542238028346 1.12806707918e-21)
(0.0943330991474 -0.041569798763 -7.12389348529e-21)
(0.0933013526992 -0.0327318601994 -1.0927047524e-20)
(0.0865918321681 -0.0236915516157 -1.86346965839e-20)
(0.0833924925462 -0.0239695818685 -2.85715890468e-20)
(0.0824691124076 -0.0166759459798 -1.9807380936e-20)
(0.0764688293719 -0.0110868649188 -1.67115695444e-20)
(0.0715826795847 -0.0116141177904 -1.31140151466e-20)
(0.0704200368749 -0.0147516021666 -7.53435204146e-21)
(0.0722606913178 -0.0151364525132 2.50543603649e-21)
)
;
    }
    procBoundary8to7
    {
        type            processor;
        value           nonuniform List<vector> 
17
(
(0.0513426956902 -0.00105911420035 -3.96295312962e-22)
(0.0494693875803 -0.00282179838906 -9.40857367152e-22)
(0.04867274465 -0.00450261945615 -2.5065868319e-22)
(0.0491628353837 -0.0063083227891 1.12412361989e-22)
(0.0503812014422 -0.00797102854911 2.09901922348e-22)
(0.0520493655781 -0.00955216150544 1.29072682432e-22)
(0.0540719350935 -0.0110179020094 9.96231964493e-23)
(0.0564048092706 -0.0123170475329 1.16674653788e-22)
(0.0564048092706 -0.0123170475329 1.16674653788e-22)
(0.0599340295336 -0.010881250628 1.18877798876e-23)
(0.0625158788667 -0.0116465940405 2.49414723084e-23)
(0.0651760834412 -0.0122849353891 2.88956890864e-23)
(0.0651760834412 -0.0122849353891 2.88956890864e-23)
(0.0685497577379 -0.0102488477365 -1.64223894323e-22)
(0.0710915776468 -0.0110705870259 -1.44332274056e-21)
(0.0710915776468 -0.0110705870259 -1.44332274056e-21)
(0.0751816090368 -0.00962222258524 -2.45781442022e-21)
)
;
    }
}


// ************************************************************************* //
