/*--------------------------------*- C++ -*----------------------------------*\
| =========                 |                                                 |
| \\      /  F ield         | OpenFOAM: The Open Source CFD Toolbox           |
|  \\    /   O peration     | Version:  v2012                                 |
|   \\  /    A nd           | Website:  www.openfoam.com                      |
|    \\/     M anipulation  |                                                 |
\*---------------------------------------------------------------------------*/
FoamFile
{
    version     2.0;
    format      ascii;
    class       volScalarField;
    location    "3.1";
    object      p_rgh;
}
// * * * * * * * * * * * * * * * * * * * * * * * * * * * * * * * * * * * * * //

dimensions      [1 -1 -2 0 0 0 0];


internalField   nonuniform List<scalar> 
164
(
8650.0874878
8650.17051589
8650.35808328
8650.65488089
8651.07341423
8651.63299716
8652.36020929
8653.28968993
8647.45117458
8647.52249363
8647.68297694
8647.93791791
8648.30005413
8648.78828352
8649.42857032
8650.25507607
8644.73205538
8644.78712645
8644.91131891
8645.11001685
8645.39528454
8645.78440155
8646.30151972
8646.97850857
8647.85766937
8648.99082132
8641.94884057
8641.9835441
8642.06322961
8642.19227135
8642.38152104
8642.64556661
8643.00537382
8643.48844301
8644.13131188
8644.98176072
8639.12456709
8639.13552197
8639.16300418
8639.21101167
8639.28757135
8639.40385293
8639.57639266
8639.82640608
8640.1815989
8640.68176743
8636.28237412
8636.26951967
8636.23858664
8636.19651431
8636.14767008
8636.09859357
8636.05988521
8636.04514169
8636.06895663
8636.16333315
8633.45358136
8633.41197432
8633.3217026
8633.18336764
8633.0003872
8632.7743754
8632.50915151
8632.20871815
8631.86686629
8631.5177247
8630.66955653
8630.59892424
8630.44595708
8630.2088361
8629.88761399
8629.47885123
8628.97799638
8628.37871202
8627.67189035
8626.85556456
8627.96052168
8627.86190589
8627.64676219
8627.31208646
8626.85439549
8626.26468809
8625.53077915
8624.63599123
8623.56012156
8622.2822123
8625.35555289
8625.23128177
8624.95770339
8624.53081577
8623.94401211
8623.18304448
8622.228023
8621.05215789
8619.62360076
8617.90509404
8622.88259403
8622.73567635
8622.40991497
8621.90009363
8621.19705106
8620.28139807
8619.12631462
8617.69612746
8615.94770056
8613.82799316
8620.56582772
8620.4003884
8620.03093417
8619.45081414
8618.64901186
8617.6017199
8616.27602977
8614.62906891
8612.60742818
8610.14505605
8618.42525388
8618.24628657
8617.84327608
8617.20828886
8616.32915824
8615.17864372
8613.71926022
8611.90208519
8609.66484597
8606.93000396
8616.4761561
8616.28901598
8615.86360489
8615.1912043
8614.25901963
8613.03785486
8611.48715683
8609.55432116
8607.16880559
8604.24637619
8614.72770378
8614.53802229
8614.10179357
8613.41043621
8612.45121397
8611.19425369
8609.59832075
8607.60792637
8605.15243871
8602.1377256
8613.18250585
8612.99589018
8612.5604847
8611.86891224
8610.90862373
8609.65173993
8608.05436626
8606.06882081
8603.61931183
8600.61493873
8611.83858537
8611.65932083
8611.23615568
8610.56065229
8609.62559463
8608.39870101
8606.84639426
8608.58426029
)
;

boundaryField
{
    back
    {
        type            fixedFluxPressure;
        gradient        uniform 0;
        value           nonuniform List<scalar> 
164
(
8650.0874878
8650.17051589
8650.35808328
8650.65488089
8651.07341423
8651.63299716
8652.36020929
8653.28968993
8647.45117458
8647.52249363
8647.68297694
8647.93791791
8648.30005413
8648.78828352
8649.42857032
8650.25507607
8644.73205538
8644.78712645
8644.91131891
8645.11001685
8645.39528454
8645.78440155
8646.30151972
8646.97850857
8647.85766937
8648.99082132
8641.94884057
8641.9835441
8642.06322961
8642.19227135
8642.38152104
8642.64556661
8643.00537382
8643.48844301
8644.13131188
8644.98176072
8639.12456709
8639.13552197
8639.16300418
8639.21101167
8639.28757135
8639.40385293
8639.57639266
8639.82640608
8640.1815989
8640.68176743
8636.28237412
8636.26951967
8636.23858664
8636.19651431
8636.14767008
8636.09859357
8636.05988521
8636.04514169
8636.06895663
8636.16333315
8633.45358136
8633.41197432
8633.3217026
8633.18336764
8633.0003872
8632.7743754
8632.50915151
8632.20871815
8631.86686629
8631.5177247
8630.66955653
8630.59892424
8630.44595708
8630.2088361
8629.88761399
8629.47885123
8628.97799638
8628.37871202
8627.67189035
8626.85556456
8627.96052168
8627.86190589
8627.64676219
8627.31208646
8626.85439549
8626.26468809
8625.53077915
8624.63599123
8623.56012156
8622.2822123
8625.35555289
8625.23128177
8624.95770339
8624.53081577
8623.94401211
8623.18304448
8622.228023
8621.05215789
8619.62360076
8617.90509404
8622.88259403
8622.73567635
8622.40991497
8621.90009363
8621.19705106
8620.28139807
8619.12631462
8617.69612746
8615.94770056
8613.82799316
8620.56582772
8620.4003884
8620.03093417
8619.45081414
8618.64901186
8617.6017199
8616.27602977
8614.62906891
8612.60742818
8610.14505605
8618.42525388
8618.24628657
8617.84327608
8617.20828886
8616.32915824
8615.17864372
8613.71926022
8611.90208519
8609.66484597
8606.93000396
8616.4761561
8616.28901598
8615.86360489
8615.1912043
8614.25901963
8613.03785486
8611.48715683
8609.55432116
8607.16880559
8604.24637619
8614.72770378
8614.53802229
8614.10179357
8613.41043621
8612.45121397
8611.19425369
8609.59832075
8607.60792637
8605.15243871
8602.1377256
8613.18250585
8612.99589018
8612.5604847
8611.86891224
8610.90862373
8609.65173993
8608.05436626
8606.06882081
8603.61931183
8600.61493873
8611.83858537
8611.65932083
8611.23615568
8610.56065229
8609.62559463
8608.39870101
8606.84639426
8608.58426029
)
;
    }
    sides
    {
        type            fixedFluxPressure;
        gradient        nonuniform List<scalar> 0();
        value           nonuniform List<scalar> 0();
    }
    bottom
    {
        type            fixedFluxPressure;
        gradient        uniform 0;
        value           nonuniform List<scalar> 
17
(
8650.0874878
8647.45117458
8644.73205538
8641.94884057
8639.12456709
8636.28237412
8633.45358136
8630.66955653
8627.96052168
8625.35555289
8622.88259403
8620.56582772
8618.42525388
8616.4761561
8614.72770378
8613.18250585
8611.83858537
)
;
    }
    front
    {
        type            fixedFluxPressure;
        gradient        uniform 0;
        value           nonuniform List<scalar> 
164
(
8650.0874878
8650.17051589
8650.35808328
8650.65488089
8651.07341423
8651.63299716
8652.36020929
8653.28968993
8647.45117458
8647.52249363
8647.68297694
8647.93791791
8648.30005413
8648.78828352
8649.42857032
8650.25507607
8644.73205538
8644.78712645
8644.91131891
8645.11001685
8645.39528454
8645.78440155
8646.30151972
8646.97850857
8647.85766937
8648.99082132
8641.94884057
8641.9835441
8642.06322961
8642.19227135
8642.38152104
8642.64556661
8643.00537382
8643.48844301
8644.13131188
8644.98176072
8639.12456709
8639.13552197
8639.16300418
8639.21101167
8639.28757135
8639.40385293
8639.57639266
8639.82640608
8640.1815989
8640.68176743
8636.28237412
8636.26951967
8636.23858664
8636.19651431
8636.14767008
8636.09859357
8636.05988521
8636.04514169
8636.06895663
8636.16333315
8633.45358136
8633.41197432
8633.3217026
8633.18336764
8633.0003872
8632.7743754
8632.50915151
8632.20871815
8631.86686629
8631.5177247
8630.66955653
8630.59892424
8630.44595708
8630.2088361
8629.88761399
8629.47885123
8628.97799638
8628.37871202
8627.67189035
8626.85556456
8627.96052168
8627.86190589
8627.64676219
8627.31208646
8626.85439549
8626.26468809
8625.53077915
8624.63599123
8623.56012156
8622.2822123
8625.35555289
8625.23128177
8624.95770339
8624.53081577
8623.94401211
8623.18304448
8622.228023
8621.05215789
8619.62360076
8617.90509404
8622.88259403
8622.73567635
8622.40991497
8621.90009363
8621.19705106
8620.28139807
8619.12631462
8617.69612746
8615.94770056
8613.82799316
8620.56582772
8620.4003884
8620.03093417
8619.45081414
8618.64901186
8617.6017199
8616.27602977
8614.62906891
8612.60742818
8610.14505605
8618.42525388
8618.24628657
8617.84327608
8617.20828886
8616.32915824
8615.17864372
8613.71926022
8611.90208519
8609.66484597
8606.93000396
8616.4761561
8616.28901598
8615.86360489
8615.1912043
8614.25901963
8613.03785486
8611.48715683
8609.55432116
8607.16880559
8604.24637619
8614.72770378
8614.53802229
8614.10179357
8613.41043621
8612.45121397
8611.19425369
8609.59832075
8607.60792637
8605.15243871
8602.1377256
8613.18250585
8612.99589018
8612.5604847
8611.86891224
8610.90862373
8609.65173993
8608.05436626
8606.06882081
8603.61931183
8600.61493873
8611.83858537
8611.65932083
8611.23615568
8610.56065229
8609.62559463
8608.39870101
8606.84639426
8608.58426029
)
;
    }
    atmosphere
    {
        type            totalPressure;
        rho             rho;
        psi             none;
        gamma           1;
        p0              nonuniform List<scalar> 0();
        value           nonuniform List<scalar> 0();
    }
    floatingObject
    {
        type            fixedFluxPressure;
        gradient        nonuniform List<scalar> 0();
        value           nonuniform List<scalar> 0();
    }
    procBoundary4to0
    {
        type            processor;
        value           nonuniform List<scalar> 8(8652.62605118 8652.71655827 8652.9216712 8653.24559323 8653.6998694 8654.30313551 8655.08091997 8656.06662692);
    }
    procBoundary4to3
    {
        type            processor;
        value           nonuniform List<scalar> 
13
(
8604.91783724
8602.54680773
8599.6598863
8610.6886391
8610.52077544
8610.11794324
8609.47580252
8607.42233718
8604.91783724
8605.94614687
8609.47580252
8607.42233718
8607.76379169
)
;
    }
    procBoundary4to5
    {
        type            processor;
        value           nonuniform List<scalar> 
18
(
8654.46582564
8651.3126364
8651.3126364
8652.65566112
8650.45293294
8646.103464
8641.37592253
8636.35723942
8631.16199936
8625.92380872
8620.77429212
8615.84813126
8611.27210455
8607.15690958
8603.59280524
8600.67015907
8598.43803333
8596.95692794
)
;
    }
}


// ************************************************************************* //
