/*--------------------------------*- C++ -*----------------------------------*\
| =========                 |                                                 |
| \\      /  F ield         | OpenFOAM: The Open Source CFD Toolbox           |
|  \\    /   O peration     | Version:  v2012                                 |
|   \\  /    A nd           | Website:  www.openfoam.com                      |
|    \\/     M anipulation  |                                                 |
\*---------------------------------------------------------------------------*/
FoamFile
{
    version     2.0;
    format      ascii;
    class       surfaceVectorField;
    location    "3.1";
    object      Uf;
}
// * * * * * * * * * * * * * * * * * * * * * * * * * * * * * * * * * * * * * //

dimensions      [0 1 -1 0 0 0 0];


internalField   nonuniform List<vector> 
300
(
(0.0505543011046 -0.00108776416167 -1.67496577085e-22)
(0.0502301939325 -0.000484669561442 -2.57208622043e-22)
(0.0521588266193 -0.0022402476471 -5.61732173668e-23)
(0.0519922343414 -0.00149688631586 -2.05611524716e-23)
(0.0534326003543 -0.00346528285145 4.30865303724e-24)
(0.0535145616237 -0.00262977688064 -7.38337592482e-23)
(0.0543992549176 -0.0047648283135 4.25513390314e-23)
(0.0546140353081 -0.00378604879704 3.77546277737e-23)
(0.0552890916836 -0.00614543928154 2.58938782975e-24)
(0.055526176292 -0.00504070919916 1.16464907409e-24)
(0.0562583247625 -0.00762164968819 -7.20792061691e-24)
(0.0564815952594 -0.00638643770199 -3.87988654747e-24)
(0.0573568533527 -0.00921072576393 -8.80246129599e-24)
(0.0575686151008 -0.00784177794242 -6.80382029455e-24)
(0.0587984740446 -0.00942743942036 -4.44630093898e-24)
(0.0515780018932 -0.000896801784917 -1.10273197429e-22)
(0.0511271071433 -0.000388120712313 -2.35467842962e-22)
(0.0532533786309 -0.00185948680745 -3.8221694353e-23)
(0.0529550469308 -0.00120188379107 2.92183890632e-23)
(0.0546032999255 -0.0028997548462 -4.03877845118e-23)
(0.0545549603193 -0.0021341150466 -1.65778002171e-23)
(0.0556495902585 -0.00401773993879 -3.63206218363e-24)
(0.0557321476837 -0.00309669448988 9.35414076531e-24)
(0.0566303599811 -0.00522325742442 -5.30462530313e-24)
(0.0567318144028 -0.00416196093837 -3.65403641441e-24)
(0.057707588547 -0.00653222404161 -3.47578622512e-24)
(0.057790681732 -0.00532514279338 3.81578679906e-24)
(0.0589349774752 -0.00796536405258 -2.44765993753e-24)
(0.0590018746008 -0.00660803539368 -2.07730738576e-24)
(0.0603837819899 -0.0080341173868 1.20238965206e-24)
(0.0524009042774 -0.000689229093611 -9.5976256469e-23)
(0.0518164725851 -0.000286773448666 -2.22515456992e-22)
(0.0541505440747 -0.00144825637336 5.08622831992e-23)
(0.0537142277066 -0.000881944352788 9.01578544591e-23)
(0.0555789034638 -0.0022814794737 3.316412506e-23)
(0.0553883386558 -0.0015917789269 7.4068067007e-23)
(0.0567106090551 -0.00319541459544 9.33216653453e-24)
(0.0566462317112 -0.00233840634958 5.82378233844e-23)
(0.0577905987363 -0.00420286457834 5.46637568778e-24)
(0.0577394027871 -0.00319131820938 2.0432225642e-23)
(0.0589867311809 -0.00532324665455 5.21426563841e-24)
(0.0589111915711 -0.00414805365489 1.17046454641e-23)
(0.0603570627593 -0.00657928488933 1.57274220383e-24)
(0.0602580328804 -0.00523266206263 -1.40682508074e-24)
(0.0619063638669 -0.00799753932531 1.5909616832e-23)
(0.0618021689578 -0.00647403504941 1.12012712648e-25)
(0.0636199154517 -0.00960554969584 3.24066784765e-23)
(0.0635308175777 -0.00789982952248 3.62774029708e-23)
(0.0654300437412 -0.00953935747917 3.62045791101e-23)
(0.053009331656 -0.000472801634613 -3.6381346064e-23)
(0.0522894395675 -0.000165808588746 -6.74736944346e-23)
(0.0548288674616 -0.0010015061317 1.13363638267e-22)
(0.0542431134666 -0.000528281058735 2.46881198689e-22)
(0.056335697772 -0.00160151089212 9.91417653314e-23)
(0.0559885243721 -0.000996269039501 1.47809076054e-22)
(0.0575583022833 -0.00228924247349 6.93378824919e-23)
(0.057334135001 -0.0015037445024 1.18973477111e-22)
(0.0587447177564 -0.0030748456365 2.66704954184e-23)
(0.058525163796 -0.002121592821 5.33746745821e-23)
(0.0600687611263 -0.00398066147666 5.083554745e-24)
(0.0598171497913 -0.0028469267798 2.62146064064e-23)
(0.0615942637371 -0.00502974533796 -2.86755457192e-24)
(0.0613072459057 -0.00370433513942 -2.56414430999e-24)
(0.0633257767606 -0.00626081390975 2.04797988514e-23)
(0.0630333761894 -0.00473286800351 -9.83971809392e-24)
(0.0652501096246 -0.00769408855092 4.00753036043e-23)
(0.0649642624671 -0.00596363761285 3.7651171592e-23)
(0.0671023592365 -0.00742228295971 3.59831353177e-23)
(0.0533918352912 -0.000221068087492 2.15788850319e-22)
(0.0525106963451 -3.38154494646e-05 8.42714840589e-23)
(0.0552728049307 -0.000509609893689 2.81326636476e-22)
(0.0545318574413 -0.000142040465997 3.25939406485e-22)
(0.0568546209006 -0.000866207860313 1.67640787833e-22)
(0.0563453219686 -0.000345190206813 1.98297743613e-22)
(0.0581684912728 -0.00129677158258 1.03010269201e-22)
(0.0577648866121 -0.00058906357046 1.57445884747e-22)
(0.0594679052897 -0.00183521290078 5.29187855701e-23)
(0.0590637763784 -0.000944933442379 7.70388394124e-23)
(0.0609276544128 -0.00250238618615 1.85669073514e-23)
(0.0604844760636 -0.00141323950762 4.28487397773e-23)
(0.0626165672704 -0.00332535319366 -9.536307832e-24)
(0.0621303498888 -0.00201454350953 9.14673669758e-24)
(0.0645421456197 -0.00432884526077 7.33165464666e-24)
(0.0640370140506 -0.00279899802265 -7.90515904854e-24)
(0.06669300061 -0.00554964840851 3.35590033054e-23)
(0.066185246491 -0.00380216464663 2.472013861e-23)
(0.0685793282419 -0.0050455960932 2.9167829874e-23)
(0.053514786729 4.1393616699e-05 1.94422040226e-22)
(0.0524695026887 9.8875101616e-05 1.31317740387e-22)
(0.0554608473911 3.0500206415e-05 2.42910513623e-22)
(0.0545429612384 0.000275904547756 3.36512624354e-22)
(0.0571156736774 -5.83207971733e-05 1.88102840527e-22)
(0.0564343486774 0.000360668178559 2.08146447429e-22)
(0.0585170832106 -0.000221893620927 1.31474454958e-22)
(0.0579286516394 0.000404354114465 1.68960926214e-22)
(0.0599321135502 -0.000482298657007 6.69687936197e-23)
(0.0593243553271 0.000343034581204 9.53408361823e-23)
(0.0615380427601 -0.000874987784528 3.34285691235e-23)
(0.0608773195425 0.000163909826284 6.89128848806e-23)
(0.0633981346581 -0.00143899455645 1.0777885481e-23)
(0.0626944944243 -0.000155040170854 4.19784293658e-23)
(0.0655285230783 -0.00218360525617 9.48332491481e-24)
(0.0647817731035 -0.000661134720525 1.27965995738e-23)
(0.0679186253918 -0.00317717223241 2.03289651786e-23)
(0.0671790012762 -0.00140120969228 1.98124494204e-23)
(0.069828628801 -0.00239761538519 2.52451412908e-23)
(0.0533598485345 0.000330568393517 2.73408324515e-22)
(0.0521391319063 0.000245018241772 1.43902899166e-22)
(0.0553596514543 0.000613699951854 3.01748558161e-22)
(0.0542600320398 0.000728527897668 3.21760039715e-22)
(0.0570863949263 0.000843384378805 1.89004533116e-22)
(0.0562048597232 0.00112441322672 1.90004225465e-22)
(0.0585779086438 0.000988065849141 1.32827307438e-22)
(0.0577841514172 0.00148047983974 1.54889314797e-22)
(0.0601089574977 0.0010287748407 9.72849274432e-23)
(0.0592838092371 0.00174451876643 1.2537654671e-22)
(0.0618651746965 0.000934032625704 7.74627451228e-23)
(0.0609722059524 0.00189044953561 1.07965304349e-22)
(0.063910311422 0.000673265417382 4.39971434585e-23)
(0.0629553913897 0.00188820485424 8.12319007746e-23)
(0.0662624597775 0.000188614832222 2.31257240793e-23)
(0.0652665689645 0.00169680565934 4.965490853e-23)
(0.0689120038041 -0.000543713664097 2.47286255326e-23)
(0.0679115226824 0.00125828383703 2.77813917125e-23)
(0.0708615551345 0.000541514581318 3.50945891472e-23)
(0.0528959940238 0.000642765909227 1.92254614365e-22)
(0.0514965449117 0.000408563281411 1.36986636707e-22)
(0.0549432312743 0.0012485349748 2.10015707019e-22)
(0.0536544382297 0.00121437815484 2.68278717585e-22)
(0.0567355536265 0.00180632695766 1.55889007146e-22)
(0.0556472337594 0.00194716641144 1.62816767595e-22)
(0.0583196008388 0.00228724814837 1.47438554069e-22)
(0.0573033826878 0.00264540142825 1.46129591936e-22)
(0.0599692679373 0.00266167099821 1.36056923616e-22)
(0.0589095227895 0.00326343289165 1.46525311125e-22)
(0.0618746315921 0.00290628972103 1.11734460001e-22)
(0.0607277088451 0.0037663373009 1.15177797093e-22)
(0.0641102598515 0.00298557409627 8.6889665846e-23)
(0.0628762200275 0.00412227932092 9.91071002174e-23)
(0.0666968105292 0.00284661495119 5.43105761631e-23)
(0.0654056663314 0.00428923527337 9.91296961305e-23)
(0.0696357499949 0.0024395989624 3.81473553271e-23)
(0.0683187397977 0.00420491897917 8.90970105208e-23)
(0.071617764823 0.00381942986795 5.58025871651e-23)
(0.0521053635064 0.000975916946124 2.13010739926e-22)
(0.0505207673456 0.000579636810142 1.9544333325e-22)
(0.0541918227732 0.0019239990357 2.21079778161e-22)
(0.052706482077 0.00173018414049 2.35046417642e-22)
(0.0560424234808 0.00282926266172 1.53057352385e-22)
(0.054742084681 0.00282504948005 1.62998111524e-22)
(0.0577112572261 0.00367024817115 1.45216348991e-22)
(0.0564625007527 0.00389347712108 1.54222584416e-22)
(0.0594731330812 0.0044216047184 1.25646184601e-22)
(0.0581582592099 0.00489461350853 1.44749089201e-22)
(0.0615256201786 0.00505029167902 1.02550437309e-22)
(0.0600991080494 0.00578980864038 1.03823364303e-22)
(0.0639545785632 0.0055072499897 1.11347130502e-22)
(0.0624193498074 0.00655013258753 8.7994893739e-23)
(0.0667872507333 0.00574659359263 1.33916130488e-22)
(0.0651664522969 0.00712836903904 1.07277741696e-22)
(0.0700356568059 0.00571014904179 1.06752242359e-22)
(0.0683554015527 0.00746117052968 1.26444892946e-22)
(0.0720070856807 0.00748140516323 6.72974116059e-23)
(0.0509680025635 0.00132278075759 2.17479010965e-22)
(0.0491980630276 0.000755407868508 2.37695204808e-22)
(0.0530822133449 0.00263409467326 1.76964751006e-22)
(0.0513952200179 0.00227035598572 6.33849251059e-23)
(0.0549791862582 0.00391859874461 1.64163343555e-22)
(0.0534576198149 0.00374920753213 1.05473452874e-22)
(0.0567189627627 0.00515261618867 1.53755324626e-22)
(0.0552285167686 0.00521162343179 1.27471931643e-22)
(0.0585821627437 0.00630747847441 1.22926268903e-22)
(0.0570034292676 0.00662565043003 1.38118961857e-22)
(0.0607754581953 0.00735399026358 8.92678207323e-23)
(0.0590526347564 0.00795303269725 1.04143849717e-22)
(0.0633951780225 0.00824596625655 8.39255049332e-23)
(0.0615274302123 0.00916863365376 7.82111072315e-23)
(0.0664798279076 0.0089349384736 9.98065041535e-23)
(0.0644776018944 0.0102199489771 7.96733420162e-23)
(0.0700518618185 0.0093405933198 8.69900621927e-23)
(0.0679499899662 0.011044256162 8.26025987082e-23)
(0.0719642067777 0.0115723528283 5.42135038034e-23)
(0.0494643959024 0.00168393512886 8.36011189489e-23)
(0.0475141164466 0.000939514003343 1.51075532804e-22)
(0.0515910415413 0.0033740635035 -8.10637302568e-24)
(0.0497050446176 0.00282973180199 -1.80822939938e-22)
(0.0535184132381 0.0050591766888 6.87820409616e-23)
(0.0517724477256 0.00470762330467 -1.06700820284e-22)
(0.0553123137567 0.00671165953179 1.11835568874e-22)
(0.0535759781232 0.00658360269918 4.02865904332e-23)
(0.0572604576417 0.00830542463257 1.19336542671e-22)
(0.0554096218336 0.00844110060128 1.44733888699e-22)
(0.0595764258894 0.00981113291673 9.30871362158e-23)
(0.0575469092936 0.0102393113698 1.22521218212e-22)
(0.0623625203463 0.0111954124181 7.39589443146e-23)
(0.0601431731356 0.0119556161604 9.60169681638e-23)
(0.0656776918292 0.0124025062505 6.2469436571e-23)
(0.063270626461 0.0135459061389 7.70276109872e-23)
(0.0695689262307 0.0133732609713 4.9826040319e-23)
(0.0669795131057 0.014952478394 8.09780685194e-23)
(0.0713451984236 0.0161149106145 9.68879733728e-23)
(0.0475885274314 0.00205968064936 -1.13348526083e-22)
(0.0454543137397 0.00112418409531 8.32405237649e-23)
(0.0497054633002 0.00413650701931 -2.79417387197e-22)
(0.047628052565 0.0033980965832 -4.64970560612e-22)
(0.051640439544 0.00623341141822 -1.35196270812e-22)
(0.0496753708315 0.00568514556359 -3.95462575959e-22)
(0.0534663116851 0.00832343309277 7.31849102579e-23)
(0.0514858009266 0.0079901596353 -8.75037609906e-23)
(0.0554730870058 0.0103888463819 1.4791856424e-22)
(0.0533440868856 0.0103151733566 1.59051581521e-22)
(0.0578779932245 0.0123988562068 1.2545105016e-22)
(0.0555368279828 0.012615852243 1.48817363318e-22)
(0.0607926307216 0.0143267876815 9.90856348364e-23)
(0.0582152357736 0.0148735571561 1.23134723984e-22)
(0.0642919638428 0.0161315169025 9.55362429357e-23)
(0.0614660200014 0.0170581307293 9.58201595024e-23)
(0.0684451342215 0.0177519388609 1.28040001573e-22)
(0.0653594076779 0.0191228109309 1.19825336097e-22)
(0.0699703744168 0.0210169528339 1.40579365543e-22)
(0.045334630243 0.00242775847985 -2.68381510764e-22)
(0.0430263090963 0.00130288438747 1.44172726792e-22)
(0.0474166094287 0.0049041985568 -5.81015749374e-22)
(0.0451513214233 0.00396032288624 -6.91983214409e-22)
(0.0493311190036 0.00742635721534 -3.47770066137e-22)
(0.0471529263169 0.0066586955787 -6.23765105943e-22)
(0.0511585663807 0.00997325762106 -1.63708972722e-24)
(0.0489386510119 0.00940378444795 -1.9057072416e-22)
(0.0531848404726 0.0125277401086 1.59950380599e-22)
(0.0507894125502 0.012210672045 1.51055689893e-22)
(0.055631730099 0.0150785697906 1.46501037142e-22)
(0.0529858834913 0.0150373804836 1.74378306697e-22)
(0.0586238225162 0.0175922737529 1.1986924865e-22)
(0.0557015044107 0.0178735186038 1.76289086723e-22)
(0.0622433796381 0.0200469554306 1.20109252664e-22)
(0.0590114658584 0.0206968585371 1.41160364076e-22)
(0.0665639178642 0.0223918978147 1.32364700067e-22)
(0.0630148106129 0.0234701837062 1.72886954007e-22)
(0.0677913775516 0.0261499448854 1.50646845923e-22)
(0.0426944643092 0.00278568621557 -2.79428976854e-22)
(0.0402402563679 0.00147784147637 3.97668392495e-22)
(0.044715028747 0.00565392097418 -7.34732570978e-22)
(0.0422826830361 0.00450277255442 -6.90332021955e-22)
(0.046575964787 0.0086034044813 -4.66565763965e-22)
(0.0442030615353 0.00760319220276 -6.68249578755e-22)
(0.0483672261071 0.0116157336607 -3.78779445399e-23)
(0.0459259970049 0.0107901593924 -2.21340084389e-22)
(0.0503696323044 0.0146826956632 1.6548361599e-22)
(0.0477222003477 0.0140861113754 1.34680115529e-22)
(0.0528088897345 0.0177915713361 2.04166356279e-22)
(0.0498768445191 0.0174562294516 1.79685020318e-22)
(0.0558198811238 0.0209384586195 1.97580202149e-22)
(0.0525545529223 0.0208993290287 1.91870293227e-22)
(0.0594965099881 0.0240824870487 1.93938065419e-22)
(0.055867536495 0.024401517855 1.76175194575e-22)
(0.0639187393831 0.0271837197769 1.91169099863e-22)
(0.0599139129189 0.0279298283213 2.05516588206e-22)
(0.0647633621553 0.0314438081337 1.80301827591e-22)
(0.0396759425181 0.00313288840944 -1.32346526055e-23)
(0.0371067915557 0.00164379115041 1.08141360234e-21)
(0.0416053998345 0.00638938671732 -6.23849029732e-22)
(0.0390256196105 0.00501472527868 -3.38350587046e-22)
(0.0433775982803 0.00974235374257 -4.23023899179e-22)
(0.0408495949747 0.00849660461478 -4.19933064386e-22)
(0.0450857019962 0.0132164019894 -4.87820243199e-23)
(0.0424515811897 0.0121094510772 -1.15710135e-22)
(0.0470106354907 0.0167971235407 1.48881519857e-22)
(0.0441411971262 0.0158915985568 1.50771461158e-22)
(0.0493794183378 0.0204933829141 1.67388957267e-22)
(0.0461803773639 0.0198120379102 1.75893740096e-22)
(0.0523394097167 0.0242930069072 1.70465285653e-22)
(0.0487547767309 0.0238830485199 1.83638551857e-22)
(0.0559994010791 0.0281707816774 1.87753717362e-22)
(0.0519897310764 0.0280999976887 2.24684523529e-22)
(0.0604476397757 0.0320996797719 1.94649315934e-22)
(0.0559853594255 0.032427699456 2.78659421213e-22)
(0.060826986077 0.0368224620837 2.73745816104e-22)
(0.0363169454121 0.00345299958139 7.56297667904e-22)
(0.0336530171146 0.00178525819965 1.73193726264e-21)
(0.0381129796179 0.00705437369935 -1.344346217e-22)
(0.0354235281179 0.00547225974591 1.12304126647e-22)
(0.039753006963 0.010816910809 -1.12619300207e-22)
(0.0370865415135 0.00930662373055 -1.14382391978e-22)
(0.0413217645639 0.0147202663362 8.38433504775e-23)
(0.0385476424057 0.0133130931239 2.93579452178e-23)
(0.0430984035165 0.0188132589884 1.77783681397e-22)
(0.0400478675656 0.0175611507712 1.95983973891e-22)
(0.04531619412 0.0231015047062 1.92143334687e-22)
(0.0418916692585 0.0220285169693 2.32190007275e-22)
(0.0481375513021 0.027581084824 2.37857789733e-22)
(0.0442747546164 0.0267427672888 4.14105622658e-22)
(0.0516912107958 0.0322444749118 3.1559022738e-22)
(0.0560729480332 0.0370385896404 3.57755921383e-22)
(0.0326510471704 0.00373221934012 1.08794372138e-21)
(0.0342732145602 0.00763146121467 1.32356356369e-22)
(0.0357288098351 0.0117311718588 2.75948534467e-23)
(0.0370927031491 0.0160628957166 1.41498568631e-22)
(0.0386360122694 0.0206473311586 2.50390299769e-22)
(0.0354623857068 0.0190172292899 3.34776912093e-22)
(0.0406084140643 0.0255333471279 4.54152295247e-22)
)
;

boundaryField
{
    back
    {
        type            calculated;
        value           uniform (0 0 0);
    }
    sides
    {
        type            calculated;
        value           nonuniform List<vector> 0();
    }
    bottom
    {
        type            calculated;
        value           uniform (0 0 0);
    }
    front
    {
        type            calculated;
        value           uniform (0 0 0);
    }
    atmosphere
    {
        type            calculated;
        value           nonuniform List<vector> 0();
    }
    floatingObject
    {
        type            calculated;
        value           nonuniform List<vector> 0();
    }
    procBoundary4to0
    {
        type            processor;
        value           nonuniform List<vector> 8((0.0491422707739 -0.000581094186719 -2.93466341652e-22) (0.050839576393 -0.00176875057337 -2.38405035523e-23) (0.0522893480734 -0.00307811080959 -2.41580844258e-23) (0.0533143127221 -0.00440856026634 8.72806586195e-23) (0.0541453913362 -0.00583252040941 2.18461866171e-23) (0.0550052100325 -0.00734029267372 -2.9701224797e-24) (0.0559793602253 -0.00894605987011 -8.87648237948e-24) (0.0570820644737 -0.0106693233668 -1.31008194227e-23));
    }
    procBoundary4to3
    {
        type            processor;
        value           nonuniform List<vector> 
13
(
(0.0473262245001 0.0317074061218 7.28989304782e-22)
(0.0511909969179 0.0368649417483 1.07215285396e-21)
(0.0559318924591 0.0421279557586 1.21946757637e-21)
(0.0299199646731 0.00189557804501 1.8007586707e-21)
(0.0315235758728 0.0058477576729 2.52642473445e-22)
(0.0329858950059 0.00998847733802 -8.82389174454e-24)
(0.0342154497022 0.0143416071806 1.09696584482e-22)
(0.0370050042913 0.0240200119917 7.02440361974e-22)
(0.0431926155722 0.0307281862513 9.05237137708e-22)
(0.0390793321412 0.0293906028563 1.96846178108e-21)
(0.0324272233522 0.017166816002 3.02974927944e-22)
(0.0336306531661 0.0222134250082 7.86826974298e-22)
(0.0304148074181 0.0201598012233 1.13869740993e-21)
)
;
    }
    procBoundary4to5
    {
        type            processor;
        value           nonuniform List<vector> 
18
(
(0.0585883812003 -0.0109269393203 -2.39627659629e-24)
(0.060317204538 -0.00955054687558 9.6307737915e-24)
(0.0619225786352 -0.00962617689957 2.43380009715e-23)
(0.0636024005488 -0.0114127103472 2.65145362629e-23)
(0.0654786475371 -0.0114329443623 3.07317908667e-23)
(0.0673539996427 -0.00936621438487 3.3457305094e-23)
(0.0690576122982 -0.00702641430934 3.79517268116e-23)
(0.0705534171505 -0.00442625857154 4.11343594114e-23)
(0.0718388001536 -0.00157641267062 4.85146511979e-23)
(0.0729060950629 0.00168363834859 -1.60449399693e-25)
(0.0736918498716 0.00532111270986 -1.88073747213e-23)
(0.0741313886224 0.00938380560173 1.94491417594e-23)
(0.0740831403893 0.0139926581403 8.15030395671e-23)
(0.0733271368425 0.0191272046027 2.84181829701e-22)
(0.0716665562963 0.0245713788831 9.74328578035e-23)
(0.0691674248771 0.0302122394737 2.15676049086e-22)
(0.0657615502184 0.0360362633291 2.1265349509e-22)
(0.0613272099778 0.0419341404767 4.68192587379e-22)
)
;
    }
}


// ************************************************************************* //
