/*--------------------------------*- C++ -*----------------------------------*\
| =========                 |                                                 |
| \\      /  F ield         | OpenFOAM: The Open Source CFD Toolbox           |
|  \\    /   O peration     | Version:  v2012                                 |
|   \\  /    A nd           | Website:  www.openfoam.com                      |
|    \\/     M anipulation  |                                                 |
\*---------------------------------------------------------------------------*/
FoamFile
{
    version     2.0;
    format      ascii;
    class       volScalarField;
    location    "4.4";
    object      epsilon_0;
}
// * * * * * * * * * * * * * * * * * * * * * * * * * * * * * * * * * * * * * //

dimensions      [0 2 -3 0 0 0 0];


internalField   nonuniform List<scalar> 
167
(
0.000804665680571
0.000812543685305
0.000823019291045
0.000840048817365
0.000872439410613
0.00094195018447
0.00112039075211
0.00168293607612
0.00345959015818
0.00813354244639
0.0202139237389
0.0818159277086
0.000839665275477
0.000846970477772
0.000857523659911
0.000875982743953
0.000912941557465
0.000995664301736
0.00121122000624
0.00184976667776
0.00367746171448
0.00855753697708
0.0263436919687
0.13582843568
0.00092275531007
0.000930639101287
0.000942332415676
0.000963148451307
0.00100511865009
0.00109922320541
0.00134115043622
0.00203554299089
0.00397265641375
0.00916409099975
0.0290588037754
0.158967152418
0.000963904579182
0.000975971784679
0.000997528561195
0.00104098571295
0.0011383998121
0.00138803657849
0.00209434054078
0.00402921838403
0.00912436697459
0.0287001070703
0.147514853689
0.000989911225958
0.00101134913776
0.00105446626432
0.00115138955537
0.00140136508897
0.00210729957602
0.00401523227648
0.00881667523836
0.0255840051225
0.150174767199
0.000996546380381
0.00101746578746
0.00105949198266
0.00115440300238
0.00140201472434
0.00210679779536
0.004009762585
0.00880744846627
0.0234695194038
0.121244373643
0.00100063035964
0.00102091324886
0.0010617000349
0.00115425615075
0.00139781677004
0.00209592219714
0.00399438903914
0.00896983428284
0.0244524950316
0.0869891351198
0.00100394827815
0.00102358636203
0.00106318286935
0.00115343241588
0.00139196272588
0.00207802294363
0.00395380341113
0.00891256840915
0.0241671535684
0.0728387255491
0.00100713239361
0.00102614031598
0.00106456565223
0.00115236923965
0.00138474053389
0.00205440972919
0.00389471982987
0.00872502727336
0.0233950784842
0.086497539582
0.0010103880458
0.00102878929059
0.00106609261754
0.00115144202857
0.00137713968354
0.00202844716134
0.00383225952225
0.00858514609484
0.0247151756906
0.147113777892
0.00101375835787
0.00103160314356
0.00106796256772
0.00115146703311
0.0013723554245
0.00201038858431
0.00379606854068
0.00865855664884
0.0268571452163
0.172864604501
0.00101722042609
0.00103454649
0.0010701137157
0.00115245660879
0.00137093972152
0.00200280602111
0.0037848617779
0.00871386930165
0.0266010723433
0.145607810852
0.00102073856139
0.00103751756155
0.00107212921174
0.00115271690807
0.00136719329504
0.0019905728404
0.00375937595816
0.0084909396833
0.0227770417129
0.103560962784
0.0010242823447
0.00104048292976
0.00107390356362
0.00115174433633
0.00135951894248
0.0019684476706
0.00371185208107
0.00829867568458
0.0195777965872
0.0533383798476
0.00102782510243
0.00104346840443
0.00107565626469
0.00115054969374
0.00135106834879
0.0019443216144
0.00365663704318
0.00820362612305
0.0204623297304
0.0806577345696
0.00103131978312
0.00104650634226
0.00107776091429
0.00115076358526
0.00134712622259
0.00193059860225
0.00361024919021
0.00805878787269
0.0218380177794
0.125549363493
)
;

boundaryField
{
    back
    {
        lowReCorrection 0;
        blending        stepwise;
        n               2;
        type            epsilonWallFunction;
        value           nonuniform List<scalar> 
167
(
0.000804665680571
0.000812543685305
0.000823019291045
0.000840048817365
0.000872439410613
0.00094195018447
0.00112039075211
0.00168293607612
0.00345959015818
0.00813354244639
0.0202139237389
0.0818159277086
0.000839665275477
0.000846970477772
0.000857523659911
0.000875982743953
0.000912941557465
0.000995664301736
0.00121122000624
0.00184976667776
0.00367746171448
0.00855753697708
0.0263436919687
0.13582843568
0.00092275531007
0.000930639101287
0.000942332415676
0.000963148451307
0.00100511865009
0.00109922320541
0.00134115043622
0.00203554299089
0.00397265641375
0.00916409099975
0.0290588037754
0.158967152418
0.000963904579182
0.000975971784679
0.000997528561195
0.00104098571295
0.0011383998121
0.00138803657849
0.00209434054078
0.00402921838403
0.00912436697459
0.0287001070703
0.147514853689
0.000989911225958
0.00101134913776
0.00105446626432
0.00115138955537
0.00140136508897
0.00210729957602
0.00401523227648
0.00881667523836
0.0255840051225
0.150174767199
0.000996546380381
0.00101746578746
0.00105949198266
0.00115440300238
0.00140201472434
0.00210679779536
0.004009762585
0.00880744846627
0.0234695194038
0.121244373643
0.00100063035964
0.00102091324886
0.0010617000349
0.00115425615075
0.00139781677004
0.00209592219714
0.00399438903914
0.00896983428284
0.0244524950316
0.0869891351198
0.00100394827815
0.00102358636203
0.00106318286935
0.00115343241588
0.00139196272588
0.00207802294363
0.00395380341113
0.00891256840915
0.0241671535684
0.0728387255491
0.00100713239361
0.00102614031598
0.00106456565223
0.00115236923965
0.00138474053389
0.00205440972919
0.00389471982987
0.00872502727336
0.0233950784842
0.086497539582
0.0010103880458
0.00102878929059
0.00106609261754
0.00115144202857
0.00137713968354
0.00202844716134
0.00383225952225
0.00858514609484
0.0247151756906
0.147113777892
0.00101375835787
0.00103160314356
0.00106796256772
0.00115146703311
0.0013723554245
0.00201038858431
0.00379606854068
0.00865855664884
0.0268571452163
0.172864604501
0.00101722042609
0.00103454649
0.0010701137157
0.00115245660879
0.00137093972152
0.00200280602111
0.0037848617779
0.00871386930165
0.0266010723433
0.145607810852
0.00102073856139
0.00103751756155
0.00107212921174
0.00115271690807
0.00136719329504
0.0019905728404
0.00375937595816
0.0084909396833
0.0227770417129
0.103560962784
0.0010242823447
0.00104048292976
0.00107390356362
0.00115174433633
0.00135951894248
0.0019684476706
0.00371185208107
0.00829867568458
0.0195777965872
0.0533383798476
0.00102782510243
0.00104346840443
0.00107565626469
0.00115054969374
0.00135106834879
0.0019443216144
0.00365663704318
0.00820362612305
0.0204623297304
0.0806577345696
0.00103131978312
0.00104650634226
0.00107776091429
0.00115076358526
0.00134712622259
0.00193059860225
0.00361024919021
0.00805878787269
0.0218380177794
0.125549363493
)
;
    }
    sides
    {
        lowReCorrection 0;
        blending        stepwise;
        n               2;
        type            epsilonWallFunction;
        value           nonuniform List<scalar> 
12
(
0.000804665680571
0.000812543685305
0.000823019291045
0.000840048817365
0.000872439410613
0.00094195018447
0.00112039075211
0.00168293607612
0.00345959015818
0.00813354244639
0.0202139237389
0.0818159277086
)
;
    }
    bottom
    {
        lowReCorrection 0;
        blending        stepwise;
        n               2;
        type            epsilonWallFunction;
        value           nonuniform List<scalar> 0();
    }
    front
    {
        lowReCorrection 0;
        blending        stepwise;
        n               2;
        type            epsilonWallFunction;
        value           nonuniform List<scalar> 
167
(
0.000804665680571
0.000812543685305
0.000823019291045
0.000840048817365
0.000872439410613
0.00094195018447
0.00112039075211
0.00168293607612
0.00345959015818
0.00813354244639
0.0202139237389
0.0818159277086
0.000839665275477
0.000846970477772
0.000857523659911
0.000875982743953
0.000912941557465
0.000995664301736
0.00121122000624
0.00184976667776
0.00367746171448
0.00855753697708
0.0263436919687
0.13582843568
0.00092275531007
0.000930639101287
0.000942332415676
0.000963148451307
0.00100511865009
0.00109922320541
0.00134115043622
0.00203554299089
0.00397265641375
0.00916409099975
0.0290588037754
0.158967152418
0.000963904579182
0.000975971784679
0.000997528561195
0.00104098571295
0.0011383998121
0.00138803657849
0.00209434054078
0.00402921838403
0.00912436697459
0.0287001070703
0.147514853689
0.000989911225958
0.00101134913776
0.00105446626432
0.00115138955537
0.00140136508897
0.00210729957602
0.00401523227648
0.00881667523836
0.0255840051225
0.150174767199
0.000996546380381
0.00101746578746
0.00105949198266
0.00115440300238
0.00140201472434
0.00210679779536
0.004009762585
0.00880744846627
0.0234695194038
0.121244373643
0.00100063035964
0.00102091324886
0.0010617000349
0.00115425615075
0.00139781677004
0.00209592219714
0.00399438903914
0.00896983428284
0.0244524950316
0.0869891351198
0.00100394827815
0.00102358636203
0.00106318286935
0.00115343241588
0.00139196272588
0.00207802294363
0.00395380341113
0.00891256840915
0.0241671535684
0.0728387255491
0.00100713239361
0.00102614031598
0.00106456565223
0.00115236923965
0.00138474053389
0.00205440972919
0.00389471982987
0.00872502727336
0.0233950784842
0.086497539582
0.0010103880458
0.00102878929059
0.00106609261754
0.00115144202857
0.00137713968354
0.00202844716134
0.00383225952225
0.00858514609484
0.0247151756906
0.147113777892
0.00101375835787
0.00103160314356
0.00106796256772
0.00115146703311
0.0013723554245
0.00201038858431
0.00379606854068
0.00865855664884
0.0268571452163
0.172864604501
0.00101722042609
0.00103454649
0.0010701137157
0.00115245660879
0.00137093972152
0.00200280602111
0.0037848617779
0.00871386930165
0.0266010723433
0.145607810852
0.00102073856139
0.00103751756155
0.00107212921174
0.00115271690807
0.00136719329504
0.0019905728404
0.00375937595816
0.0084909396833
0.0227770417129
0.103560962784
0.0010242823447
0.00104048292976
0.00107390356362
0.00115174433633
0.00135951894248
0.0019684476706
0.00371185208107
0.00829867568458
0.0195777965872
0.0533383798476
0.00102782510243
0.00104346840443
0.00107565626469
0.00115054969374
0.00135106834879
0.0019443216144
0.00365663704318
0.00820362612305
0.0204623297304
0.0806577345696
0.00103131978312
0.00104650634226
0.00107776091429
0.00115076358526
0.00134712622259
0.00193059860225
0.00361024919021
0.00805878787269
0.0218380177794
0.125549363493
)
;
    }
    atmosphere
    {
        type            inletOutlet;
        inletValue      uniform 0.1;
        value           nonuniform List<scalar> 
16
(
0.0818159277086
0.1
0.1
0.1
0.1
0.121244373643
0.0869891351198
0.0728387255491
0.1
0.1
0.1
0.145607810852
0.103560962784
0.0533383798476
0.1
0.1
)
;
    }
    floatingObject
    {
        lowReCorrection 0;
        blending        stepwise;
        n               2;
        type            epsilonWallFunction;
        value           nonuniform List<scalar> 0();
    }
    procBoundary1to0
    {
        type            processor;
        value           nonuniform List<scalar> 10(0.00103473706276 0.00104954159288 0.0010800989237 0.00115203068494 0.00134679439095 0.00192662182669 0.00358525409035 0.00791470946908 0.0214778781006 0.117170232186);
    }
    procBoundary1to2
    {
        type            processor;
        value           nonuniform List<scalar> 
18
(
0.000797787213849
0.000833595122244
0.000916360731672
0.000955865514689
0.000955865514689
0.000977917352638
0.000977917352638
0.000984838889728
0.000989280089906
0.000992974681334
0.000996535648118
0.001000146351
0.00100384453462
0.00100761034396
0.00101141939781
0.00101523085277
0.00101901023726
0.00102272048572
)
;
    }
}


// ************************************************************************* //
