/*--------------------------------*- C++ -*----------------------------------*\
| =========                 |                                                 |
| \\      /  F ield         | OpenFOAM: The Open Source CFD Toolbox           |
|  \\    /   O peration     | Version:  v2012                                 |
|   \\  /    A nd           | Website:  www.openfoam.com                      |
|    \\/     M anipulation  |                                                 |
\*---------------------------------------------------------------------------*/
FoamFile
{
    version     2.0;
    format      ascii;
    class       volScalarField;
    location    "4.4";
    object      nut;
}
// * * * * * * * * * * * * * * * * * * * * * * * * * * * * * * * * * * * * * //

dimensions      [0 2 -1 0 0 0 0];


internalField   nonuniform List<scalar> 
167
(
0.000345235241004
0.000346439270035
0.000347975774239
0.0003503203496
0.000354497785047
0.000362883664149
0.000382175112414
0.000430465938805
0.00053185931968
0.000693900117181
0.00102176806784
0.0017335917037
0.000513473923091
0.000515029215088
0.000517178304399
0.000520721835211
0.000527420565394
0.00054148301728
0.000574162050003
0.0006506773209
0.000799696094687
0.00105418281063
0.00164335749488
0.00296982268922
0.000529688710306
0.000531253568427
0.000533466507288
0.000537193873416
0.000544310078834
0.000559284993151
0.000593644165121
0.00067199281283
0.000822142799995
0.00108299574946
0.0016880710049
0.00307986724388
0.000537406075717
0.000539626547281
0.000543386957748
0.000550580947461
0.000565731110662
0.000600407097927
0.000678613248373
0.000826684618182
0.00108171270784
0.00168286197149
0.00350208422575
0.000542151127309
0.000545855394928
0.000552940099787
0.000567919270823
0.000602435142759
0.000680232041726
0.000825920384526
0.00107008883663
0.00165095266101
0.00324263844425
0.000543374789075
0.0005469822063
0.000553882975057
0.000568560468839
0.000602769822068
0.000680459899508
0.000825755276
0.00106278173672
0.00156851550694
0.00280856220429
0.00054415931859
0.000547658927952
0.000554368548965
0.000568728063035
0.00060251830313
0.000679890128498
0.000825928050367
0.0010640299934
0.00148433283014
0.00259269083762
0.000544818210249
0.000548211816223
0.000554742435529
0.000568794948216
0.000602071984261
0.000678773719047
0.000824915924276
0.00106652964322
0.00154900450182
0.0034166984248
0.000545458972183
0.000548750096038
0.000555110176417
0.000568849208515
0.000601505835987
0.000677197099984
0.000822482514612
0.00106658566467
0.00167544174444
0.00392384354258
0.000546111934179
0.000549307030258
0.000555512256058
0.000568965775002
0.000601028462819
0.000675729878191
0.000820620158574
0.00107205983305
0.00167930941645
0.00317055299828
0.000546780471104
0.000549889086436
0.000555970778499
0.000569240225713
0.000600987705117
0.000675302831159
0.000821109922041
0.00108021411535
0.0016965875331
0.00270938720923
0.000547455915065
0.000550484803668
0.000556460997179
0.000569616109732
0.00060126908112
0.000675729603847
0.000822604786811
0.0010768432702
0.00160273064569
0.00276569012067
0.000548130377621
0.000551075943663
0.000556921451744
0.00056987581182
0.0006012559671
0.00067572877601
0.000822998648813
0.00106506356015
0.00147232131781
0.00218592774683
0.000548796622183
0.000551656887936
0.000557342079267
0.000569985949853
0.000600860356729
0.000675098328626
0.000823132653328
0.00106261072007
0.00150424566988
0.00271231623164
0.000549450488097
0.000552230658977
0.000557760915956
0.000570109396507
0.000600536233546
0.000674642014448
0.000823786830924
0.00107275897489
0.00165529514301
0.0034404939554
0.000550079975726
0.000552797235863
0.000558215571581
0.000570413049215
0.000600744801241
0.00067516607228
0.000825121276113
0.00108090651136
0.00169487417388
0.00311799450135
)
;

boundaryField
{
    back
    {
        type            nutkWallFunction;
        blending        stepwise;
        Cmu             0.09;
        kappa           0.41;
        E               9.8;
        value           nonuniform List<scalar> 
167
(
4.92536155242e-05
4.94035646337e-05
4.95986522866e-05
4.99056457966e-05
5.0467760519e-05
5.16144510528e-05
5.42847270379e-05
6.1045195704e-05
7.51655850131e-05
9.67513573837e-05
0.000133235664122
0.000274391288171
5.44312710935e-05
5.45771265281e-05
5.47831072001e-05
5.5132567753e-05
5.58076777667e-05
5.72412072256e-05
6.0598540465e-05
6.85013453883e-05
8.36723360055e-05
0.000107917468568
0.000157792623778
0.000339371060345
5.6005043781e-05
5.61519533747e-05
5.63648240343e-05
5.67328514394e-05
5.74493124938e-05
5.89722357115e-05
6.24875266077e-05
7.05275255693e-05
8.57152888793e-05
0.000110353573724
0.000162336591252
0.000348326326088
5.67496742209e-05
5.69636157043e-05
5.73351691083e-05
5.80589530452e-05
5.95976003675e-05
6.31392785776e-05
7.11466961753e-05
8.61066081494e-05
0.000110218863196
0.000161227938972
0.000354903302506
5.72081035513e-05
5.75740160563e-05
5.82858846061e-05
5.98048503683e-05
6.33265844823e-05
7.12871531535e-05
8.60196805723e-05
0.000109087076961
0.000157008071746
0.000347522383504
5.73248539536e-05
5.7680648679e-05
5.83726523077e-05
5.9857891686e-05
6.33442663001e-05
7.1290963595e-05
8.59895138151e-05
0.00010878616886
0.000151555035348
0.000319767794892
5.73977710549e-05
5.77422559702e-05
5.84134896074e-05
5.98628905803e-05
6.32995262102e-05
7.11997700766e-05
8.59311725405e-05
0.000109202008379
0.000149112269079
0.00027189108935
5.74577354096e-05
5.77910517053e-05
5.84427376484e-05
5.98576168494e-05
6.32335706955e-05
7.10438305423e-05
8.57254348155e-05
0.000109122369667
0.000150190378226
0.00030867400657
5.7515509247e-05
5.78380020916e-05
5.84707295979e-05
5.98496090305e-05
6.31516599619e-05
7.08346612771e-05
8.5394236386e-05
0.000108660351507
0.000153232290754
0.000348284800317
5.75744154311e-05
5.78865967665e-05
5.85014785142e-05
5.98453265027e-05
6.3070005176e-05
7.0614364446e-05
8.50703271463e-05
0.000108557612565
0.00015657247735
0.000346451990938
5.76350367037e-05
5.79378028595e-05
5.85378213417e-05
5.98561632824e-05
6.30285359723e-05
7.04830131302e-05
8.49410317512e-05
0.000109039503744
0.000159829844094
0.00034559517215
5.7696812072e-05
5.79908162743e-05
5.85781744209e-05
5.98799954727e-05
6.30273484514e-05
7.04501958596e-05
8.49510955256e-05
0.000109055745512
0.000155932040852
0.00032604964112
5.77590671711e-05
5.8043895973e-05
5.86160318313e-05
5.98925153534e-05
6.29954660062e-05
7.03712559099e-05
8.48598070749e-05
0.000108109846696
0.000146844127298
0.000271933642874
5.78212078583e-05
5.80964734874e-05
5.86499572275e-05
5.98877317477e-05
6.29161653626e-05
7.02048994751e-05
8.46694675764e-05
0.000107540134262
0.000143455888084
0.000270335353218
5.78827579464e-05
5.81489185663e-05
5.86836029042e-05
5.98814916133e-05
6.28332397683e-05
7.00319242692e-05
8.44648805164e-05
0.000107658601261
0.000149649840728
0.000326303811911
5.7942836011e-05
5.82015586653e-05
5.87221100068e-05
5.98954924845e-05
6.28086448647e-05
6.99635298904e-05
8.43216784345e-05
0.000107614627846
0.000153675590939
0.000338000597452
)
;
    }
    sides
    {
        type            nutkWallFunction;
        blending        stepwise;
        Cmu             0.09;
        kappa           0.41;
        E               9.8;
        value           nonuniform List<scalar> 
12
(
2.614484198e-05
2.62250556657e-05
2.6329413216e-05
2.64936264161e-05
2.67942878625e-05
2.74075533263e-05
2.88352939519e-05
3.24478965483e-05
3.99851844027e-05
5.14901781915e-05
7.0909671073e-05
0.000143045304314
)
;
    }
    bottom
    {
        type            nutkWallFunction;
        blending        stepwise;
        Cmu             0.09;
        kappa           0.41;
        E               9.8;
        value           nonuniform List<scalar> 0();
    }
    front
    {
        type            nutkWallFunction;
        blending        stepwise;
        Cmu             0.09;
        kappa           0.41;
        E               9.8;
        value           nonuniform List<scalar> 
167
(
4.92536155242e-05
4.94035646337e-05
4.95986522866e-05
4.99056457966e-05
5.0467760519e-05
5.16144510528e-05
5.42847270379e-05
6.1045195704e-05
7.51655850131e-05
9.67513573837e-05
0.000133235664122
0.000274391288171
5.44312710935e-05
5.45771265281e-05
5.47831072001e-05
5.5132567753e-05
5.58076777667e-05
5.72412072256e-05
6.0598540465e-05
6.85013453883e-05
8.36723360055e-05
0.000107917468568
0.000157792623778
0.000339371060345
5.6005043781e-05
5.61519533747e-05
5.63648240343e-05
5.67328514394e-05
5.74493124938e-05
5.89722357115e-05
6.24875266077e-05
7.05275255693e-05
8.57152888793e-05
0.000110353573724
0.000162336591252
0.000348326326088
5.67496742209e-05
5.69636157043e-05
5.73351691083e-05
5.80589530452e-05
5.95976003675e-05
6.31392785776e-05
7.11466961753e-05
8.61066081494e-05
0.000110218863196
0.000161227938972
0.000354903302506
5.72081035513e-05
5.75740160563e-05
5.82858846061e-05
5.98048503683e-05
6.33265844823e-05
7.12871531535e-05
8.60196805723e-05
0.000109087076961
0.000157008071746
0.000347522383504
5.73248539536e-05
5.7680648679e-05
5.83726523077e-05
5.9857891686e-05
6.33442663001e-05
7.1290963595e-05
8.59895138151e-05
0.00010878616886
0.000151555035348
0.000319767794892
5.73977710549e-05
5.77422559702e-05
5.84134896074e-05
5.98628905803e-05
6.32995262102e-05
7.11997700766e-05
8.59311725405e-05
0.000109202008379
0.000149112269079
0.00027189108935
5.74577354096e-05
5.77910517053e-05
5.84427376484e-05
5.98576168494e-05
6.32335706955e-05
7.10438305423e-05
8.57254348155e-05
0.000109122369667
0.000150190378226
0.00030867400657
5.7515509247e-05
5.78380020916e-05
5.84707295979e-05
5.98496090305e-05
6.31516599619e-05
7.08346612771e-05
8.5394236386e-05
0.000108660351507
0.000153232290754
0.000348284800317
5.75744154311e-05
5.78865967665e-05
5.85014785142e-05
5.98453265027e-05
6.3070005176e-05
7.0614364446e-05
8.50703271463e-05
0.000108557612565
0.00015657247735
0.000346451990938
5.76350367037e-05
5.79378028595e-05
5.85378213417e-05
5.98561632824e-05
6.30285359723e-05
7.04830131302e-05
8.49410317512e-05
0.000109039503744
0.000159829844094
0.00034559517215
5.7696812072e-05
5.79908162743e-05
5.85781744209e-05
5.98799954727e-05
6.30273484514e-05
7.04501958596e-05
8.49510955256e-05
0.000109055745512
0.000155932040852
0.00032604964112
5.77590671711e-05
5.8043895973e-05
5.86160318313e-05
5.98925153534e-05
6.29954660062e-05
7.03712559099e-05
8.48598070749e-05
0.000108109846696
0.000146844127298
0.000271933642874
5.78212078583e-05
5.80964734874e-05
5.86499572275e-05
5.98877317477e-05
6.29161653626e-05
7.02048994751e-05
8.46694675764e-05
0.000107540134262
0.000143455888084
0.000270335353218
5.78827579464e-05
5.81489185663e-05
5.86836029042e-05
5.98814916133e-05
6.28332397683e-05
7.00319242692e-05
8.44648805164e-05
0.000107658601261
0.000149649840728
0.000326303811911
5.7942836011e-05
5.82015586653e-05
5.87221100068e-05
5.98954924845e-05
6.28086448647e-05
6.99635298904e-05
8.43216784345e-05
0.000107614627846
0.000153675590939
0.000338000597452
)
;
    }
    atmosphere
    {
        type            calculated;
        value           nonuniform List<scalar> 
16
(
0.0017335917037
0.009
0.009
0.009
0.009
0.00280856220429
0.00259269083762
0.0034166984248
0.009
0.009
0.00270938720923
0.009
0.00218592774683
0.00271231623164
0.009
0.009
)
;
    }
    floatingObject
    {
        type            nutkWallFunction;
        blending        stepwise;
        Cmu             0.09;
        kappa           0.41;
        E               9.8;
        value           nonuniform List<scalar> 0();
    }
    procBoundary1to0
    {
        type            processor;
        value           nonuniform List<scalar> 10(0.000550684491733 0.000553345156714 0.000558674872564 0.000570794546624 0.00060123837333 0.000676393572859 0.0008278710212 0.0010890912012 0.00174640949863 0.00318097009785);
    }
    procBoundary1to2
    {
        type            processor;
        value           nonuniform List<scalar> 
18
(
0.000344160420329
0.000512142242013
0.000528387960234
0.000535865304694
0.000535865304694
0.000539973313756
0.000539973313756
0.000541254624764
0.000542106568279
0.000542832929124
0.000543537528941
0.000544249472258
0.000544970604297
0.000545695528825
0.000546416898364
0.000547127326384
0.000547818580921
0.000548486764957
)
;
    }
}


// ************************************************************************* //
