/*--------------------------------*- C++ -*----------------------------------*\
| =========                 |                                                 |
| \\      /  F ield         | OpenFOAM: The Open Source CFD Toolbox           |
|  \\    /   O peration     | Version:  v2012                                 |
|   \\  /    A nd           | Website:  www.openfoam.com                      |
|    \\/     M anipulation  |                                                 |
\*---------------------------------------------------------------------------*/
FoamFile
{
    version     2.0;
    format      ascii;
    class       volScalarField;
    location    "4.4";
    object      rAU;
}
// * * * * * * * * * * * * * * * * * * * * * * * * * * * * * * * * * * * * * //

dimensions      [-1 3 1 0 0 0 0];


internalField   nonuniform List<scalar> 
167
(
2.20132542422e-05
2.2011093518e-05
2.20087175256e-05
2.20055465704e-05
2.19991735189e-05
2.20082032558e-05
2.19323940033e-05
2.15284645945e-05
2.12307850789e-05
2.824125361e-05
0.000282341085123
0.012424109086
2.18564808159e-05
2.18535944126e-05
2.18502202935e-05
2.18462607805e-05
2.18388089405e-05
2.18361769387e-05
2.17444884781e-05
2.1996124358e-05
2.16385438039e-05
2.78025821904e-05
0.000301497374301
0.00895197377032
2.18293577988e-05
2.18264947467e-05
2.18227953368e-05
2.18185951022e-05
2.18115512919e-05
2.18083678907e-05
2.1715330751e-05
2.19217304705e-05
2.17482174241e-05
2.79128306411e-05
0.000288027626624
0.00918530970174
2.18208155858e-05
2.18173239001e-05
2.1812597577e-05
2.18052315565e-05
2.18000607261e-05
2.17118538164e-05
2.18960538904e-05
2.16897305408e-05
2.76863136229e-05
0.000277036174649
0.00893958650028
2.18146733335e-05
2.18101186618e-05
2.18019182711e-05
2.17936854063e-05
2.17102347332e-05
2.18656984484e-05
2.15951517579e-05
2.72417993603e-05
0.000249826739977
0.006411594203
2.18122976304e-05
2.18075748287e-05
2.17990233898e-05
2.17871044687e-05
2.17062555132e-05
2.18030226962e-05
2.1627851304e-05
2.69090442097e-05
0.000215925273234
0.00357346789481
2.18105033769e-05
2.18055647637e-05
2.17961732108e-05
2.17834364443e-05
2.17090967221e-05
2.17504857457e-05
2.15690691098e-05
2.64583061555e-05
0.000181564242094
0.00238380875769
2.18087783631e-05
2.18041795538e-05
2.17961308529e-05
2.17860688546e-05
2.17267098756e-05
2.17590193918e-05
2.15307964497e-05
2.6378381907e-05
0.000172342537403
0.0050719270038
2.18071497561e-05
2.18028748328e-05
2.17959285797e-05
2.17885229135e-05
2.1741672937e-05
2.18109214335e-05
2.16360135319e-05
2.64787135223e-05
0.000183882402039
0.00729951036936
2.18050966859e-05
2.18007989748e-05
2.17938683041e-05
2.17864264958e-05
2.17444266198e-05
2.17853416752e-05
2.16178489565e-05
2.63162860032e-05
0.000192006209978
0.00856316977376
2.18026188657e-05
2.17982598651e-05
2.17905800225e-05
2.17811074824e-05
2.17399619705e-05
2.17395204804e-05
2.15625050205e-05
2.63152955203e-05
0.000198904912604
0.00922144168904
2.18002509855e-05
2.17961105051e-05
2.17884388274e-05
2.17761965221e-05
2.17354503708e-05
2.17041499668e-05
2.15479148263e-05
2.61288747153e-05
0.000177415981697
0.0121448014854
2.17986177248e-05
2.1794917118e-05
2.17874305414e-05
2.17730581533e-05
2.17349568735e-05
2.16821231624e-05
2.15284795105e-05
2.61184367851e-05
0.000162628326766
0.00543364855809
2.17976754607e-05
2.17945526878e-05
2.17872466559e-05
2.17731474422e-05
2.17408332023e-05
2.16793957361e-05
2.15170378618e-05
2.64270900615e-05
0.000178968530015
0.0129594681772
2.17971587737e-05
2.1793913598e-05
2.17868217087e-05
2.17734644281e-05
2.17453841212e-05
2.16870211069e-05
2.15781569958e-05
2.69660611905e-05
0.000196320098602
0.0116483951185
2.17964693933e-05
2.17922185418e-05
2.17847680775e-05
2.17691252597e-05
2.17389269836e-05
2.16695238499e-05
2.16057078464e-05
2.74076347963e-05
0.000222571891465
0.0123142935702
)
;

boundaryField
{
    back
    {
        type            calculated;
        value           nonuniform List<scalar> 
167
(
2.20132542422e-05
2.2011093518e-05
2.20087175256e-05
2.20055465704e-05
2.19991735189e-05
2.20082032558e-05
2.19323940033e-05
2.15284645945e-05
2.12307850789e-05
2.824125361e-05
0.000282341085123
0.012424109086
2.18564808159e-05
2.18535944126e-05
2.18502202935e-05
2.18462607805e-05
2.18388089405e-05
2.18361769387e-05
2.17444884781e-05
2.1996124358e-05
2.16385438039e-05
2.78025821904e-05
0.000301497374301
0.00895197377032
2.18293577988e-05
2.18264947467e-05
2.18227953368e-05
2.18185951022e-05
2.18115512919e-05
2.18083678907e-05
2.1715330751e-05
2.19217304705e-05
2.17482174241e-05
2.79128306411e-05
0.000288027626624
0.00918530970174
2.18208155858e-05
2.18173239001e-05
2.1812597577e-05
2.18052315565e-05
2.18000607261e-05
2.17118538164e-05
2.18960538904e-05
2.16897305408e-05
2.76863136229e-05
0.000277036174649
0.00893958650028
2.18146733335e-05
2.18101186618e-05
2.18019182711e-05
2.17936854063e-05
2.17102347332e-05
2.18656984484e-05
2.15951517579e-05
2.72417993603e-05
0.000249826739977
0.006411594203
2.18122976304e-05
2.18075748287e-05
2.17990233898e-05
2.17871044687e-05
2.17062555132e-05
2.18030226962e-05
2.1627851304e-05
2.69090442097e-05
0.000215925273234
0.00357346789481
2.18105033769e-05
2.18055647637e-05
2.17961732108e-05
2.17834364443e-05
2.17090967221e-05
2.17504857457e-05
2.15690691098e-05
2.64583061555e-05
0.000181564242094
0.00238380875769
2.18087783631e-05
2.18041795538e-05
2.17961308529e-05
2.17860688546e-05
2.17267098756e-05
2.17590193918e-05
2.15307964497e-05
2.6378381907e-05
0.000172342537403
0.0050719270038
2.18071497561e-05
2.18028748328e-05
2.17959285797e-05
2.17885229135e-05
2.1741672937e-05
2.18109214335e-05
2.16360135319e-05
2.64787135223e-05
0.000183882402039
0.00729951036936
2.18050966859e-05
2.18007989748e-05
2.17938683041e-05
2.17864264958e-05
2.17444266198e-05
2.17853416752e-05
2.16178489565e-05
2.63162860032e-05
0.000192006209978
0.00856316977376
2.18026188657e-05
2.17982598651e-05
2.17905800225e-05
2.17811074824e-05
2.17399619705e-05
2.17395204804e-05
2.15625050205e-05
2.63152955203e-05
0.000198904912604
0.00922144168904
2.18002509855e-05
2.17961105051e-05
2.17884388274e-05
2.17761965221e-05
2.17354503708e-05
2.17041499668e-05
2.15479148263e-05
2.61288747153e-05
0.000177415981697
0.0121448014854
2.17986177248e-05
2.1794917118e-05
2.17874305414e-05
2.17730581533e-05
2.17349568735e-05
2.16821231624e-05
2.15284795105e-05
2.61184367851e-05
0.000162628326766
0.00543364855809
2.17976754607e-05
2.17945526878e-05
2.17872466559e-05
2.17731474422e-05
2.17408332023e-05
2.16793957361e-05
2.15170378618e-05
2.64270900615e-05
0.000178968530015
0.0129594681772
2.17971587737e-05
2.1793913598e-05
2.17868217087e-05
2.17734644281e-05
2.17453841212e-05
2.16870211069e-05
2.15781569958e-05
2.69660611905e-05
0.000196320098602
0.0116483951185
2.17964693933e-05
2.17922185418e-05
2.17847680775e-05
2.17691252597e-05
2.17389269836e-05
2.16695238499e-05
2.16057078464e-05
2.74076347963e-05
0.000222571891465
0.0123142935702
)
;
    }
    sides
    {
        type            calculated;
        value           nonuniform List<scalar> 
12
(
2.20132542422e-05
2.2011093518e-05
2.20087175256e-05
2.20055465704e-05
2.19991735189e-05
2.20082032558e-05
2.19323940033e-05
2.15284645945e-05
2.12307850789e-05
2.824125361e-05
0.000282341085123
0.012424109086
)
;
    }
    bottom
    {
        type            calculated;
        value           nonuniform List<scalar> 0();
    }
    front
    {
        type            calculated;
        value           nonuniform List<scalar> 
167
(
2.20132542422e-05
2.2011093518e-05
2.20087175256e-05
2.20055465704e-05
2.19991735189e-05
2.20082032558e-05
2.19323940033e-05
2.15284645945e-05
2.12307850789e-05
2.824125361e-05
0.000282341085123
0.012424109086
2.18564808159e-05
2.18535944126e-05
2.18502202935e-05
2.18462607805e-05
2.18388089405e-05
2.18361769387e-05
2.17444884781e-05
2.1996124358e-05
2.16385438039e-05
2.78025821904e-05
0.000301497374301
0.00895197377032
2.18293577988e-05
2.18264947467e-05
2.18227953368e-05
2.18185951022e-05
2.18115512919e-05
2.18083678907e-05
2.1715330751e-05
2.19217304705e-05
2.17482174241e-05
2.79128306411e-05
0.000288027626624
0.00918530970174
2.18208155858e-05
2.18173239001e-05
2.1812597577e-05
2.18052315565e-05
2.18000607261e-05
2.17118538164e-05
2.18960538904e-05
2.16897305408e-05
2.76863136229e-05
0.000277036174649
0.00893958650028
2.18146733335e-05
2.18101186618e-05
2.18019182711e-05
2.17936854063e-05
2.17102347332e-05
2.18656984484e-05
2.15951517579e-05
2.72417993603e-05
0.000249826739977
0.006411594203
2.18122976304e-05
2.18075748287e-05
2.17990233898e-05
2.17871044687e-05
2.17062555132e-05
2.18030226962e-05
2.1627851304e-05
2.69090442097e-05
0.000215925273234
0.00357346789481
2.18105033769e-05
2.18055647637e-05
2.17961732108e-05
2.17834364443e-05
2.17090967221e-05
2.17504857457e-05
2.15690691098e-05
2.64583061555e-05
0.000181564242094
0.00238380875769
2.18087783631e-05
2.18041795538e-05
2.17961308529e-05
2.17860688546e-05
2.17267098756e-05
2.17590193918e-05
2.15307964497e-05
2.6378381907e-05
0.000172342537403
0.0050719270038
2.18071497561e-05
2.18028748328e-05
2.17959285797e-05
2.17885229135e-05
2.1741672937e-05
2.18109214335e-05
2.16360135319e-05
2.64787135223e-05
0.000183882402039
0.00729951036936
2.18050966859e-05
2.18007989748e-05
2.17938683041e-05
2.17864264958e-05
2.17444266198e-05
2.17853416752e-05
2.16178489565e-05
2.63162860032e-05
0.000192006209978
0.00856316977376
2.18026188657e-05
2.17982598651e-05
2.17905800225e-05
2.17811074824e-05
2.17399619705e-05
2.17395204804e-05
2.15625050205e-05
2.63152955203e-05
0.000198904912604
0.00922144168904
2.18002509855e-05
2.17961105051e-05
2.17884388274e-05
2.17761965221e-05
2.17354503708e-05
2.17041499668e-05
2.15479148263e-05
2.61288747153e-05
0.000177415981697
0.0121448014854
2.17986177248e-05
2.1794917118e-05
2.17874305414e-05
2.17730581533e-05
2.17349568735e-05
2.16821231624e-05
2.15284795105e-05
2.61184367851e-05
0.000162628326766
0.00543364855809
2.17976754607e-05
2.17945526878e-05
2.17872466559e-05
2.17731474422e-05
2.17408332023e-05
2.16793957361e-05
2.15170378618e-05
2.64270900615e-05
0.000178968530015
0.0129594681772
2.17971587737e-05
2.1793913598e-05
2.17868217087e-05
2.17734644281e-05
2.17453841212e-05
2.16870211069e-05
2.15781569958e-05
2.69660611905e-05
0.000196320098602
0.0116483951185
2.17964693933e-05
2.17922185418e-05
2.17847680775e-05
2.17691252597e-05
2.17389269836e-05
2.16695238499e-05
2.16057078464e-05
2.74076347963e-05
0.000222571891465
0.0123142935702
)
;
    }
    atmosphere
    {
        type            calculated;
        value           nonuniform List<scalar> 
16
(
0.012424109086
0.00895197377032
0.00918530970174
0.00893958650028
0.006411594203
0.00357346789481
0.00238380875769
0.0050719270038
0.00729951036936
0.00856316977376
0.00922144168904
0.0121448014854
0.00543364855809
0.0129594681772
0.0116483951185
0.0123142935702
)
;
    }
    floatingObject
    {
        type            calculated;
        value           nonuniform List<scalar> 0();
    }
    procBoundary1to0
    {
        type            processor;
        value           nonuniform List<scalar> 10(2.17988517738e-05 2.17947236084e-05 2.17877119757e-05 2.17712094372e-05 2.17446636567e-05 2.16705010773e-05 2.15761489223e-05 2.78395722656e-05 0.000239664555562 0.0109116487642);
    }
    procBoundary1to2
    {
        type            processor;
        value           nonuniform List<scalar> 
18
(
2.20153768319e-05
2.18589302098e-05
2.18317020295e-05
2.18231038714e-05
2.18231038714e-05
2.18176656561e-05
2.18176656561e-05
2.18153468878e-05
2.18134266892e-05
2.18114752179e-05
2.1809383469e-05
2.18071511412e-05
2.18048573142e-05
2.18026355746e-05
2.1800809255e-05
2.17990595955e-05
2.17983648483e-05
2.17993466061e-05
)
;
    }
}


// ************************************************************************* //
