/*--------------------------------*- C++ -*----------------------------------*\
| =========                 |                                                 |
| \\      /  F ield         | OpenFOAM: The Open Source CFD Toolbox           |
|  \\    /   O peration     | Version:  v2012                                 |
|   \\  /    A nd           | Website:  www.openfoam.com                      |
|    \\/     M anipulation  |                                                 |
\*---------------------------------------------------------------------------*/
FoamFile
{
    version     2.0;
    format      ascii;
    class       volScalarField;
    location    "4.3";
    object      k_0;
}
// * * * * * * * * * * * * * * * * * * * * * * * * * * * * * * * * * * * * * //

dimensions      [0 2 -2 0 0 0 0];


internalField   nonuniform List<scalar> 
167
(
0.00182648182244
0.00183812048612
0.0018537754955
0.00187960332741
0.00192903349364
0.00203404276895
0.00229479098325
0.00305010139158
0.00504603658798
0.00908784012526
0.0165172866442
0.0319247681766
0.00227777229111
0.0022907767177
0.00230980439802
0.00234349781369
0.00241109768788
0.00256019244856
0.00293325873556
0.00393955127292
0.00634411770688
0.0112037049086
0.0231749600662
0.0677183861844
0.00242633231655
0.00243996924395
0.00246046009349
0.00249734128793
0.00257175689997
0.00273600050709
0.0031407909552
0.00419784681948
0.00666968656118
0.0116981212015
0.024298535432
0.0723692399772
0.00249810960655
0.0025190393123
0.00255681585253
0.00263298816698
0.00280105140409
0.00321402344318
0.00427799428744
0.0067311565308
0.0116597019771
0.0236817811963
0.0779605336377
0.00254303476973
0.0025804340545
0.00265565202637
0.00282216283418
0.00323441382371
0.00429590268014
0.00671882062178
0.0114344785429
0.0211443358694
0.0672801682034
0.0025542725233
0.00259067267616
0.00266380284159
0.00282656817406
0.00323485176963
0.00429575783275
0.00671495868587
0.0114851625385
0.0210892443121
0.0518168863472
0.00256103452218
0.00259625370731
0.00266709284212
0.00282564516398
0.00322742544358
0.00428040166083
0.00669657422207
0.0116382731532
0.0231110015179
0.0515668679867
0.00256643227972
0.00260045766978
0.00266910800766
0.00282357589126
0.00321723282537
0.0042542680781
0.00664934795253
0.0115972051346
0.0233120782558
0.0524671784768
0.00257157450203
0.00260442647247
0.00267090349648
0.00282098583856
0.00320446368925
0.00421853760938
0.0065773126714
0.0114342952854
0.0221094039965
0.0490378398101
0.00257683190001
0.00260853729078
0.00267288870439
0.00281841165884
0.00319026808708
0.00417673512823
0.00649370874091
0.0112410506317
0.0210305382857
0.0552986777036
0.00258228877525
0.00261292745331
0.00267544007532
0.00281733595976
0.00318011174307
0.00414439621291
0.00643468784282
0.0112421589742
0.0221547678056
0.069560859921
0.00258791886353
0.00261755532831
0.00267851662982
0.00281807915182
0.00317598822969
0.00412824640475
0.00640723331675
0.0113006973604
0.0230459517695
0.071673430644
0.00259366278199
0.00262224824922
0.00268137477264
0.00281760913385
0.00316806196996
0.0041053134136
0.00636623692124
0.0111278124649
0.0207156805326
0.0537273819922
0.00259947721565
0.00262695215169
0.00268380847526
0.00281487136976
0.00315311290785
0.0040660901229
0.00629227339391
0.0109457780644
0.0195682101719
0.0325082383281
0.00260532414032
0.0026317179844
0.00268617163334
0.00281146696206
0.00313577400605
0.00402107711482
0.00620173786691
0.0107917472407
0.019712598461
0.0356747148118
0.00261112343864
0.00263662015987
0.00268919786666
0.00281053347489
0.00312584604161
0.00399089102904
0.00611880999146
0.0105651427178
0.0195948813649
0.0437989509024
)
;

boundaryField
{
    back
    {
        type            kqRWallFunction;
        value           nonuniform List<scalar> 
167
(
0.00182648182244
0.00183812048612
0.0018537754955
0.00187960332741
0.00192903349364
0.00203404276895
0.00229479098325
0.00305010139158
0.00504603658798
0.00908784012526
0.0165172866442
0.0319247681766
0.00227777229111
0.0022907767177
0.00230980439802
0.00234349781369
0.00241109768788
0.00256019244856
0.00293325873556
0.00393955127292
0.00634411770688
0.0112037049086
0.0231749600662
0.0677183861844
0.00242633231655
0.00243996924395
0.00246046009349
0.00249734128793
0.00257175689997
0.00273600050709
0.0031407909552
0.00419784681948
0.00666968656118
0.0116981212015
0.024298535432
0.0723692399772
0.00249810960655
0.0025190393123
0.00255681585253
0.00263298816698
0.00280105140409
0.00321402344318
0.00427799428744
0.0067311565308
0.0116597019771
0.0236817811963
0.0779605336377
0.00254303476973
0.0025804340545
0.00265565202637
0.00282216283418
0.00323441382371
0.00429590268014
0.00671882062178
0.0114344785429
0.0211443358694
0.0672801682034
0.0025542725233
0.00259067267616
0.00266380284159
0.00282656817406
0.00323485176963
0.00429575783275
0.00671495868587
0.0114851625385
0.0210892443121
0.0518168863472
0.00256103452218
0.00259625370731
0.00266709284212
0.00282564516398
0.00322742544358
0.00428040166083
0.00669657422207
0.0116382731532
0.0231110015179
0.0515668679867
0.00256643227972
0.00260045766978
0.00266910800766
0.00282357589126
0.00321723282537
0.0042542680781
0.00664934795253
0.0115972051346
0.0233120782558
0.0524671784768
0.00257157450203
0.00260442647247
0.00267090349648
0.00282098583856
0.00320446368925
0.00421853760938
0.0065773126714
0.0114342952854
0.0221094039965
0.0490378398101
0.00257683190001
0.00260853729078
0.00267288870439
0.00281841165884
0.00319026808708
0.00417673512823
0.00649370874091
0.0112410506317
0.0210305382857
0.0552986777036
0.00258228877525
0.00261292745331
0.00267544007532
0.00281733595976
0.00318011174307
0.00414439621291
0.00643468784282
0.0112421589742
0.0221547678056
0.069560859921
0.00258791886353
0.00261755532831
0.00267851662982
0.00281807915182
0.00317598822969
0.00412824640475
0.00640723331675
0.0113006973604
0.0230459517695
0.071673430644
0.00259366278199
0.00262224824922
0.00268137477264
0.00281760913385
0.00316806196996
0.0041053134136
0.00636623692124
0.0111278124649
0.0207156805326
0.0537273819922
0.00259947721565
0.00262695215169
0.00268380847526
0.00281487136976
0.00315311290785
0.0040660901229
0.00629227339391
0.0109457780644
0.0195682101719
0.0325082383281
0.00260532414032
0.0026317179844
0.00268617163334
0.00281146696206
0.00313577400605
0.00402107711482
0.00620173786691
0.0107917472407
0.019712598461
0.0356747148118
0.00261112343864
0.00263662015987
0.00268919786666
0.00281053347489
0.00312584604161
0.00399089102904
0.00611880999146
0.0105651427178
0.0195948813649
0.0437989509024
)
;
    }
    sides
    {
        type            kqRWallFunction;
        value           nonuniform List<scalar> 
12
(
0.00182648182244
0.00183812048612
0.0018537754955
0.00187960332741
0.00192903349364
0.00203404276895
0.00229479098325
0.00305010139158
0.00504603658798
0.00908784012526
0.0165172866442
0.0319247681766
)
;
    }
    bottom
    {
        type            kqRWallFunction;
        value           nonuniform List<scalar> 0();
    }
    front
    {
        type            kqRWallFunction;
        value           nonuniform List<scalar> 
167
(
0.00182648182244
0.00183812048612
0.0018537754955
0.00187960332741
0.00192903349364
0.00203404276895
0.00229479098325
0.00305010139158
0.00504603658798
0.00908784012526
0.0165172866442
0.0319247681766
0.00227777229111
0.0022907767177
0.00230980439802
0.00234349781369
0.00241109768788
0.00256019244856
0.00293325873556
0.00393955127292
0.00634411770688
0.0112037049086
0.0231749600662
0.0677183861844
0.00242633231655
0.00243996924395
0.00246046009349
0.00249734128793
0.00257175689997
0.00273600050709
0.0031407909552
0.00419784681948
0.00666968656118
0.0116981212015
0.024298535432
0.0723692399772
0.00249810960655
0.0025190393123
0.00255681585253
0.00263298816698
0.00280105140409
0.00321402344318
0.00427799428744
0.0067311565308
0.0116597019771
0.0236817811963
0.0779605336377
0.00254303476973
0.0025804340545
0.00265565202637
0.00282216283418
0.00323441382371
0.00429590268014
0.00671882062178
0.0114344785429
0.0211443358694
0.0672801682034
0.0025542725233
0.00259067267616
0.00266380284159
0.00282656817406
0.00323485176963
0.00429575783275
0.00671495868587
0.0114851625385
0.0210892443121
0.0518168863472
0.00256103452218
0.00259625370731
0.00266709284212
0.00282564516398
0.00322742544358
0.00428040166083
0.00669657422207
0.0116382731532
0.0231110015179
0.0515668679867
0.00256643227972
0.00260045766978
0.00266910800766
0.00282357589126
0.00321723282537
0.0042542680781
0.00664934795253
0.0115972051346
0.0233120782558
0.0524671784768
0.00257157450203
0.00260442647247
0.00267090349648
0.00282098583856
0.00320446368925
0.00421853760938
0.0065773126714
0.0114342952854
0.0221094039965
0.0490378398101
0.00257683190001
0.00260853729078
0.00267288870439
0.00281841165884
0.00319026808708
0.00417673512823
0.00649370874091
0.0112410506317
0.0210305382857
0.0552986777036
0.00258228877525
0.00261292745331
0.00267544007532
0.00281733595976
0.00318011174307
0.00414439621291
0.00643468784282
0.0112421589742
0.0221547678056
0.069560859921
0.00258791886353
0.00261755532831
0.00267851662982
0.00281807915182
0.00317598822969
0.00412824640475
0.00640723331675
0.0113006973604
0.0230459517695
0.071673430644
0.00259366278199
0.00262224824922
0.00268137477264
0.00281760913385
0.00316806196996
0.0041053134136
0.00636623692124
0.0111278124649
0.0207156805326
0.0537273819922
0.00259947721565
0.00262695215169
0.00268380847526
0.00281487136976
0.00315311290785
0.0040660901229
0.00629227339391
0.0109457780644
0.0195682101719
0.0325082383281
0.00260532414032
0.0026317179844
0.00268617163334
0.00281146696206
0.00313577400605
0.00402107711482
0.00620173786691
0.0107917472407
0.019712598461
0.0356747148118
0.00261112343864
0.00263662015987
0.00268919786666
0.00281053347489
0.00312584604161
0.00399089102904
0.00611880999146
0.0105651427178
0.0195948813649
0.0437989509024
)
;
    }
    atmosphere
    {
        type            inletOutlet;
        inletValue      uniform 0.1;
        value           nonuniform List<scalar> 
16
(
0.0319247681766
0.1
0.1
0.1
0.1
0.0518168863472
0.0515668679867
0.0524671784768
0.0490378398101
0.1
0.1
0.1
0.1
0.0325082383281
0.0356747148118
0.1
)
;
    }
    floatingObject
    {
        type            kqRWallFunction;
        value           nonuniform List<scalar> 0();
    }
    procBoundary1to0
    {
        type            processor;
        value           nonuniform List<scalar> 10(0.00261683435304 0.00264159863548 0.00269277942979 0.00281176046728 0.003122745865 0.00397643328198 0.00606007327083 0.0103234034633 0.0190860644557 0.0400508988579);
    }
    procBoundary1to2
    {
        type            processor;
        value           nonuniform List<scalar> 
18
(
0.00181637028898
0.002267049137
0.00241535114147
0.00248433241867
0.00248433241867
0.00252232165052
0.00252232165052
0.0025341171981
0.00254154207282
0.00254763453265
0.00255347654389
0.0025593961344
0.00256547277649
0.00257167519959
0.0025779718675
0.00258429423509
0.00259059169279
0.00259680185464
)
;
    }
}


// ************************************************************************* //
