/*--------------------------------*- C++ -*----------------------------------*\
| =========                 |                                                 |
| \\      /  F ield         | OpenFOAM: The Open Source CFD Toolbox           |
|  \\    /   O peration     | Version:  v2012                                 |
|   \\  /    A nd           | Website:  www.openfoam.com                      |
|    \\/     M anipulation  |                                                 |
\*---------------------------------------------------------------------------*/
FoamFile
{
    version     2.0;
    format      ascii;
    class       volScalarField;
    location    "1.8";
    object      rAU;
}
// * * * * * * * * * * * * * * * * * * * * * * * * * * * * * * * * * * * * * //

dimensions      [-1 3 1 0 0 0 0];


internalField   nonuniform List<scalar> 
167
(
9.68165034779e-06
9.65274195115e-06
9.64855358535e-06
9.64648772104e-06
9.64693070757e-06
9.64618958022e-06
9.64577077752e-06
9.64527871179e-06
9.648889097e-06
9.59595400666e-06
9.58959041136e-06
9.58753249408e-06
9.58760066197e-06
9.58662595372e-06
9.58599035759e-06
9.58534661587e-06
9.64590211038e-06
9.58726077447e-06
9.57994655753e-06
9.5778396747e-06
9.57793807261e-06
9.57700149699e-06
9.57645085725e-06
9.57583823544e-06
9.64440707821e-06
9.58510099033e-06
9.57740508028e-06
9.57520816169e-06
9.57542709594e-06
9.57454964963e-06
9.57404024826e-06
9.57348031544e-06
9.57285560212e-06
9.64406642533e-06
9.58451093623e-06
9.57668041426e-06
9.57441614961e-06
9.57464978513e-06
9.57377317946e-06
9.57328566697e-06
9.57277241592e-06
9.57217814743e-06
9.57153854665e-06
9.64353984228e-06
9.58391141951e-06
9.57598966587e-06
9.57367505964e-06
9.57395283771e-06
9.57312068222e-06
9.57269597785e-06
9.57217717255e-06
9.57163754625e-06
9.5710453305e-06
9.64309471469e-06
9.58349856825e-06
9.57535693753e-06
9.57310411254e-06
9.57337327343e-06
9.57261936589e-06
9.57223296015e-06
9.5717270614e-06
9.57123416252e-06
9.57071384274e-06
9.64260806795e-06
9.58298343131e-06
9.57467013185e-06
9.57244202449e-06
9.57273464743e-06
9.57204001322e-06
9.57166967097e-06
9.57130009449e-06
9.57088673126e-06
9.57038903601e-06
9.6420346289e-06
9.58230272654e-06
9.57392644093e-06
9.57165180191e-06
9.57204663817e-06
9.5713745664e-06
9.57118319402e-06
9.57095615659e-06
9.57054196346e-06
9.57008620468e-06
9.64136153108e-06
9.58157409913e-06
9.57302259974e-06
9.57080177968e-06
9.57134858272e-06
9.57085111727e-06
9.57078883713e-06
9.57061372615e-06
9.57022300145e-06
9.56985265537e-06
9.64058483885e-06
9.58076791584e-06
9.57210486013e-06
9.56993013788e-06
9.57064614381e-06
9.57035105456e-06
9.57038645023e-06
9.57017388938e-06
9.56989275762e-06
9.56969090726e-06
9.63946016984e-06
9.57997356487e-06
9.57083696571e-06
9.56889377636e-06
9.56995146899e-06
9.56985763428e-06
9.56994067331e-06
9.56983378403e-06
9.56978834235e-06
9.56966911284e-06
9.63754513572e-06
9.5781160952e-06
9.5690412044e-06
9.56797511253e-06
9.56934958927e-06
9.56954365011e-06
9.56973339756e-06
9.56988893361e-06
9.56995509065e-06
9.56966474361e-06
9.6348439631e-06
9.57556551977e-06
9.56803077697e-06
9.5674667458e-06
9.5691794854e-06
9.56956392706e-06
9.56987780659e-06
9.57007686925e-06
9.56997834366e-06
9.56973939651e-06
9.63084940856e-06
9.57456966507e-06
9.56768123608e-06
9.56761382722e-06
9.56947391881e-06
9.57001411968e-06
9.57020932856e-06
9.57021164586e-06
9.57018276e-06
9.57011809514e-06
9.62494187173e-06
9.5734455066e-06
9.56957143591e-06
9.56988442958e-06
9.57030222046e-06
9.57074070812e-06
9.5708396755e-06
9.5706970516e-06
9.57060981676e-06
9.57042074277e-06
9.60058677977e-06
9.5791210793e-06
9.57341042392e-06
9.57183241038e-06
9.57173391567e-06
9.57161961676e-06
9.5715558045e-06
9.62455495132e-06
9.58903932416e-06
9.57714955231e-06
9.57414759933e-06
9.57351413659e-06
9.5782404214e-06
9.57567208421e-06
)
;

boundaryField
{
    back
    {
        type            calculated;
        value           nonuniform List<scalar> 
167
(
9.68165034779e-06
9.65274195115e-06
9.64855358535e-06
9.64648772104e-06
9.64693070757e-06
9.64618958022e-06
9.64577077752e-06
9.64527871179e-06
9.648889097e-06
9.59595400666e-06
9.58959041136e-06
9.58753249408e-06
9.58760066197e-06
9.58662595372e-06
9.58599035759e-06
9.58534661587e-06
9.64590211038e-06
9.58726077447e-06
9.57994655753e-06
9.5778396747e-06
9.57793807261e-06
9.57700149699e-06
9.57645085725e-06
9.57583823544e-06
9.64440707821e-06
9.58510099033e-06
9.57740508028e-06
9.57520816169e-06
9.57542709594e-06
9.57454964963e-06
9.57404024826e-06
9.57348031544e-06
9.57285560212e-06
9.64406642533e-06
9.58451093623e-06
9.57668041426e-06
9.57441614961e-06
9.57464978513e-06
9.57377317946e-06
9.57328566697e-06
9.57277241592e-06
9.57217814743e-06
9.57153854665e-06
9.64353984228e-06
9.58391141951e-06
9.57598966587e-06
9.57367505964e-06
9.57395283771e-06
9.57312068222e-06
9.57269597785e-06
9.57217717255e-06
9.57163754625e-06
9.5710453305e-06
9.64309471469e-06
9.58349856825e-06
9.57535693753e-06
9.57310411254e-06
9.57337327343e-06
9.57261936589e-06
9.57223296015e-06
9.5717270614e-06
9.57123416252e-06
9.57071384274e-06
9.64260806795e-06
9.58298343131e-06
9.57467013185e-06
9.57244202449e-06
9.57273464743e-06
9.57204001322e-06
9.57166967097e-06
9.57130009449e-06
9.57088673126e-06
9.57038903601e-06
9.6420346289e-06
9.58230272654e-06
9.57392644093e-06
9.57165180191e-06
9.57204663817e-06
9.5713745664e-06
9.57118319402e-06
9.57095615659e-06
9.57054196346e-06
9.57008620468e-06
9.64136153108e-06
9.58157409913e-06
9.57302259974e-06
9.57080177968e-06
9.57134858272e-06
9.57085111727e-06
9.57078883713e-06
9.57061372615e-06
9.57022300145e-06
9.56985265537e-06
9.64058483885e-06
9.58076791584e-06
9.57210486013e-06
9.56993013788e-06
9.57064614381e-06
9.57035105456e-06
9.57038645023e-06
9.57017388938e-06
9.56989275762e-06
9.56969090726e-06
9.63946016984e-06
9.57997356487e-06
9.57083696571e-06
9.56889377636e-06
9.56995146899e-06
9.56985763428e-06
9.56994067331e-06
9.56983378403e-06
9.56978834235e-06
9.56966911284e-06
9.63754513572e-06
9.5781160952e-06
9.5690412044e-06
9.56797511253e-06
9.56934958927e-06
9.56954365011e-06
9.56973339756e-06
9.56988893361e-06
9.56995509065e-06
9.56966474361e-06
9.6348439631e-06
9.57556551977e-06
9.56803077697e-06
9.5674667458e-06
9.5691794854e-06
9.56956392706e-06
9.56987780659e-06
9.57007686925e-06
9.56997834366e-06
9.56973939651e-06
9.63084940856e-06
9.57456966507e-06
9.56768123608e-06
9.56761382722e-06
9.56947391881e-06
9.57001411968e-06
9.57020932856e-06
9.57021164586e-06
9.57018276e-06
9.57011809514e-06
9.62494187173e-06
9.5734455066e-06
9.56957143591e-06
9.56988442958e-06
9.57030222046e-06
9.57074070812e-06
9.5708396755e-06
9.5706970516e-06
9.57060981676e-06
9.57042074277e-06
9.60058677977e-06
9.5791210793e-06
9.57341042392e-06
9.57183241038e-06
9.57173391567e-06
9.57161961676e-06
9.5715558045e-06
9.62455495132e-06
9.58903932416e-06
9.57714955231e-06
9.57414759933e-06
9.57351413659e-06
9.5782404214e-06
9.57567208421e-06
)
;
    }
    sides
    {
        type            calculated;
        value           nonuniform List<scalar> 8(9.68165034779e-06 9.65274195115e-06 9.64855358535e-06 9.64648772104e-06 9.64693070757e-06 9.64618958022e-06 9.64577077752e-06 9.64527871179e-06);
    }
    bottom
    {
        type            calculated;
        value           nonuniform List<scalar> 
18
(
9.68165034779e-06
9.648889097e-06
9.64590211038e-06
9.64440707821e-06
9.64406642533e-06
9.64353984228e-06
9.64309471469e-06
9.64260806795e-06
9.6420346289e-06
9.64136153108e-06
9.64058483885e-06
9.63946016984e-06
9.63754513572e-06
9.6348439631e-06
9.63084940856e-06
9.62494187173e-06
9.60058677977e-06
9.62455495132e-06
)
;
    }
    front
    {
        type            calculated;
        value           nonuniform List<scalar> 
167
(
9.68165034779e-06
9.65274195115e-06
9.64855358535e-06
9.64648772104e-06
9.64693070757e-06
9.64618958022e-06
9.64577077752e-06
9.64527871179e-06
9.648889097e-06
9.59595400666e-06
9.58959041136e-06
9.58753249408e-06
9.58760066197e-06
9.58662595372e-06
9.58599035759e-06
9.58534661587e-06
9.64590211038e-06
9.58726077447e-06
9.57994655753e-06
9.5778396747e-06
9.57793807261e-06
9.57700149699e-06
9.57645085725e-06
9.57583823544e-06
9.64440707821e-06
9.58510099033e-06
9.57740508028e-06
9.57520816169e-06
9.57542709594e-06
9.57454964963e-06
9.57404024826e-06
9.57348031544e-06
9.57285560212e-06
9.64406642533e-06
9.58451093623e-06
9.57668041426e-06
9.57441614961e-06
9.57464978513e-06
9.57377317946e-06
9.57328566697e-06
9.57277241592e-06
9.57217814743e-06
9.57153854665e-06
9.64353984228e-06
9.58391141951e-06
9.57598966587e-06
9.57367505964e-06
9.57395283771e-06
9.57312068222e-06
9.57269597785e-06
9.57217717255e-06
9.57163754625e-06
9.5710453305e-06
9.64309471469e-06
9.58349856825e-06
9.57535693753e-06
9.57310411254e-06
9.57337327343e-06
9.57261936589e-06
9.57223296015e-06
9.5717270614e-06
9.57123416252e-06
9.57071384274e-06
9.64260806795e-06
9.58298343131e-06
9.57467013185e-06
9.57244202449e-06
9.57273464743e-06
9.57204001322e-06
9.57166967097e-06
9.57130009449e-06
9.57088673126e-06
9.57038903601e-06
9.6420346289e-06
9.58230272654e-06
9.57392644093e-06
9.57165180191e-06
9.57204663817e-06
9.5713745664e-06
9.57118319402e-06
9.57095615659e-06
9.57054196346e-06
9.57008620468e-06
9.64136153108e-06
9.58157409913e-06
9.57302259974e-06
9.57080177968e-06
9.57134858272e-06
9.57085111727e-06
9.57078883713e-06
9.57061372615e-06
9.57022300145e-06
9.56985265537e-06
9.64058483885e-06
9.58076791584e-06
9.57210486013e-06
9.56993013788e-06
9.57064614381e-06
9.57035105456e-06
9.57038645023e-06
9.57017388938e-06
9.56989275762e-06
9.56969090726e-06
9.63946016984e-06
9.57997356487e-06
9.57083696571e-06
9.56889377636e-06
9.56995146899e-06
9.56985763428e-06
9.56994067331e-06
9.56983378403e-06
9.56978834235e-06
9.56966911284e-06
9.63754513572e-06
9.5781160952e-06
9.5690412044e-06
9.56797511253e-06
9.56934958927e-06
9.56954365011e-06
9.56973339756e-06
9.56988893361e-06
9.56995509065e-06
9.56966474361e-06
9.6348439631e-06
9.57556551977e-06
9.56803077697e-06
9.5674667458e-06
9.5691794854e-06
9.56956392706e-06
9.56987780659e-06
9.57007686925e-06
9.56997834366e-06
9.56973939651e-06
9.63084940856e-06
9.57456966507e-06
9.56768123608e-06
9.56761382722e-06
9.56947391881e-06
9.57001411968e-06
9.57020932856e-06
9.57021164586e-06
9.57018276e-06
9.57011809514e-06
9.62494187173e-06
9.5734455066e-06
9.56957143591e-06
9.56988442958e-06
9.57030222046e-06
9.57074070812e-06
9.5708396755e-06
9.5706970516e-06
9.57060981676e-06
9.57042074277e-06
9.60058677977e-06
9.5791210793e-06
9.57341042392e-06
9.57183241038e-06
9.57173391567e-06
9.57161961676e-06
9.5715558045e-06
9.62455495132e-06
9.58903932416e-06
9.57714955231e-06
9.57414759933e-06
9.57351413659e-06
9.5782404214e-06
9.57567208421e-06
)
;
    }
    atmosphere
    {
        type            calculated;
        value           nonuniform List<scalar> 0();
    }
    floatingObject
    {
        type            calculated;
        value           nonuniform List<scalar> 0();
    }
    procBoundary2to0
    {
        type            processor;
        value           nonuniform List<scalar> 
14
(
9.57136040631e-06
9.57105056496e-06
9.57079440418e-06
9.57264355082e-06
9.57136040631e-06
9.5721461467e-06
9.66237770171e-06
9.59069177599e-06
9.57264355082e-06
9.57440384474e-06
9.59069177599e-06
9.57827608467e-06
9.57440384474e-06
9.575722793e-06
)
;
    }
    procBoundary2to1
    {
        type            processor;
        value           nonuniform List<scalar> 
18
(
9.64471505926e-06
9.58465284609e-06
9.57515898725e-06
9.57515898725e-06
9.57218327969e-06
9.57218327969e-06
9.57078237768e-06
9.57033206462e-06
9.57005497769e-06
9.56980121786e-06
9.56959841592e-06
9.56941710667e-06
9.56935544404e-06
9.56936165708e-06
9.56935864672e-06
9.56960396649e-06
9.56985286633e-06
9.57001058804e-06
)
;
    }
}


// ************************************************************************* //
