/*--------------------------------*- C++ -*----------------------------------*\
| =========                 |                                                 |
| \\      /  F ield         | OpenFOAM: The Open Source CFD Toolbox           |
|  \\    /   O peration     | Version:  v2012                                 |
|   \\  /    A nd           | Website:  www.openfoam.com                      |
|    \\/     M anipulation  |                                                 |
\*---------------------------------------------------------------------------*/
FoamFile
{
    version     2.0;
    format      ascii;
    class       surfaceVectorField;
    location    "5.1";
    object      ddtCorrDdt0(Uf);
}
// * * * * * * * * * * * * * * * * * * * * * * * * * * * * * * * * * * * * * //

dimensions      [0 1 -2 0 0 0 0];


internalField   nonuniform List<vector> 
304
(
(-0.055291094575 -0.00720660522206 7.06323972642e-24)
(-0.0540834434353 -0.0065627521317 8.61556952638e-24)
(-0.0558422589729 -0.00895498516844 1.41433637129e-23)
(-0.0545971466485 -0.00838067775692 2.55088711361e-23)
(-0.0564783387879 -0.0106598006846 3.11128122134e-24)
(-0.0552238091198 -0.0101558827336 1.44856919299e-23)
(-0.0571616793328 -0.0123066521839 -1.52385291228e-23)
(-0.0559276542943 -0.0118680227765 -4.06647562096e-24)
(-0.0578500366223 -0.0138918598846 -4.25278657017e-24)
(-0.0566711073602 -0.0134981510302 -4.62950516281e-23)
(-0.0584909948698 -0.015375192421 3.32687991619e-24)
(-0.0574168990039 -0.0150349801065 1.26482755294e-23)
(-0.0589923339453 -0.0167871575882 -4.99949798323e-23)
(-0.0580668220359 -0.0164461852163 -2.14977874136e-23)
(-0.0585634620768 -0.0177128303392 -1.07705758186e-22)
(-0.0527457312849 -0.00391001168806 7.84500359775e-23)
(-0.0516423171561 -0.00302499096454 5.5141210411e-23)
(-0.0529910500101 -0.00583801682791 6.4788605127e-23)
(-0.0517804761345 -0.00505351780494 1.08963307899e-22)
(-0.0534440751249 -0.00773564033558 2.7061200936e-23)
(-0.0521664794002 -0.00704983365455 3.87130030538e-23)
(-0.054044670062 -0.00958409818782 2.5851199353e-23)
(-0.0527280855689 -0.00898891535495 2.98830924232e-23)
(-0.0547502188733 -0.0113638137977 7.30793508758e-24)
(-0.0534238545934 -0.0108632337214 1.62226845477e-23)
(-0.055527034987 -0.0130546116473 -3.51229981263e-23)
(-0.0542186670227 -0.0126471240674 -4.20896618889e-24)
(-0.0563359947671 -0.0146279925754 -2.93939895285e-23)
(-0.0550859055998 -0.0143124647347 -2.18365618171e-23)
(-0.0571227330206 -0.0160596158615 -1.21763918004e-23)
(-0.0559868297252 -0.0158306810186 3.24450356773e-24)
(-0.0578131027728 -0.017308047531 -7.92085657675e-23)
(-0.056850872448 -0.017149342071 -2.37411571457e-23)
(-0.0582973136594 -0.0183433194844 -1.02437010496e-22)
(-0.0576167590996 -0.0182206434437 -1.09246978527e-22)
(-0.0581430321722 -0.0189870945285 -8.25991085904e-23)
(-0.0507057195504 -0.00420939205498 8.56544823322e-23)
(-0.0495176293295 -0.00325212926195 8.09180525965e-23)
(-0.0509900096291 -0.00628495172886 8.28877058255e-23)
(-0.0496896035747 -0.00543960487261 9.58353835254e-23)
(-0.0514917260602 -0.00831648513746 4.15348945409e-23)
(-0.050118571534 -0.00758682078603 3.97171156787e-23)
(-0.0521588885959 -0.0102841236927 2.02545776178e-23)
(-0.0507429332586 -0.00966562661519 2.21827766131e-23)
(-0.0529571142241 -0.0121665903233 4.7057832712e-24)
(-0.0515238226748 -0.0116646936869 1.87634537533e-23)
(-0.0538614968639 -0.0139317736084 9.07747012026e-24)
(-0.0524378915594 -0.0135558154517 2.72962979059e-24)
(-0.0548420633342 -0.0155356984096 1.08019312791e-23)
(-0.0534712483855 -0.0152991789196 6.03011262608e-24)
(-0.0558501313628 -0.0169348844018 -8.32026177759e-24)
(-0.0545860776657 -0.0168418113924 3.53760692568e-23)
(-0.0568255038941 -0.0180717057538 -5.37795699052e-23)
(-0.055747636724 -0.0181239909328 -1.28450231812e-23)
(-0.0576699714338 -0.0188574357515 -8.94090766209e-23)
(-0.0568785993886 -0.0190678220686 -3.89818264967e-23)
(-0.0485195330892 -0.00453130111317 9.10989537897e-23)
(-0.0472368227993 -0.00349978873586 6.47601102746e-23)
(-0.0488428362146 -0.00677082836413 5.26647933787e-23)
(-0.0474372223573 -0.00586147342339 5.5276089576e-23)
(-0.049401830802 -0.00895989366014 2.03649977509e-23)
(-0.0479156364683 -0.00818033547913 1.63743913979e-23)
(-0.0501491930532 -0.011075667939 2.06916527486e-23)
(-0.048612233124 -0.0104230547996 9.8651766578e-24)
(-0.0510597250218 -0.013092516775 1.67873002727e-23)
(-0.0494922878224 -0.012579148417 2.16992551956e-23)
(-0.0521189939264 -0.0149690230643 -3.17727703597e-25)
(-0.0505484297831 -0.0146188324231 5.59157717596e-24)
(-0.0533084771737 -0.0166617537655 3.06042506038e-23)
(-0.0517695805765 -0.0164906045801 2.09408184161e-23)
(-0.0546047526948 -0.018102769661 3.08513078532e-23)
(-0.0531457588145 -0.0181364545511 2.39290402432e-23)
(-0.0559600678458 -0.0191935349072 1.95272022724e-24)
(-0.0546730764966 -0.0194756023716 1.4202742643e-23)
(-0.0562637232164 -0.0203893147722 -1.26492706552e-23)
(-0.0456692205467 -0.00243726731244 3.60831137982e-23)
(-0.0440347288953 -0.00147087871804 1.85811348682e-23)
(-0.0461644713123 -0.00489522036031 2.89372460608e-23)
(-0.0447692861514 -0.00377179851662 -2.33616959935e-23)
(-0.0465296939829 -0.00731039979206 1.89856875952e-23)
(-0.0450116778154 -0.00632301249509 5.18918694273e-24)
(-0.0471487077556 -0.00967392000723 5.87457030478e-24)
(-0.0455407841951 -0.00883420518745 1.78625825034e-24)
(-0.0479828211918 -0.0119682614869 1.08727791048e-23)
(-0.0463060556468 -0.011267885028 1.65283625453e-23)
(-0.049017602762 -0.0141600729551 1.05035320989e-23)
(-0.047289036017 -0.0136178781939 8.75899990867e-24)
(-0.0502487891493 -0.0162068189577 2.68501232956e-23)
(-0.0484920600924 -0.0158512238578 4.99492499348e-24)
(-0.0516768476932 -0.018049015609 1.42656080555e-23)
(-0.0499210524129 -0.0179146544559 2.92008572197e-23)
(-0.0532994625041 -0.0196070153072 7.28047503308e-24)
(-0.0515890955842 -0.0197493104862 5.39199835736e-23)
(-0.0550907257361 -0.0208001436878 -3.99248239432e-25)
(-0.0534926382315 -0.0212547199911 1.23243319398e-23)
(-0.0556163725755 -0.0223127051463 -6.31285062173e-23)
(-0.0431139828926 -0.00263178806006 -4.08636749235e-23)
(-0.0413961350756 -0.00160028379092 -2.14836473961e-23)
(-0.0436201402438 -0.00528529140782 -4.71097551117e-23)
(-0.0421085842339 -0.0040644639652 -2.5888351814e-23)
(-0.0440295627251 -0.00789772252595 -1.20102424022e-23)
(-0.0423913488569 -0.00682324344734 2.13380094386e-23)
(-0.0447069043598 -0.0104637525747 1.24400504909e-23)
(-0.0429663278993 -0.00954556555478 7.03374884875e-24)
(-0.0456258042562 -0.0129665568117 1.44145833492e-23)
(-0.0437947069827 -0.0121976869133 2.10512300349e-23)
(-0.046782304451 -0.0153726935075 3.25039280326e-24)
(-0.0448751580436 -0.0147773109096 1.33549516364e-23)
(-0.0481874634286 -0.0176427931811 7.34565891751e-24)
(-0.0462160919349 -0.0172534870232 1.07350436674e-23)
(-0.0498595838116 -0.0197200366716 6.88552327377e-23)
(-0.047840701857 -0.0195756777075 -3.47184658594e-23)
(-0.0518196144529 -0.0215288824117 5.89638404803e-23)
(-0.0497828455692 -0.021691238587 1.08045150576e-22)
(-0.0540800525321 -0.0229421670565 -5.0404926038e-23)
(-0.0520864979899 -0.0234954652162 -5.94018202285e-24)
(-0.0403601534499 -0.00283835244947 -6.50832428663e-24)
(-0.0385530238747 -0.00173337848332 1.36336947535e-23)
(-0.040873536377 -0.00569715505607 4.25594127362e-23)
(-0.0392447857514 -0.00437329396254 3.31829607238e-23)
(-0.0413216705847 -0.00852539815304 4.03820006895e-23)
(-0.0395577554476 -0.00735509690695 3.61321314488e-23)
(-0.0420482493614 -0.0113201179697 1.56449283928e-23)
(-0.0401660758518 -0.0103050051333 2.17864462536e-23)
(-0.0430411548735 -0.014062047575 1.99915983221e-23)
(-0.0410475641743 -0.0132010444242 1.50547258987e-23)
(-0.044306471927 -0.016727174177 2.08396025005e-23)
(-0.0422059022404 -0.0160431627381 1.8506649821e-23)
(-0.0458670128947 -0.0192769217561 -3.13290811095e-23)
(-0.0436641425932 -0.0188078912275 1.35438367738e-23)
(-0.0477607608046 -0.0216607509815 4.47145197919e-24)
(-0.0454557491981 -0.021454724281 -3.82016323464e-23)
(-0.0500376178664 -0.02380401149 4.31411280732e-23)
(-0.0476448376084 -0.0239422411863 4.25527550933e-23)
(-0.0374004332757 -0.00305181860982 5.33249797639e-23)
(-0.0354983179722 -0.00187067008414 7.13939017822e-23)
(-0.0379127909846 -0.00612158141749 2.67556794363e-23)
(-0.0361721920416 -0.0046940795139 3.98352343617e-24)
(-0.0383849413932 -0.00918578277526 1.75365770128e-23)
(-0.0364906836771 -0.00790436365591 2.74097287149e-23)
(-0.0391481469912 -0.0122270564979 2.11962437595e-23)
(-0.0371220792851 -0.0110988334392 9.78454867649e-24)
(-0.0401941237506 -0.0152353739807 1.35697773976e-23)
(-0.0380371366878 -0.0142564470089 9.51376330871e-24)
(-0.041540000559 -0.0181950202746 1.12108840942e-23)
(-0.0392454541221 -0.0173890822635 1.27715350207e-23)
(-0.0432198360227 -0.02107840859 6.67128553688e-24)
(-0.0407812074789 -0.0204831703008 4.74920820408e-24)
(-0.0452907946401 -0.0238520844904 -1.20329232327e-25)
(-0.0426856233721 -0.0235127729303 3.05203208948e-24)
(-0.0450410112494 -0.0264442337656 -4.85030470257e-24)
(-0.0342228913297 -0.00326693875305 2.20524454545e-23)
(-0.032230328297 -0.00200851529159 -7.61430358986e-24)
(-0.0347245023283 -0.00657564603675 4.63757271469e-24)
(-0.0328627950947 -0.00502035405147 -7.55660934348e-23)
(-0.0352068535014 -0.00987252715579 1.96577003785e-23)
(-0.0331933506312 -0.00845715118235 -5.76321239296e-23)
(-0.0359861600691 -0.0131669194163 -1.89793177432e-24)
(-0.0338276309501 -0.011906292725 -3.02789340181e-23)
(-0.0370567526209 -0.0164585845812 8.71552093185e-24)
(-0.0347462296083 -0.0153353150282 -4.72567197656e-25)
(-0.0384433128242 -0.0197389057832 6.30985913055e-24)
(-0.035967025118 -0.0187756404049 -3.65086867374e-24)
(-0.0401902851895 -0.0230006101418 1.12995475669e-24)
(-0.0375225094516 -0.0222261144348 -4.29715569186e-25)
(-0.0423629870655 -0.0262148890059 -1.67794338076e-24)
(-0.0394763259353 -0.025675501413 -1.13901240357e-24)
(-0.0419081399433 -0.0291139913411 -2.61094101272e-24)
(-0.0308218817838 -0.00348255481797 -1.05232842479e-22)
(-0.028748578795 -0.00214164381733 -8.2834574693e-23)
(-0.0313019262296 -0.00701729718869 -1.37835790079e-22)
(-0.0293295083896 -0.00534294618488 -1.28104878323e-22)
(-0.0317836375542 -0.0105542257892 -1.07568758326e-22)
(-0.0296583324274 -0.00900161760596 -1.27296517217e-22)
(-0.0325530163398 -0.0141099279525 -2.88535694414e-23)
(-0.0302744190842 -0.0127008462242 -6.7287598404e-23)
(-0.0336122271759 -0.0176939820125 -1.28389568032e-23)
(-0.031165414849 -0.0164017113503 -3.83982053345e-23)
(-0.0349901438655 -0.0213138040454 -1.03904433735e-23)
(-0.0323513887344 -0.0201524522404 9.5329362545e-24)
(-0.0367367022184 -0.0249706087879 -2.69868272944e-24)
(-0.0338705797388 -0.0239664328883 -1.40787524878e-23)
(-0.0389246235293 -0.0286643041506 -2.07201003553e-24)
(-0.0357888134215 -0.0278544830567 1.85493490991e-23)
(-0.041654087998 -0.0323975532718 -4.2754427196e-24)
(-0.0381831715299 -0.0318299483395 -2.48012495328e-24)
(-0.0411835813764 -0.0359023413207 -2.00672513104e-23)
(-0.0272044680013 -0.0036936613927 -1.05706610537e-22)
(-0.0250576404831 -0.00226569540629 -3.34795558236e-23)
(-0.0276519659399 -0.00744525192481 -1.1756560546e-22)
(-0.025581545008 -0.00564921613075 -1.3597709167e-22)
(-0.0281152615567 -0.0112139540761 -8.70153572944e-23)
(-0.0258938879902 -0.00951719641389 -8.94607528759e-23)
(-0.0288478200708 -0.0150233566644 -7.6832234297e-23)
(-0.0264699446604 -0.0134524562145 -6.97757340358e-23)
(-0.0298560083734 -0.0188942595883 -1.60263122768e-23)
(-0.0273001880798 -0.017412733421 -3.98449460385e-23)
(-0.031170286361 -0.0228487292388 5.84462714016e-24)
(-0.0284032678775 -0.0214606356683 2.25764543459e-23)
(-0.0328424319243 -0.0269041255618 7.16927934067e-24)
(-0.029821865614 -0.0256257499987 -2.47987760596e-24)
(-0.0349457694297 -0.0310881501245 1.81412341813e-23)
(-0.0316120651926 -0.0299388636865 3.42598525357e-23)
(-0.0375777356999 -0.0354193376543 -1.8271933544e-23)
(-0.0338595778667 -0.0344355334451 1.13518500149e-23)
(-0.0366738580253 -0.0391700492516 -3.89067790918e-23)
(-0.0233826499755 -0.00388873795585 -6.37500369563e-23)
(-0.0211735958673 -0.00237622487609 1.92809424432e-23)
(-0.0237880968648 -0.00784155627555 -1.07872239085e-22)
(-0.021634531243 -0.00592516231022 -1.20577248508e-22)
(-0.0242145763392 -0.011823545981 -7.22211296174e-23)
(-0.0219184546599 -0.00998056212499 -7.93703835823e-23)
(-0.0248829807673 -0.0158682111034 -3.27884457773e-23)
(-0.022432514549 -0.014128837419 -5.30138381397e-23)
(-0.0258006775119 -0.0200068553522 -1.24217941581e-24)
(-0.0231693539896 -0.0183238247459 -1.23650076104e-23)
(-0.0269960085256 -0.0242711305913 1.42519495998e-23)
(-0.0241470398724 -0.022639589599 -1.60927339008e-23)
(-0.0285180205344 -0.0286989071253 2.46106955891e-23)
(-0.0254018084843 -0.0271197020922 2.58287899219e-23)
(-0.0304310824611 -0.0333319374918 2.74704683693e-23)
(-0.0269859727234 -0.0318102981922 3.35394760088e-23)
(-0.0328201847647 -0.0382345941759 -9.2829955328e-24)
(-0.0289611268606 -0.0367729484669 6.55397267514e-23)
(-0.0314110738139 -0.0421053769616 -5.29549282723e-23)
(-0.0193754989871 -0.00406025045064 -3.7546269108e-23)
(-0.0171199621083 -0.00246591208103 4.73077282186e-23)
(-0.0197314704333 -0.00819118152654 -9.20753930049e-23)
(-0.017511456506 -0.00615757077488 -8.23286058936e-23)
(-0.0201049055796 -0.0123589924046 -6.01630921047e-23)
(-0.0177592717419 -0.0103716145429 -7.85534566942e-23)
(-0.0206832585732 -0.0166079072165 -3.25903999729e-23)
(-0.0181927640539 -0.0147008238498 -5.14741856681e-23)
(-0.0214737122079 -0.0209794996775 -2.72155620954e-23)
(-0.0188070797229 -0.0190945341455 -2.3987679584e-23)
(-0.022502233825 -0.0255143946442 -4.51589357864e-24)
(-0.0196209209539 -0.0236357175596 -2.28091097086e-23)
(-0.0238073594897 -0.0302593647286 3.47575703416e-23)
(-0.020664203531 -0.0283756553298 1.88981073813e-23)
(-0.0254345461588 -0.0352797901213 7.16087343909e-23)
(-0.0219698919122 -0.0333710802161 5.0012811584e-24)
(-0.0274441865573 -0.0406587084594 2.18677940119e-23)
(-0.0235702241711 -0.0387016645159 1.1347717603e-22)
(-0.0255128725469 -0.044486900619 -1.01006483747e-22)
(-0.0152104041658 -0.00419840918724 2.52539143301e-24)
(-0.0129298871724 -0.00252992714377 2.11384155418e-23)
(-0.0155091039681 -0.0084716974437 -6.8806669583e-23)
(-0.0132477526712 -0.00634265794768 -2.07496722246e-22)
(-0.0158155424369 -0.01279098158 -6.98645502576e-23)
(-0.0134502055515 -0.0106809668233 -1.10915601653e-22)
(-0.0162813572704 -0.0172095110983 -4.28714652792e-23)
(-0.0137845995881 -0.0151517148973 -4.34258212123e-23)
(-0.0169166995352 -0.0217690266584 -1.95812271973e-23)
(-0.0142573387604 -0.0197022817611 -1.77612722556e-23)
(-0.0177417620269 -0.0265228626133 6.0489125132e-25)
(-0.0148752460946 -0.0244185053279 -8.54730997261e-23)
(-0.0187792751626 -0.0315119771818 -1.08581818019e-23)
(-0.0156806116365 -0.0293527247023 3.47101268212e-23)
(-0.0200554007857 -0.0368162972325 4.6869722798e-23)
(-0.0166561276366 -0.0345619473946 -1.07580358447e-22)
(-0.0215919055052 -0.0425382945253 -9.3971017286e-24)
(-0.0178372370834 -0.0401355500219 4.00760829539e-23)
(-0.0109044134082 -0.00431890778169 -1.88883698138e-22)
(-0.00862133239694 -0.00256091646 -2.96845566102e-23)
(-0.011120151704 -0.00868294027556 -2.49605654317e-22)
(-0.00889468740077 -0.00648647523016 -2.55423274018e-22)
(-0.011340424744 -0.013115933817 -8.44768726082e-23)
(-0.00902834339936 -0.0109164778938 -9.82438406762e-23)
(-0.0116760039084 -0.0176646660224 -1.83156281887e-23)
(-0.00924647013389 -0.0154883534008 -7.1765717609e-23)
(-0.0121377476701 -0.0223724926358 -8.36531447844e-23)
(-0.00955855172511 -0.0201536178109 -1.02750825312e-23)
(-0.012735606878 -0.0272743885997 -5.13678641563e-23)
(-0.00997959935902 -0.0249926506808 3.64748627297e-23)
(-0.0134768931224 -0.0324353972082 -6.20120498243e-23)
(-0.0105192175277 -0.0300572275153 -5.2355140144e-23)
(-0.0143671427124 -0.0379129448181 -1.14373998291e-22)
(-0.0111662115778 -0.0354048088491 -8.26977730721e-23)
(-0.0119022869374 -0.0411142216252 4.37463947117e-23)
(-0.00651230524842 -0.00441727800812 -9.62241324906e-23)
(-0.00421550822808 -0.00246129015804 -2.80971934046e-23)
(-0.00668946698467 -0.00883697655039 -1.04061460377e-22)
(-0.00448656274495 -0.0064720435058 -7.63446213922e-23)
(-0.00680155870213 -0.0133485597282 -8.5532685677e-23)
(-0.00452796693211 -0.0109774714216 1.30063844304e-23)
(-0.00698821932809 -0.0179940915227 -6.37251719515e-23)
(-0.00461094175331 -0.0155776078142 -4.15718682662e-23)
(-0.00725958594708 -0.022796334536 1.09852924983e-22)
(-0.00476385032851 -0.0202743190284 -1.05557680401e-23)
(-0.00761783496383 -0.0278020589766 3.54875867419e-23)
(-0.00497770194899 -0.0251461444459 9.24062668283e-23)
(-0.00805613341357 -0.0330711558719 -7.30408633917e-23)
(-0.00524510151722 -0.0302492427781 -5.61803514352e-23)
(-0.00855513267007 -0.038659234533 7.54226199312e-23)
(-0.00555268574043 -0.0356345143076 -2.15383109494e-23)
(-0.00589261630609 -0.041352816368 -2.35429868899e-23)
(-0.00249653667007 -0.00422137734818 -8.21768230616e-24)
(-0.00264317450265 -0.00871367672731 4.07232234155e-23)
(-0.00269998788203 -0.0132469141015 5.69672018411e-23)
(-0.00278469605119 -0.0178620615069 1.15975356451e-23)
(-0.00290475535364 -0.0226283723405 -2.80024261947e-23)
(-0.0030588703302 -0.0276061726299 7.38328651203e-25)
(-0.00325020764107 -0.0328395357112 -4.67779899286e-24)
(-0.00347570950742 -0.0383778964578 -1.20503917771e-22)
)
;

boundaryField
{
    back
    {
        type            calculated;
        value           uniform (0 0 0);
    }
    sides
    {
        type            calculated;
        value           uniform (0 0 0);
    }
    bottom
    {
        type            calculated;
        value           uniform (0 0 0);
    }
    front
    {
        type            calculated;
        value           uniform (0 0 0);
    }
    atmosphere
    {
        type            calculated;
        value           nonuniform List<vector> 0();
    }
    floatingObject
    {
        type            calculated;
        value           nonuniform List<vector> 0();
    }
    procBoundary10to9
    {
        type            processor;
        value           nonuniform List<vector> 
15
(
(-0.0559008646293 -0.00611163415914 3.00593225194e-24)
(-0.056386011476 -0.00782488753679 2.70698704825e-23)
(-0.0569656823648 -0.00952050159579 7.15042231508e-24)
(-0.0576097160804 -0.0111841466357 9.39398284332e-24)
(-0.0582769458589 -0.0128044346307 4.86135342949e-24)
(-0.0588922540025 -0.0143803029407 3.86776839419e-23)
(-0.0594303556971 -0.0159196586747 -1.2599098266e-23)
(-0.0597511521246 -0.0174327083331 -2.83469083422e-23)
(-0.0536344720385 -0.00281465167064 2.0630061727e-23)
(-0.0548713653351 -0.005437716842 -1.40457552957e-23)
(-0.0537385400212 -0.00470274173017 4.21272803049e-23)
(-0.0522938822846 -0.00196141825 4.84511792721e-23)
(-0.0502396309158 -0.00210993698096 9.53123178685e-23)
(-0.0480384232925 -0.00226748490949 1.20224687034e-22)
(-0.0464862501981 -0.00134804829765 9.15476905575e-23)
)
;
    }
    procBoundary10to11
    {
        type            processor;
        value           nonuniform List<vector> 
23
(
(-0.0592325551735 -0.0181128556575 -6.16364811866e-23)
(-0.0587308316443 -0.0188378657629 -5.63677334969e-23)
(-0.0584102410704 -0.019108103313 -1.33584138794e-22)
(-0.0582419435511 -0.0192316954437 -1.79591728543e-22)
(-0.0578559011435 -0.0195652615897 -3.57885797754e-23)
(-0.0572890236792 -0.019848199591 1.46386703488e-23)
(-0.0570211890914 -0.0214676235559 -8.97646260112e-23)
(-0.0566530621356 -0.023808003196 -2.80807380419e-22)
(-0.0547659648105 -0.0248794453389 -2.27053617656e-22)
(-0.0527486190003 -0.0256222889146 -1.82588873641e-22)
(-0.0502752978413 -0.0261814236729 -3.19161071537e-23)
(-0.0478194742228 -0.0264611503086 -3.25044801337e-23)
(-0.0450524076113 -0.0293540512597 -9.22390096258e-24)
(-0.0449199531143 -0.0325222947429 -1.08884026695e-23)
(-0.0450664623703 -0.0361451940094 -1.52235847115e-23)
(-0.0408854345765 -0.0399353855242 -5.44831208501e-23)
(-0.0358076003074 -0.0434955179797 -3.42391299279e-23)
(-0.0299071263803 -0.0465527143966 -4.00692446567e-23)
(-0.0233863046594 -0.048829906889 -1.17432732272e-23)
(-0.0191985378683 -0.0461912668565 -3.86856527272e-23)
(-0.0153942913555 -0.0438205689927 1.07875319553e-23)
(-0.00908703997874 -0.0446393335613 -3.97758874454e-23)
(-0.00372447914249 -0.0442494632958 -1.11650053048e-22)
)
;
    }
}


// ************************************************************************* //
