/*--------------------------------*- C++ -*----------------------------------*\
| =========                 |                                                 |
| \\      /  F ield         | OpenFOAM: The Open Source CFD Toolbox           |
|  \\    /   O peration     | Version:  v2012                                 |
|   \\  /    A nd           | Website:  www.openfoam.com                      |
|    \\/     M anipulation  |                                                 |
\*---------------------------------------------------------------------------*/
FoamFile
{
    version     2.0;
    format      ascii;
    class       surfaceScalarField;
    location    "5.1";
    object      phi;
}
// * * * * * * * * * * * * * * * * * * * * * * * * * * * * * * * * * * * * * //

dimensions      [0 3 -1 0 0 0 0];
oriented        oriented;


internalField   nonuniform List<scalar> 
304
(
-1.48960239244e-05
-0.000240848929556
-1.85215376128e-05
-0.000246783964041
-2.19027115838e-05
-0.0002534997326
-2.49509217609e-05
-0.000261330775662
-2.75447115018e-05
-0.00027042706112
-2.97205296656e-05
-0.000280765590971
-3.11997712861e-05
-0.000292466232401
-0.000305269892838
-9.86498047652e-06
-0.000224721832381
-1.49782268433e-05
-0.000230089366496
-2.00554287802e-05
-0.000235772632006
-2.49931211305e-05
-0.000241847245549
-2.97044688243e-05
-0.000248789369408
-3.40864031574e-05
-0.000256949723242
-3.80620346491e-05
-0.000266451980565
-4.14946239969e-05
-0.000277332615091
-4.42988409222e-05
-0.000289659323876
-4.6264481873e-05
-0.00030329757999
-0.000318120685921
-1.25370771306e-05
-0.000218378004863
-1.89650958186e-05
-0.000223661618283
-2.53965245805e-05
-0.000229341617436
-3.17203120283e-05
-0.000235523996372
-3.78221449558e-05
-0.000242688142634
-4.36210077661e-05
-0.000251151450813
-4.90427173554e-05
-0.000261030706441
-5.39259352998e-05
-0.000272449388321
-5.81776438822e-05
-0.00028540498354
-6.1578381141e-05
-0.000299893436901
-1.52637201167e-05
-0.000210662213743
-2.30762178651e-05
-0.000215848945125
-3.09029520614e-05
-0.000221514883135
-3.86577465616e-05
-0.000227769351336
-4.62407031675e-05
-0.000235105453735
-5.35809252342e-05
-0.00024381156901
-6.05333240241e-05
-0.000254078665043
-6.6990626022e-05
-0.000265992057254
-7.28549353584e-05
-0.000279539723539
-0.000294957160048
-8.94143058097e-06
-0.000197945467037
-1.80098924817e-05
-0.000201593110379
-2.72476894959e-05
-0.000206610662286
-3.6545286286e-05
-0.00021221695774
-4.57874207656e-05
-0.000218527045629
-5.49115251553e-05
-0.000225981342343
-6.38425546463e-05
-0.000234880717185
-7.25041712924e-05
-0.000245417397667
-8.07623108339e-05
-0.000257734138877
-8.83186412378e-05
-0.000271982473729
-0.000288212662042
-1.03180799547e-05
-0.000187626570249
-2.0799895988e-05
-0.000191110509659
-3.1471353204e-05
-0.000195938517553
-4.22510867776e-05
-0.000201436664635
-5.30367619618e-05
-0.000207740973733
-6.37879305021e-05
-0.000215230001657
-7.44302568175e-05
-0.000224238502429
-8.48538416902e-05
-0.000234994265223
-9.49418876869e-05
-0.000247645561409
-0.000104609704827
-0.000262315850506
-1.16875528854e-05
-0.000175938172856
-2.36018712024e-05
-0.000179195341518
-3.57192718984e-05
-0.000183820325064
-4.79782258327e-05
-0.000189177030331
-6.03349058298e-05
-0.000195383795414
-7.27387832544e-05
-0.000202825901743
-8.51489263204e-05
-0.000211828526865
-9.75245603967e-05
-0.000222618510964
-0.000109773705878
-0.000235397570008
-1.30552916984e-05
-0.000162882049787
-2.64010978547e-05
-0.000165848696378
-3.99280252726e-05
-0.000170292606319
-5.36649354115e-05
-0.000175439440952
-6.75926344432e-05
-0.000181455613894
-8.16801581787e-05
-0.000188738209675
-9.59183636903e-05
-0.000197590375227
-0.000110258796539
-0.000208278390279
-0.000221021733374
-1.44007611123e-05
-0.000148480537447
-2.90335445359e-05
-0.000151215180628
-4.39792398111e-05
-0.000155346236665
-5.92039561684e-05
-0.000160214166106
-7.47006949149e-05
-0.000165958515678
-9.04917053514e-05
-0.000172947113634
-0.000106571967403
-0.000181510124619
-0.00012297157639
-0.000191879273374
-0.000204334372096
-1.56795017569e-05
-0.000132800458343
-3.16083262286e-05
-0.000135285839999
-4.78822960235e-05
-0.000139071823723
-6.45114368411e-05
-0.000143584695103
-8.15227042593e-05
-0.0001489470728
-9.89604091605e-05
-0.000155509436086
-0.000116889069929
-0.000163581561546
-0.000135358183968
-0.000173410232024
-0.00015439227314
-0.000185300565631
-0.000199505249214
-1.68769970701e-05
-0.000115923159393
-3.40216609106e-05
-0.000118140979027
-5.15367159799e-05
-0.000121556653259
-6.94826164212e-05
-0.000125638767603
-8.79237003558e-05
-0.00013050604872
-0.000106937229145
-0.000136496040758
-0.000126646932513
-0.000143871963465
-0.000147139635848
-0.000152917302668
-0.00016854645704
-0.000163892908931
-0.000177123721
-1.79858318418e-05
-9.79373855054e-05
-3.62200561165e-05
-9.99069510666e-05
-5.48532486542e-05
-0.000102923731779
-7.39884096764e-05
-0.000106503911104
-9.37281812704e-05
-0.000110766549054
-0.000114209762138
-0.000116014590251
-0.000135570960443
-0.000122510606485
-0.000157983962019
-0.000130503321871
-0.000181603512755
-0.000140270651245
-0.00015208537423
-1.89768602006e-05
-7.89609862126e-05
-3.81279677998e-05
-8.07564567181e-05
-5.77056051386e-05
-8.33467480015e-05
-7.78662465955e-05
-8.63438589996e-05
-9.87395173346e-05
-8.98936480265e-05
-0.000120492839101
-9.42611989451e-05
-0.00014332269987
-9.96800012878e-05
-0.000167427941911
-0.000106395765253
-0.000193087229695
-0.000114602138694
-0.00012459825126
-1.97740495794e-05
-5.91877890575e-05
-3.96152490178e-05
-6.09162470991e-05
-5.99112921019e-05
-6.30516633173e-05
-8.0863639171e-05
-6.53922512515e-05
-0.000102653510281
-6.81040384952e-05
-0.00012542861387
-7.14855607246e-05
-0.000149454502231
-7.56524888754e-05
-0.000174979172374
-8.08632404531e-05
-0.000202315376414
-8.72562480162e-05
-2.0144686289e-05
-3.90443733699e-05
-4.03969110562e-05
-4.06653031878e-05
-6.11585063501e-05
-4.22911796062e-05
-8.26642843092e-05
-4.38871533917e-05
-0.000105072540737
-4.56956785414e-05
-0.000128619882758
-4.79369516097e-05
-0.000153497541875
-5.0770877821e-05
-0.000179995054829
-5.43565477573e-05
-5.87261389514e-05
-1.9836349119e-05
-1.92095033618e-05
-4.02838507452e-05
-2.02191738482e-05
-6.13236287756e-05
-2.12524524656e-05
-8.31424143524e-05
-2.20687766739e-05
-0.000105930648107
-2.29068037015e-05
-0.000129882790222
-2.3982723064e-05
-0.000155198894969
-2.54492235464e-05
-0.000182273490645
-2.72686472415e-05
-2.94752851441e-05
-1.92102368564e-05
-3.94300172711e-05
-6.06828077647e-05
-8.27514548539e-05
-0.000105657444049
-0.000129638471552
-0.000155081585807
-0.000182342582205
)
;

boundaryField
{
    back
    {
        type            calculated;
        value           uniform 0;
    }
    sides
    {
        type            calculated;
        value           uniform 0;
    }
    bottom
    {
        type            calculated;
        value           uniform 0;
    }
    front
    {
        type            calculated;
        value           uniform 0;
    }
    atmosphere
    {
        type            calculated;
        value           nonuniform List<scalar> 0();
    }
    floatingObject
    {
        type            calculated;
        value           nonuniform List<scalar> 0();
    }
    procBoundary10to9
    {
        type            processor;
        value           nonuniform List<scalar> 
15
(
0.000244628581952
0.000250407214761
0.000256878807361
0.000264377099985
0.000273019875525
0.000282942718905
0.000293949222999
0.000306085478114
0.000229716063596
1.11133172516e-05
0.000235200902906
4.86818676477e-06
6.19258183609e-06
7.54910109505e-06
0.000206888429605
)
;
    }
    procBoundary10to11
    {
        type            processor;
        value           nonuniform List<scalar> 
23
(
-3.20035631405e-05
0.000319194373438
-4.73238293819e-05
-6.38341559775e-05
-0.000315858108517
-7.77883582861e-05
-9.50625609881e-05
-0.000113581081874
-0.000279240581748
-0.00012159624901
-0.000250493475361
-0.000124635404168
-0.000139658886704
0.00021919293085
-0.000174079650028
-0.000190926273004
-0.000206636459341
-0.000220567295412
-0.000231834844802
-9.50655645546e-05
-0.000208510435371
-0.000211508728661
-0.000211808279273
)
;
    }
}


// ************************************************************************* //
