/*--------------------------------*- C++ -*----------------------------------*\
| =========                 |                                                 |
| \\      /  F ield         | OpenFOAM: The Open Source CFD Toolbox           |
|  \\    /   O peration     | Version:  v2012                                 |
|   \\  /    A nd           | Website:  www.openfoam.com                      |
|    \\/     M anipulation  |                                                 |
\*---------------------------------------------------------------------------*/
FoamFile
{
    version     2.0;
    format      ascii;
    class       surfaceVectorField;
    location    "4.9";
    object      ddtCorrDdt0(Uf);
}
// * * * * * * * * * * * * * * * * * * * * * * * * * * * * * * * * * * * * * //

dimensions      [0 1 -2 0 0 0 0];


internalField   nonuniform List<vector> 
305
(
(0.0072376579507 -0.0137599310984 -7.15445643999e-23)
(0.0138858437922 -0.007069575757 -4.69812292524e-24)
(0.00742516920133 -0.0278689239009 -1.41625682559e-22)
(0.0142542291657 -0.020705849273 -1.61502755046e-22)
(0.00765373798348 -0.0422682156207 -8.37984433738e-23)
(0.0145587708647 -0.0348553073326 -1.10588544935e-22)
(0.00799770261522 -0.0572046696552 1.20142380537e-23)
(0.0151019734077 -0.0494535207504 -9.5406504223e-24)
(0.00846601248689 -0.072934686851 7.54595410546e-23)
(0.0158833430725 -0.0646845309567 9.67432032171e-23)
(0.00908720871875 -0.0898518121606 1.26814483573e-22)
(0.0169387409971 -0.0808690806205 1.15831591631e-22)
(0.0099026049393 -0.108281232524 7.6552715635e-23)
(0.0182781020612 -0.0983668281774 2.50047983679e-22)
(0.0200648946785 -0.117550489633 1.93048942702e-22)
(0.0210182758768 -0.0137742702291 -9.46563135714e-23)
(0.0277976991443 -0.00701203844123 -7.4295332609e-23)
(0.0214457423262 -0.0276061454616 -1.30465617422e-22)
(0.0282385014384 -0.0203536882602 -3.98966842349e-22)
(0.0220957324083 -0.0418217862235 -3.63307519837e-23)
(0.0289381749358 -0.0342121917577 -1.20531925449e-22)
(0.0230759868828 -0.0565765024886 7.51883147411e-23)
(0.0300217177231 -0.0485166895213 -3.5722200652e-23)
(0.0244197936078 -0.0720821774573 1.37115253794e-22)
(0.0315340313747 -0.063409686681 7.66855806512e-23)
(0.0262006451522 -0.088683037488 2.39065091738e-22)
(0.0335625168179 -0.0791787748047 2.55030293663e-23)
(0.0285305278339 -0.106752955565 3.66544210746e-22)
(0.0362058452331 -0.0961454871483 2.10772478815e-22)
(0.0396435284576 -0.114676329746 1.62695768222e-22)
(0.0347969425034 -0.0133731446814 -3.78605861387e-22)
(0.0412998697333 -0.00681196728297 -8.97093178692e-23)
(0.0354724747935 -0.0269024175978 -3.89033150376e-22)
(0.0419086605393 -0.0196980944783 -4.55349912609e-22)
(0.0365570678344 -0.0407205535994 -1.19923374117e-22)
(0.0429084864671 -0.0331057096914 -1.55487142591e-22)
(0.0381502448101 -0.055026373807 -3.4224934742e-23)
(0.0444822915371 -0.0469158524677 -1.21986798816e-22)
(0.0403168134147 -0.0700325298492 -3.49266437764e-23)
(0.0466776895272 -0.0612374818491 -2.20105708752e-23)
(0.0431592558661 -0.0860092729961 -2.78958355616e-24)
(0.0495787850753 -0.0763290934566 -8.95373135729e-23)
(0.046839279332 -0.103261129729 6.92403629088e-24)
(0.0533857611662 -0.0924561731396 -9.27755064119e-25)
(0.0582423469472 -0.10991878542 -2.96527923162e-23)
(0.0481375358722 -0.0128625660467 -1.66453369092e-22)
(0.0542700149841 -0.00653262128636 2.65796559168e-23)
(0.0490544103606 -0.0258879274545 -2.21803904824e-22)
(0.0550517149352 -0.0188392820389 -2.07120971553e-22)
(0.0505110105381 -0.0391567589315 -1.5755056729e-22)
(0.0563078915877 -0.0316403720054 -1.45427925411e-22)
(0.0526487146105 -0.0528438015913 -1.09772434949e-22)
(0.0583068138626 -0.0447888552414 -1.18676067303e-22)
(0.0555434089495 -0.0671288609905 -7.66212406718e-23)
(0.0610904119066 -0.0583598555623 -5.72270223473e-23)
(0.0593265735249 -0.0822412860048 -8.76754850809e-23)
(0.064768355848 -0.0725668095132 -7.42022635795e-23)
(0.0641867593778 -0.0984232076565 -3.75045836712e-23)
(0.0695102183841 -0.0876203720764 -5.18889983467e-23)
(0.0703873957115 -0.11593203208 2.33130401299e-23)
(0.0755559880733 -0.10374278155 -1.61470365907e-24)
(0.0831659929633 -0.121248701094 1.90891663837e-23)
(0.060862813015 -0.0122310150143 -1.4087946544e-23)
(0.0665803138084 -0.00618154872787 1.159210983e-22)
(0.0619775791959 -0.0245980603029 -1.3074499214e-22)
(0.067507050555 -0.0177877341692 -1.98041913155e-22)
(0.0637479725992 -0.0371659294687 -1.06553425425e-22)
(0.0689788009742 -0.0298516338434 -1.25661752988e-22)
(0.0663500570855 -0.050074229212 -6.61306547013e-23)
(0.0713300869655 -0.0421931827229 -5.66366000971e-23)
(0.0698600830186 -0.0634725620064 -5.4808045255e-23)
(0.0746021318405 -0.0548638808543 -3.45828323739e-23)
(0.0744166615696 -0.0775228185039 -3.84157768453e-23)
(0.0789053735375 -0.0680274842578 -3.91652519286e-23)
(0.0802232470628 -0.0924051100831 -1.59991183346e-23)
(0.0844064538297 -0.0818327864285 -1.44515481107e-23)
(0.0875384695383 -0.108341017353 -5.83857740526e-24)
(0.0913430358263 -0.0964461441313 -6.99843177384e-24)
(0.096765210507 -0.125548137266 -1.29383265383e-23)
(0.100008496416 -0.112033427072 -1.24824467449e-23)
(0.110839145133 -0.12875266103 -3.28456693417e-23)
(0.0728496845928 -0.0114763117887 -6.80328683112e-23)
(0.078105302576 -0.00577174407954 8.18449742759e-23)
(0.0741281990221 -0.0230617690789 -1.92958674004e-22)
(0.0791493144014 -0.0165727404232 -1.83306506002e-22)
(0.0761544710237 -0.0348053876683 -7.57449276602e-23)
(0.0807954557708 -0.0277924639974 -8.93810217292e-23)
(0.0791292421947 -0.0468081570987 -2.50887777698e-23)
(0.0834217449144 -0.0392151084342 -2.21053998433e-23)
(0.083129006448 -0.059179507482 -1.89400390476e-23)
(0.087068957824 -0.0508694708438 -3.48118862723e-23)
(0.0882890770723 -0.0720317658378 -1.5201023194e-23)
(0.0918407612295 -0.0628750356076 -4.85356688794e-24)
(0.0948047261798 -0.0854822194764 -5.45086154997e-24)
(0.0979029247639 -0.0753237020647 -1.95424912079e-23)
(0.102937161893 -0.0996835079485 -1.36423011135e-23)
(0.105459559138 -0.0883182448676 -8.12223892758e-24)
(0.113037449755 -0.114712138648 -3.23897895483e-23)
(0.114825969385 -0.101933574761 4.57041251409e-24)
(0.126363502505 -0.116172149296 -5.0499624324e-23)
(0.0839914261631 -0.0106265446132 -3.34286634147e-23)
(0.0887511644168 -0.0053184417408 5.88683060271e-24)
(0.0853978433342 -0.0213398679974 -7.97288537274e-23)
(0.0898892371096 -0.0152338070054 -1.96067036474e-22)
(0.0876167943361 -0.0321607167987 -3.57414939123e-23)
(0.0916595242213 -0.0255285907723 -9.29082476014e-23)
(0.0908686416994 -0.0431592480957 -3.18285083458e-23)
(0.0944822724271 -0.0359524237759 -3.00160600548e-23)
(0.0952241053166 -0.0544067924881 -2.07254141126e-23)
(0.098390454294 -0.0465130251809 -2.96902584928e-23)
(0.100810841759 -0.0659737470994 -9.1950349018e-24)
(0.103482102983 -0.0572894800705 -5.14423138642e-24)
(0.107807448997 -0.0779175770192 -2.22138685855e-23)
(0.109900682346 -0.0683265690691 -1.79502062583e-23)
(0.116453696341 -0.0903188210015 1.00904747e-23)
(0.117841432462 -0.0796672993313 -1.50043848192e-23)
(0.127059827995 -0.103172479911 -1.35394222615e-23)
(0.127553493212 -0.0913199253915 2.02356396031e-23)
(0.139366258931 -0.10321379046 -4.63668854273e-23)
(0.094210855161 -0.00970823779026 -1.56751542457e-22)
(0.0984532701571 -0.00483298340539 -1.22583641595e-24)
(0.0957084281418 -0.019483483297 -2.09246430348e-22)
(0.099664605479 -0.0138106169322 -2.36169734094e-22)
(0.0980548419666 -0.0293129063022 -8.71828137439e-23)
(0.101505108735 -0.023128001275 -9.34963396089e-23)
(0.101490704365 -0.0392441171602 -2.78778102018e-23)
(0.104449254492 -0.0325011554167 -4.41661258803e-23)
(0.106073151638 -0.0493133049921 -1.41090757666e-23)
(0.108512338905 -0.0419265498899 -5.08554854716e-24)
(0.111917516487 -0.059550637324 -1.38994027429e-23)
(0.113778256946 -0.051443516158 1.41019086562e-23)
(0.119181227399 -0.0699703503564 -1.07407224919e-23)
(0.120374317213 -0.0610602925391 -2.09839367394e-23)
(0.128070071234 -0.0805913500513 -4.85921991609e-24)
(0.128465972307 -0.0707724798323 -2.07491310431e-24)
(0.138839355589 -0.0913484189139 -1.25918235627e-23)
(0.138269485884 -0.0805419888678 -1.3647393047e-23)
(0.150017235476 -0.0902695193538 -2.12893026408e-23)
(0.103457062268 -0.00875049832683 -8.06440280536e-23)
(0.107177902365 -0.00432690844523 4.41043188317e-23)
(0.105007942201 -0.0175421132304 -1.20419643355e-22)
(0.108435565353 -0.0123414968582 -1.4397594063e-22)
(0.107420161055 -0.026338823308 -5.04796517453e-23)
(0.110295498111 -0.0206530529955 -6.15516384552e-23)
(0.11095321982 -0.0351701079003 -2.13738642256e-23)
(0.11329331995 -0.0289495107103 -1.79826987539e-23)
(0.115645134989 -0.044039997136 2.31254358756e-23)
(0.117413109869 -0.0372292820752 4.19872513905e-24)
(0.121594493038 -0.0529459066141 7.01737465966e-24)
(0.122728643284 -0.0454919262353 2.40384888447e-23)
(0.128936422395 -0.0618708424158 -1.23181273518e-23)
(0.12934356576 -0.0537159537704 -1.37042058536e-23)
(0.137842190019 -0.0707776193937 -1.08630862352e-23)
(0.137397989324 -0.0618630827628 6.62470234199e-24)
(0.148518832017 -0.0795997391416 -2.23448721252e-23)
(0.147066019261 -0.0698642389124 -1.05548779622e-23)
(0.158545273597 -0.077606913921 -2.26356305142e-23)
(0.111697935175 -0.00777018688782 -1.92275937448e-23)
(0.114909081511 -0.00381531064016 1.2695494333e-22)
(0.113269656755 -0.0155348322528 -8.51079357302e-23)
(0.11616533593 -0.0108595370179 -4.50002298616e-23)
(0.115700660618 -0.0233028244906 -2.90546854638e-23)
(0.118040788443 -0.0181520802132 3.86638688023e-25)
(0.119249609016 -0.0310374734061 7.58989061082e-24)
(0.121022242873 -0.0253796944118 -5.34990127199e-24)
(0.123945420796 -0.0387226643425 5.1117781081e-24)
(0.125111394283 -0.0325269834653 6.04943420531e-24)
(0.129866678124 -0.0463279216314 3.31690833143e-24)
(0.130360822326 -0.0395676256112 3.6361822439e-25)
(0.137124596817 -0.0538087998663 5.23862384024e-24)
(0.136858744177 -0.0464565735937 5.44816564384e-24)
(0.145864055662 -0.06110673117 6.93291061499e-24)
(0.144713899166 -0.0531264533204 3.32671256734e-24)
(0.156251668696 -0.0681173017528 -1.08456363513e-23)
(0.154081332726 -0.0594907471613 -2.55499769895e-24)
(0.165101487616 -0.0654265900942 -3.10969125658e-23)
(0.118933961506 -0.00678535320037 1.01182307213e-22)
(0.121648851816 -0.00330986381815 1.38430795839e-22)
(0.120497955954 -0.0135646487466 4.04943445565e-23)
(0.122902238346 -0.00939172218063 -8.51856180097e-23)
(0.122900665981 -0.0202871540568 2.40914228798e-23)
(0.124730545519 -0.0156726118872 5.33187269483e-24)
(0.126397127244 -0.0269339190816 -6.8903576775e-24)
(0.127650754984 -0.0218605671848 -1.55555089963e-23)
(0.13100654142 -0.0334633019078 1.30127432161e-24)
(0.131639219939 -0.0279101171527 -9.23551635024e-25)
(0.136788344326 -0.0398222547375 2.4948755368e-24)
(0.136734727456 -0.0337817556318 5.01746626592e-24)
(0.143828887909 -0.04594650606 3.53625437094e-24)
(0.143004950803 -0.0394157749767 2.30626633127e-24)
(0.152246815698 -0.0517415989818 -6.1611957466e-24)
(0.150529685096 -0.0447199243424 1.20268965517e-23)
(0.162184275569 -0.057109994315 -2.28062739135e-23)
(0.159442603539 -0.049584793604 -1.79067353518e-23)
(0.169870448987 -0.0538771555435 -2.09215922356e-23)
(0.125187829649 -0.0058172139622 -4.79371293835e-23)
(0.127419645894 -0.00281619967198 9.10718414236e-23)
(0.126715739513 -0.0116183148402 -1.20348089871e-22)
(0.128659204826 -0.00796279478585 -1.20819100384e-22)
(0.129044468997 -0.017331365908 -3.43150591813e-23)
(0.130406724073 -0.0132602097366 -4.17161980992e-23)
(0.132436399012 -0.0229275009579 -9.58870295386e-24)
(0.133221506426 -0.018445024448 -1.24195536868e-23)
(0.13688618279 -0.0283554955904 2.79264030929e-24)
(0.137056953268 -0.0234526776469 5.17648145627e-24)
(0.142434819017 -0.0335389353186 4.8288570604e-24)
(0.141921638383 -0.0282297105026 5.16548468831e-24)
(0.149155690451 -0.0383945422362 1.0796908512e-23)
(0.147874044954 -0.0326989522162 -5.55949205355e-25)
(0.157133897048 -0.042846569059 2.81356946448e-25)
(0.154989891527 -0.0367599591898 7.27565119903e-24)
(0.166476186534 -0.0467259967479 -1.60220536739e-23)
(0.163325888424 -0.0402774416732 -1.16392998179e-23)
(0.172995244892 -0.0430952871173 -1.20345712076e-23)
(0.13048167538 -0.00487116556301 1.81898704233e-23)
(0.132247905273 -0.00233725857636 1.3900689958e-22)
(0.131957429057 -0.00972547899811 -4.21872086115e-23)
(0.13347213063 -0.00658842986246 7.43473191908e-24)
(0.134181534908 -0.0144741729467 -1.98206926047e-23)
(0.135118999616 -0.0109471033003 2.60036201897e-23)
(0.137423187177 -0.019076175679 2.3456307233e-24)
(0.137795896252 -0.0151785672805 8.43512856833e-24)
(0.14165991543 -0.0234678066139 7.54932583529e-24)
(0.141433026739 -0.0192091331879 1.86547933504e-23)
(0.146912391358 -0.0275796710657 -2.19321577441e-25)
(0.146031812842 -0.0229775902107 6.00841526974e-24)
(0.153229996665 -0.0313066825269 -4.07720651832e-24)
(0.15160705642 -0.0263898733435 8.36876491691e-24)
(0.160665796668 -0.0345210748369 -4.64500556531e-24)
(0.158212920611 -0.0293424818885 -7.84007917369e-24)
(0.16928863344 -0.0370774709768 -7.65181735154e-24)
(0.165873530992 -0.0316847838788 -4.09869912522e-24)
(0.174681475674 -0.0332306444787 2.4554146219e-24)
(0.134854148796 -0.00397440779698 1.28251761076e-22)
(0.136185648877 -0.00187584649479 1.9980605737e-22)
(0.136266248778 -0.00791833494236 7.56255607203e-23)
(0.137380213876 -0.00527923161564 1.02218359037e-22)
(0.138365943583 -0.0117503300771 5.42594413627e-23)
(0.138918227806 -0.0087546948032 1.33703724983e-22)
(0.141432244904 -0.0154270602881 2.47442911954e-23)
(0.141446097088 -0.0120892056877 4.42812115764e-23)
(0.145420945746 -0.0188725827253 1.71138827848e-23)
(0.144862184394 -0.015216441359 2.73554881033e-23)
(0.150331584798 -0.0219996797923 1.45965017641e-23)
(0.149153370616 -0.0180685786812 9.19274233168e-24)
(0.15618253962 -0.0247014677216 4.60589226154e-24)
(0.154312147259 -0.020545492943 1.14093443289e-23)
(0.163009082395 -0.0268476644478 -7.2937727336e-24)
(0.160360499463 -0.0225323847376 -1.70661512254e-23)
(0.170836922117 -0.0282951173158 6.00853284822e-24)
(0.167324562395 -0.0238871546766 -6.82691110576e-24)
(0.175178119756 -0.0244081060004 -9.96030161068e-24)
(0.138350632101 -0.00312623465383 1.73772655331e-22)
(0.139282728798 -0.00144085838875 1.92618870103e-22)
(0.139693281253 -0.00620054675923 1.602965233e-22)
(0.140425735756 -0.00404337893173 1.37814322957e-22)
(0.141665912361 -0.00918500846429 1.23725495197e-22)
(0.141875475328 -0.0066885049387 1.30978267904e-22)
(0.144542028448 -0.0120001226797 4.68924084843e-23)
(0.144238436951 -0.00919002632628 4.72166859405e-23)
(0.148259519839 -0.0145771261835 1.94343476502e-23)
(0.147424673507 -0.0114905806771 2.13995717555e-23)
(0.152803576419 -0.0168235957198 6.0055848965e-24)
(0.151392656924 -0.013518959795 7.74092371033e-24)
(0.158171712844 -0.0186508719755 -1.02626991581e-23)
(0.156136789149 -0.0151769327385 2.25011986482e-25)
(0.164361523981 -0.0199158606822 -1.65992895976e-23)
(0.161636138847 -0.0163511139105 -1.50056509683e-23)
(0.171357247093 -0.0204658396358 -2.27957455647e-23)
(0.167862604204 -0.0169162714527 4.08082294771e-23)
(0.174782962207 -0.0166833069442 2.94069404667e-24)
(0.141028126775 -0.00232655563905 1.56660537729e-22)
(0.141588739149 -0.00103331621668 8.55964133742e-23)
(0.142298564224 -0.00460907315896 1.08496067561e-22)
(0.142687302305 -0.00288196588195 4.38626162894e-23)
(0.144141267967 -0.006781659797 5.44694586479e-23)
(0.144027588228 -0.00474721518245 1.54527785434e-23)
(0.146822075908 -0.00879539126365 2.17238492117e-23)
(0.146235540919 -0.00647859306228 5.56732608592e-24)
(0.150270424032 -0.0105879186176 9.70614781565e-24)
(0.149195120142 -0.00802042951042 -9.18524104821e-24)
(0.154453668858 -0.0120720734331 1.96035080031e-24)
(0.152864310265 -0.00931098058306 1.6946582803e-23)
(0.15934668884 -0.0131400838315 -4.5179398238e-24)
(0.157206622298 -0.0102653863002 2.8503823137e-23)
(0.164908445785 -0.0136865160567 4.24018681063e-23)
(0.171091354757 -0.0135739427958 6.65446690884e-23)
(0.142939284509 -0.00157227036615 -2.72015080655e-23)
(0.143148428935 -0.000649478762282 -6.6474845959e-23)
(0.144133671216 -0.00309975166902 -4.91806727286e-23)
(0.144202142135 -0.00179126937793 -1.03317242418e-22)
(0.145846020579 -0.00452136966813 -3.34493540185e-23)
(0.145437317852 -0.00292991279296 -7.66665006346e-23)
(0.148344668536 -0.00580524968115 -2.53417641739e-23)
(0.147493038349 -0.00394657585124 -3.86476404814e-23)
(0.151544492778 -0.00687875590978 -1.94480606085e-24)
(0.150257936778 -0.00479401881673 -1.80228677267e-23)
(0.155393152119 -0.00768662655557 4.34900551397e-23)
(0.144129564676 -0.000862389350916 -1.42590580311e-22)
(0.145249288161 -0.00167851454205 -1.30803070324e-22)
(0.146843064819 -0.00241819541297 -8.18647870975e-23)
(0.146163912575 -0.00123095440291 -8.65741123935e-23)
(0.149175742872 -0.0030154907567 -3.13287440342e-23)
(0.148088040908 -0.0015892077146 -4.1292655552e-23)
(0.14718432208 -0.000423262891676 -4.6001980848e-23)
)
;

boundaryField
{
    back
    {
        type            calculated;
        value           uniform (0 0 0);
    }
    sides
    {
        type            calculated;
        value           uniform (0 0 0);
    }
    bottom
    {
        type            calculated;
        value           uniform (0 0 0);
    }
    front
    {
        type            calculated;
        value           uniform (0 0 0);
    }
    atmosphere
    {
        type            calculated;
        value           nonuniform List<vector> 0();
    }
    floatingObject
    {
        type            calculated;
        value           nonuniform List<vector> 0();
    }
    procBoundary2to0
    {
        type            processor;
        value           nonuniform List<vector> 
14
(
(0.162179999141 -0.0107836872432 -4.06289750435e-24)
(0.167770906137 -0.01073944672 4.83112097978e-23)
(0.173758051424 -0.00997918287729 2.65433033444e-23)
(0.153658292371 -0.00542781201051 3.1339315462e-23)
(0.159848881217 -0.00813487113145 2.89588654565e-23)
(0.157648847529 -0.00577599464261 4.02769420621e-23)
(0.144006721545 -0.000280980354676 -1.00243882094e-22)
(0.145013810038 -0.000768805994001 -1.38492226477e-22)
(0.152155941696 -0.00344671770313 1.52612537962e-23)
(0.150670189999 -0.00180078396232 -3.62594129964e-25)
(0.14569441734 -0.000352572656587 -9.42632685468e-23)
(0.146237712758 0.000354508187909 -2.22448436584e-24)
(0.149375331203 -0.000407789360048 -1.03265056478e-23)
(0.148065012821 0.000606600557625 1.11663912377e-24)
)
;
    }
    procBoundary2to1
    {
        type            processor;
        value           nonuniform List<vector> 
18
(
(0.0109500723071 -0.128639506133 -8.51692077062e-23)
(0.0315290963053 -0.126647724661 2.20525992086e-22)
(0.0515842805054 -0.122195543117 -1.26973215251e-22)
(0.0645253296323 -0.129141037396 -7.40073828052e-23)
(0.0782969592349 -0.135329037689 -3.96126475888e-23)
(0.0929562044004 -0.140420214589 -7.16401405108e-23)
(0.108430749222 -0.144314630522 -3.07192916973e-23)
(0.125607830316 -0.130604055578 -3.62073096974e-23)
(0.140006164912 -0.116378159632 -6.53083289116e-23)
(0.151772854792 -0.10212659622 -6.67643935122e-23)
(0.161183706304 -0.0881811594905 -3.00491825023e-23)
(0.168464100045 -0.0747165440411 -4.24821598606e-23)
(0.173788956213 -0.061895303375 -4.03930848883e-23)
(0.177304634295 -0.0498757748844 -2.54658420927e-23)
(0.179195658956 -0.0387745556168 -1.96197867842e-23)
(0.17970631113 -0.0288116992667 -1.30157391688e-23)
(0.179127944302 -0.0200576911912 -2.29912748567e-23)
(0.177815809309 -0.0125730935663 6.02730565668e-24)
)
;
    }
}


// ************************************************************************* //
