/*--------------------------------*- C++ -*----------------------------------*\
| =========                 |                                                 |
| \\      /  F ield         | OpenFOAM: The Open Source CFD Toolbox           |
|  \\    /   O peration     | Version:  v2012                                 |
|   \\  /    A nd           | Website:  www.openfoam.com                      |
|    \\/     M anipulation  |                                                 |
\*---------------------------------------------------------------------------*/
FoamFile
{
    version     2.0;
    format      ascii;
    class       volVectorField;
    location    "4.9";
    object      U;
}
// * * * * * * * * * * * * * * * * * * * * * * * * * * * * * * * * * * * * * //

dimensions      [0 1 -1 0 0 0 0];


internalField   nonuniform List<vector> 
167
(
(0.000987717260447 -0.00100186439758 6.41053273936e-22)
(0.00111713653742 -0.0034733788602 7.30863683835e-22)
(0.00123368612085 -0.00595293086343 4.11269161169e-22)
(0.00127901878052 -0.00858494827354 -2.25049997347e-22)
(0.00130093575685 -0.011305046068 -6.95026219226e-22)
(0.00133218696531 -0.014107596845 -7.58894916439e-22)
(0.00137482631228 -0.0170223473336 -5.32169111928e-22)
(0.00143588843759 -0.0200883014087 -5.03933037518e-23)
(0.00345867945479 -0.00111354085625 9.4776475022e-22)
(0.00367514527653 -0.00364796475378 1.06648043094e-21)
(0.00389307040319 -0.00613024520446 5.60538738021e-22)
(0.00404492917477 -0.00872979034363 -1.2673260501e-22)
(0.00417279184682 -0.0114280998354 -4.96297144983e-22)
(0.00432321520339 -0.0142366399485 -7.18613619095e-22)
(0.00450875834 -0.0171641466227 -4.83792419481e-22)
(0.00474405398433 -0.0202264042177 -1.37744364298e-22)
(0.00587322206481 -0.00117432876227 1.39036601269e-21)
(0.00612354141385 -0.00375892032708 1.36293094995e-21)
(0.00639893117432 -0.00624564464345 8.81711726475e-22)
(0.00663592581993 -0.0088252970104 1.76048850554e-22)
(0.00685942762055 -0.0115050480663 -3.12752893725e-22)
(0.00711807168285 -0.0142970829374 -4.44232180763e-22)
(0.00744384899648 -0.0172105264342 -3.52655169831e-22)
(0.00784286290333 -0.0202583272217 -1.08880977471e-22)
(0.0083547123277 -0.0011589675581 1.31387568218e-21)
(0.00858580979194 -0.00373237601745 1.43335547948e-21)
(0.00891950888897 -0.00619576415071 1.03179393422e-21)
(0.00923797128361 -0.00874022539125 4.26956367861e-22)
(0.00956093066562 -0.0113824264345 -9.14730762709e-25)
(0.00992967862513 -0.0141250276496 -1.51554930612e-22)
(0.0103789479964 -0.0169820836186 -1.3329069983e-22)
(0.0109200617057 -0.019973078431 -4.33771022059e-23)
(0.0115611254687 -0.0231134609588 -1.01053803811e-23)
(0.0107850732083 -0.00110490133957 1.15053670918e-21)
(0.0110162653867 -0.0036154822203 1.1987414738e-21)
(0.0114088728125 -0.00601718606045 1.02933566421e-21)
(0.0118031914077 -0.00850025407779 5.30253984867e-22)
(0.0122156775957 -0.0110723260994 1.65838890227e-22)
(0.0126917927973 -0.0137389871248 1.64160744478e-23)
(0.0132575292658 -0.0165115651093 -2.32831064962e-23)
(0.0139335224743 -0.0194096438342 -3.01116548777e-24)
(0.0147297565492 -0.0224494586923 -1.60319208012e-24)
(0.0156587765846 -0.0256516952547 7.09359489644e-24)
(0.0131123801838 -0.00104353980248 9.06738248236e-22)
(0.0133685192824 -0.00345696775866 1.08117289114e-21)
(0.0138216496755 -0.00576254958354 9.08299023676e-22)
(0.0142869038946 -0.00815754933704 5.01778570675e-22)
(0.0147808112864 -0.0106338279825 1.97523149765e-22)
(0.0153519682364 -0.0131960525372 6.36327009489e-23)
(0.0160309154316 -0.0158563099397 1.0160767576e-23)
(0.0168350940284 -0.018636071553 1.00283006951e-24)
(0.0177801636662 -0.0215533598507 -4.15173916177e-25)
(0.0188798652869 -0.0246228788521 4.08018026864e-24)
(0.0153204067983 -0.000977677266982 8.09314421192e-22)
(0.01561365826 -0.00327616078118 1.04722382625e-21)
(0.0161308279954 -0.00546150907307 8.2339587516e-22)
(0.0166641711948 -0.00774378223731 4.54832157112e-22)
(0.0172339954146 -0.0101006716096 1.96480167254e-22)
(0.0178929687141 -0.0125361571271 6.3880229194e-23)
(0.0186768378474 -0.0150637783676 1.21526377431e-23)
(0.0196039622914 -0.0177003514411 -4.3076597291e-24)
(0.0206916054219 -0.0204678744685 -1.59425325585e-23)
(0.0219544885651 -0.0233854146981 -1.5508439782e-23)
(0.0173991321613 -0.000910444629734 9.36776929906e-22)
(0.0177316891224 -0.0030763676405 9.61290041391e-22)
(0.0183161012971 -0.00512168996946 8.44688477845e-22)
(0.0189151302378 -0.00727248451719 4.79921278462e-22)
(0.0195547966332 -0.00949106619323 2.01605013086e-22)
(0.0202954761481 -0.0117804382601 7.45840011294e-23)
(0.0211753773688 -0.0141537912399 2.36860857997e-23)
(0.0222205267317 -0.016630148054 1.81036619545e-24)
(0.0234457944157 -0.0192271456147 1.5710404773e-24)
(0.0248675641496 -0.0219675833901 -1.93162764074e-23)
(0.0193369682121 -0.00084165979224 8.32192102904e-22)
(0.0197091481858 -0.00285725100519 9.54938188736e-22)
(0.0203614058192 -0.00474684406065 8.02190632813e-22)
(0.0210221318582 -0.00675157164721 4.65696037778e-22)
(0.0217256306843 -0.00881349626636 2.00352803845e-22)
(0.0225390682247 -0.0109403618485 8.11790517925e-23)
(0.0235073199136 -0.0131424660194 3.25851192416e-23)
(0.0246596683034 -0.0154349935822 8.66841843043e-24)
(0.0260157814669 -0.0178395713631 8.88477961393e-25)
(0.0275917748489 -0.0203811435107 -1.56497092384e-23)
(0.0211203941511 -0.000772216507023 5.81446399155e-22)
(0.0215417170743 -0.00261831339833 6.18421102821e-22)
(0.0222488167103 -0.00434003013029 6.28528077225e-22)
(0.0229678205288 -0.00618691628278 3.84208792431e-22)
(0.023729519326 -0.00807827798423 1.6289121554e-22)
(0.0246064014532 -0.0100257029859 5.2634588669e-23)
(0.0256529739307 -0.0120382513873 1.52837996935e-23)
(0.026901441658 -0.0141306625987 2.99567782031e-24)
(0.028373434753 -0.0163216124259 3.58627461218e-25)
(0.0300970794938 -0.0186340222001 -9.67645248268e-24)
(0.0227398159091 -0.000693946963906 1.96785513864e-22)
(0.0232123376098 -0.00236143387491 5.23051407122e-22)
(0.0239671444098 -0.00391452439807 4.5159515593e-22)
(0.0247403556971 -0.00558218802061 2.99893166186e-22)
(0.0255521772547 -0.00729053104076 1.25699229038e-22)
(0.0264852114534 -0.00904602635761 3.69909298696e-23)
(0.0275964013696 -0.0108539136294 7.34296101299e-24)
(0.0289307899374 -0.0127304608283 -4.20558375529e-24)
(0.0305044112061 -0.0146876351142 -7.45184585759e-24)
(0.0323525024919 -0.0167443799394 -1.21350821596e-23)
(0.024184711922 -0.000609383053057 1.50048541274e-22)
(0.0247003638958 -0.00208981642499 3.84109326748e-22)
(0.0255094520249 -0.00346678080831 4.42288668787e-22)
(0.0263296402434 -0.00494544573333 2.85163359605e-22)
(0.0271830932179 -0.00646118567009 1.1252271195e-22)
(0.0281646721191 -0.00801414728445 2.94825531619e-23)
(0.0293298107712 -0.00960154161303 5.91150532496e-24)
(0.0307246824746 -0.0112465546552 -1.6924678092e-23)
(0.0323820108927 -0.0129594740472 -2.15697035613e-23)
(0.0343251389601 -0.014733823655 -2.30589400758e-23)
(0.0254492165287 -0.000519357099211 1.09005151038e-22)
(0.0260010065143 -0.00180501454845 2.64810456502e-22)
(0.0268653316 -0.00300077766559 3.94280979904e-22)
(0.0277272626217 -0.00428395529653 2.60038825917e-22)
(0.0286162841774 -0.00559600262954 9.94979653479e-23)
(0.0296294188546 -0.00693780428283 2.35978372464e-23)
(0.0308368591868 -0.00830853757599 5.18598656456e-24)
(0.0322709258558 -0.00970808199486 -1.45514516708e-23)
(0.0339850168667 -0.0111470542888 -2.25997763344e-23)
(0.0359889702889 -0.0126222715149 -2.51282462525e-23)
(0.0265287458052 -0.000430092636091 -1.3028854043e-22)
(0.0271123845918 -0.00151284797057 1.02460107364e-22)
(0.0280297464064 -0.00251723271006 1.81082168336e-22)
(0.0289260151345 -0.00360157449277 1.50543576018e-22)
(0.0298419520079 -0.00471250741639 5.69459305315e-23)
(0.0308734913458 -0.00583831129541 1.0316967532e-23)
(0.0321053632023 -0.00697649061826 -1.10340256135e-24)
(0.0335677728686 -0.00812205876454 -1.11830281674e-23)
(0.0353018741713 -0.00928754433416 -1.95108419794e-23)
(0.0373353706675 -0.0104709218833 -1.49040197216e-23)
(0.0274153129815 -0.000343453389911 -4.34421628365e-22)
(0.028036946982 -0.00121651755354 -2.63960503675e-22)
(0.0289954462952 -0.002026956887 -9.19357042777e-23)
(0.0299207788419 -0.00291326273532 -1.78705963304e-23)
(0.0308530489233 -0.00381248749314 -9.67162738439e-24)
(0.0318966052191 -0.00471279678431 -7.82245347323e-24)
(0.0331318521105 -0.00561451659115 -6.70509249194e-24)
(0.034603974022 -0.00651600099327 -5.0162799481e-24)
(0.0363357977558 -0.00740899128379 -8.6660024124e-25)
(0.0383755618663 -0.00829550984909 1.42176085095e-23)
(0.0281062243006 -0.000252040264096 -7.07174633518e-22)
(0.0287664561391 -0.000922590320545 -4.27976958221e-22)
(0.0297575752953 -0.00153601789735 -2.68064343495e-22)
(0.0307068956429 -0.00221162872784 -1.20829169712e-22)
(0.031647545507 -0.00289367716277 -4.64747347407e-23)
(0.0326920216607 -0.00357138901272 -1.15511467688e-23)
(0.0339182348066 -0.00423981925375 6.72673971586e-24)
(0.0353846335775 -0.004893254281 1.17878960445e-23)
(0.0371153685352 -0.0055144143773 2.90795248873e-23)
(0.0391170019546 -0.00610052855002 3.28690938339e-23)
(0.0286011687945 -0.000162228707805 -6.40713427165e-22)
(0.0292933058706 -0.000628815674097 -3.7488997431e-22)
(0.0303158564691 -0.00104346109289 -2.08390965953e-22)
(0.0312786043502 -0.00150761409277 -8.94710557693e-23)
(0.0322185459714 -0.00197225928187 -3.25875792463e-23)
(0.0332541859704 -0.00242325597913 -8.91726250514e-24)
(0.0344725107041 -0.00285785861377 1.79647018915e-23)
(0.0289053449089 -7.40462988003e-05 -2.62837729757e-22)
(0.0296245394179 -0.000338771022737 -8.95615867454e-23)
(0.0306738774812 -0.000563914161146 -1.55720569328e-23)
(0.0316414485383 -0.000829436375253 4.87789495596e-24)
(0.0325728714853 -0.00108549191057 -6.1614062831e-24)
(0.0308415899457 -0.000105398550108 1.28565727166e-22)
(0.031808189669 -0.00018378509148 9.99535884334e-23)
)
;

boundaryField
{
    back
    {
        type            noSlip;
    }
    sides
    {
        type            noSlip;
    }
    bottom
    {
        type            noSlip;
    }
    front
    {
        type            noSlip;
    }
    atmosphere
    {
        type            pressureInletOutletVelocity;
        value           nonuniform List<vector> 0();
    }
    floatingObject
    {
        type            movingWallVelocity;
        value           nonuniform List<vector> 0();
    }
    procBoundary2to0
    {
        type            processor;
        value           nonuniform List<vector> 
14
(
(0.0359178436956 -0.00326531200548 2.02921110973e-23)
(0.0376098702187 -0.0036412200683 1.58099228472e-23)
(0.0395497802355 -0.00395843135874 9.32466738664e-24)
(0.033593186902 -0.00132023930213 -2.71848142812e-24)
(0.0359178436956 -0.00326531200548 2.02921110973e-23)
(0.0347921062514 -0.00153027495836 -2.58553087162e-24)
(0.0290262391405 1.8513284005e-05 1.58933028616e-23)
(0.0297719831293 -5.98491589545e-05 1.31501183148e-22)
(0.033593186902 -0.00132023930213 -2.71848142812e-24)
(0.0327265767512 -0.000248405802452 3.1132307127e-23)
(0.0297719831293 -5.98491589545e-05 1.31501183148e-22)
(0.0308281641974 0.000321220078926 8.12590368793e-23)
(0.0327265767512 -0.000248405802452 3.1132307127e-23)
(0.0317974025778 0.0004154565434 7.92010661748e-23)
)
;
    }
    procBoundary2to1
    {
        type            processor;
        value           nonuniform List<vector> 
18
(
(0.00152394970414 -0.0233349021177 4.42286558343e-22)
(0.00503101327932 -0.0234584552567 2.88570579679e-23)
(0.00831249276927 -0.023471517057 1.06380280594e-23)
(0.00831249276927 -0.023471517057 1.06380280594e-23)
(0.0123029672021 -0.0264353904543 -1.15532925639e-23)
(0.0123029672021 -0.0264353904543 -1.15532925639e-23)
(0.0167152691012 -0.0290415445256 -3.79784659083e-23)
(0.0201302951341 -0.0278660841087 -4.18577609936e-23)
(0.0233880959963 -0.0264727444805 -5.62299878682e-23)
(0.0264839795099 -0.0248852517272 -7.16706968613e-23)
(0.0293985160442 -0.0230972135444 -4.71754552348e-23)
(0.0320911719274 -0.0211059517233 -5.79306134042e-23)
(0.0345036136023 -0.0189319070087 -6.48140055013e-23)
(0.0365916986965 -0.0165921343649 -6.64461859675e-23)
(0.0383224866191 -0.0141385017741 -6.46438106872e-23)
(0.0396938227433 -0.0116391772493 -6.42079285892e-23)
(0.0407369896907 -0.00913806130956 -4.63996468694e-23)
(0.0414272388998 -0.00664832914437 -3.45970887818e-23)
)
;
    }
}


// ************************************************************************* //
