/*--------------------------------*- C++ -*----------------------------------*\
| =========                 |                                                 |
| \\      /  F ield         | OpenFOAM: The Open Source CFD Toolbox           |
|  \\    /   O peration     | Version:  v2012                                 |
|   \\  /    A nd           | Website:  www.openfoam.com                      |
|    \\/     M anipulation  |                                                 |
\*---------------------------------------------------------------------------*/
FoamFile
{
    version     2.0;
    format      ascii;
    class       surfaceVectorField;
    location    "3.2";
    object      ddtCorrDdt0(Uf);
}
// * * * * * * * * * * * * * * * * * * * * * * * * * * * * * * * * * * * * * //

dimensions      [0 1 -2 0 0 0 0];


internalField   nonuniform List<vector> 
304
(
(-0.00966896242607 0.0039007874544 -3.66708327068e-23)
(-0.0103613246997 0.00345228654109 -3.34734378504e-23)
(-0.00928960057766 0.00509939801443 1.24640339127e-23)
(-0.0101356117647 0.00466016743116 2.8564210742e-23)
(-0.00868950451938 0.00645559706125 1.83686045374e-24)
(-0.00974954768443 0.00603469195788 6.98140511539e-24)
(-0.0077790589765 0.0079926346249 7.51360701244e-24)
(-0.00912692300373 0.00762450768075 -3.26000728339e-25)
(-0.00643074932005 0.00978201371869 1.87345726921e-23)
(-0.00815596796289 0.00949403824003 -1.26159906071e-23)
(-0.00447663600345 0.0118510759611 6.81394263562e-24)
(-0.0066990085359 0.0117073802634 1.78331777255e-23)
(-0.00169936445355 0.0142671062803 -2.93241665762e-23)
(-0.00456878898313 0.0143361663189 -9.80743171347e-24)
(-0.00152280760121 0.0174702691825 -7.0383037415e-23)
(-0.0111673949045 0.0018996862415 2.93630426545e-23)
(-0.0117571693619 0.00146496443018 -3.1110203275e-23)
(-0.0110104226218 0.00295225365496 4.54438912805e-23)
(-0.011598499769 0.00248359234635 1.37463813014e-22)
(-0.0108886696096 0.0041391706224 3.17616055983e-23)
(-0.01156367097 0.00355782739989 3.04910916121e-23)
(-0.0106848956189 0.0054923402945 2.30815819447e-23)
(-0.0115053565183 0.00486681879398 3.76517674089e-23)
(-0.0103149394748 0.00708052354237 4.81854393332e-24)
(-0.0113552759986 0.00640536762124 -4.44248496023e-25)
(-0.0096877573675 0.00897034149951 -2.04555983479e-23)
(-0.0110356768929 0.00824961204881 -8.79229392912e-25)
(-0.00868455413938 0.0112459722492 -1.35173855736e-23)
(-0.0104489503505 0.0104925143322 -1.85568618257e-23)
(-0.007148263539 0.0139945443987 1.21180337645e-24)
(-0.00946397885206 0.0132359206629 -2.6957519045e-24)
(-0.00486407559976 0.0173247176463 -5.08663025523e-23)
(-0.00790835605644 0.0166063424255 -8.57007498145e-24)
(-0.00153772343391 0.0213494562539 -3.07132212669e-23)
(-0.00553795645478 0.0207605831293 -1.07543405408e-22)
(-0.00201497743227 0.0258154859314 8.82806287761e-24)
(-0.0121945501552 0.00188831560056 7.69905670842e-23)
(-0.0127198665006 0.00142011633246 6.16114168666e-23)
(-0.0121618203327 0.00296496034301 1.22511013345e-22)
(-0.0126872749367 0.00241468863548 1.58337108719e-22)
(-0.0122129459741 0.00419138777932 3.63812534226e-23)
(-0.0128040982952 0.00349151690925 9.30936900705e-24)
(-0.012245127392 0.00564900380291 1.41259369681e-23)
(-0.0129788593362 0.00483674508337 2.54274765523e-23)
(-0.012183051989 0.00740735063481 -6.14202182226e-24)
(-0.0131307676279 0.00646710441963 6.93636411228e-24)
(-0.0119547699405 0.00956061579033 1.01950712923e-24)
(-0.0132061172426 0.00847557581519 5.95169982445e-25)
(-0.011456660509 0.012227502245 -7.73522815661e-24)
(-0.0131304457427 0.0109850075341 -9.24107979421e-24)
(-0.0105467711455 0.0155440338904 -1.24776302624e-23)
(-0.0127901046137 0.0141357382574 2.94284106562e-23)
(-0.00903135980878 0.01967875368 -6.52471778371e-23)
(-0.0120449388978 0.0181054887955 -8.37445427683e-24)
(-0.0066433064484 0.0248365995567 -6.80021212634e-23)
(-0.0106737783487 0.0231160603976 -7.03686218976e-23)
(-0.0131963129794 0.00179048708864 1.42957958501e-22)
(-0.0136395785913 0.00129597366551 5.43288826279e-23)
(-0.013313850996 0.00281189166606 4.51354643803e-23)
(-0.0137189190569 0.00220379473235 4.22750368786e-23)
(-0.013575561988 0.00402296872744 -1.64440786326e-24)
(-0.0140283037742 0.00321652409761 -9.48871865548e-25)
(-0.0138935503958 0.00549818280111 1.82379036965e-23)
(-0.0144698328479 0.00452122271545 9.07408827696e-24)
(-0.0142128645614 0.00733011949182 1.3673555917e-23)
(-0.0149795265334 0.00614731657222 2.22678600934e-23)
(-0.0144800641103 0.00963349026627 -9.665416941e-24)
(-0.0155261059056 0.00820498892326 -2.20769035511e-25)
(-0.0146222001217 0.0125622710782 2.79225590186e-23)
(-0.0160725098395 0.0108354791825 1.79886962718e-23)
(-0.0145315546564 0.0162805090687 3.35315866418e-23)
(-0.0165155351614 0.0142146752545 1.30298860302e-23)
(-0.0140516309966 0.0210232673632 -1.34958983373e-23)
(-0.0167816037727 0.0185685309129 1.45500243943e-23)
(-0.0167114397575 0.0241762728573 -1.20139542552e-23)
(-0.0137642735392 0.000751056894927 -8.51816810567e-24)
(-0.0138527822292 3.53044014189e-05 -4.58573275365e-25)
(-0.0141177399085 0.00154423818636 -4.63540389944e-23)
(-0.0144390044613 0.00107550492422 -1.00898321974e-22)
(-0.0143964450637 0.00246703486345 -3.80929936722e-24)
(-0.0146513850305 0.00183784099584 1.70419581449e-23)
(-0.0148919649311 0.00358882406614 9.76962427467e-24)
(-0.0151630902941 0.00270906124524 -9.28904296115e-24)
(-0.0155349792901 0.00499191546657 1.31040446739e-23)
(-0.0158883948607 0.00388128900212 1.6095423251e-23)
(-0.0162895310472 0.00678392750099 8.37353514092e-24)
(-0.0167883035558 0.00539231538408 9.3561532411e-24)
(-0.0171308946988 0.00909960723712 2.74333441773e-23)
(-0.0178579290265 0.00735923049927 8.92227247393e-24)
(-0.0180227053777 0.0120897670436 3.09602328332e-24)
(-0.0190759094886 0.00993517721089 4.09673923211e-23)
(-0.0189012531819 0.0159977675541 -5.95167621734e-24)
(-0.0204303917929 0.013324032432 -1.55760221271e-23)
(-0.0196696543911 0.0210727308242 1.60319684764e-23)
(-0.0218653799806 0.0177829270225 2.89928877456e-23)
(-0.0233038979136 0.0236376673284 -1.04671046729e-23)
(-0.0144470246936 0.000594922429858 -9.28387271438e-23)
(-0.0144517269693 -7.44727262565e-05 -9.10652085423e-23)
(-0.0148862490898 0.00118797896383 -3.75023248348e-23)
(-0.0150387888953 0.000758690365476 -9.84896025872e-24)
(-0.0153377362319 0.00192747904534 1.1562214551e-23)
(-0.0154007673178 0.001306270205 1.01533907951e-22)
(-0.0160779145225 0.00286945063941 -2.96324398481e-24)
(-0.0161178219756 0.00195816056267 1.41156446085e-24)
(-0.0170595218674 0.00409525824713 1.23475318182e-23)
(-0.0171293614642 0.00290270395439 2.43996292405e-23)
(-0.0182756037658 0.00571451783278 9.90489057411e-24)
(-0.0184238791253 0.00417608681865 3.56390713476e-24)
(-0.0197335305859 0.00786497259008 2.24563206178e-23)
(-0.020024344357 0.00589704178882 2.14109948856e-23)
(-0.0214330941764 0.0107300356758 2.22953469107e-23)
(-0.0219543118467 0.00822788110342 -1.37437815607e-23)
(-0.0233740873053 0.014546177848 1.93685418358e-23)
(-0.0242720882176 0.0113721482417 2.36700565375e-23)
(-0.0255370278486 0.019608163199 2.49381459625e-24)
(-0.0269340429735 0.0156043826514 3.97514321227e-23)
(-0.0149254722354 0.00034257558022 -8.07544165713e-24)
(-0.0147995551033 -0.000208188677484 5.84991359121e-25)
(-0.0154408136668 0.000703521606821 1.29187272527e-22)
(-0.0154071334655 0.000355400566174 4.94191058637e-23)
(-0.016057566561 0.00119512308744 9.13832578607e-23)
(-0.0159021937214 0.000617028682663 6.31173001296e-23)
(-0.0170324769592 0.00186591988765 2.87744376861e-23)
(-0.0168008774735 0.000974253673379 3.6559933559e-23)
(-0.0183469474037 0.00280067331503 1.5616004557e-23)
(-0.0180784533618 0.00159191249494 1.62652568751e-23)
(-0.0200177020497 0.00410863334082 1.50700114462e-23)
(-0.0197473948125 0.00250584385515 1.25517368482e-23)
(-0.0220837631611 0.00592692371235 -1.47891072929e-23)
(-0.0218579209865 0.00382829534655 1.11904889238e-23)
(-0.0246001551951 0.00843279602864 -1.2369071934e-23)
(-0.0244858690825 0.0057064023063 -2.84445908358e-23)
(-0.0276274613611 0.0118417174051 4.40529468244e-23)
(-0.0277027871914 0.00833752513604 2.3698260062e-23)
(-0.0151366482662 3.85106741039e-05 5.80795388799e-23)
(-0.0148439642796 -0.00036980365843 7.92701831462e-23)
(-0.0157196351733 0.00010875050838 -1.66508665337e-23)
(-0.0154848128102 -0.000125517497545 -6.4588553275e-23)
(-0.0164772180544 0.000269902797358 8.2939758279e-24)
(-0.0160726106252 -0.000205696539319 -2.83832031673e-23)
(-0.0176626504954 0.000587985543469 2.40507527479e-23)
(-0.0171302180262 -0.000218380091955 2.46781330763e-23)
(-0.0192756640739 0.00113192615642 1.32009891662e-23)
(-0.0186354999174 -1.68542538384e-05 2.34329745335e-23)
(-0.02135348009 0.00199475069285 8.67221432574e-24)
(-0.0206245668784 0.00042947247317 2.17846649916e-23)
(-0.0239796660919 0.00330539160452 -2.46499461911e-24)
(-0.0231863773788 0.00120197654653 1.2144209325e-23)
(-0.0272589698884 0.00519576122041 7.62274116012e-24)
(-0.0264022836996 0.0024266119513 7.19261171772e-24)
(-0.0304639336869 0.00428232072088 1.47799390418e-23)
(-0.0150212109005 -0.000294968090625 -4.33979090088e-23)
(-0.0145547488696 -0.000554140023277 -9.81770046022e-23)
(-0.015655139226 -0.000594788058935 -7.63208899086e-23)
(-0.0151918323907 -0.000667336716314 -1.11959211247e-22)
(-0.0165271681357 -0.000809955139337 -1.19990459189e-23)
(-0.0158656610723 -0.00113540318666 -1.19855686564e-22)
(-0.0178798616794 -0.000914311115957 2.40603548619e-23)
(-0.0170356992611 -0.00157686225425 -4.26765881239e-24)
(-0.0197254919981 -0.00085604059168 3.20166503589e-23)
(-0.0187052551701 -0.0018579565357 2.90714793822e-23)
(-0.0221368807468 -0.000550202987424 2.52566599909e-23)
(-0.0209432269692 -0.00197917902301 2.40319054243e-23)
(-0.0252285712386 6.58205176331e-05 2.18018156618e-23)
(-0.0238205957106 -0.00188758223967 1.16711381521e-23)
(-0.0291432653907 0.00116309151439 1.43498095994e-23)
(-0.0275208843927 -0.00148560994004 1.44486873062e-23)
(-0.0322059227031 -0.000642768799137 -2.32805390437e-24)
(-0.0145388517773 -0.000665317832423 -1.6673830684e-22)
(-0.0138944959849 -0.000746962439948 -9.02086280581e-23)
(-0.015200907353 -0.0013552610741 -1.55494007902e-22)
(-0.0145077131174 -0.00124725260507 -1.83276825862e-22)
(-0.0161506407087 -0.00199501477634 -1.12124299457e-22)
(-0.0152327490505 -0.00213534388681 -1.43474346984e-22)
(-0.0176080921207 -0.00257768853301 7.43465707852e-25)
(-0.0164611292234 -0.0030384670302 -2.84085945644e-23)
(-0.0196090560331 -0.00306952684704 2.10867344476e-23)
(-0.0182229367347 -0.00385331312659 1.44195936912e-23)
(-0.0222477939401 -0.00344457296583 1.04463835855e-23)
(-0.0205790266203 -0.00461376639514 1.68665758909e-23)
(-0.0256561803445 -0.00362175227401 4.31800979646e-24)
(-0.0236569229699 -0.00529262738076 1.47209155817e-24)
(-0.030012728955 -0.00353845536563 -2.2291761976e-24)
(-0.0276248429817 -0.00583769385405 9.00945341702e-24)
(-0.0355605225902 -0.00305261616599 -6.98162739801e-24)
(-0.03271918328 -0.00618559917626 -3.71045417193e-24)
(-0.0391976630338 -0.00623727246923 -3.1985043764e-24)
(-0.0136634952058 -0.00106685866955 -1.0674714708e-22)
(-0.0128317585684 -0.000942713682115 2.46578065761e-23)
(-0.0143265471153 -0.00214609607921 -1.71257164944e-22)
(-0.0134330881156 -0.00183748873871 -1.04664443136e-22)
(-0.0153055438307 -0.00324034520366 -5.97586420912e-23)
(-0.0141437844746 -0.00315562536865 -1.35013731052e-22)
(-0.0167984798214 -0.00433029752899 -1.47324665811e-23)
(-0.0153773204464 -0.00453262637739 -3.17663414595e-23)
(-0.0188571893145 -0.00542440366506 1.01994351345e-23)
(-0.0171360663368 -0.00590478263962 9.48832879692e-24)
(-0.0215805555005 -0.00651997646265 7.89228386349e-24)
(-0.0194918221396 -0.0073307788917 1.95132260382e-23)
(-0.0251251209826 -0.00758695958847 6.16353517873e-24)
(-0.0225999431806 -0.008830710488 1.00898973608e-23)
(-0.0296886383116 -0.00860450931631 7.52817544269e-24)
(-0.0266237201233 -0.0103939671804 1.32869042576e-23)
(-0.0355377127553 -0.00954922464536 7.26688496721e-26)
(-0.03179795361 -0.0120254240922 1.39694960936e-23)
(-0.0384459381894 -0.0137279696787 -7.84084955032e-24)
(-0.0123918269382 -0.00144124050995 2.674051052e-23)
(-0.011393620202 -0.00113146259709 1.16660018761e-22)
(-0.0130258405347 -0.00295016022198 -6.84210092439e-23)
(-0.011927490011 -0.00240499788257 1.43678354541e-23)
(-0.0139820314488 -0.00448205854528 -1.0702143042e-22)
(-0.0126154871513 -0.00414043009567 -1.93621578248e-22)
(-0.0154338570041 -0.00607497098401 -7.54554608153e-24)
(-0.0137883796192 -0.0059795484933 -2.40835761768e-23)
(-0.0174337475775 -0.00777991151731 1.88021197007e-23)
(-0.0154356752584 -0.00789276877904 7.61372685836e-24)
(-0.0200921204698 -0.0096066748975 2.17108395356e-23)
(-0.0176703818006 -0.00997723493554 1.82836776841e-23)
(-0.0235644759844 -0.0115973925925 1.72132664398e-23)
(-0.0206156416938 -0.0122894362464 1.59222189692e-23)
(-0.0280649128113 -0.013775324132 1.97282249085e-23)
(-0.0244574684988 -0.0148788088835 2.44696070105e-23)
(-0.033863418655 -0.0161906267824 6.05597769357e-24)
(-0.0294012282392 -0.0178074945744 2.49931335974e-23)
(-0.0357891530471 -0.0211712342759 -2.46648934424e-24)
(-0.0107394015905 -0.00180730227957 1.04287343695e-22)
(-0.00958838657645 -0.00129426457216 1.92453375257e-22)
(-0.0113184080743 -0.00367583031522 -1.1083273355e-22)
(-0.0100609375922 -0.00291791683552 -4.56692036838e-23)
(-0.0121892513817 -0.00562014204762 -1.10683724005e-22)
(-0.0106729695145 -0.00502159947847 -1.11476108787e-22)
(-0.0135135152612 -0.00771132755443 -8.92430323687e-24)
(-0.011698770901 -0.00728705358478 -2.81821977639e-24)
(-0.0153452599901 -0.00999678329211 7.09528484183e-24)
(-0.0131517108934 -0.00970110983582 4.28335578038e-23)
(-0.0177866295329 -0.0125355161189 1.24950571178e-23)
(-0.0151332986085 -0.0123935633246 9.01903329197e-24)
(-0.0209821360836 -0.0154111818497 2.317855954e-23)
(-0.0177421621967 -0.0154562294761 5.77983181263e-23)
(-0.0251320261445 -0.0187226623682 2.97345156994e-23)
(-0.0211523470162 -0.0189942513836 3.58944651043e-23)
(-0.0305041126577 -0.0225617059515 1.64706665596e-23)
(-0.0255755822318 -0.0231406404414 -7.85081724929e-24)
(-0.0312707545 -0.028064177259 4.74723310594e-23)
(-0.00874496541701 -0.00211743301838 4.24968278782e-23)
(-0.00747196784518 -0.0014229157662 -7.95704899561e-23)
(-0.00924103332615 -0.00432060865882 -4.63125789205e-23)
(-0.00785834749256 -0.00335095941291 -2.23552894026e-22)
(-0.00997748121728 -0.00663628277142 -3.61060455879e-24)
(-0.00835720243939 -0.00575137478647 -1.2678379982e-22)
(-0.0110966362082 -0.0091516064195 4.89396412643e-23)
(-0.00918251582437 -0.00837906295758 3.34316622467e-23)
(-0.0126502508809 -0.0119384525433 4.4757306254e-23)
(-0.0103631295729 -0.0112220686295 5.05666381536e-23)
(-0.0147268213992 -0.0151130843461 5.43222943005e-23)
(-0.0119563791435 -0.0144338834269 -7.65138676121e-23)
(-0.0174551917084 -0.0187706340279 7.05142236905e-23)
(-0.0140822264774 -0.0181425496773 9.8490477417e-23)
(-0.0209988153747 -0.0230782509763 -1.69086784446e-24)
(-0.016846267755 -0.0224887130456 -6.83862614862e-23)
(-0.0255885387884 -0.0282166141911 2.31508472505e-23)
(-0.0204382887026 -0.0276745633108 -1.10133774186e-22)
(-0.00641943479312 -0.00235883260518 -3.4562021186e-22)
(-0.00511303322135 -0.00150504457298 -1.27720160729e-22)
(-0.00678399500645 -0.00482765538607 -3.04024114925e-22)
(-0.00538872041988 -0.00368478949638 -2.99551851791e-22)
(-0.0073455458134 -0.00743475104905 -8.97415330148e-23)
(-0.00574817110767 -0.00632103982233 -1.06283473972e-22)
(-0.00819773914912 -0.0102932793633 3.5058659136e-23)
(-0.0063206381273 -0.00922271910432 7.47960762284e-24)
(-0.00937978386563 -0.0134986400326 -7.07045357124e-23)
(-0.00715299773772 -0.0123956587513 1.28990252816e-23)
(-0.0109619236671 -0.0171781625147 -3.23456844956e-23)
(-0.00827094008933 -0.0160089947019 -2.22731859848e-24)
(-0.013041011613 -0.0214918270879 -4.04100077598e-23)
(-0.00976224677908 -0.0202134600233 9.96363454041e-24)
(-0.0157547202783 -0.0266171861892 -1.76829167828e-22)
(-0.0117144387134 -0.0251923735807 -5.39962967621e-23)
(-0.0142538484974 -0.031185128501 -6.23636871122e-23)
(-0.00391610013845 -0.00253120561082 -8.16518006607e-23)
(-0.00258077552046 -0.00149107006237 6.57460488653e-23)
(-0.00415668979522 -0.00518941108581 -1.01811210838e-22)
(-0.00272854204788 -0.00386426219026 -9.85617198945e-23)
(-0.00449920862918 -0.00802020604246 -9.06233333418e-24)
(-0.00291394807323 -0.00665201860421 1.01059580201e-22)
(-0.00502843321536 -0.0111322963471 -1.46800262316e-23)
(-0.00320338326672 -0.00970227214304 3.97223988981e-23)
(-0.00576880222784 -0.0146492810792 8.13762423955e-23)
(-0.0036291463239 -0.0130667333043 9.48786518851e-24)
(-0.00675726870509 -0.0186965757341 4.00820004375e-23)
(-0.00421545352268 -0.0169110521702 7.44743993356e-24)
(-0.00806242558447 -0.0234714253708 -3.62265446191e-24)
(-0.00497838764471 -0.021414824152 3.7639703977e-23)
(-0.00976948918757 -0.0291920650615 6.0469183954e-23)
(-0.00598350079747 -0.0267777393005 4.6429271471e-23)
(-0.00730493404188 -0.0332617400005 -7.30352252008e-23)
(-0.00154847677719 -0.00257986495853 4.88361296315e-23)
(-0.00167975905946 -0.00530683406484 1.04309071144e-22)
(-0.00180713818555 -0.00821834393051 1.49844312433e-22)
(-0.00199268685301 -0.0114183694261 6.38902903181e-23)
(-0.00224702473086 -0.0150433857081 -6.44409372734e-23)
(-0.00258265472558 -0.0192541176944 5.00514347305e-24)
(-0.00302917554721 -0.0242270899103 8.76916299098e-23)
(-0.003611022248 -0.0302039665551 -8.70751376838e-23)
)
;

boundaryField
{
    back
    {
        type            calculated;
        value           uniform (0 0 0);
    }
    sides
    {
        type            calculated;
        value           uniform (0 0 0);
    }
    bottom
    {
        type            calculated;
        value           uniform (0 0 0);
    }
    front
    {
        type            calculated;
        value           uniform (0 0 0);
    }
    atmosphere
    {
        type            calculated;
        value           nonuniform List<vector> 0();
    }
    floatingObject
    {
        type            calculated;
        value           nonuniform List<vector> 0();
    }
    procBoundary10to9
    {
        type            processor;
        value           nonuniform List<vector> 
15
(
(-0.00925473437993 0.00322007883197 -7.32590223781e-23)
(-0.00891285300707 0.00427802182974 9.29052108913e-24)
(-0.00836812096222 0.00543449149542 -5.63309574911e-24)
(-0.00755652395798 0.00671559193585 4.20604260719e-24)
(-0.00633165287282 0.00814877837221 1.65647842149e-23)
(-0.00458581963798 0.00975980659737 2.00004191751e-23)
(-0.00212585724105 0.011571445428 -3.11205886035e-24)
(0.00130514790398 0.0136134529076 -2.31549693162e-23)
(-0.010773883281 0.00144790692442 -7.10849242509e-23)
(-0.00991696865371 0.0028282788843 -1.00671685227e-22)
(-0.0105192361039 0.0024364759072 -2.17543560963e-23)
(-0.0110272459704 0.000960827447296 -2.35559340998e-23)
(-0.0119998279841 0.000953168698574 1.04104350776e-22)
(-0.0129297976618 0.000870282253974 1.62197009567e-22)
(-0.0131059218292 0.000112577075645 9.93499588338e-23)
)
;
    }
    procBoundary10to11
    {
        type            processor;
        value           nonuniform List<vector> 
23
(
(0.0021923054839 0.0170420662817 -3.66039327999e-23)
(0.00280053704594 0.0211169929305 3.06588334818e-24)
(0.00324775437308 0.0261634207916 -1.85925423637e-22)
(-0.00299048369133 0.0312330261038 -2.46190281933e-22)
(-0.00839148387155 0.0293972945671 3.72409397328e-23)
(-0.012960032405 0.0270717629333 3.48744390986e-23)
(-0.0201785528373 0.0276756138515 -2.67964846917e-23)
(-0.027864360886 0.0263224090147 -1.75525880892e-22)
(-0.0300236014181 0.0212851882987 -1.06815398699e-22)
(-0.0312336795928 0.0165027620727 -6.95577811723e-23)
(-0.0316214725043 0.0119883523915 2.18605198877e-23)
(-0.0313129122149 0.00792675103311 1.50583312535e-24)
(-0.034068331012 0.00287161672753 1.72877353304e-23)
(-0.0381214950113 0.00081075716845 1.26341618367e-23)
(-0.0426071944013 -0.00202450388254 -8.82024013824e-24)
(-0.0430358310392 -0.0103275888689 -3.68856264414e-23)
(-0.041322594251 -0.0188699790242 -8.87168668062e-24)
(-0.0374388597173 -0.0270937302232 1.61580385708e-23)
(-0.0315269614989 -0.0344084310201 8.15515253721e-23)
(-0.0250885054769 -0.0339412028974 1.27526264511e-22)
(-0.0192769663634 -0.0327980281863 -5.75835692586e-24)
(-0.0119869775857 -0.0361314587945 -2.12202749477e-23)
(-0.00436359175353 -0.0375060735636 -6.746016848e-23)
)
;
    }
}


// ************************************************************************* //
