/*--------------------------------*- C++ -*----------------------------------*\
| =========                 |                                                 |
| \\      /  F ield         | OpenFOAM: The Open Source CFD Toolbox           |
|  \\    /   O peration     | Version:  v2012                                 |
|   \\  /    A nd           | Website:  www.openfoam.com                      |
|    \\/     M anipulation  |                                                 |
\*---------------------------------------------------------------------------*/
FoamFile
{
    version     2.0;
    format      ascii;
    class       volVectorField;
    location    "3.2";
    object      U;
}
// * * * * * * * * * * * * * * * * * * * * * * * * * * * * * * * * * * * * * //

dimensions      [0 1 -1 0 0 0 0];


internalField   nonuniform List<vector> 
167
(
(-0.0388522267135 -0.00744376240644 5.96486964678e-23)
(-0.0391147623205 -0.00969381639826 -2.81010038436e-23)
(-0.0393173364279 -0.0119747152053 -1.05552301097e-23)
(-0.0395104957081 -0.0142883010823 2.46601625498e-24)
(-0.039696853102 -0.0166461309831 1.45479342653e-23)
(-0.0398690596707 -0.019053576733 3.09259339885e-23)
(-0.0400051155006 -0.0215117987578 1.26778431399e-23)
(-0.0400798929914 -0.0240218817144 -7.12489931092e-24)
(-0.0354178711268 -0.00315002772254 1.34917769131e-22)
(-0.0361860621956 -0.00534503306477 -3.82398196849e-23)
(-0.036617875663 -0.00756661544919 -1.78907802238e-23)
(-0.0368440360286 -0.00983974374203 -5.17137636316e-23)
(-0.0370096039925 -0.0121344594275 -1.12324845455e-23)
(-0.0371632780474 -0.0144554364064 -1.38143963216e-24)
(-0.0373128873033 -0.0168079801092 5.92153834961e-24)
(-0.0374446889419 -0.019189178057 2.60185024626e-23)
(-0.0375405549889 -0.0215984229893 1.11267921158e-23)
(-0.0375742456129 -0.0240314824568 1.3324467522e-24)
(-0.0374997832443 -0.0264785333438 -1.75014773806e-23)
(-0.0332460501347 -0.00319974340126 1.9600607587e-22)
(-0.0339593711912 -0.00542295381486 -1.19673010275e-23)
(-0.0343528096704 -0.00766878824946 6.01935470929e-23)
(-0.0345512743813 -0.00995823863729 -2.08088533113e-23)
(-0.0346930923107 -0.012267108167 -1.06560421862e-23)
(-0.034823609068 -0.0145923848465 -6.66325560151e-24)
(-0.0349476824968 -0.0169367814665 -3.54538370944e-24)
(-0.035055874172 -0.0192962985361 -1.02484811853e-24)
(-0.0351351895404 -0.0216642809856 1.82269472218e-24)
(-0.0351635274183 -0.0240278854223 -2.83644921316e-24)
(-0.0351058020843 -0.0263729536895 -2.06244343863e-23)
(-0.0310415851985 -0.00324452118635 3.63226860393e-22)
(-0.0317054796647 -0.00548626196873 1.88649230864e-22)
(-0.0320656209632 -0.00775567058752 1.37652214014e-22)
(-0.0322447287024 -0.0100641793266 7.12445279378e-24)
(-0.0323710850921 -0.0123842885903 -2.99517871012e-23)
(-0.0324878165785 -0.0147122336507 -7.76391313851e-24)
(-0.0326007374282 -0.0170509093102 -1.16315979776e-24)
(-0.0326974596474 -0.0193939500462 -2.62768762914e-23)
(-0.0327758974425 -0.0217312733567 -6.41660576854e-24)
(-0.0328197976803 -0.0240493943769 -1.27460518266e-23)
(-0.0279549972795 -0.00112607239304 6.08007941443e-22)
(-0.0288150912152 -0.00328019512453 6.27299744582e-22)
(-0.0294298862159 -0.00554305813563 3.1799289949e-22)
(-0.0297625404446 -0.00783364243764 1.23645995702e-22)
(-0.029926252289 -0.0101580680004 5.30511389074e-24)
(-0.0300418149147 -0.0124912193895 -2.08843580043e-23)
(-0.0301502309307 -0.0148263385999 -5.69815561035e-24)
(-0.0302567296179 -0.0171596824022 -9.27273667291e-25)
(-0.0303559295573 -0.0194920893159 1.20622474149e-23)
(-0.0304470486954 -0.02181426796 -1.28583161949e-23)
(-0.0305188279821 -0.0241059988039 3.26957049431e-24)
(-0.0257814717596 -0.00113284447453 5.94140688552e-22)
(-0.0265717672394 -0.00331068934487 6.50579164493e-22)
(-0.0271350160291 -0.00559428703661 2.87974636636e-22)
(-0.0274409454689 -0.00790419532019 1.55916774342e-22)
(-0.0275937281985 -0.0102449661743 -1.73148096527e-24)
(-0.0277024117854 -0.0125906162233 -9.46437132698e-24)
(-0.0278064882728 -0.0149324265613 -7.94354917295e-24)
(-0.0279139342257 -0.0172724449027 -6.33851754057e-24)
(-0.0280284795649 -0.0196081012195 -2.78366532314e-23)
(-0.0281383988952 -0.0219228205676 -1.09926881832e-23)
(-0.0282445717628 -0.0242025976104 2.16650666456e-23)
(-0.0235818492229 -0.00114165540875 3.79791717415e-22)
(-0.0243056111595 -0.00333986394165 5.87735036179e-22)
(-0.024819846425 -0.00564011760685 2.8499264755e-22)
(-0.0251039423006 -0.00797123115319 1.30379535985e-22)
(-0.0252459369122 -0.0103286022767 5.65185838982e-24)
(-0.0253501332269 -0.0126876905148 -1.26786002507e-23)
(-0.0254560987642 -0.0150445731259 -9.57083469454e-24)
(-0.0255725300181 -0.0173988075123 3.89800654016e-23)
(-0.025699320863 -0.0197386626058 -2.17195585592e-23)
(-0.0258360354181 -0.0220579104173 -1.70484480437e-23)
(-0.0213620028144 -0.00115207964128 5.57778986862e-22)
(-0.0220159406908 -0.00336924784333 8.47499463763e-22)
(-0.0224877201951 -0.00568705408347 5.32814946194e-22)
(-0.0227486033622 -0.00803684507243 2.16571945425e-22)
(-0.0228814177607 -0.0104074891524 4.0737715701e-23)
(-0.0229849174534 -0.0127852305664 -6.58730088469e-24)
(-0.0230962445215 -0.0151606470933 4.77920673479e-24)
(-0.0232176031475 -0.0175293289616 3.47028031504e-24)
(-0.0233579669153 -0.0198895876218 -9.95653914899e-24)
(-0.0191263094952 -0.00115766851463 8.97332379949e-22)
(-0.01970998458 -0.00339984522869 1.11996140058e-21)
(-0.0201380959612 -0.0057337761353 7.2643438981e-22)
(-0.0203738997521 -0.00809858193195 3.15574564264e-22)
(-0.0205013062545 -0.0104879911477 3.48538515771e-23)
(-0.0206056536313 -0.0128874071255 1.79943974417e-23)
(-0.020713915041 -0.0152789692018 9.40172930192e-24)
(-0.0208404512354 -0.0176671338648 5.74663739279e-24)
(-0.0209931528835 -0.0200494510608 1.09442785794e-24)
(-0.0168716690149 -0.00116606156606 9.41854699999e-22)
(-0.0173901043261 -0.00342992027887 1.16553186349e-21)
(-0.0177690171629 -0.00577894663908 8.94257114748e-22)
(-0.0179838125203 -0.008161240244 3.95036169072e-22)
(-0.0181036058497 -0.0105698466229 1.05156796995e-22)
(-0.0182023489761 -0.0129820509971 2.22201415968e-23)
(-0.0183063315438 -0.0153931042065 7.95390125257e-24)
(-0.0184352529042 -0.0178087221613 6.71332308859e-24)
(-0.018595328103 -0.020227539776 1.01441860159e-23)
(-0.018792779877 -0.0226425371255 -1.76194312469e-23)
(-0.0145986054578 -0.00117901993356 5.66814172404e-22)
(-0.0150540802607 -0.00346048954883 1.05842929508e-21)
(-0.0153874338088 -0.0058233315295 8.09800353558e-22)
(-0.0155787358201 -0.00822194546134 4.12707956345e-22)
(-0.0156885213578 -0.0106438353038 1.22692308099e-22)
(-0.0157786104915 -0.0130734552742 3.58847808621e-23)
(-0.0158822769122 -0.01550712935 1.64433290484e-24)
(-0.0160010795726 -0.0179524611086 1.85920999831e-23)
(-0.0161592514591 -0.0204019124803 1.16504463416e-23)
(-0.0163569921828 -0.022857049993 4.48501273322e-24)
(-0.0123021231108 -0.00119751164726 3.97289955786e-22)
(-0.0126966274516 -0.00349601211417 9.04068253804e-22)
(-0.0129935525842 -0.0058654210587 8.10653644322e-22)
(-0.0131600452606 -0.0082762279897 4.08231008659e-22)
(-0.013257844029 -0.0107115832036 1.59975134621e-22)
(-0.0133394542791 -0.0131573923115 6.74296096372e-23)
(-0.0134332026575 -0.0156061026375 4.47917248384e-23)
(-0.013546042648 -0.0180769642903 3.79789022383e-23)
(-0.0136825522677 -0.0205702171918 2.17702189829e-23)
(-0.0138635950495 -0.0230737097471 3.27552942569e-23)
(-0.00997284493388 -0.00122440332394 3.83057451486e-22)
(-0.0103190328202 -0.0035351123512 9.79721560771e-22)
(-0.0105880033569 -0.00590471051599 7.95846092666e-22)
(-0.01073933935 -0.00831672383218 4.05579280806e-22)
(-0.0108168882268 -0.0107609416113 1.8620521443e-22)
(-0.0108841490858 -0.0132180675972 1.39587348455e-22)
(-0.0109576055204 -0.0156877898666 1.01628889126e-22)
(-0.011057409988 -0.018174642618 1.12634709998e-22)
(-0.0111751838014 -0.0206891463627 9.32015912871e-23)
(-0.0113214140192 -0.0232353986683 5.94296330312e-23)
(-0.00760633930746 -0.00125973478984 7.780960063e-22)
(-0.00793966500521 -0.00356030612039 1.21592445382e-21)
(-0.0081866619746 -0.00592734642595 7.9335128715e-22)
(-0.00831370296603 -0.00832194580006 3.77455758373e-22)
(-0.0083675259087 -0.010756308281 1.69902301234e-22)
(-0.00841263882516 -0.0132155162684 2.30078434967e-22)
(-0.00846276196337 -0.0156921884194 1.52594403457e-22)
(-0.00853492722854 -0.0181945665013 2.6138314136e-22)
(-0.00862976793974 -0.0207198674311 2.47972225167e-22)
(-0.0087407255618 -0.0232783517763 1.00299012277e-22)
(-0.00523866037045 -0.00125743278691 1.27423872898e-21)
(-0.00559994309204 -0.0035168235172 1.50597736699e-21)
(-0.00582465046573 -0.00585449759041 9.44883163669e-22)
(-0.00590818786904 -0.00822209265118 4.23881788076e-22)
(-0.00593280906843 -0.0106368229822 3.59985480693e-22)
(-0.00594987635329 -0.013077593019 4.52978753709e-22)
(-0.00598233585965 -0.0155402469544 3.35152839108e-22)
(-0.00602818813222 -0.0180305380568 5.11584180069e-22)
(-0.00608736899451 -0.0205422278468 4.8536077525e-22)
(-0.0029138990548 -0.00115363388788 6.46091148928e-22)
(-0.00330655948278 -0.00332123318473 9.63645101036e-22)
(-0.00349290115208 -0.00561055283885 5.77916894457e-22)
(-0.00353813288276 -0.00795037402622 3.83809216727e-22)
(-0.00353211949496 -0.0103324713597 4.29024040574e-22)
(-0.00353238949285 -0.0127347511542 5.07626241932e-22)
(-0.00355002969869 -0.015149361608 4.87362109124e-22)
(-0.00357311456624 -0.0175810929223 6.02328183233e-22)
(-0.00360677433824 -0.0200336398131 5.98057670252e-22)
(-0.000832896099118 -0.00084924436457 2.30994509125e-22)
(-0.0011345954474 -0.00289473851789 4.24558111311e-22)
(-0.00123919275416 -0.005206246411 2.82457104836e-22)
(-0.00123932372537 -0.007546096446 3.62125925272e-22)
(-0.00120296412487 -0.00989250601476 4.77336748003e-22)
(-0.00118780951174 -0.0122302865675 6.81272044128e-22)
(-0.00118188163371 -0.0145533906313 4.95930263346e-22)
(-0.00118059631813 -0.0168912618136 1.00644981896e-21)
(-0.00118981012482 -0.0192499259733 1.01950823444e-21)
)
;

boundaryField
{
    back
    {
        type            noSlip;
    }
    sides
    {
        type            noSlip;
    }
    bottom
    {
        type            noSlip;
    }
    front
    {
        type            noSlip;
    }
    atmosphere
    {
        type            pressureInletOutletVelocity;
        value           nonuniform List<vector> 0();
    }
    floatingObject
    {
        type            movingWallVelocity;
        value           nonuniform List<vector> 0();
    }
    procBoundary10to9
    {
        type            processor;
        value           nonuniform List<vector> 
15
(
(-0.0410554802608 -0.00729166043556 9.30082292138e-23)
(-0.0413594418801 -0.00950840835932 -2.71240010446e-23)
(-0.0416061674484 -0.0117651515799 -1.49220923234e-23)
(-0.0418512072031 -0.0140741894577 -5.47365415439e-25)
(-0.0420932388318 -0.0164405612779 1.55130876416e-23)
(-0.0423260836246 -0.0188680974032 4.48339172215e-23)
(-0.0425276148397 -0.0213677783351 1.26321949351e-23)
(-0.0426802974332 -0.0239476313956 -1.15307662323e-23)
(-0.0375545642958 -0.00309269120848 2.12479120001e-22)
(-0.038380396952 -0.00525247263463 1.13756260892e-22)
(-0.038380396952 -0.00525247263463 1.13756260892e-22)
(-0.0343543473159 -0.00107859386827 -1.50235289963e-24)
(-0.0322451867036 -0.00109653872765 3.75814770348e-23)
(-0.0301084103648 -0.00111356575631 2.73465177491e-22)
(-0.0301084103648 -0.00111356575631 2.73465177491e-22)
)
;
    }
    procBoundary10to11
    {
        type            processor;
        value           nonuniform List<vector> 
23
(
(-0.0400491579582 -0.0265800156712 -1.41992953036e-23)
(-0.0400491579582 -0.0265800156712 -1.41992953036e-23)
(-0.0372428299269 -0.0289482609969 -1.09288291518e-22)
(-0.034903829845 -0.0286720522783 -1.42181060673e-22)
(-0.0328076345493 -0.0263360492597 -6.04486480532e-23)
(-0.0328076345493 -0.0263360492597 -6.04486480532e-23)
(-0.0305550413784 -0.0263617811876 -2.81624193545e-23)
(-0.0283310714477 -0.0264446927425 -1.05599718734e-23)
(-0.0259793159583 -0.0243420886369 2.22371284274e-23)
(-0.0259793159583 -0.0243420886369 2.22371284274e-23)
(-0.023519618161 -0.0222246750907 9.53545178089e-25)
(-0.023519618161 -0.0222246750907 9.53545178089e-25)
(-0.0211761048371 -0.0224134533332 -1.30469044595e-23)
(-0.0211761048371 -0.0224134533332 -1.30469044595e-23)
(-0.019037733342 -0.0250436272261 -3.92423301061e-23)
(-0.016604044756 -0.0253302176311 -2.63010212532e-23)
(-0.0140940870879 -0.0256021430847 6.93209970041e-24)
(-0.0115071607923 -0.0258218761157 7.0705579517e-23)
(-0.00887369884401 -0.0258847616528 1.67542388692e-22)
(-0.00615897247109 -0.0230839409521 2.42572467237e-22)
(-0.00615897247109 -0.0230839409521 2.42572467237e-22)
(-0.00364614556989 -0.0225149400992 5.24627041482e-22)
(-0.00120256497981 -0.0216236485252 7.15951001189e-22)
)
;
    }
}


// ************************************************************************* //
