/*--------------------------------*- C++ -*----------------------------------*\
| =========                 |                                                 |
| \\      /  F ield         | OpenFOAM: The Open Source CFD Toolbox           |
|  \\    /   O peration     | Version:  v2012                                 |
|   \\  /    A nd           | Website:  www.openfoam.com                      |
|    \\/     M anipulation  |                                                 |
\*---------------------------------------------------------------------------*/
FoamFile
{
    version     2.0;
    format      ascii;
    class       volVectorField;
    location    "0.3";
    object      U_0;
}
// * * * * * * * * * * * * * * * * * * * * * * * * * * * * * * * * * * * * * //

dimensions      [0 1 -1 0 0 0 0];


internalField   nonuniform List<vector> 
164
(
(0.0761715569861 -0.0365731363393 -3.86889237373e-24)
(0.0755812532588 -0.0418890720165 8.03484984822e-25)
(0.0746605826192 -0.047462533267 8.91290821392e-25)
(0.0733302391112 -0.0532739813278 -2.71114190302e-24)
(0.0715081687349 -0.0592866525064 -1.49078235475e-23)
(0.0691128707312 -0.0654443448129 -6.17656505962e-24)
(0.0660679181387 -0.0716692580941 -3.4829664409e-23)
(0.0623063098721 -0.0778644764024 -2.46604953782e-23)
(0.0577790194041 -0.0839480050414 6.17171742761e-23)
(0.0525176710898 -0.0896534033449 -5.95859201178e-24)
(0.0457354345533 -0.0932480346843 3.69490916635e-23)
(0.0313739879019 -0.101133967822 -2.31798649901e-21)
(0.0814761164012 -0.0369070658991 -5.47964656029e-24)
(0.0811826501538 -0.0425188802082 -2.5996830511e-24)
(0.0805498326164 -0.0484722485537 5.02817853874e-24)
(0.0794812499061 -0.054752725092 2.7376485272e-24)
(0.0778750981375 -0.0613256522745 -5.69153826957e-24)
(0.0756276880022 -0.0681328596088 9.76423951717e-24)
(0.0726386535006 -0.0750887013203 -1.73729419148e-23)
(0.0688161730836 -0.0820825596298 -6.23292079343e-24)
(0.0640889914686 -0.0890237271961 1.92548410179e-22)
(0.0584956274538 -0.0955805611012 4.31537910475e-22)
(0.0511875025912 -0.0997369067672 4.36005304641e-22)
(0.0359576294153 -0.109222054013 -5.62332174473e-21)
(0.0868734183354 -0.0491634261798 5.25582293869e-24)
(0.0861663843416 -0.0559479489795 5.56784772615e-24)
(0.0848773363758 -0.0631391618455 5.68378360828e-24)
(0.0828755093612 -0.0706795860589 2.01268806484e-23)
(0.0800301985996 -0.0784771625994 -2.12658586687e-24)
(0.0762169456193 -0.086407658578 3.92953779031e-23)
(0.0713341707596 -0.0943740364108 3.12772649649e-22)
(0.0654268062869 -0.101960458277 1.19356820766e-21)
(0.0575873840217 -0.106819030958 2.17429001873e-21)
(0.041660855316 -0.118405716064 -2.28615015804e-21)
(0.0936530360112 -0.0494291085822 8.75414057565e-24)
(0.09343021823 -0.0567478790409 -1.09146289158e-23)
(0.0925860777478 -0.0646152012423 5.542763787e-24)
(0.0909569220772 -0.0729784737724 4.2924527364e-24)
(0.0883741960568 -0.0817422585694 -4.49401386276e-23)
(0.0846709853385 -0.0907704135205 2.36169205856e-23)
(0.0797047440361 -0.099964912242 2.10785034346e-22)
(0.0735245114765 -0.108800422331 1.16700668201e-21)
(0.0651716799917 -0.114542289939 4.00328812957e-22)
(0.0489335322081 -0.128953149822 -6.02543949021e-21)
(0.100902125187 -0.0491396795226 1.12738624411e-23)
(0.101312900236 -0.0570136885267 -1.88870495195e-23)
(0.101073460208 -0.0656107104019 1.08393825351e-23)
(0.0999809233376 -0.0748894428926 -4.48483088488e-24)
(0.0978200620109 -0.084756144854 -7.98490303333e-23)
(0.0943697121932 -0.0950673588489 -7.96579258854e-24)
(0.089433153696 -0.105734680117 2.29755694678e-22)
(0.0830605135759 -0.116092946228 -5.03022253595e-22)
(0.0742342988924 -0.12295480181 3.60634110876e-23)
(0.0584479226376 -0.141231008664 -6.32820634973e-21)
(0.108620932174 -0.0481396433415 2.98505714815e-24)
(0.109845227356 -0.0565747927518 -3.0149565503e-23)
(0.110408028896 -0.0659447813567 4.82228911613e-23)
(0.110061650026 -0.0762290520831 -4.33970475402e-24)
(0.10853378627 -0.087343838227 -3.69102409807e-23)
(0.105535482394 -0.0991468191202 5.1742110095e-23)
(0.100799513789 -0.111575147145 3.90562677055e-22)
(0.0943759926382 -0.123782119431 1.35791835789e-21)
(0.0851516873777 -0.132099324705 1.9054949398e-21)
(0.0712830512325 -0.1557730945 3.87011424011e-21)
(0.116790035931 -0.0462449826668 -1.83230928118e-23)
(0.119041589028 -0.0552238905583 -6.81049297324e-24)
(0.120648058494 -0.0653908356011 -4.47080490435e-23)
(0.121312139138 -0.076759624873 1.8015015849e-23)
(0.120694068834 -0.0892691807493 7.17545443109e-23)
(0.118421101395 -0.102792878407 1.05169963956e-22)
(0.114131659597 -0.117309589763 4.75536317671e-22)
(0.107871511463 -0.131708961892 3.95220718393e-21)
(0.0984494774005 -0.142062742534 3.86703015558e-21)
(0.0891421320531 -0.173343372471 2.23711536093e-20)
(0.125361961319 -0.0432412387262 2.88175830963e-23)
(0.128890345662 -0.0527124706357 -4.89654376907e-23)
(0.13183118774 -0.0636690919017 2.63161024366e-23)
(0.133834472254 -0.0761770417539 1.74209262294e-23)
(0.134485055499 -0.0902175764854 5.13273060425e-23)
(0.133308154417 -0.105708677627 1.10280300696e-22)
(0.129816663399 -0.122675261399 2.60044823609e-22)
(0.124035690292 -0.139578883693 4.28214815325e-22)
(0.114735534992 -0.153411824198 1.21890265212e-21)
(0.114279996907 -0.193538276426 5.57541103807e-21)
(0.134250663332 -0.0388834883842 -8.05157362893e-23)
(0.139341182723 -0.0487479727063 -1.7673983266e-23)
(0.143959826889 -0.0604389564367 -7.02359173764e-23)
(0.147704798382 -0.07409659341 3.77591472029e-23)
(0.150081939299 -0.0897742318707 6.46378610532e-23)
(0.150499592795 -0.107482331951 -2.74101945052e-23)
(0.148318633754 -0.127267470433 7.14113900639e-22)
(0.143507155701 -0.147107788145 3.33488311423e-21)
(0.134859953197 -0.166502540312 -4.96546744552e-21)
(0.148061002412 -0.215688202217 1.92188662631e-20)
(0.143318829175 -0.0328987705269 1.98717299908e-23)
(0.150288968369 -0.0429932746408 -2.84641155842e-23)
(0.156981272504 -0.0552938085297 5.99644345668e-23)
(0.162949843277 -0.070040922083 -1.33649837364e-22)
(0.167625328363 -0.0873995768275 6.73141530685e-23)
(0.170295395312 -0.107533027958 3.59331459754e-22)
(0.170156394245 -0.130490577179 6.33095711238e-22)
(0.16710047036 -0.154028781222 -4.12033854098e-22)
(0.159968933138 -0.180725192901 -1.73220430748e-20)
(0.192545011259 -0.241907188423 -2.03023556309e-20)
(0.152363362756 -0.0249925768806 -2.75697750384e-24)
(0.161554353691 -0.0350711899665 -5.70238621296e-23)
(0.170762346741 -0.0477612201027 2.5546689009e-22)
(0.179514706617 -0.0634319940069 -3.11458605861e-22)
(0.18718257683 -0.0824071397494 -1.98653345036e-23)
(0.192945513526 -0.105068036522 3.58920651678e-22)
(0.195876361047 -0.131503496586 1.00596238772e-21)
(0.195875171307 -0.159772528934 -3.20354464543e-22)
(0.191580011177 -0.196222884671 -2.78051730757e-20)
(0.250891561572 -0.270491619253 4.58172608957e-21)
(0.161100189872 -0.0148602704237 -2.06525922834e-22)
(0.172861552404 -0.0245749553858 -1.23156368343e-22)
(0.185058150805 -0.0373101671697 -3.17626222636e-22)
(0.197220379277 -0.0535923124176 -1.67570091911e-22)
(0.208690540055 -0.0739522727367 -5.64528054226e-22)
(0.218565568367 -0.0990207049974 -3.59710922734e-22)
(0.225957545793 -0.129028117501 1.423630582e-21)
(0.231269307695 -0.163462498612 2.54635371272e-22)
(0.231112027489 -0.212935076028 -1.03582120753e-20)
(0.320676869081 -0.29426740745 5.79589090171e-20)
(0.169144116785 -0.00220357580761 -2.3265144163e-23)
(0.183815946487 -0.0110887026605 -9.38045426388e-23)
(0.19948075406 -0.0233725627672 2.44252093822e-22)
(0.215719395723 -0.0397651462261 -1.34446061947e-22)
(0.231895980995 -0.0610542435456 6.79499139789e-22)
(0.24705511536 -0.0880503820077 3.27205277442e-22)
(0.260741730199 -0.121157955537 5.60874236731e-22)
(0.274254674864 -0.164903025016 4.77029526534e-21)
(0.276433132941 -0.225980343753 -3.30682018688e-20)
(0.373880380775 -0.218622949604 1.19650261299e-20)
(0.176021587727 0.0132390329721 -1.97409368015e-22)
(0.193882208699 0.00578953014792 1.7477620772e-23)
(0.213448042538 -0.00536984424478 -8.65080555903e-23)
(0.234409628179 -0.0211320991307 -2.86044568347e-22)
(0.256229173434 -0.0425948767738 -2.28711407305e-22)
(0.277976701361 -0.0705304052913 4.64961456356e-22)
(0.300337293109 -0.10605434002 6.41904278088e-23)
(0.324422359556 -0.162974500934 -2.74945192153e-21)
(0.32672154991 -0.230087507964 1.21959190042e-20)
(0.345349023335 -0.247861923932 8.28567474779e-21)
(0.181117082432 0.0316741194875 -6.81825191791e-23)
(0.202388203418 0.0263726230183 -2.31680145082e-23)
(0.226228636823 0.0171915046523 6.40677494137e-23)
(0.25250647822 0.00305721833281 -3.0257409421e-23)
(0.28096266308 -0.0175074495938 7.84608427534e-23)
(0.310748688262 -0.0448737803561 -1.23870662374e-21)
(0.343727880363 -0.0810771723955 -8.32041346292e-21)
(0.38259054568 -0.149933543258 7.78497949321e-21)
(0.39343100004 -0.228868526887 -1.09869265814e-21)
(0.363679423246 -0.265897382019 -1.4921036511e-21)
(0.183734564924 0.0532047896497 8.1432333599e-23)
(0.208485246012 0.050915430701 -4.88693101965e-23)
(0.236728538492 0.0447638939245 1.48346083879e-22)
(0.268555252768 0.0336435809644 1.33887710045e-22)
(0.304151997377 0.0157042850652 6.63247168027e-22)
(0.343315761832 -0.00939881495121 2.91701690977e-21)
(0.386101085257 -0.0408715144748 -2.32215800954e-21)
(0.448684491033 -0.124176486575 -8.68677523826e-21)
(0.476346996545 -0.207057838472 -8.09983960198e-21)
(0.397630776352 -0.255498643039 -5.82791724313e-21)
)
;

boundaryField
{
    back
    {
        type            noSlip;
    }
    sides
    {
        type            noSlip;
    }
    bottom
    {
        type            noSlip;
    }
    front
    {
        type            noSlip;
    }
    atmosphere
    {
        type            pressureInletOutletVelocity;
        value           nonuniform List<vector> 
16
(
(0 -0.101133967822 0)
(0 -0.109222054013 0)
(0 -0.118405716064 0)
(0 -0.128953149822 0)
(0 -0.141231008664 0)
(0 -0.1557730945 0)
(0 -0.173343372471 0)
(0 -0.193538276426 0)
(0 -0.215688202217 0)
(0 -0.241907188423 0)
(0 -0.270491619253 0)
(0 -0.29426740745 0)
(0 -0.218622949604 0)
(0 -0.247861923932 0)
(0 -0.265897382019 0)
(0 -0.255498643039 0)
)
;
    }
    floatingObject
    {
        type            movingWallVelocity;
        value           nonuniform List<vector> 0();
    }
    procBoundary5to0
    {
        type            processor;
        value           nonuniform List<vector> 
12
(
(0.071124184809 -0.0359828382253 2.3075074871e-24)
(0.0703099183315 -0.0410082273697 2.03134662848e-24)
(0.0691792732049 -0.0462217218769 4.79266613626e-24)
(0.0676675336478 -0.0516009779659 8.06200279072e-24)
(0.0657090705926 -0.0571091536318 1.25490407031e-24)
(0.0632403440404 -0.0626935954152 2.59178331461e-23)
(0.0602036414559 -0.0682847511052 -2.49147589467e-23)
(0.0565506920327 -0.0737986258429 -4.95290072743e-24)
(0.0522486377094 -0.07916265287 9.20064303342e-23)
(0.0473225123796 -0.0841612659206 7.97534986939e-23)
(0.0410459169306 -0.0873032022 2.20873190454e-22)
(0.0276116995431 -0.0939464003497 -2.8562597389e-21)
)
;
    }
    procBoundary5to3
    {
        type            processor;
        value           nonuniform List<vector> 10((0.1830907755 0.0778140098109 1.16708506236e-22) (0.211287195723 0.0794135154886 -8.36695563465e-23) (0.243962869606 0.0773294452738 3.35393319277e-23) (0.28143821783 0.0706061522777 -8.39537593524e-23) (0.324354653651 0.0574099502761 4.09724806682e-22) (0.373627352076 0.0330156410748 1.02049469805e-20) (0.429317088556 0.0179661290185 -2.5076517888e-20) (0.517502029867 -0.0765528812381 -3.08100655147e-20) (0.576625264444 -0.153117341068 2.30934841112e-20) (0.43262197102 -0.225448783123 2.2685990458e-20));
    }
    procBoundary5to4
    {
        type            processor;
        value           nonuniform List<vector> 
18
(
(0.0765056537639 -0.0315195174768 3.35367724484e-25)
(0.0815185415982 -0.0316343314962 -1.13389790141e-25)
(0.0870335157778 -0.0369089668159 -5.57569981427e-24)
(0.0871238273768 -0.0428150804537 -1.58181116303e-24)
(0.0871238273768 -0.0428150804537 -1.58181116303e-24)
(0.0934072507166 -0.0426786941637 -7.42609248599e-24)
(0.100024660503 -0.0419922080571 -3.08562297641e-23)
(0.106952593161 -0.0406178516324 -7.87420963223e-24)
(0.114146682153 -0.0383964900886 -2.44278282295e-25)
(0.121534604201 -0.0351475207818 -4.85247363609e-23)
(0.129007648896 -0.030670593598 -4.88509820127e-23)
(0.136410978071 -0.0247496820336 -9.09108994064e-23)
(0.143533014253 -0.017160562157 -7.31143062333e-23)
(0.150093852765 -0.00768171793806 -8.06766247954e-24)
(0.155739251268 0.00389306762615 -1.3145879451e-22)
(0.160026721339 0.017718576491 -1.00838895582e-22)
(0.162441730072 0.0339152058711 -2.5688694256e-23)
(0.162373035436 0.0524998828242 -7.5041542771e-23)
)
;
    }
}


// ************************************************************************* //
