/*--------------------------------*- C++ -*----------------------------------*\
| =========                 |                                                 |
| \\      /  F ield         | OpenFOAM: The Open Source CFD Toolbox           |
|  \\    /   O peration     | Version:  v2012                                 |
|   \\  /    A nd           | Website:  www.openfoam.com                      |
|    \\/     M anipulation  |                                                 |
\*---------------------------------------------------------------------------*/
FoamFile
{
    version     2.0;
    format      ascii;
    class       surfaceScalarField;
    location    "1.3";
    object      alphaPhi0.water;
}
// * * * * * * * * * * * * * * * * * * * * * * * * * * * * * * * * * * * * * //

dimensions      [0 3 -1 0 0 0 0];
oriented        oriented;


internalField   nonuniform List<scalar> 
302
(
-0.000120554394202
0.000460916683301
-0.000135623565091
0.000473407341301
-0.00015053791576
0.000487760183957
-0.000165233841301
0.000504122487583
-0.000179640629684
0.000522667214311
-0.000193689941611
0.000543570656747
-0.000207312017732
0.000566929174178
-0.000220420996621
0.000591915871524
-0.000232714456377
0.000615906397238
-0.000244395085398
0.000633695946349
-5.82512034543e-05
0.000414159993385
-3.50249844216e-17
1.33848414673e-06
1.55402090316e-18
-8.10570760898e-05
0.000454763217497
-9.46219571783e-05
0.000463740821762
-0.000108037976204
0.00047433260634
-0.000121239398431
0.000486608814274
-0.000134143185678
0.000500664132023
-0.000146647624539
0.00051662723583
-0.000158634844956
0.00053465488233
-0.000169980142634
0.000554916507286
-0.000180555293208
0.000577504735348
-0.000190235093827
0.000601596021359
-0.000198695347493
0.000624368027255
-0.000205912868099
0.000640912895781
-5.42944137296e-05
0.0004395393035
1.33370812697e-17
3.61787399894e-06
-3.13798925581e-19
-1.12191568426e-05
0.000421986559051
0.000442398317065
-5.99686644333e-05
0.000459538626901
-7.2065610923e-05
0.000466860023315
-8.40105386319e-05
0.000475685652502
-9.57349464981e-05
0.000486056961442
-0.000107149821148
0.000498023709018
-0.000118142286939
0.000511656693493
-0.000128572593801
0.000527057726678
-0.000138275304037
0.00054435787509
-0.000147068400738
0.000563709977964
-0.000154766416242
0.000585202939398
-0.000161224660355
0.000608054457444
-0.000166196325403
0.000629339865756
-0.000168731402576
0.000643447977446
-4.87457231697e-05
0.000463097062417
-1.05345523904e-18
6.84087126657e-06
-3.45794138539e-19
-9.78909349423e-06
0.000431775672607
-2.03793958087e-05
0.000452988634808
-3.1160452584e-05
0.000459495427256
-4.19404052607e-05
0.000464417768028
-5.26468191567e-05
0.000470244946268
-6.32274964216e-05
0.000477440612707
-7.36196558877e-05
0.000486077758657
-8.37402226982e-05
0.000496177505101
-9.34800277104e-05
0.00050776353078
-0.000102698607355
0.000520875338854
-0.000111219156128
0.000535578399216
-0.00011882755272
0.000551966458583
-0.000125279713136
0.000570162385902
-0.000130321163385
0.000590244597094
-0.000133766470542
0.000611499843785
-0.000135427232315
0.000631000689719
-0.000133483403931
0.000641504137361
-4.18839734643e-05
0.000483863849344
-3.94212966159e-18
1.09498293332e-05
4.29456990668e-19
-8.37361320215e-06
0.000440149304038
-1.75207399209e-05
0.000462135770118
-2.68575993007e-05
0.0004688322611
-3.61941887816e-05
0.000473754317976
-4.54534268889e-05
0.000479504121403
-5.45781407495e-05
0.000486565280612
-6.34993614422e-05
0.000494998948605
-7.21242797991e-05
0.000504802408356
-8.03284050924e-05
0.000515967663547
-8.7947849664e-05
0.000528494823108
-9.47713196329e-05
0.000542401945918
-0.000100535143349
0.00055773040029
-0.000104926282058
0.000574553686501
-0.000107606248865
0.000592924732234
-0.000108323030092
0.000612216669587
-0.00010686895219
0.000629546651794
-0.000101028568013
0.000635663767752
-3.39620547341e-05
0.000501389044491
3.39558826055e-18
1.59596457052e-05
-1.62414816527e-19
-6.97451347949e-06
0.000447123850356
-1.46971238528e-05
0.00046985840171
-2.26118159723e-05
0.000476746936043
-3.05370797495e-05
0.000481679558483
-3.83956619429e-05
0.00048736267251
-4.61305714734e-05
0.000494300163261
-5.36726833801e-05
0.00050254103591
-6.09260493193e-05
0.000512055756145
-6.77577883024e-05
0.000522799396843
-7.39876343119e-05
0.000534724683615
-7.9375878562e-05
0.000547790227796
-8.36119060011e-05
0.000561966492073
-8.63073590783e-05
0.000577249236048
-8.7021089961e-05
0.000593638590606
-8.54315700079e-05
0.000610627150762
-8.12502896098e-05
0.000625365271699
-7.24107441121e-05
0.000626824169665
-2.542062868e-05
0.000515447298244
-5.37994712363e-19
2.19655380891e-05
-1.82495510606e-20
-5.59115730399e-06
0.000452715060017
-1.19048498587e-05
0.00047617213266
-1.84138340806e-05
0.000483255930471
-2.49565218663e-05
0.000488222247029
-3.14593486515e-05
0.000493865490012
-3.78712603069e-05
0.000500712059511
-4.41302447011e-05
0.000508800000957
-5.01454757435e-05
0.000518070969478
-5.57851292598e-05
0.00052843904062
-6.08637402765e-05
0.000539803299595
-6.51249463536e-05
0.000552051457377
-6.82220460292e-05
0.000565063636635
-6.96918113624e-05
0.00057871907228
-6.89399653241e-05
0.000592886856511
-6.54806596287e-05
0.000607167800837
-5.93117236187e-05
0.000619196282289
-4.86065447375e-05
0.000616118965607
-1.68501113497e-05
0.000525947579645
-3.32049883046e-19
2.90997698146e-05
2.16952858259e-20
-4.22325608572e-06
0.000456938381744
-9.13147698357e-06
0.000481080406586
-1.42367873763e-05
0.000488361273477
-1.94200209813e-05
0.00049340550008
-2.46062594099e-05
0.000499051734531
-2.97568269541e-05
0.000505862622754
-3.48254133015e-05
0.000513868578565
-3.97360969813e-05
0.000522981651836
-4.43699998599e-05
0.00053307294839
-4.85528136833e-05
0.000543986133724
-5.20306811201e-05
0.000555529365623
-5.44454478555e-05
0.000567478463297
-5.52951382408e-05
0.000579568841381
-5.3817766401e-05
0.000591409588601
-4.88999730641e-05
0.000602250105556
-4.18240468146e-05
0.000612120358778
-3.03770732348e-05
0.000604671991905
-8.82142168211e-06
0.000532579417298
7.65461280597e-20
3.73792775173e-05
4.26221274614e-21
-2.87775241742e-06
-6.34704364163e-06
-1.00283600626e-05
-1.38764057011e-05
-1.77736817239e-05
-2.17122684016e-05
-2.56698520877e-05
-2.95978468991e-05
-3.34020693979e-05
-3.69421438829e-05
-3.99933265665e-05
-4.2220601149e-05
-4.31598687302e-05
-4.21865601343e-05
-3.73821481327e-05
-2.95315352851e-05
-1.85016363905e-05
-1.8961757176e-06
-4.49458211254e-10
)
;

boundaryField
{
    back
    {
        type            calculated;
        value           uniform 0;
    }
    sides
    {
        type            calculated;
        value           nonuniform List<scalar> 0();
    }
    bottom
    {
        type            calculated;
        value           uniform 0;
    }
    front
    {
        type            calculated;
        value           uniform 0;
    }
    atmosphere
    {
        type            calculated;
        value           uniform 0;
    }
    floatingObject
    {
        type            calculated;
        value           nonuniform List<scalar> 0();
    }
    procBoundary0to1
    {
        type            processor;
        value           nonuniform List<scalar> 10(-0.000489425795932 -0.000508259525145 -0.000529520399277 -0.000553306178417 -0.000578806078837 -0.000603610811422 -0.000622016723983 -0.000389555975599 1.71250739934e-07 2.98887494289e-18);
    }
    procBoundary0to2
    {
        type            processor;
        value           nonuniform List<scalar> 
14
(
-0.000445743983882
-0.000458337878676
-0.00047284537199
-0.00044109901102
0.000105381676079
-0.000450176060154
-0.000410767366794
-0.00043034808587
6.73926991496e-05
-0.000447340799852
-2.32693541729e-05
-0.000448714347168
4.77707386183e-05
-0.0004536378465
)
;
    }
    procBoundary0to4
    {
        type            processor;
        value           nonuniform List<scalar> 8(0.000459816194758 0.000484549746984 0.000492042623832 0.000497253566568 0.000502949018303 0.000509801208033 0.000517826166188 0.000526909655524);
    }
    procBoundary0to5
    {
        type            processor;
        value           nonuniform List<scalar> 
12
(
0.000536877200463
0.000547526259848
0.00055858059719
0.000569705794604
0.000580508175003
0.000590436359904
0.00059744577346
0.000604269809248
0.000593642092991
0.000533912014849
4.61673107586e-05
-4.49458291855e-10
)
;
    }
}


// ************************************************************************* //
