/*--------------------------------*- C++ -*----------------------------------*\
| =========                 |                                                 |
| \\      /  F ield         | OpenFOAM: The Open Source CFD Toolbox           |
|  \\    /   O peration     | Version:  v2012                                 |
|   \\  /    A nd           | Website:  www.openfoam.com                      |
|    \\/     M anipulation  |                                                 |
\*---------------------------------------------------------------------------*/
FoamFile
{
    version     2.0;
    format      ascii;
    class       surfaceVectorField;
    location    "2.3";
    object      ddtCorrDdt0(Uf);
}
// * * * * * * * * * * * * * * * * * * * * * * * * * * * * * * * * * * * * * //

dimensions      [0 1 -2 0 0 0 0];


internalField   nonuniform List<vector> 
300
(
(-0.0684362138954 0.0037701218345 1.64281924007e-22)
(-0.0714888441739 0.00212947402194 3.67065084866e-22)
(-0.0676517135963 0.0075757256629 -4.35710789964e-23)
(-0.0692729236369 0.00524132103637 -1.37114330866e-22)
(-0.0686397005689 0.0113781786921 -2.3386647749e-23)
(-0.0699494241941 0.00909040386642 -9.12060184131e-23)
(-0.0700892228976 0.0151680702446 1.16084731793e-23)
(-0.0712719611293 0.0126199487061 8.41663095142e-23)
(-0.0718223755371 0.0189024739368 1.44603786337e-23)
(-0.0728188811481 0.0162142169001 3.40266139299e-23)
(-0.0739214773899 0.022538632282 2.99802132074e-24)
(-0.0746701601602 0.0197003684474 3.0792773016e-23)
(-0.076463048562 0.0260051345124 -6.91997572379e-25)
(-0.0768948154868 0.0230431688236 3.21744057947e-24)
(-0.0795150563065 0.0291911350332 -2.51878963736e-24)
(-0.0795300584076 0.0261579673204 1.74610096575e-23)
(-0.0831518584135 0.031962632574 -2.01832020076e-24)
(-0.0826772549292 0.0289120622906 1.1091407151e-24)
(-0.0875191919494 0.0341450357463 1.41239902648e-23)
(-0.0863448750392 0.0310976293535 -2.8916615228e-24)
(-0.0928114417194 0.0353989429862 2.06514914907e-23)
(-0.0906738764092 0.0324755705437 5.3108642421e-23)
(-0.0992830664994 0.0353856005119 4.13109997105e-22)
(-0.0958493775447 0.0326942914382 -8.05950400022e-23)
(-0.10743062691 0.0334172801742 1.0354180467e-21)
(-0.102023745819 0.0311433468806 4.7248628012e-22)
(-0.117993052285 0.0286968472279 1.74434167953e-21)
(-0.109865766691 0.0270078092673 8.75154692965e-22)
(-0.131826448897 0.0197716253296 1.869659872e-21)
(-0.119846904191 0.0197410420239 3.1316549775e-21)
(-0.152196734862 0.00534536368332 2.2080082461e-22)
(-0.133083794575 0.00593747552609 5.08256798525e-21)
(-0.192350627775 -0.0174304892721 -5.43834827766e-21)
(-0.154803311666 -0.0107045921869 5.76443507211e-21)
(-0.454000135724 -0.0466987937212 -3.3153608284e-21)
(-0.204877853317 -0.0219401316369 -3.32271793405e-21)
(-0.417525819794 -0.0429695189926 -6.03190081373e-21)
(-0.697817665188 -0.0485964994711 6.2434794066e-21)
(-0.147805745808 -0.0710945695942 -3.20228189678e-20)
(-0.0720350752056 0.00339706943317 6.5668829993e-23)
(-0.0748702618271 0.00199068124622 2.99091537904e-22)
(-0.0712761188908 0.0068611576692 -1.84749270283e-22)
(-0.0727183034607 0.0046977432168 -3.48821421878e-22)
(-0.0722533326387 0.0103149405967 1.63469388501e-23)
(-0.0733851938865 0.00821726700022 -5.78570729984e-23)
(-0.0736609823477 0.0137377594674 1.06584450265e-22)
(-0.0746796178549 0.0113823965223 1.40915348457e-22)
(-0.0753097260987 0.0170910272345 5.03590083122e-23)
(-0.0761610668017 0.0146332549841 4.79008832203e-23)
(-0.0772641403431 0.0203242736567 3.10121922747e-23)
(-0.0778970257958 0.0177600983365 5.19270793155e-23)
(-0.0795752436485 0.0233532197941 2.13704478094e-23)
(-0.0799217058513 0.020732466789 1.94949203162e-23)
(-0.0822613093702 0.0260819387571 2.108894001e-23)
(-0.0822588314038 0.0234710035853 2.31280172605e-23)
(-0.0853448373121 0.0283252525447 2.35799393065e-25)
(-0.084918094409 0.0258256676205 2.31990565292e-23)
(-0.0888681332198 0.0298544403657 3.60929906334e-23)
(-0.0878618556115 0.0275698637303 3.96141104347e-24)
(-0.0929118638292 0.0303160855457 -4.8137889072e-23)
(-0.0911050438142 0.0284251374989 3.57469073868e-23)
(-0.0975850852131 0.0291904270235 -2.12187569878e-23)
(-0.0946675869704 0.0280073276433 -1.25575755357e-22)
(-0.103117482597 0.0258240832566 3.12222926386e-22)
(-0.0985732623975 0.0256124664351 9.72403707901e-23)
(-0.109956110704 0.0190993106528 2.26246799094e-21)
(-0.103034796978 0.020343295156 6.39182765598e-22)
(-0.118713104233 0.00786833343895 6.34456309074e-21)
(-0.108504492069 0.0115548601936 3.59224615072e-21)
(-0.132273122454 -0.0095734558535 1.06262022327e-20)
(-0.115555957384 -0.00491478359984 8.34764028424e-21)
(-0.161896944785 -0.0355980786156 7.88006541572e-21)
(-0.128744624152 -0.0179461392067 7.08739652179e-21)
(-0.413319385437 -0.0766378845585 6.23612230095e-21)
(-0.163827501222 -0.0256855137616 -7.69588127169e-22)
(-0.40417663162 -0.161077076589 -1.97474387475e-20)
(-0.613339977863 -0.073187090632 1.56385699665e-20)
(-0.22319800964 -0.0428250310942 -3.6295010823e-20)
(-0.0752582484117 0.00304213282972 -1.15398713967e-22)
(-0.077888053134 0.00186354266864 2.70112790434e-22)
(-0.0745372134929 0.00616885217507 -2.21929224593e-22)
(-0.0758165105825 0.00416639295785 -2.78086878507e-22)
(-0.075508125321 0.00929215596565 6.67113366083e-23)
(-0.0764805244289 0.00735956988524 1.16861467883e-22)
(-0.0768721475157 0.0123742003963 8.22317814123e-23)
(-0.0777369033031 0.0101928549357 1.15263794272e-22)
(-0.0784400538537 0.015401706042 4.94689542235e-23)
(-0.0791683620858 0.013138249847 4.24133025789e-23)
(-0.0802516408736 0.0183216505891 4.0409807357e-23)
(-0.0808016160321 0.0159678803121 3.30845235749e-23)
(-0.0823052313225 0.0210376621926 2.12524897674e-23)
(-0.0826261860467 0.0186794491034 3.54153603109e-23)
(-0.0845886252939 0.0234833899604 2.52381337798e-23)
(-0.08469326114 0.0211848350024 4.73483255227e-24)
(-0.0870739978383 0.0254408140465 2.69246681796e-23)
(-0.0868582045992 0.0233406868785 6.90418128451e-23)
(-0.0896899715097 0.0266797400621 3.61532779687e-24)
(-0.0890684614358 0.0249536039459 5.09581114516e-23)
(-0.0923674201039 0.0268308200202 -4.16909588981e-23)
(-0.0911994085108 0.0257447666872 3.18726152707e-24)
(-0.0950694989918 0.0253645319185 -7.11662757901e-24)
(-0.0931132374753 0.0253010784253 1.55104037816e-23)
(-0.0977422413895 0.0215548771995 4.24200210002e-22)
(-0.0946444943197 0.0229558089197 4.91080243485e-23)
(-0.10044674975 0.0143450462198 1.96896092538e-21)
(-0.0956850263816 0.0177911919001 2.89686228764e-22)
(-0.103675838162 0.00199126942988 5.59532334423e-21)
(-0.0960123641395 0.00899566665188 2.98362273558e-21)
(-0.109492225743 -0.0167350921118 4.80883457329e-21)
(-0.0967280480745 -0.00775804461738 6.65175912751e-21)
(-0.12620750984 -0.0455290330074 -1.56225702111e-21)
(-0.0999122929466 -0.0152645673766 -3.87172521556e-21)
(-0.334930924488 -0.0924324875129 8.63285953839e-21)
(-0.11691496552 -0.0188706299664 -5.87435711028e-21)
(-0.422888757346 -0.222014484324 -9.09002109032e-22)
(-0.483727237305 -0.091091480207 -5.22874577256e-20)
(-0.524623383791 0.221290761325 -8.35603268851e-20)
(-0.0781568489871 0.00269828864206 1.07424625894e-22)
(-0.0805507624599 0.00173164546138 4.15251820491e-22)
(-0.0774834366091 0.00549482536014 6.07038139697e-23)
(-0.0785724381972 0.00363716851442 -2.65889219017e-22)
(-0.0784495662564 0.00828953275492 1.65413925547e-22)
(-0.0792351186821 0.00651085323821 3.31531655518e-22)
(-0.0797759527651 0.0110632148186 7.54453154384e-23)
(-0.0804742911822 0.00903934952969 1.6208063142e-22)
(-0.0812700296878 0.0138133314759 2.60288719302e-23)
(-0.0818876736646 0.0117140402668 1.8872690126e-23)
(-0.0829593332602 0.0164841007607 2.80900765289e-23)
(-0.083447250577 0.014298184885 3.47419837382e-23)
(-0.0848089974463 0.0190367165373 1.88977030958e-23)
(-0.0851582163098 0.0168348371344 6.63189760387e-23)
(-0.0867524008183 0.0213425009223 4.85385116176e-23)
(-0.0869780255939 0.0192429502792 -6.15772280627e-23)
(-0.0886781022309 0.023247636592 9.30752561171e-23)
(-0.0887342197352 0.0214135278489 1.48113613995e-22)
(-0.0904338112379 0.0245990763168 5.05300451818e-23)
(-0.0903713531474 0.0231961006379 1.51234143026e-22)
(-0.0918228660285 0.0250177578297 6.03886242068e-23)
(-0.0915397513445 0.0243528900369 -6.12605534542e-23)
(-0.0926068238582 0.0240090238238 7.17350557092e-23)
(-0.0919892669943 0.0245177630847 2.59986778277e-22)
(-0.0924702390361 0.0208386408051 -8.54059568892e-23)
(-0.0913255009121 0.0231256828842 -1.30263278977e-22)
(-0.0910217596109 0.0144478380228 1.30434803896e-21)
(-0.0891266684283 0.0193733238856 -4.38942905597e-22)
(-0.0886681547721 0.00327551564805 4.04005851886e-21)
(-0.0846821338601 0.0122890303565 -1.65477533408e-21)
(-0.0863412096218 -0.0141051067022 -2.02880066134e-21)
(-0.0792372995781 -0.0019170887384 4.39290673665e-21)
(-0.0878892846232 -0.0415797296776 -8.18382530474e-21)
(-0.0723989269971 -0.000753363965528 -1.72754827967e-20)
(-0.231141677993 -0.091182899415 -6.67946743743e-20)
(-0.0673035655668 -0.000357935019363 3.48639549945e-22)
(-0.563436484769 -0.301564810649 -1.34938782502e-19)
(-0.27332461892 -0.0865015056107 -8.77872348164e-20)
(-1.09461499521 -0.432374652505 -2.17172797594e-19)
(-0.0806966944567 0.00234818598777 4.19379755797e-23)
(-0.0828511022434 0.00158612356739 3.66409907376e-22)
(-0.0800807268862 0.00481258672238 4.93862253125e-24)
(-0.0809837089771 0.00309788087644 -1.65726664696e-22)
(-0.0810548561748 0.00729427673832 3.28198361392e-22)
(-0.0816647548598 0.00565266535299 2.916186192e-22)
(-0.0823808837851 0.00979990919403 1.05508006108e-22)
(-0.0829329434789 0.00788369920318 8.8498347278e-23)
(-0.0838516834901 0.0123001863728 2.75858019339e-23)
(-0.0843477118329 0.0103112789594 -2.0526648601e-23)
(-0.0854737966659 0.0147920973821 7.2970883248e-23)
(-0.0859061771073 0.0126927047805 9.35086566231e-23)
(-0.0871977780167 0.017243945362 -1.41559551198e-23)
(-0.0875833958788 0.0151138311009 5.98526684514e-23)
(-0.0889162094116 0.0195820125666 3.7997874315e-23)
(-0.0892901822877 0.0175265597343 -6.09853800094e-23)
(-0.090449323897 0.0217383201924 2.06272500904e-22)
(-0.0908562453195 0.0198817378343 1.86689332893e-22)
(-0.0915567720119 0.0234976457169 3.94435443902e-23)
(-0.0920746974788 0.0220883608802 1.3878320867e-22)
(-0.0919226265686 0.0246522850787 1.38337600616e-22)
(-0.0926048237256 0.0239852092322 -1.69006649023e-22)
(-0.0911034200701 0.0248015618513 5.79884435906e-23)
(-0.0920085417352 0.0253379630754 2.68460239387e-22)
(-0.0885640405924 0.0233323837843 -4.83800227685e-22)
(-0.0896923079891 0.0257192032572 -6.54281467403e-22)
(-0.0835619340022 0.0193131625783 -3.39806627863e-21)
(-0.0849277483828 0.0245202544941 -5.48635957562e-22)
(-0.0763234119768 0.0115287212141 -1.30192711629e-21)
(-0.0767359077048 0.0207951466506 -3.41756335776e-21)
(-0.0669433502298 -0.001229610945 -1.08537753987e-20)
(-0.0663728022261 0.0115243831912 5.06196679837e-21)
(-0.0559137408758 -0.0213222579971 -8.74301794203e-21)
(-0.052272786335 0.0225066810679 -1.66717071906e-20)
(-0.0970463272342 -0.0533686801027 -2.06439208922e-20)
(-0.0352528764431 0.0254981356621 6.56155666557e-21)
(-0.0937188447958 -0.235367283563 -1.70021249909e-19)
(-0.091230164743 -0.0893240374964 -9.3702380106e-20)
(1.36876396591 -5.76121416326 7.62595743422e-20)
(-0.082875095236 0.00198794119635 1.58745267101e-22)
(-0.0847801818824 0.00142196536799 1.16889845678e-22)
(-0.0823305787636 0.00410669638608 1.20953331973e-22)
(-0.0830394524909 0.0025359486679 -2.24134026538e-22)
(-0.0833303367603 0.00627548149705 5.19186050857e-23)
(-0.0837734094813 0.00476438332605 -1.95731196499e-22)
(-0.0847028902683 0.00849937946181 -3.7536307431e-23)
(-0.0850915520848 0.00667895376593 -5.91661237723e-24)
(-0.0862305261914 0.0107822965712 4.53962060882e-23)
(-0.0865743176746 0.00885432803848 -3.64104234046e-23)
(-0.0878901593368 0.0131334506939 8.03904418264e-23)
(-0.0882124028627 0.0110531547084 1.334177451e-22)
(-0.0896132870139 0.0155587531064 1.30232435618e-23)
(-0.0899795529714 0.013393989159 1.2941884809e-23)
(-0.0912650799148 0.0180405113515 8.77060785684e-23)
(-0.0917501793557 0.0158731548917 -1.58721644465e-23)
(-0.0926409235072 0.0205516210989 1.19200040658e-22)
(-0.0933451119842 0.0185058225477 9.00626122322e-23)
(-0.0934397711288 0.0230198814265 -6.96669847433e-23)
(-0.0944997915119 0.0212911007672 7.40354331924e-23)
(-0.0932288719065 0.025322712671 -3.88840102524e-23)
(-0.0948354718828 0.024198814628 -8.40991989662e-23)
(-0.0914182338859 0.0272374492986 -4.43809671607e-22)
(-0.0937859894343 0.027156546062 3.13640971769e-22)
(-0.0872636795709 0.0283483533625 -7.19117197281e-22)
(-0.0906224429916 0.0299466466624 -5.29858097436e-22)
(-0.0797530154179 0.0280090639588 -5.68133036697e-22)
(-0.0843932183234 0.0322342899476 -2.90209566491e-22)
(-0.0688055423875 0.0252389338452 2.9463305569e-21)
(-0.0737976289202 0.0332486412395 -9.90790755981e-22)
(-0.053635780582 0.0184557276707 -7.55964993525e-22)
(-0.0594863800965 0.0309313419253 8.71984213548e-21)
(-0.0314493177092 0.00438245951986 -1.36713258303e-21)
(-0.0381693919558 0.0507712955361 1.35763994913e-20)
(0.125532124406 -0.0271661917724 -6.64969025483e-20)
(-0.00370898729137 0.0561715928603 1.19743533012e-20)
(3.95231401563 -0.837603629554 1.52578444145e-19)
(0.71948719942 -0.10970091569 1.46170680787e-19)
(13.099769883 -12.9989307453 1.73420574566e-19)
(-0.0847020091792 0.00160130091516 -2.65989447961e-22)
(-0.0863162257654 0.00124584251812 7.23307395423e-23)
(-0.0842501968156 0.0033565468995 -5.40818555011e-22)
(-0.0847168766835 0.00193315576317 -6.40231252137e-22)
(-0.0853191267931 0.00519135409794 -2.53566413962e-22)
(-0.085495489202 0.00380537337434 -3.00983857469e-22)
(-0.0867738740481 0.00711471192691 -4.79072835083e-24)
(-0.086926326115 0.00538477590805 2.46799553126e-22)
(-0.0884164726705 0.00917020256945 5.16111156072e-23)
(-0.0885523546797 0.00727602367509 3.74142410443e-23)
(-0.0902205224624 0.0113848071956 6.59691880826e-23)
(-0.0903824200605 0.00926690685114 6.69653352741e-23)
(-0.0921090778584 0.0138037330045 -1.59535231993e-23)
(-0.0923738999905 0.011509312235 1.52402485646e-23)
(-0.0939351018227 0.016460926188 -1.35156307827e-23)
(-0.0944138639084 0.0140492332007 2.33920859238e-23)
(-0.0954686183143 0.0194246311516 4.48980047663e-23)
(-0.096312303123 0.0169743747632 7.90283272633e-23)
(-0.0963724779001 0.0227306637538 5.96032189695e-23)
(-0.0978105750796 0.0203893057359 1.48079005062e-22)
(-0.096162569848 0.0264349916574 2.68425783055e-22)
(-0.0984363307149 0.024412650333 1.07730673813e-23)
(-0.0941709059485 0.0305027445631 2.2759254594e-22)
(-0.0977238558075 0.0291622552003 4.3284636712e-22)
(-0.0894919026189 0.034835250409 -1.00950466646e-22)
(-0.0947582223572 0.0347100153438 -3.39344522052e-23)
(-0.0809099176854 0.0391648107953 -7.12867285775e-22)
(-0.08852246633 0.0411096705744 4.05092021716e-22)
(-0.0676970661215 0.042977859662 4.7827208226e-21)
(-0.0774419588583 0.0480087657964 2.67112709717e-21)
(-0.047699571184 0.044300884176 2.30522066203e-20)
(-0.060723976977 0.0545962907765 7.25970072385e-21)
(-0.0134137208812 0.0385931789112 2.69178853756e-20)
(-0.0324386078045 0.0826301906065 2.39136812522e-20)
(0.638755409536 0.0152029886766 2.24641936637e-19)
(0.0196686960891 0.0936262097641 9.47147660375e-21)
(13.2316912514 -1.06253721941 1.67012811208e-19)
(1.79721153855 0.0387776123501 1.52738136475e-19)
(41.945320092 -6.8404411253 -1.93641600076e-20)
(-0.0860866745696 0.00119173203133 -3.01911064634e-22)
(-0.0873976670416 0.00104329425702 1.45946418655e-22)
(-0.0857480241486 0.00255073614842 -4.00396554595e-22)
(-0.0859324065542 0.0012697403074 -6.26184471963e-22)
(-0.0869248394866 0.00399833307145 1.99382109619e-22)
(-0.0868336896711 0.00273433666497 7.15147659606e-23)
(-0.0885308124743 0.00560057047878 2.89004522521e-22)
(-0.0903797759585 0.00737144963231 5.27684607112e-23)
(-0.0924589531048 0.00940364571476 1.62363957561e-23)
(-0.094691921277 0.0117637396222 5.45858576877e-23)
(-0.0969302124076 0.0145757482546 1.1593604397e-22)
(-0.0989529047595 0.0179533557653 1.82209327559e-22)
(-0.10044148457 0.0221030419857 9.92488534742e-23)
(-0.100914286767 0.0272093638561 1.75193651447e-22)
(-0.0997144000167 0.0335656183223 1.71319368975e-22)
(-0.0959149361492 0.0413745312913 4.72108036157e-22)
(-0.0882105916912 0.0509369594878 3.78908640466e-21)
(-0.0750493022463 0.0624761282519 5.14810699841e-21)
(-0.052177534352 0.0745378370033 8.12117535572e-21)
(-0.00600862202245 0.083153925376 6.46727248036e-21)
(1.05346910582 0.0690491827617 -6.2432323558e-20)
(20.3954927675 -0.428565288292 -3.3638834741e-20)
(-0.0869936718256 0.000725893125211 -1.78326988674e-22)
(-0.0879849854723 0.000793122108183 4.04839433413e-22)
(-0.0867911235427 0.00162662059466 -1.54273151407e-22)
(-0.0880003009161 0.000509488753908 1.43442807629e-22)
(-0.0874436395692 0.000190996798612 2.09866069135e-23)
)
;

boundaryField
{
    back
    {
        type            calculated;
        value           uniform (0 0 0);
    }
    sides
    {
        type            calculated;
        value           nonuniform List<vector> 0();
    }
    bottom
    {
        type            calculated;
        value           uniform (0 0 0);
    }
    front
    {
        type            calculated;
        value           uniform (0 0 0);
    }
    atmosphere
    {
        type            calculated;
        value           nonuniform List<vector> 8((0.00120489826942 -0.0534033459023 -1.64706687147e-22) (0.00202750056813 -0.0856463377213 -1.56592679396e-22) (0.00340159646688 0.0794414656807 -1.62636923567e-22) (-4.47386780837 0.268524667966 -3.35840405924e-19) (0.223662877772 -2.69872958885 -3.90769270749e-22) (-18.3860010104 -12.5695618684 7.53822258536e-19) (25.1944249029 -29.909540097 -9.66873557961e-20) (38.7094843002 6.90771736903 5.79567788654e-20));
    }
    floatingObject
    {
        type            calculated;
        value           nonuniform List<vector> 0();
    }
    procBoundary9to6
    {
        type            processor;
        value           nonuniform List<vector> 4((-0.177627919106 0.00353687419009 3.63995098426e-21) (-0.234162868185 -0.0137994839896 -1.27081690316e-20) (-0.694174984878 -0.027162897697 -1.65932673941e-20) (-0.158355764203 0.128292815553 6.4046839721e-20));
    }
    procBoundary9to7
    {
        type            processor;
        value           nonuniform List<vector> 
16
(
(-0.0677334755419 0.00227410920276 3.28761898193e-22)
(-0.0654841299354 0.00579761799239 -6.54669904035e-23)
(-0.066162505468 0.009980344703 1.11508819476e-22)
(-0.0674941251642 0.0138983193389 4.76139254621e-23)
(-0.0690912370834 0.0178788139606 8.47661922586e-24)
(-0.0710335556924 0.021784638403 -2.36660560576e-24)
(-0.0734193850403 0.0255842012771 -4.39499031997e-23)
(-0.0763270852085 0.0292129923131 8.60863509177e-24)
(-0.0798844268167 0.0325534364168 -2.85818646531e-23)
(-0.0841444664052 0.0354676994707 -4.87263403842e-23)
(-0.0894167290794 0.0377753529216 3.98990810754e-23)
(-0.0958865939259 0.0391860488533 -9.0310080348e-23)
(-0.104051674448 0.039304639313 5.43949315218e-22)
(-0.114679961237 0.0374151330469 -1.34529565283e-22)
(-0.128888242214 0.0329363871376 1.31466669246e-21)
(-0.147612994781 0.0236907149678 -1.66086016974e-21)
)
;
    }
    procBoundary9to10
    {
        type            processor;
        value           nonuniform List<vector> 
15
(
(-0.0884063670854 0.00393314640238 3.57857783485e-22)
(-0.0902462322593 0.00548735570528 9.78599782448e-23)
(-0.0923641595841 0.00720440900043 -7.21426306107e-24)
(-0.0947330400237 0.00928079049418 1.73646946003e-23)
(-0.0972442788843 0.0118131845681 6.56345637928e-23)
(-0.0997364314863 0.0149537590396 1.2352121374e-22)
(-0.101922149901 0.0189034938103 1.11469488156e-22)
(-0.103531565217 0.0239484362173 -1.14126197178e-22)
(-0.0867102903456 0.000525327360042 -5.5209078356e-22)
(-0.0880875398794 0.00263892307933 2.29990439827e-22)
(-0.0877016512641 0.00153650987848 3.64192444729e-22)
(-0.087391543995 0.000176430864839 3.10756385278e-23)
(-0.0872207883606 -0.000410980267947 -1.08012564965e-22)
(-0.0864162674683 -0.00106536789953 -2.01506999704e-22)
(-0.0861978537706 -0.000163091205417 -6.57358572916e-23)
)
;
    }
    procBoundary9to11
    {
        type            processor;
        value           nonuniform List<vector> 9((-0.103903835776 0.0303898529313 3.92539507748e-22) (-0.102390466801 0.0386190771592 -6.35445881558e-23) (-0.0978930385921 0.0491769931565 5.96861438315e-22) (-0.0888442998653 0.0623699597222 3.1308532964e-21) (-0.0727083559197 0.0790963909505 5.93177053981e-21) (-0.041036300364 0.117068198063 1.32029238921e-20) (0.0337576454267 0.135437178229 -9.94186284448e-22) (2.2938007302 0.206742351945 -9.86348884198e-20) (34.6097832031 6.15048136709 -4.76625170383e-19));
    }
}


// ************************************************************************* //
