/*--------------------------------*- C++ -*----------------------------------*\
| =========                 |                                                 |
| \\      /  F ield         | OpenFOAM: The Open Source CFD Toolbox           |
|  \\    /   O peration     | Version:  v2012                                 |
|   \\  /    A nd           | Website:  www.openfoam.com                      |
|    \\/     M anipulation  |                                                 |
\*---------------------------------------------------------------------------*/
FoamFile
{
    version     2.0;
    format      ascii;
    class       surfaceScalarField;
    location    "2.3";
    object      phi;
}
// * * * * * * * * * * * * * * * * * * * * * * * * * * * * * * * * * * * * * //

dimensions      [0 3 -1 0 0 0 0];
oriented        oriented;


internalField   nonuniform List<scalar> 
300
(
5.98650000944e-06
0.000293641265181
1.16740894154e-05
0.000285164456551
1.73003464437e-05
0.000281134440442
2.30186988045e-05
0.000282538266208
2.89632494707e-05
0.000286744150308
3.51969340489e-05
0.000292618621956
4.17654620147e-05
0.000299893897919
4.87284652843e-05
0.000308556190665
5.60819515186e-05
0.000318856484132
6.37649696032e-05
0.000330791498564
7.18133391593e-05
0.000344708879431
7.99132525901e-05
0.000360961870347
8.80525114793e-05
0.000379838376149
9.55946702495e-05
0.000402977903662
0.000102147799461
0.000431781544354
0.000105818270929
0.000466431693107
0.000102466712864
0.000507296588058
6.79869948417e-05
0.000521941060894
-0.000119070550228
0.000203535970493
0.000220470441965
7.15171206471e-06
0.000286489614164
1.39689729376e-05
0.00027834720023
2.07635301917e-05
0.000274339792261
2.76839589704e-05
0.000275617620056
3.48821276979e-05
0.000279545625584
4.2441990875e-05
0.000285058276735
5.04635926882e-05
0.000291871728619
5.89451185548e-05
0.000300074079411
6.79959634845e-05
0.000309805124422
7.76355832821e-05
0.000321151529582
8.79185918844e-05
0.000334425766862
9.8895947892e-05
0.000349984691315
0.000110417806336
0.000368316942554
0.000122585102209
0.000390811166184
0.000134485297952
0.000419881896922
0.000145672233677
0.000455245130297
0.000151388370484
0.000501580576477
0.000129444378081
0.000543885136074
-2.14336750945e-05
0.000354414042595
0.000361771128548
8.2402372848e-06
0.000278249385328
1.61410040191e-05
0.000270446390543
2.40085344954e-05
0.000266472127495
3.2076963995e-05
0.00026754893338
4.04492863437e-05
0.000271172910312
4.92470786264e-05
0.000276259969024
5.86181509374e-05
0.000282500062938
6.85352335447e-05
0.000290156400964
7.9259036042e-05
0.000299080823133
9.08294870265e-05
0.000309580780218
0.000103418405326
0.000321836830109
0.000117154811488
0.000336248568038
0.000132132615146
0.00035333966334
0.000148564887043
0.000374379520337
0.000166725393881
0.000401721951911
0.000185014617011
0.000436956253496
0.000200180763802
0.000486414530792
0.000197055287857
0.000547010670745
9.81368907028e-05
0.00045333241958
0.000565599734326
9.23544299719e-06
0.000269013922361
1.81508065454e-05
0.000261530960353
2.70415552205e-05
0.000257581220556
3.61572530414e-05
0.000258432951092
4.56089387213e-05
0.000261720798535
5.55797403648e-05
0.000266288613119
6.61204152098e-05
0.000271958756056
7.74655460819e-05
0.000278810646965
8.97789002908e-05
0.000286766970987
0.000103075301904
0.000296284121044
0.000117701161696
0.000307211033473
0.00013395377427
0.000319996340475
0.000152172815495
0.000335121231618
0.000172922767028
0.000353630224683
0.000196634219186
0.000378011016391
0.000222268590153
0.000411322138105
0.000247533814183
0.000461149349611
0.000263739779712
0.000530804735822
0.0001855161306
0.000531556040722
0.000902116381754
1.01554981511e-05
0.000258858406939
1.99813134326e-05
0.000251705084541
2.97841093692e-05
0.000247778269069
3.97925553732e-05
0.000248424216707
5.02447297065e-05
0.00025126818319
6.12440763926e-05
0.000255288684247
7.29161253613e-05
0.000260286038945
8.5478842775e-05
0.000266247274652
9.90241285932e-05
0.000273221178551
0.000113943591409
0.000281364429567
0.000130410421884
0.000290744331457
0.000148841316223
0.000301565904667
0.000169730693179
0.00031423249905
0.000193899288365
0.000329462235485
0.000222145286897
0.000349765385888
0.000253935428953
0.000379532062056
0.000289063330635
0.000426021377524
0.000323355808298
0.000496512245957
0.00026606601607
0.000588846228209
0.0014613359669
1.09646137564e-05
0.00024789380375
2.15914329482e-05
0.000241078232482
3.21905021966e-05
0.000237179068251
4.30342477996e-05
0.000237580204319
5.43289972371e-05
0.000239972979628
6.62232602881e-05
0.000243393767344
7.88539213616e-05
0.000247654586366
9.2413942037e-05
0.000252686444422
0.000107106445604
0.000258528037543
0.000123233157198
0.000265237440217
0.000141116644348
0.0002728610447
0.000161164453858
0.000281518686506
0.000184003414085
0.000291394278782
0.000210351186094
0.000303114990305
0.000241401683281
0.000318714932932
0.000277077078887
0.000343856270901
0.000319108851829
0.00038398922206
0.000369682782586
0.000445938293694
0.000338665137879
0.000619863592275
0.00238868562739
1.16717079451e-05
0.000236222143478
2.2976228456e-05
0.000229773756055
3.42884849069e-05
0.000225866769948
4.58538249296e-05
0.000226014617814
5.78553339236e-05
0.000227970927165
7.04595960466e-05
0.000230788681784
8.38475590191e-05
0.000234265563764
9.82087421743e-05
0.000238324201173
0.000113754862386
0.000242981120622
0.000130757376161
0.000248234705605
0.00014960457093
0.00025401432082
0.000170665948572
0.000260458322783
0.000194546141927
0.00026751491632
0.000221847372754
0.000275813996737
0.000253466919712
0.000287094715479
0.0002901993695
0.000307122730986
0.000334974405831
0.000339213572948
0.000398815180289
0.000382097773798
0.000514624340791
0.000504035996928
0.0032244664645
1.21981436038e-05
0.00022402424501
2.41305922525e-05
0.000217841495202
3.59963585873e-05
0.000214001033374
4.81399300469e-05
6.07284906455e-05
7.3917210475e-05
8.78912329243e-05
0.000102810882837
0.00011891444244
0.000136509196713
0.00015580899808
0.000177289307501
0.000201379026363
0.000228624495303
0.000259718598269
0.000297158330759
0.000345693121749
0.000417390426542
0.000433819620883
1.26658326848e-05
0.000211358775513
2.50638447731e-05
0.000198311392429
0.000185000083396
)
;

boundaryField
{
    back
    {
        type            calculated;
        value           uniform 0;
    }
    sides
    {
        type            calculated;
        value           nonuniform List<scalar> 0();
    }
    bottom
    {
        type            calculated;
        value           uniform 0;
    }
    front
    {
        type            calculated;
        value           uniform 0;
    }
    atmosphere
    {
        type            calculated;
        value           nonuniform List<scalar> 8(-0.000240963979714 -0.000162734345824 -0.000105691901901 -0.000151001139133 -0.000293155651945 -0.000588694781378 -0.000321179659797 0.000312999149325);
    }
    floatingObject
    {
        type            calculated;
        value           nonuniform List<scalar> 0();
    }
    procBoundary9to6
    {
        type            processor;
        value           nonuniform List<scalar> 4(-0.000503944742982 -0.000487461227977 -1.64781557365e-05 -9.85766393295e-05);
    }
    procBoundary9to7
    {
        type            processor;
        value           nonuniform List<scalar> 
16
(
-0.00029962756355
-0.000290851930199
-0.00028676073908
-0.000288256872192
-0.000292689189913
-0.000298853012243
-0.000306463288625
-0.00031552011571
-0.000326210825608
-0.000338475169409
-0.000352757577117
-0.000369061714976
-0.000387977176775
-0.000410519340806
-0.000438333838864
-0.000470101553773
)
;
    }
    procBoundary9to10
    {
        type            processor;
        value           nonuniform List<scalar> 
15
(
0.000213870832632
0.000215381822314
0.000217599038459
0.000220290400382
0.000223403398849
0.00022687677666
0.000230639940744
0.000234715394687
0.00020544381201
3.73818808127e-05
0.000201683166966
1.30480558541e-05
1.33121736667e-05
1.34983125047e-05
0.000171502738414
)
;
    }
    procBoundary9to11
    {
        type            processor;
        value           nonuniform List<scalar> 9(0.000238979105523 0.000243426018941 0.000248568351345 0.000255999497055 0.000269681615573 0.000290678042222 0.000310400089857 0.000487579894696 0.0033453074905);
    }
}


// ************************************************************************* //
