/*--------------------------------*- C++ -*----------------------------------*\
| =========                 |                                                 |
| \\      /  F ield         | OpenFOAM: The Open Source CFD Toolbox           |
|  \\    /   O peration     | Version:  v2012                                 |
|   \\  /    A nd           | Website:  www.openfoam.com                      |
|    \\/     M anipulation  |                                                 |
\*---------------------------------------------------------------------------*/
FoamFile
{
    version     2.0;
    format      ascii;
    class       volVectorField;
    location    "2.3";
    object      U;
}
// * * * * * * * * * * * * * * * * * * * * * * * * * * * * * * * * * * * * * //

dimensions      [0 1 -1 0 0 0 0];


internalField   nonuniform List<vector> 
166
(
(0.0593244659426 0.000524910852257 -6.84929055831e-22)
(0.0576316368552 0.00185774137415 -1.63292813617e-22)
(0.0568097069585 0.00285223172436 -2.15113749924e-22)
(0.0571000491951 0.00403505269337 8.4656613555e-23)
(0.0579641961721 0.00519590229703 6.34034165226e-24)
(0.0591688389354 0.00641214381056 -1.64065929972e-23)
(0.0606585417738 0.00769180030246 -1.20152337194e-23)
(0.0624425223464 0.00903875409567 -1.14128964854e-23)
(0.0645338292839 0.0104647317367 1.17385022315e-23)
(0.0669572067144 0.011967301122 -8.1187369586e-24)
(0.0697817687743 0.0135295338054 -1.29826164291e-23)
(0.0730445347163 0.0151341734893 -4.51138115713e-24)
(0.0768457804096 0.0167517490382 5.58744369679e-23)
(0.0814285866985 0.0183240085284 5.83512374363e-22)
(0.0871271279343 0.0197507812088 2.52110996562e-22)
(0.0938042801928 0.0206632737291 -1.117315089e-21)
(0.101356454168 0.0205986230262 -3.84529302505e-21)
(0.100983641396 0.0193804784319 -1.04635557814e-20)
(0.0242247432931 0.0127450851363 -1.03933270914e-20)
(0.0335290754629 -0.0521263013711 -1.62450751002e-21)
(0.0580193497765 0.000652890783872 -8.1452315324e-22)
(0.0563869600103 0.0022024798744 -1.50270581364e-22)
(0.0555705789328 0.00341848163967 -7.13817846957e-23)
(0.055838432274 0.00485164705756 7.37262039953e-23)
(0.0566516969597 0.00625643877564 1.55367542429e-23)
(0.0577908575123 0.00772963922049 2.42293975579e-23)
(0.0592027730664 0.00928594252922 2.39430957629e-23)
(0.0609011557395 0.010926599833 -5.56907188849e-24)
(0.0628960469891 0.012670522274 1.29158784423e-23)
(0.0652286692397 0.0145451341283 4.01245665294e-23)
(0.0679502990197 0.016537069192 -1.06488128387e-23)
(0.0711376687341 0.0186338314258 9.17907834537e-24)
(0.0748804193008 0.0208711080905 -4.88813124679e-23)
(0.0794506775791 0.0232340500957 -2.53930533733e-22)
(0.0852657191538 0.0255681204149 -1.82534091301e-21)
(0.0922983860179 0.0283590135769 -3.13752201818e-21)
(0.101054151837 0.028885644641 -7.45557299722e-21)
(0.106925643067 0.0294532280091 -1.47404977389e-20)
(0.0581102772318 0.0252233519648 -1.45616863e-20)
(0.05796016201 -0.0336391073056 -3.08574813511e-21)
(0.0564769445515 0.00077159191124 -7.34933854794e-22)
(0.0549031392377 0.0025311416761 6.03692325551e-23)
(0.054104261707 0.00396134002019 -2.82214397591e-23)
(0.0543408033131 0.00562248912318 -3.63389307501e-23)
(0.055095170734 0.00725311793892 -2.35278062218e-23)
(0.0561561770521 0.0089674410629 1.06725174135e-23)
(0.0574749258624 0.0107856917527 4.49353537362e-24)
(0.0590509145772 0.0127116702696 7.92376300721e-24)
(0.0609180602461 0.0147706261206 -2.12987981104e-23)
(0.0631089431988 0.0169983963757 -1.7488963205e-23)
(0.0656646064467 0.019409502318 -3.27559446588e-24)
(0.0686652456741 0.0220044786084 1.79499923147e-23)
(0.0722327419175 0.024864380653 -1.14778892267e-22)
(0.0765864246898 0.0280450974396 -8.35149811632e-22)
(0.0822418197087 0.0312864708424 -2.66017537744e-21)
(0.0893365795864 0.03593985145 -6.93434597619e-21)
(0.0989446275416 0.0371087099221 -1.40523100153e-20)
(0.109399178913 0.0390846618497 -1.26487382193e-20)
(0.0825328025431 0.0389518340323 -1.43463549205e-20)
(0.0903220465952 -0.0150642905585 -5.231016978e-21)
(0.0547301123774 0.000879690110728 -7.12142745243e-22)
(0.0532186496939 0.0028341859936 -9.18130908972e-23)
(0.0524353890913 0.00446461534539 -1.49831659091e-22)
(0.0526348455509 0.00633722583032 -5.85742956569e-23)
(0.0533156121602 0.00817885074518 -3.62133194302e-23)
(0.054281638438 0.01011855293 -1.53852806107e-23)
(0.0554872521593 0.0121695921739 -1.58296328411e-23)
(0.0569233126679 0.0143533733186 -1.96244478473e-23)
(0.0586276045898 0.016710096017 5.49138014626e-23)
(0.0606172518485 0.0192704704472 5.30386280675e-23)
(0.0629418334187 0.0220672612464 -1.05987262085e-23)
(0.0656638846068 0.0251446438594 6.79336583861e-23)
(0.0689118008398 0.0285788396534 -1.03963250946e-22)
(0.072854567838 0.0324952489642 -8.79719154499e-22)
(0.0780477414918 0.0366325879603 -3.37204226198e-21)
(0.0849303977032 0.0429518511984 -6.9905467363e-21)
(0.0948837973084 0.0449698164686 -1.79598545651e-20)
(0.108057816324 0.0481152075753 -1.46525658352e-20)
(0.0993701424551 0.0534997231937 -2.37122985289e-20)
(0.146974408714 -0.0121016961375 7.25669534634e-21)
(0.0527937353458 0.000981127585567 -7.64222306916e-22)
(0.0513477174773 0.00311371088504 4.05790141507e-23)
(0.0505705279292 0.00492609232597 -4.51778237622e-22)
(0.0507263065541 0.00697889610427 -1.64721057158e-22)
(0.0513265213604 0.00900519494961 -6.38707006536e-23)
(0.0521842034721 0.0111506894139 3.33714414605e-24)
(0.0532547698713 0.0134182823543 6.18848402258e-25)
(0.0545348997258 0.0158390945338 -2.14879881992e-23)
(0.0560447126142 0.0184498928474 1.18981967696e-23)
(0.0577942614544 0.0212952097583 2.59162862207e-23)
(0.059826147927 0.0244301336002 -7.26183967948e-23)
(0.0621884579737 0.0279156162918 1.79126723308e-23)
(0.0649718306247 0.0318334761537 -1.581457323e-22)
(0.0683463266638 0.0363495071148 -8.73464041313e-22)
(0.0728153399177 0.0412643978726 -3.85354378685e-21)
(0.0791434300974 0.0488283257937 -4.4495163609e-21)
(0.0888152749855 0.0517980297745 -2.12651994789e-20)
(0.102970786941 0.0556701799769 -2.00727348399e-20)
(0.112407275326 0.0649653233279 -3.79358930461e-20)
(0.231150853286 -0.021672903267 9.16050097933e-21)
(0.0506830660829 0.00107531129632 -7.28609240527e-22)
(0.0493015479079 0.00335593043048 -3.48325892649e-22)
(0.0485223309523 0.00532743448903 -5.44532878913e-22)
(0.0486276422549 0.0075473115517 -1.07201145711e-22)
(0.0491510050863 0.00973799286759 -5.19490213853e-23)
(0.0498980811768 0.0120596886013 3.65411261782e-24)
(0.0508219086783 0.0145132613043 -2.53800738411e-24)
(0.0519209286397 0.0171310701132 -8.90133408387e-24)
(0.0532048026959 0.0199551523485 -6.1984991175e-24)
(0.0546882415264 0.023035907566 4.10116141299e-24)
(0.0563870930123 0.0264375240902 -5.04994061228e-23)
(0.0583322726548 0.0302288015594 -2.28871834133e-23)
(0.0605759678864 0.0345075482351 -1.55204406794e-22)
(0.0632689118699 0.0394385673542 -3.40281947901e-22)
(0.0668456807648 0.0449111778011 -2.06297782611e-21)
(0.0723231783447 0.0530522795949 -1.59531175337e-21)
(0.0810700812203 0.0568665407622 -4.04264957213e-21)
(0.0945697769426 0.0607310934655 -9.81509555342e-21)
(0.120702630755 0.0713016649244 -9.42966965867e-21)
(0.414235753296 -0.0525435879159 -1.80684406832e-21)
(0.0484391222207 0.00116573855859 -4.34803289521e-22)
(0.0471122404313 0.00356387052729 4.12860348929e-23)
(0.0463413433351 0.00567235089556 7.09555899312e-23)
(0.0463894590677 0.00804111620743 8.12386806026e-23)
(0.0468231647469 0.0103730533461 6.08841277001e-24)
(0.0474500040831 0.0128350662205 3.13555006945e-24)
(0.0482197362146 0.0154364321255 -2.8150957053e-24)
(0.0491292958101 0.0182126164931 -2.68575369262e-23)
(0.0501782920781 0.0212047855183 -1.77533082652e-23)
(0.0513737589502 0.0244622754423 1.64618378146e-24)
(0.052718327776 0.028051628337 -4.81442039758e-23)
(0.0542156582126 0.0320432034146 -1.10365414795e-23)
(0.0558985863001 0.0365360169583 -6.01644618125e-23)
(0.0578713237766 0.0416761959573 -2.08174900137e-22)
(0.0605240407055 0.0474189890173 -1.31552473611e-21)
(0.065011049547 0.0554071688235 -1.15657582705e-21)
(0.0724375443169 0.0597393273745 1.89690653601e-21)
(0.083431658196 0.062870372327 -3.30292522891e-21)
(0.112009228652 0.0702950222579 -1.49947673078e-20)
(0.613510277715 0.0345253131498 -3.73216215835e-20)
(0.0460619825958 0.00122261099341 -2.86815097495e-22)
(0.0447911515723 0.00373435667684 4.47237355302e-22)
(0.0440304706295 0.0059587647237 2.18682316244e-22)
(0.0440229362612 0.00843971040211 7.47251537868e-23)
(0.0443641627518 0.0108899091989 -3.48526194353e-23)
(0.0448674623575 0.0134690221331 -7.36182126571e-24)
(0.0454851372657 0.0161880702015 1.03808096075e-23)
(0.0462041263481 0.0190811707751 1.26655438353e-23)
(0.0470157386817 0.0221892109803 3.14942695181e-23)
(0.0479197594684 0.0255631913225 1.59616907081e-23)
(0.0489069252317 0.0292590629487 -1.87558184361e-23)
(0.049963871784 0.0333502106187 -3.36677385156e-23)
(0.0511111399596 0.0379240721535 -4.91115671301e-23)
(0.0524227987564 0.0430900822641 -3.98079132031e-22)
(0.0542622521467 0.0488785047345 -1.89660899033e-21)
(0.0576516248995 0.0565165176952 -7.68694522656e-21)
(0.0631685449004 0.0613035688226 -1.53517139712e-20)
(0.0696281984845 0.06441616917 -9.44509820898e-21)
(0.0987270164219 0.0778903558282 -7.5742528866e-21)
(0.601095452016 0.0963830109608 -7.78958830816e-21)
(0.0435569232318 0.00128028857099 -2.33572553724e-22)
(0.0423546019948 0.00387412529757 5.43942552803e-22)
(0.0415986785945 0.00618851825516 1.46514159866e-22)
(0.0409767710773 0.00133562186222 -2.53868859888e-22)
(0.0383492328013 0.00137616812555 1.95316834687e-23)
(0.035676538074 0.00141635981992 8.83697813474e-24)
)
;

boundaryField
{
    back
    {
        type            noSlip;
    }
    sides
    {
        type            noSlip;
    }
    bottom
    {
        type            noSlip;
    }
    front
    {
        type            noSlip;
    }
    atmosphere
    {
        type            pressureInletOutletVelocity;
        value           nonuniform List<vector> 8((0 -0.0521263013711 0) (0 -0.0336391073056 0) (0 -0.0150642905585 0) (0 -0.0121016961375 0) (0 -0.021672903267 0) (0 -0.0525435879159 0) (0 0.0345253131498 0) (0.601095452016 0.0963830109608 -7.78958830816e-21));
    }
    floatingObject
    {
        type            movingWallVelocity;
        value           nonuniform List<vector> 0();
    }
    procBoundary9to6
    {
        type            processor;
        value           nonuniform List<vector> 4((0.0993867823718 0.0120608391798 -6.6566696374e-21) (0.0935930479633 0.00795082509296 -7.6577600879e-21) (-0.0124234214123 0.00296243191398 -1.41980412477e-20) (0.000823564638982 -0.0284904498801 1.21705822398e-20));
    }
    procBoundary9to7
    {
        type            processor;
        value           nonuniform List<vector> 
16
(
(0.0603916946138 0.000406453340964 -5.58973575471e-22)
(0.058633388829 0.00149209256093 -1.19723313871e-22)
(0.0578082490676 0.00225206915544 -2.65548435862e-22)
(0.0581163701685 0.00318173776355 8.23186288301e-23)
(0.0590212976876 0.00408668815871 -1.68756984583e-25)
(0.0602778121806 0.00503681658273 -2.32024104816e-24)
(0.0618267408028 0.00603325677302 -9.40554861394e-24)
(0.0636740054102 0.00707409935961 -1.29533124041e-23)
(0.0658260513902 0.00817908471348 1.99811420048e-23)
(0.06830896145 0.00932163365339 -4.40917914937e-25)
(0.0711604492089 0.0104819082924 3.1112559786e-24)
(0.0744106225774 0.0116294070987 5.29878996445e-23)
(0.0781428069685 0.0126801340759 4.41977644887e-22)
(0.0825196735013 0.0135274207397 1.4879811569e-21)
(0.0878238343982 0.0141465270319 7.72615252014e-22)
(0.0937285790443 0.0133515318296 -1.67908687664e-21)
)
;
    }
    procBoundary9to10
    {
        type            processor;
        value           nonuniform List<vector> 
15
(
(0.0415441295834 0.00876128942919 5.34730966123e-23)
(0.0418014884065 0.0113014534718 -5.05052597013e-23)
(0.0421873383546 0.0139671036981 -1.34437006091e-23)
(0.0426549782561 0.0167686814146 1.78676301462e-24)
(0.0431846299932 0.0197354491879 9.03765053642e-24)
(0.0437645306268 0.022910912713 3.29319480209e-23)
(0.0443868744868 0.0263420846701 8.88485688188e-24)
(0.0450284364028 0.0300762381602 -6.51024957077e-24)
(0.0398402748715 0.00398322452749 5.12417152244e-22)
(0.0415441295834 0.00876128942919 5.34730966123e-23)
(0.0390936924048 0.00636685069248 -2.013014741e-22)
(0.0398402748715 0.00398322452749 5.12417152244e-22)
(0.0372762921622 0.00406123111127 1.61400195549e-22)
(0.0346658295953 0.00410770163273 5.17613478549e-22)
(0.0329660045651 0.00143737100332 7.56759744128e-22)
)
;
    }
    procBoundary9to11
    {
        type            processor;
        value           nonuniform List<vector> 9((0.0456764899752 0.0341863380097 -1.87785436356e-23) (0.046329324049 0.0387455288274 2.36206336897e-23) (0.0470631683311 0.0438509762715 -2.75253647913e-22) (0.0481786163875 0.0496409895226 -2.71097319221e-21) (0.0501723386792 0.0570525017674 -5.8750380008e-21) (0.0531304501221 0.0624670591965 -1.83487717083e-20) (0.0545029153169 0.0646071858763 -1.31765104415e-20) (0.0823023342422 0.0877454188103 -1.11849505798e-20) (0.545459227271 0.251267676879 -3.21870346577e-21));
    }
}


// ************************************************************************* //
