/*--------------------------------*- C++ -*----------------------------------*\
| =========                 |                                                 |
| \\      /  F ield         | OpenFOAM: The Open Source CFD Toolbox           |
|  \\    /   O peration     | Version:  v2012                                 |
|   \\  /    A nd           | Website:  www.openfoam.com                      |
|    \\/     M anipulation  |                                                 |
\*---------------------------------------------------------------------------*/
FoamFile
{
    version     2.0;
    format      ascii;
    class       surfaceScalarField;
    location    "2.9";
    object      alphaPhi0.water;
}
// * * * * * * * * * * * * * * * * * * * * * * * * * * * * * * * * * * * * * //

dimensions      [0 3 -1 0 0 0 0];
oriented        oriented;


internalField   nonuniform List<scalar> 
304
(
-0.000108670671681
-0.000124013079598
-0.000171550390966
-0.000141965495954
-0.000180669498795
-0.000163337200714
-0.000188967808207
-0.000187785282288
-0.000195122550917
-0.000212711583629
-0.00019918194276
-9.77659644213e-05
-0.000175732497034
-2.08665103512e-08
-4.30067078086e-05
-4.53765571534e-09
-0.000133919604679
-0.000154735983423
-0.000152984407496
-0.000161607565068
-0.000174375088186
-0.000167580017206
-0.000197505173179
-0.00017199389279
-0.000222820033881
-0.000173865674744
-0.000110616181505
-0.000152919872686
-5.01535504131e-08
-3.99680380173e-05
-1.92394889592e-08
-0.00014162162133
-0.000136909666273
-0.000161459970753
-0.000141771387283
-0.000182300365146
-0.000146741545502
-0.000201186167198
-0.000153109987651
-0.000217733880319
-0.000157316944375
-0.000115801893131
-0.000124141595425
-5.81007737761e-07
-2.77439595977e-05
-1.67354162423e-08
-0.000128507307306
-0.00011587530694
-0.000147361844035
-0.000118056764434
-0.000168873596442
-0.000120261268334
-0.000192890439218
-0.000122726298096
-0.000217207151829
-0.000128795065726
-0.000238876966155
-0.000135644710044
-0.000124203253061
-0.000100601193366
-6.19803429087e-07
-2.0760940113e-05
-1.94931889808e-08
-0.000130881741198
-9.90169007585e-05
-0.000150221396773
-9.87185587204e-05
-0.000172738201751
-9.77458614292e-05
-0.000199331144853
-9.61347458221e-05
-0.00023095363702
-9.71741822547e-05
-0.000263557282191
-0.000103035610877
-0.000136061294394
-7.82081470413e-05
-8.73997322866e-07
-1.82691735893e-05
1.24330164653e-08
-0.000130727507155
-8.24276521954e-05
-0.00014985145826
-7.95959258533e-05
-0.000172312931786
-7.52857170537e-05
-0.000199389557316
-6.90592782579e-05
-0.000232773436312
-6.37908162198e-05
-0.000274722136731
-6.10786194222e-05
-0.000150783433643
-4.1442702701e-05
-3.25604444465e-07
-1.13715825562e-05
5.09732870043e-08
-0.000112316697632
-7.0202763868e-05
-0.000128102553457
-6.66435062581e-05
-0.000146125693241
-6.157397491e-05
-0.000167149972968
-5.42602171144e-05
-0.000192553756324
-4.36578142679e-05
-0.000224238219814
-3.21075312695e-05
-0.000265200085824
-2.01095086487e-05
-0.000151048931352
-1.85503209521e-06
-3.67656421598e-07
-5.35371345007e-07
-8.56450598991e-09
-9.57117031414e-05
-6.07311768116e-05
-0.000108803870578
-5.71124448701e-05
-0.000123273493431
-5.21753439428e-05
-0.000139447258018
-4.54012613551e-05
-0.000157987485754
-3.57192582789e-05
-0.000179085109557
-2.25607374732e-05
-0.000203973454254
-7.21993844855e-06
-0.000237394381102
1.33177656681e-05
-0.000139585978897
3.70688104887e-05
7.96447410755e-08
1.30100608778e-05
-1.32080511328e-09
-9.21148347163e-05
-0.000103953949241
-4.52751536538e-05
-0.000116813668152
-3.93168854189e-05
-0.00013068201622
-3.15338186887e-05
-0.000145704113151
-2.06967865159e-05
-0.000162308609222
-5.95702813256e-06
-0.000180227762452
1.06990310709e-05
-0.000205149205048
3.82441951191e-05
-0.000119344397706
6.75519111325e-05
-1.56620227123e-07
2.52585983043e-05
-2.7810850658e-09
-9.82415081038e-05
-3.48855417685e-05
-0.000109026531786
-2.85328901368e-05
-0.000120417614863
-2.01434760155e-05
-0.000132474711658
-8.63947015594e-06
-0.000144881359418
6.44663016408e-06
-0.000158403319389
2.4221136663e-05
-0.00017394971562
5.37952845992e-05
-9.43847901018e-05
8.53200061961e-05
-1.17358954605e-07
3.10353605406e-05
6.70408907623e-10
-9.20041666573e-05
-2.5875394464e-05
-0.000100973172059
-1.95646898111e-05
-0.000109938167385
-1.11790927375e-05
-0.00011842447954
-1.52996182443e-07
-0.000126911394587
1.49283167672e-05
-0.000134985683642
3.22954520403e-05
-0.000143709618843
6.25217208825e-05
-7.17269621905e-05
9.4014109229e-05
-1.37103707145e-09
3.2500064612e-05
-4.89992862622e-11
-8.55521901405e-05
-1.85097809713e-05
-9.2771047536e-05
-1.23464432142e-05
-9.95045513301e-05
-4.44606356907e-06
-0.00010531889113
5.66139341426e-06
-0.000109729685325
1.93396265209e-05
-0.000113506021825
3.60717535935e-05
-0.000116688277627
6.57040199769e-05
-5.15271071784e-05
9.29739146518e-05
-4.32837482017e-08
3.03257715837e-05
-3.49182946171e-09
-7.95083673668e-05
-1.24208995947e-05
-8.49520672994e-05
-6.90321921411e-06
-8.95921608069e-05
1.93661794242e-07
-9.30574465804e-05
9.12674757914e-06
-9.50870095827e-05
2.13710145279e-05
-9.513259749e-05
3.61173923196e-05
-9.29885735504e-05
6.35594662164e-05
-3.19922639525e-05
7.82664307202e-05
-5.40736856274e-08
2.40263498347e-05
-9.53781592485e-12
-7.36270988302e-05
-7.56034579521e-06
-7.75352068738e-05
-2.995487762e-06
-8.02752502537e-05
2.93345545679e-06
-8.17731690861e-05
1.06248985736e-05
-8.155180111e-05
2.11474922096e-05
-7.85406598049e-05
3.31063072451e-05
-7.23120251048e-05
5.73300741452e-05
-1.66845450673e-05
5.29267933219e-05
-1.00347574302e-08
1.10505292572e-05
-3.41150376637e-08
-6.38123399653e-05
-6.46157896288e-06
-6.74583592132e-05
-3.91463413727e-06
-6.98860777057e-05
-5.68012316396e-07
-7.0811732969e-05
3.85895969634e-06
-7.02169197596e-05
1.00303310229e-05
-6.74595662363e-05
1.83900290388e-05
-6.23752694643e-05
2.80220514866e-05
-5.17656243897e-05
4.67203055481e-05
-7.04738726876e-06
2.56912849012e-05
-7.75923043907e-08
1.28333302133e-06
2.8427356998e-07
-5.78868515296e-05
-2.81926536458e-06
-6.03925145925e-05
-1.40919527718e-06
-6.13009919665e-05
3.40290747751e-07
-6.05127327453e-05
3.07063221384e-06
-5.74494181695e-05
6.96723376186e-06
-5.11216752957e-05
1.20624133482e-05
-4.10574727566e-05
1.79578369788e-05
-2.32125708033e-05
2.88745587168e-05
3.18328050396e-07
6.83855186968e-06
-1.84402166145e-07
-7.39278133471e-06
1.14835134676e-08
-5.20606651523e-05
-5.34699486831e-05
-5.31297065483e-05
-5.00590950111e-05
-4.30917772205e-05
-3.10293697098e-05
-1.3071474774e-05
1.58031051429e-05
6.61403721052e-06
-1.41384055611e-06
)
;

boundaryField
{
    back
    {
        type            calculated;
        value           uniform 0;
    }
    sides
    {
        type            calculated;
        value           uniform 0;
    }
    bottom
    {
        type            calculated;
        value           nonuniform List<scalar> 0();
    }
    front
    {
        type            calculated;
        value           uniform 0;
    }
    atmosphere
    {
        type            calculated;
        value           nonuniform List<scalar> 
17
(
8.51250756816e-10
-3.07808749755e-09
-5.86117892921e-07
-6.19289251688e-07
-8.50770624147e-07
-2.78671381324e-07
-1.48855825909e-07
5.10864466493e-09
-1.50885279091e-07
-1.20202401462e-07
-6.51550926719e-10
-3.9840918446e-08
-5.75567724433e-08
2.41082231805e-08
-4.43644419603e-07
8.85204941829e-08
-1.40313665334e-06
)
;
    }
    floatingObject
    {
        type            calculated;
        value           nonuniform List<scalar> 0();
    }
    procBoundary11to9
    {
        type            processor;
        value           nonuniform List<scalar> 9(0.000176694932649 0.000186887188701 0.000198616681255 0.000210334280087 0.000219567829382 0.000224106739596 0.000187502415603 4.37861715501e-05 -1.95475241509e-09);
    }
    procBoundary11to10
    {
        type            processor;
        value           nonuniform List<scalar> 
23
(
9.50101735157e-05
-0.000163039593129
0.00011710097663
0.000123792664316
0.000132436811318
0.000111942522543
0.000114020185005
0.000114135694892
8.42440738496e-05
9.82718305663e-05
7.26744364248e-05
8.37642728838e-05
8.1066826316e-05
-4.9685467867e-05
8.78499979625e-05
8.29925580313e-05
7.81855444546e-05
7.34184430301e-05
6.87659940027e-05
1.10464852157e-05
5.92267924304e-05
5.42439627394e-05
4.92412168229e-05
)
;
    }
}


// ************************************************************************* //
