/*--------------------------------*- C++ -*----------------------------------*\
| =========                 |                                                 |
| \\      /  F ield         | OpenFOAM: The Open Source CFD Toolbox           |
|  \\    /   O peration     | Version:  v2012                                 |
|   \\  /    A nd           | Website:  www.openfoam.com                      |
|    \\/     M anipulation  |                                                 |
\*---------------------------------------------------------------------------*/
FoamFile
{
    version     2.0;
    format      ascii;
    class       volScalarField;
    location    "1.9";
    object      ddt0(epsilon);
}
// * * * * * * * * * * * * * * * * * * * * * * * * * * * * * * * * * * * * * //

dimensions      [0 2 -4 0 0 0 0];


internalField   nonuniform List<scalar> 
166
(
-0.0078732650577
-0.00788917024497
-0.00790710118252
-0.00793080174497
-0.00797586341827
-0.00809527840914
-0.00844572342689
-0.00939749757864
-0.0116691734841
-0.015978697745
-0.0214108591714
-0.0271727183429
-0.0186983208351
-0.00787557317843
-0.00788820091592
-0.0079024910252
-0.00791831090178
-0.00793609711014
-0.00795809061971
-0.00799582115087
-0.00809149524334
-0.00837172514515
-0.00914462876546
-0.010933959059
-0.0137467712187
-0.0150049585852
-0.0204882435731
-0.0520691170798
-0.0071381650567
-0.00725585867437
-0.00789214603393
-0.00790513776706
-0.00791782405423
-0.00793221176808
-0.00794836527982
-0.0079663112243
-0.00798749627014
-0.00802011512501
-0.00809713997209
-0.0083227123626
-0.00893993602685
-0.0101732445629
-0.0108095509469
-0.0057698100875
0.000639234128636
-0.00414171310652
-0.00715933100501
-0.00727370645611
-0.00777027156417
-0.00789262501617
-0.00792195570225
-0.00793514669366
-0.00794796929701
-0.00796259579518
-0.00797910713253
-0.00799743009647
-0.0080183106739
-0.00804738110001
-0.00811034560703
-0.00829317610611
-0.00878313457426
-0.00957287688114
-0.00861866687077
-0.00079550380511
0.0037536807541
-0.00563389181413
-0.00717512974456
-0.00729432116086
-0.00779646677109
-0.00792157014637
-0.00795178536743
-0.00796530374742
-0.00797835371516
-0.00799327608706
-0.00801022357776
-0.00802910824189
-0.00805008253694
-0.00807690200618
-0.00812960610365
-0.00827910691728
-0.00866691312411
-0.00912031160849
-0.0072252668036
0.000491596851838
-0.00525118096957
-0.0142109693531
-0.00719027903087
-0.00731457074446
-0.00782252700391
-0.00795039499159
-0.00798153401427
-0.00799539852351
-0.0080087212052
-0.00802406339444
-0.00804151716695
-0.00806097080651
-0.00808236254979
-0.00810796181412
-0.00815355367757
-0.00827838823375
-0.00858948391283
-0.00882910606252
-0.00668305251032
-0.00116586821684
-0.0174155557442
-0.023819793083
-0.00720492320475
-0.00733427517385
-0.00784818972936
-0.00797888217424
-0.00801101629924
-0.00802528863064
-0.00803892373685
-0.00805461906614
-0.00807262143287
-0.00809275724084
-0.00811477006818
-0.00813994939046
-0.00818087609385
-0.00828820808334
-0.00854840582656
-0.0087000219539
-0.00697959661733
-0.00533019704494
-0.0313586108688
-0.0334332858988
-0.0072181411706
-0.00735313684581
-0.00787321796709
-0.00800681684792
-0.00803999504471
-0.00805469371618
-0.00806865253738
-0.00808472215413
-0.00810327183139
-0.00812411143996
-0.00814682544607
-0.00817202675442
-0.00820993417203
-0.00830476263959
-0.00853405517323
-0.0087170789119
-0.00796832762556
-0.0111408833066
-0.0455581813506
-0.0415764047864
-0.00723009342102
-0.00737108383957
-0.00789744332132
-0.00803403738229
-0.00806830269444
-0.0080834577253
-0.00809777441136
-0.00811424687125
-0.00813326540645
-0.0081547565742
-0.00817815937156
-0.00820355523056
-0.00823913371144
-0.00832397541397
-0.0085363920162
-0.00883417984273
-0.00934906886431
-0.0176509422608
-0.0565920451359
-0.0456289569181
)
;

boundaryField
{
    back
    {
        type            calculated;
        value           nonuniform List<scalar> 
166
(
-0.0078732650577
-0.00788917024497
-0.00790710118252
-0.00793080174497
-0.00797586341827
-0.00809527840914
-0.00844572342689
-0.00939749757864
-0.0116691734841
-0.015978697745
-0.0214108591714
-0.0271727183429
-0.0186983208351
-0.00787557317843
-0.00788820091592
-0.0079024910252
-0.00791831090178
-0.00793609711014
-0.00795809061971
-0.00799582115087
-0.00809149524334
-0.00837172514515
-0.00914462876546
-0.010933959059
-0.0137467712187
-0.0150049585852
-0.0204882435731
-0.0520691170798
-0.0071381650567
-0.00725585867437
-0.00789214603393
-0.00790513776706
-0.00791782405423
-0.00793221176808
-0.00794836527982
-0.0079663112243
-0.00798749627014
-0.00802011512501
-0.00809713997209
-0.0083227123626
-0.00893993602685
-0.0101732445629
-0.0108095509469
-0.0057698100875
0.000639234128635
-0.00414171310652
-0.00715933100501
-0.00727370645611
-0.00777027156417
-0.00789262501617
-0.00792195570225
-0.00793514669366
-0.00794796929701
-0.00796259579518
-0.00797910713253
-0.00799743009647
-0.0080183106739
-0.00804738110001
-0.00811034560703
-0.00829317610611
-0.00878313457426
-0.00957287688114
-0.00861866687077
-0.00079550380511
0.0037536807541
-0.00563389181413
-0.00717512974456
-0.00729432116086
-0.00779646677109
-0.00792157014637
-0.00795178536743
-0.00796530374742
-0.00797835371516
-0.00799327608706
-0.00801022357776
-0.00802910824189
-0.00805008253694
-0.00807690200618
-0.00812960610365
-0.00827910691728
-0.00866691312411
-0.00912031160849
-0.0072252668036
0.000491596851838
-0.00525118096957
-0.0142109693531
-0.00719027903087
-0.00731457074446
-0.00782252700391
-0.00795039499159
-0.00798153401427
-0.00799539852351
-0.0080087212052
-0.00802406339444
-0.00804151716695
-0.00806097080651
-0.00808236254979
-0.00810796181412
-0.00815355367757
-0.00827838823375
-0.00858948391283
-0.00882910606252
-0.00668305251032
-0.00116586821684
-0.0174155557442
-0.023819793083
-0.00720492320475
-0.00733427517385
-0.00784818972936
-0.00797888217424
-0.00801101629924
-0.00802528863064
-0.00803892373685
-0.00805461906614
-0.00807262143287
-0.00809275724084
-0.00811477006818
-0.00813994939046
-0.00818087609385
-0.00828820808334
-0.00854840582656
-0.0087000219539
-0.00697959661733
-0.00533019704494
-0.0313586108688
-0.0334332858988
-0.0072181411706
-0.00735313684581
-0.00787321796709
-0.00800681684792
-0.00803999504471
-0.00805469371618
-0.00806865253738
-0.00808472215413
-0.00810327183139
-0.00812411143996
-0.00814682544607
-0.00817202675442
-0.00820993417203
-0.00830476263959
-0.00853405517323
-0.0087170789119
-0.00796832762556
-0.0111408833066
-0.0455581813506
-0.0415764047864
-0.00723009342102
-0.00737108383957
-0.00789744332132
-0.00803403738229
-0.00806830269444
-0.0080834577253
-0.00809777441136
-0.00811424687125
-0.00813326540645
-0.0081547565742
-0.00817815937156
-0.00820355523056
-0.00823913371144
-0.00832397541397
-0.0085363920162
-0.00883417984273
-0.00934906886431
-0.0176509422608
-0.0565920451359
-0.0456289569181
)
;
    }
    sides
    {
        type            calculated;
        value           nonuniform List<scalar> 0();
    }
    bottom
    {
        type            calculated;
        value           nonuniform List<scalar> 7(-0.0071381650567 -0.00715933100501 -0.00717512974456 -0.00719027903087 -0.00720492320475 -0.0072181411706 -0.00723009342102);
    }
    front
    {
        type            calculated;
        value           nonuniform List<scalar> 
166
(
-0.0078732650577
-0.00788917024497
-0.00790710118252
-0.00793080174497
-0.00797586341827
-0.00809527840914
-0.00844572342689
-0.00939749757864
-0.0116691734841
-0.015978697745
-0.0214108591714
-0.0271727183429
-0.0186983208351
-0.00787557317843
-0.00788820091592
-0.0079024910252
-0.00791831090178
-0.00793609711014
-0.00795809061971
-0.00799582115087
-0.00809149524334
-0.00837172514515
-0.00914462876546
-0.010933959059
-0.0137467712187
-0.0150049585852
-0.0204882435731
-0.0520691170798
-0.0071381650567
-0.00725585867437
-0.00789214603393
-0.00790513776706
-0.00791782405423
-0.00793221176808
-0.00794836527982
-0.0079663112243
-0.00798749627014
-0.00802011512501
-0.00809713997209
-0.0083227123626
-0.00893993602685
-0.0101732445629
-0.0108095509469
-0.0057698100875
0.000639234128635
-0.00414171310652
-0.00715933100501
-0.00727370645611
-0.00777027156417
-0.00789262501617
-0.00792195570225
-0.00793514669366
-0.00794796929701
-0.00796259579518
-0.00797910713253
-0.00799743009647
-0.0080183106739
-0.00804738110001
-0.00811034560703
-0.00829317610611
-0.00878313457426
-0.00957287688114
-0.00861866687077
-0.00079550380511
0.0037536807541
-0.00563389181413
-0.00717512974456
-0.00729432116086
-0.00779646677109
-0.00792157014637
-0.00795178536743
-0.00796530374742
-0.00797835371516
-0.00799327608706
-0.00801022357776
-0.00802910824189
-0.00805008253694
-0.00807690200618
-0.00812960610365
-0.00827910691728
-0.00866691312411
-0.00912031160849
-0.0072252668036
0.000491596851838
-0.00525118096957
-0.0142109693531
-0.00719027903087
-0.00731457074446
-0.00782252700391
-0.00795039499159
-0.00798153401427
-0.00799539852351
-0.0080087212052
-0.00802406339444
-0.00804151716695
-0.00806097080651
-0.00808236254979
-0.00810796181412
-0.00815355367757
-0.00827838823375
-0.00858948391283
-0.00882910606252
-0.00668305251032
-0.00116586821684
-0.0174155557442
-0.023819793083
-0.00720492320475
-0.00733427517385
-0.00784818972936
-0.00797888217424
-0.00801101629924
-0.00802528863064
-0.00803892373685
-0.00805461906614
-0.00807262143287
-0.00809275724084
-0.00811477006818
-0.00813994939046
-0.00818087609385
-0.00828820808334
-0.00854840582656
-0.0087000219539
-0.00697959661733
-0.00533019704494
-0.0313586108688
-0.0334332858988
-0.0072181411706
-0.00735313684581
-0.00787321796709
-0.00800681684792
-0.00803999504471
-0.00805469371618
-0.00806865253738
-0.00808472215413
-0.00810327183139
-0.00812411143996
-0.00814682544607
-0.00817202675442
-0.00820993417203
-0.00830476263959
-0.00853405517323
-0.0087170789119
-0.00796832762556
-0.0111408833066
-0.0455581813506
-0.0415764047864
-0.00723009342102
-0.00737108383957
-0.00789744332132
-0.00803403738229
-0.00806830269444
-0.0080834577253
-0.00809777441136
-0.00811424687125
-0.00813326540645
-0.0081547565742
-0.00817815937156
-0.00820355523056
-0.00823913371144
-0.00832397541397
-0.0085363920162
-0.00883417984273
-0.00934906886431
-0.0176509422608
-0.0565920451359
-0.0456289569181
)
;
    }
    atmosphere
    {
        type            calculated;
        value           nonuniform List<scalar> 9(-0.0186983208391 3.01118911471 0 0 0 0 0 0 0);
    }
    floatingObject
    {
        type            calculated;
        value           nonuniform List<scalar> 0();
    }
    procBoundary0to1
    {
        type            processor;
        value           nonuniform List<scalar> 10(-0.00790315637966 -0.00795336367621 -0.00809876498662 -0.00853800145669 -0.0097254982686 -0.0124366343147 -0.0177179832016 -0.0237917559276 -0.0105474179105 0.0960165787912);
    }
    procBoundary0to2
    {
        type            processor;
        value           nonuniform List<scalar> 
14
(
-0.00784497693789
-0.00786088962682
-0.00787883437521
-0.00784642818455
-0.0078589483385
-0.0078589483385
-0.00711302632487
-0.00723842370398
-0.00786299315985
-0.00786299315985
-0.00774458961133
-0.00774458961133
-0.00786360825614
-0.00786360825614
)
;
    }
    procBoundary0to4
    {
        type            processor;
        value           nonuniform List<scalar> 8(-0.00724033117744 -0.00738766882255 -0.00792062542034 -0.00806036090803 -0.00809575591508 -0.00811139113616 -0.00812607575639 -0.0081429642892);
    }
    procBoundary0to5
    {
        type            processor;
        value           nonuniform List<scalar> 
12
(
-0.00816243315682
-0.00818448410974
-0.00820847819436
-0.00823396062845
-0.00826713813809
-0.00834245515909
-0.00854215945648
-0.00896058361467
-0.0106176235102
-0.0239948649531
-0.0693855822876
-0.0678859433236
)
;
    }
}


// ************************************************************************* //
