/*--------------------------------*- C++ -*----------------------------------*\
| =========                 |                                                 |
| \\      /  F ield         | OpenFOAM: The Open Source CFD Toolbox           |
|  \\    /   O peration     | Version:  v2012                                 |
|   \\  /    A nd           | Website:  www.openfoam.com                      |
|    \\/     M anipulation  |                                                 |
\*---------------------------------------------------------------------------*/
FoamFile
{
    version     2.0;
    format      ascii;
    class       volScalarField;
    location    "1.9";
    object      k_0;
}
// * * * * * * * * * * * * * * * * * * * * * * * * * * * * * * * * * * * * * //

dimensions      [0 2 -2 0 0 0 0];


internalField   nonuniform List<scalar> 
166
(
0.00910590481065
0.00912397293681
0.00914551253587
0.00917494935314
0.00922812411368
0.00935327406981
0.0096725327252
0.0104313589124
0.011986493555
0.0146830330935
0.0189188737655
0.0254351515384
0.0336704712505
0.00909167836692
0.00910596603683
0.00912135460752
0.00913892496545
0.00915983473329
0.0091882655537
0.00923924077378
0.00935903206796
0.00966642565779
0.0104061778702
0.0119645166029
0.0148564985697
0.0201056703647
0.0297792917217
0.0433961036178
0.00684769506361
0.008466227916
0.00908997432653
0.0091073118747
0.00912127398758
0.00913628948345
0.00915342627714
0.00917376375536
0.00920119637964
0.00924984198097
0.00936351707651
0.00965568315596
0.0103643026526
0.0119012694571
0.0150457040255
0.0220018505859
0.0379711733197
0.0733613686662
0.00685899770792
0.00847983404335
0.00893161736304
0.00906517657153
0.00910507397983
0.0091222635243
0.00913598122868
0.00915070139972
0.00916747988437
0.00918732165044
0.00921381073143
0.00926012649717
0.00936753336523
0.00964408636078
0.010321376939
0.0118341562744
0.0151531311639
0.0230450058023
0.0407508960148
0.0761609445757
0.00686921847655
0.00849228870843
0.00894529439491
0.00907941086376
0.00911942013912
0.00913652403268
0.00915007882478
0.00916459248433
0.00918111250547
0.00920053828658
0.00922617559487
0.00927023563695
0.00937148501335
0.0096329937482
0.0102831193639
0.0117823022067
0.0152500220548
0.0237268068851
0.0421132103548
0.076685773789
0.00687817514488
0.00850365554482
0.00895798768783
0.00909275769676
0.00913297606145
0.00915008442398
0.00916356503723
0.00917795215754
0.00919428776233
0.00921340348513
0.00923831514769
0.00928023665154
0.00937547220022
0.00962248083057
0.010247455712
0.0117376325525
0.0153324147142
0.0242112970215
0.0428939338138
0.076868869057
0.00688575144114
0.00851381554367
0.00896964269799
0.00910519595559
0.00914572257296
0.0091629162315
0.0091763910692
0.00919073571031
0.00920700542397
0.00922595700116
0.00925026036168
0.00929018628791
0.00937948935713
0.00961217714883
0.0102125017718
0.0116914465203
0.015383786534
0.0245225193444
0.04327347153
0.0769084294002
0.00689196672998
0.0085227824417
0.0089802608651
0.00911672083391
0.00915762873961
0.00917497729553
0.00918854035384
0.00920298001792
0.00921930290098
0.00923818766091
0.00926201741789
0.00930008009228
0.00938357298601
0.00960165278217
0.01017581376
0.0116374638494
0.0153832898926
0.024625018144
0.0432432469008
0.076809698148
0.00689677294881
0.00853035472573
0.00898971962605
0.00912724112884
0.00916863979131
0.00918624310285
0.00920000428355
0.00921462474516
0.00923112128591
0.00925009705806
0.00927363507811
0.00931001605461
0.00938777008756
0.00959085693669
0.0101362976376
0.0115670779633
0.0153031196035
0.0244436546282
0.0426227765811
0.0764352160263
)
;

boundaryField
{
    back
    {
        type            kqRWallFunction;
        value           nonuniform List<scalar> 
166
(
0.00910590481065
0.00912397293681
0.00914551253587
0.00917494935314
0.00922812411368
0.00935327406981
0.0096725327252
0.0104313589124
0.011986493555
0.0146830330935
0.0189188737655
0.0254351515384
0.0336704712505
0.00909167836692
0.00910596603683
0.00912135460752
0.00913892496545
0.00915983473329
0.0091882655537
0.00923924077378
0.00935903206796
0.00966642565779
0.0104061778702
0.0119645166029
0.0148564985697
0.0201056703647
0.0297792917217
0.0433961036178
0.00684769506361
0.008466227916
0.00908997432653
0.0091073118747
0.00912127398758
0.00913628948345
0.00915342627714
0.00917376375536
0.00920119637964
0.00924984198097
0.00936351707651
0.00965568315596
0.0103643026526
0.0119012694571
0.0150457040255
0.0220018505859
0.0379711733197
0.0733613686662
0.00685899770792
0.00847983404335
0.00893161736304
0.00906517657153
0.00910507397983
0.0091222635243
0.00913598122868
0.00915070139972
0.00916747988437
0.00918732165044
0.00921381073143
0.00926012649717
0.00936753336523
0.00964408636078
0.010321376939
0.0118341562744
0.0151531311639
0.0230450058023
0.0407508960148
0.0761609445757
0.00686921847655
0.00849228870843
0.00894529439491
0.00907941086376
0.00911942013912
0.00913652403268
0.00915007882478
0.00916459248433
0.00918111250547
0.00920053828658
0.00922617559487
0.00927023563695
0.00937148501335
0.0096329937482
0.0102831193639
0.0117823022067
0.0152500220548
0.0237268068851
0.0421132103548
0.076685773789
0.00687817514488
0.00850365554482
0.00895798768783
0.00909275769676
0.00913297606145
0.00915008442398
0.00916356503723
0.00917795215754
0.00919428776233
0.00921340348513
0.00923831514769
0.00928023665154
0.00937547220022
0.00962248083057
0.010247455712
0.0117376325525
0.0153324147142
0.0242112970215
0.0428939338138
0.076868869057
0.00688575144114
0.00851381554367
0.00896964269799
0.00910519595559
0.00914572257296
0.0091629162315
0.0091763910692
0.00919073571031
0.00920700542397
0.00922595700116
0.00925026036168
0.00929018628791
0.00937948935713
0.00961217714883
0.0102125017718
0.0116914465203
0.015383786534
0.0245225193444
0.04327347153
0.0769084294002
0.00689196672998
0.0085227824417
0.0089802608651
0.00911672083391
0.00915762873961
0.00917497729553
0.00918854035384
0.00920298001792
0.00921930290098
0.00923818766091
0.00926201741789
0.00930008009228
0.00938357298601
0.00960165278217
0.01017581376
0.0116374638494
0.0153832898926
0.024625018144
0.0432432469008
0.076809698148
0.00689677294881
0.00853035472573
0.00898971962605
0.00912724112884
0.00916863979131
0.00918624310285
0.00920000428355
0.00921462474516
0.00923112128591
0.00925009705806
0.00927363507811
0.00931001605461
0.00938777008756
0.00959085693669
0.0101362976376
0.0115670779633
0.0153031196035
0.0244436546282
0.0426227765811
0.0764352160263
)
;
    }
    sides
    {
        type            kqRWallFunction;
        value           nonuniform List<scalar> 0();
    }
    bottom
    {
        type            kqRWallFunction;
        value           nonuniform List<scalar> 7(0.00684769506361 0.00685899770792 0.00686921847655 0.00687817514488 0.00688575144114 0.00689196672998 0.00689677294881);
    }
    front
    {
        type            kqRWallFunction;
        value           nonuniform List<scalar> 
166
(
0.00910590481065
0.00912397293681
0.00914551253587
0.00917494935314
0.00922812411368
0.00935327406981
0.0096725327252
0.0104313589124
0.011986493555
0.0146830330935
0.0189188737655
0.0254351515384
0.0336704712505
0.00909167836692
0.00910596603683
0.00912135460752
0.00913892496545
0.00915983473329
0.0091882655537
0.00923924077378
0.00935903206796
0.00966642565779
0.0104061778702
0.0119645166029
0.0148564985697
0.0201056703647
0.0297792917217
0.0433961036178
0.00684769506361
0.008466227916
0.00908997432653
0.0091073118747
0.00912127398758
0.00913628948345
0.00915342627714
0.00917376375536
0.00920119637964
0.00924984198097
0.00936351707651
0.00965568315596
0.0103643026526
0.0119012694571
0.0150457040255
0.0220018505859
0.0379711733197
0.0733613686662
0.00685899770792
0.00847983404335
0.00893161736304
0.00906517657153
0.00910507397983
0.0091222635243
0.00913598122868
0.00915070139972
0.00916747988437
0.00918732165044
0.00921381073143
0.00926012649717
0.00936753336523
0.00964408636078
0.010321376939
0.0118341562744
0.0151531311639
0.0230450058023
0.0407508960148
0.0761609445757
0.00686921847655
0.00849228870843
0.00894529439491
0.00907941086376
0.00911942013912
0.00913652403268
0.00915007882478
0.00916459248433
0.00918111250547
0.00920053828658
0.00922617559487
0.00927023563695
0.00937148501335
0.0096329937482
0.0102831193639
0.0117823022067
0.0152500220548
0.0237268068851
0.0421132103548
0.076685773789
0.00687817514488
0.00850365554482
0.00895798768783
0.00909275769676
0.00913297606145
0.00915008442398
0.00916356503723
0.00917795215754
0.00919428776233
0.00921340348513
0.00923831514769
0.00928023665154
0.00937547220022
0.00962248083057
0.010247455712
0.0117376325525
0.0153324147142
0.0242112970215
0.0428939338138
0.076868869057
0.00688575144114
0.00851381554367
0.00896964269799
0.00910519595559
0.00914572257296
0.0091629162315
0.0091763910692
0.00919073571031
0.00920700542397
0.00922595700116
0.00925026036168
0.00929018628791
0.00937948935713
0.00961217714883
0.0102125017718
0.0116914465203
0.015383786534
0.0245225193444
0.04327347153
0.0769084294002
0.00689196672998
0.0085227824417
0.0089802608651
0.00911672083391
0.00915762873961
0.00917497729553
0.00918854035384
0.00920298001792
0.00921930290098
0.00923818766091
0.00926201741789
0.00930008009228
0.00938357298601
0.00960165278217
0.01017581376
0.0116374638494
0.0153832898926
0.024625018144
0.0432432469008
0.076809698148
0.00689677294881
0.00853035472573
0.00898971962605
0.00912724112884
0.00916863979131
0.00918624310285
0.00920000428355
0.00921462474516
0.00923112128591
0.00925009705806
0.00927363507811
0.00931001605461
0.00938777008756
0.00959085693669
0.0101362976376
0.0115670779633
0.0153031196035
0.0244436546282
0.0426227765811
0.0764352160263
)
;
    }
    atmosphere
    {
        type            inletOutlet;
        inletValue      uniform 0.1;
        value           nonuniform List<scalar> 9(0.0336704712505 0.1 0.1 0.1 0.1 0.1 0.1 0.1 0.1);
    }
    floatingObject
    {
        type            kqRWallFunction;
        value           nonuniform List<scalar> 0();
    }
    procBoundary0to1
    {
        type            processor;
        value           nonuniform List<scalar> 10(0.0091613852756 0.00921679882611 0.00934671992981 0.00967495019325 0.0104457297657 0.0119977378671 0.0146462854487 0.0189238249677 0.028139183633 0.0672538023983);
    }
    procBoundary0to2
    {
        type            processor;
        value           nonuniform List<scalar> 
14
(
0.00908994925986
0.00910860607809
0.00913084091293
0.00907535928784
0.00909005507141
0.00909005507141
0.00683560620341
0.00845140953667
0.00907408487064
0.00907408487064
0.00891699022556
0.00891699022556
0.00905011266498
0.00905011266498
)
;
    }
    procBoundary0to4
    {
        type            processor;
        value           nonuniform List<scalar> 8(0.00689993041143 0.00853646020857 0.00899791302867 0.00913666762353 0.00917867684892 0.00919663316235 0.00921068987612 0.00922561841537);
    }
    procBoundary0to5
    {
        type            processor;
        value           nonuniform List<scalar> 
12
(
0.00924244660375
0.00926167326614
0.00928509911918
0.00932000302644
0.00939219513573
0.00957992506856
0.0100934089391
0.0114749522862
0.0151288508007
0.0239326253368
0.0410204469012
0.0748214980335
)
;
    }
}


// ************************************************************************* //
