/*--------------------------------*- C++ -*----------------------------------*\
| =========                 |                                                 |
| \\      /  F ield         | OpenFOAM: The Open Source CFD Toolbox           |
|  \\    /   O peration     | Version:  v2012                                 |
|   \\  /    A nd           | Website:  www.openfoam.com                      |
|    \\/     M anipulation  |                                                 |
\*---------------------------------------------------------------------------*/
FoamFile
{
    version     2.0;
    format      ascii;
    class       surfaceScalarField;
    location    "5.1";
    object      phi;
}
// * * * * * * * * * * * * * * * * * * * * * * * * * * * * * * * * * * * * * //

dimensions      [0 3 -1 0 0 0 0];
oriented        oriented;


internalField   nonuniform List<scalar> 
300
(
6.59512915601e-06
-1.77660826207e-05
1.36193690932e-05
-1.93234643929e-05
2.08364893564e-05
-2.00356461833e-05
2.80859183024e-05
-1.93469035526e-05
3.56951671166e-05
-1.74474280283e-05
4.46541993225e-05
-1.41976472059e-05
6.02797060892e-05
-2.23120309048e-06
0.000101230174305
1.47423991173e-05
0.000120463112951
-1.92269403645e-05
0.000161342397079
-4.08686518613e-05
0.000185649312618
-2.42835554519e-05
0.000161067091056
2.46285010787e-05
0.000129061750683
4.98329807368e-05
-1.42521104763e-05
7.513878133e-06
-2.52810735226e-05
1.54403606907e-05
-2.72510878382e-05
2.38378023043e-05
-2.8434305393e-05
3.23256697284e-05
-2.78359422276e-05
4.02631901182e-05
-2.53858325044e-05
4.76004673374e-05
-2.15349696066e-05
6.0809329975e-05
-1.5438470627e-05
8.69503657936e-05
-1.13944181899e-05
9.77961999561e-05
-3.00647781494e-05
0.000103837898762
-4.6897361419e-05
0.000113987054104
-3.44113207632e-05
0.000136337193294
2.3150612779e-06
0.000150648733732
3.55728806269e-05
-9.98569213558e-06
8.24674084044e-06
-3.35282364577e-05
1.69462928768e-05
-3.59509925291e-05
2.61216791095e-05
-3.76100520791e-05
3.57575104687e-05
-3.74720402762e-05
4.59694858828e-05
-3.55977506972e-05
5.70553417588e-05
-3.26199440802e-05
7.07665814998e-05
-2.9147300678e-05
8.76298393563e-05
-2.82528618599e-05
9.55314868923e-05
-3.79582944483e-05
9.62337279842e-05
-4.75872636818e-05
0.000101399326532
-3.95589893697e-05
0.000118626937665
-1.48842104657e-05
0.000150008942806
4.22941166597e-06
-2.20559239928e-05
8.86285939135e-06
-4.23908607862e-05
1.82139015148e-05
-4.53016518501e-05
2.81203438007e-05
-4.75160690286e-05
3.87040497663e-05
-4.80552012917e-05
5.00530944306e-05
-4.69459207962e-05
6.23725389307e-05
-4.49377848002e-05
7.61432074297e-05
-4.29150986292e-05
9.03842497556e-05
-4.24891216506e-05
9.92816191151e-05
-4.68484098794e-05
0.000102640308194
-5.09358712591e-05
0.000109353312233
-4.62587806375e-05
0.00012805757081
-3.35694518338e-05
0.00015565860362
-2.33486991865e-05
-3.63766039179e-05
9.3390125459e-06
-5.17289787037e-05
1.91650680223e-05
-5.51266118033e-05
2.95982651007e-05
-5.79480963054e-05
4.06555038312e-05
-5.91111408724e-05
5.24759895443e-05
-5.87648003283e-05
6.512056287e-05
-5.75801588565e-05
7.86009239878e-05
-5.63923303383e-05
9.21444400208e-05
-5.60282512874e-05
0.00010296475671
-5.76629633735e-05
0.000111095770487
-5.90599938652e-05
0.000121316410862
-5.64719483196e-05
0.000137761040119
-5.00059041681e-05
0.000159737017535
-4.53199186811e-05
-5.09772988732e-05
9.68639681918e-06
-6.14138432477e-05
1.98744926582e-05
-6.53129485999e-05
3.06083969774e-05
-6.86801484475e-05
4.19150274547e-05
-7.04157864651e-05
5.37996391818e-05
-7.06471580275e-05
6.63516632203e-05
-7.01294890804e-05
7.94144299077e-05
-6.94518428759e-05
9.25394311933e-05
-6.91494672237e-05
0.000104548347002
-6.96679329052e-05
0.00011557770067
-7.00861076636e-05
0.000127885611209
-6.87786123647e-05
0.000143687812069
-6.58114254705e-05
0.000162255515337
-6.3901551401e-05
-6.54762474379e-05
9.96259802931e-06
-7.1374363373e-05
2.03775443807e-05
-7.57255927458e-05
3.12852629152e-05
-7.95854613009e-05
4.26747685281e-05
-8.18027501312e-05
5.45470390163e-05
-8.25166558936e-05
6.68701244917e-05
-8.24495098653e-05
7.96154205983e-05
-8.21938684944e-05
9.25030100324e-05
-8.20339499794e-05
0.000105098206316
-8.22610212891e-05
0.000117528787489
-8.25169857859e-05
0.000130740266981
-8.19946910993e-05
0.000145982715805
-8.10678059895e-05
0.000162584842748
-8.05340469498e-05
-7.98136680792e-05
1.01904257736e-05
-8.15623457958e-05
2.07474462451e-05
-8.62799750792e-05
3.17558961956e-05
-9.05911626626e-05
4.3167876285e-05
-9.32118391187e-05
5.49537883337e-05
-9.42994766138e-05
6.7095023392e-05
-9.4587482655e-05
7.95545121035e-05
-9.46501806476e-05
9.22948784682e-05
-9.47718724899e-05
0.000105105603358
-9.50712327653e-05
0.000118029408212
-9.54439833927e-05
0.000131585281125
-9.555977053e-05
0.000146113117281
-9.56176798194e-05
0.000160923662271
-9.53864732115e-05
-9.34579839584e-05
1.03424820291e-05
-9.19019476398e-05
2.09928650683e-05
-9.69273674751e-05
3.20126468931e-05
-0.000101607834934
4.33750980312e-05
-0.000104571007652
5.50423522369e-05
-0.000105963236618
6.70045897312e-05
-0.000106546098114
7.92370997299e-05
-0.000106879304437
9.17289069573e-05
-0.000107261372508
0.00010439057921
-0.000107733417795
0.000117201330979
-0.000108259757472
0.000130444766308
-0.000108815124616
0.000144182666436
-0.000109381978388
0.000158138927636
-0.000109389456667
-0.00010732960627
1.04301359762e-05
-0.000102328856524
2.10992665558e-05
-0.000107593138101
3.20706999095e-05
-0.00011257574238
4.33274397107e-05
-0.000115823987515
5.48444658375e-05
-0.000117476228153
6.66131747661e-05
-0.000118310595466
7.86298478818e-05
-0.000118892026417
9.08446054659e-05
-0.000119473762871
0.000103267538007
-0.000120156815385
0.000115854739324
-0.000120852151196
0.000128723200801
-0.000121695688153
0.000141817689775
-0.000122502848478
0.000155406752052
-0.000123023099113
-0.000121917531116
1.04437644866e-05
2.10710998086e-05
3.19415065857e-05
4.30559505796e-05
5.44077885014e-05
6.60018710485e-05
7.78292743661e-05
8.9871600301e-05
0.000102060308754
-0.000132344979265
0.000114524934564
-0.000133320552826
0.000127070186313
-0.000134251760359
0.000139919659361
-0.00013537474933
0.000153394679504
-0.000136535199377
-0.000137089468798
0.000101012519808
0.000113289784865
0.000125670626141
0.000138078744001
-0.000147800083631
0.000150928818881
-0.000149413258352
-0.000151758116843
0.000136785585035
0.000149112864823
-0.000165736630951
)
;

boundaryField
{
    back
    {
        type            calculated;
        value           uniform 0;
    }
    sides
    {
        type            calculated;
        value           nonuniform List<scalar> 0();
    }
    bottom
    {
        type            calculated;
        value           uniform 0;
    }
    front
    {
        type            calculated;
        value           uniform 0;
    }
    atmosphere
    {
        type            calculated;
        value           nonuniform List<scalar> 0();
    }
    floatingObject
    {
        type            calculated;
        value           uniform 0;
    }
    procBoundary8to3
    {
        type            processor;
        value           nonuniform List<scalar> 8(1.11677126801e-05 1.22957728302e-05 1.28148133532e-05 1.2093749649e-05 9.83479395033e-06 5.23644771017e-06 -1.33946833492e-05 -5.56903273234e-05);
    }
    procBoundary8to6
    {
        type            processor;
        value           nonuniform List<scalar> 
16
(
-1.77276090322e-05
3.36311836768e-05
0.000109784242693
0.000146437085811
0.000162119173357
0.000170000366949
0.000174336992724
0.000176731854646
0.000176881176055
0.000174514902044
0.000171953665802
0.000169941885384
0.000168523555391
0.000165565692565
0.000163069435183
0.000163239040791
)
;
    }
    procBoundary8to7
    {
        type            processor;
        value           nonuniform List<scalar> 
17
(
-0.000112769486876
-0.00011821717874
-0.000123442662077
-0.000126934681558
-0.000128824000256
-0.000129900392026
-0.00013071513469
-0.000131512951375
-8.88346750627e-05
-0.00014451921972
-0.000145601036301
-0.000146639457018
-0.000124509086804
-0.000160090173147
-0.000161758029628
-0.000149097935489
-0.000179894930987
)
;
    }
}


// ************************************************************************* //
