/*--------------------------------*- C++ -*----------------------------------*\
| =========                 |                                                 |
| \\      /  F ield         | OpenFOAM: The Open Source CFD Toolbox           |
|  \\    /   O peration     | Version:  v2012                                 |
|   \\  /    A nd           | Website:  www.openfoam.com                      |
|    \\/     M anipulation  |                                                 |
\*---------------------------------------------------------------------------*/
FoamFile
{
    version     2.0;
    format      ascii;
    class       volScalarField;
    location    "5.2";
    object      ddt0(epsilon);
}
// * * * * * * * * * * * * * * * * * * * * * * * * * * * * * * * * * * * * * //

dimensions      [0 2 -4 0 0 0 0];


internalField   nonuniform List<scalar> 
166
(
-0.000316736963472
-0.00031731643441
-0.000317965011641
-0.000318798029765
-0.000319973483854
-0.000321484945788
-0.000322982266928
-0.000325926341613
-0.000281504253062
0.000342404544744
0.000361105465315
0.000743471486743
0.265145571047
-0.000316453987038
-0.000317191440559
-0.000317807395342
-0.000318468404747
-0.000319273709062
-0.000320390509243
-0.000322248513219
-0.00032568467516
-0.000332960007584
-0.00035655397861
-0.000404572817666
-0.000244611296629
-0.00188601300785
-0.0231115825967
0.600177535022
-0.000261817210275
-0.000276297150843
-0.000316059485955
-0.000317416628544
-0.000318177591737
-0.000318847701661
-0.00031959623233
-0.000320538625517
-0.000321918418263
-0.000324403784531
-0.000329724009852
-0.000343305705508
-0.00038764808541
-0.000519665771953
-0.000713066222025
-0.00345320295004
-0.0391629634971
0.0922720534712
-0.000263499655149
-0.000277546253001
-0.00030404255344
-0.000313605153366
-0.000316994752097
-0.000318343447534
-0.000319138872561
-0.00031987307734
-0.000320714078696
-0.000321793790235
-0.000323437668649
-0.000326562085061
-0.000333519158226
-0.00035153761419
-0.000407584187752
-0.000577683877106
-0.0010690267819
-0.0045495974841
-0.0346886549629
-0.193570601299
-0.000264892477729
-0.000278848950262
-0.000305167514238
-0.000314576271352
-0.000317896680171
-0.000319247016484
-0.000320072417522
-0.000320853341207
-0.00032175626815
-0.000322915259868
-0.00032467009162
-0.000327967197271
-0.000335495989112
-0.000355895175881
-0.000420991418369
-0.000640289252052
-0.00144219256933
-0.00490420714086
-0.0111490091212
-0.591159502576
-0.000265789340926
-0.000280206401244
-0.000306369576198
-0.000315603387309
-0.000318819864922
-0.000320142399825
-0.000320982789948
-0.000321798077925
-0.000322749401435
-0.000323970965254
-0.000325806618451
-0.000329257122405
-0.000337306507156
-0.000359823620441
-0.00043424528013
-0.000706340364265
-0.00179100282803
-0.00505366812573
0.00768495654712
0.0811782566097
-0.000266660417222
-0.000281531716962
-0.000307547458964
-0.000316612023781
-0.00031972779161
-0.000321015570272
-0.000321865976248
-0.000322714272646
-0.000323708407912
-0.000324981328991
-0.000326878804206
-0.000330454845021
-0.000338967480863
-0.000363301485482
-0.000445047143229
-0.000762759519239
-0.00213445958911
-0.00547471919881
0.0320092772768
0.339760873631
-0.000267471657306
-0.000282794065907
-0.000308681724789
-0.000317587247103
-0.000320608268645
-0.000321861628238
-0.000322720367931
-0.000323600789469
-0.000324635182987
-0.000325953906793
-0.000327898565833
-0.000331584250898
-0.000340468207768
-0.000366340211135
-0.000454535905695
-0.000812480047516
-0.00242773680682
-0.00642507924128
0.0250963733444
0.29183489387
-0.000268274252245
-0.000284001648186
-0.000309764745116
-0.000318519622341
-0.000321450623322
-0.0003226761611
-0.000323547291744
-0.000324459685491
-0.000325536904415
-0.000326902622735
-0.000328901040397
-0.000332671273564
-0.000341883312674
-0.000369295977252
-0.000465166072366
-0.000867131764995
-0.00271994767768
-0.00883890889321
0.00306172543288
0.761355308716
)
;

boundaryField
{
    back
    {
        type            calculated;
        value           nonuniform List<scalar> 
166
(
-0.000316736963472
-0.00031731643441
-0.000317965011641
-0.000318798029765
-0.000319973483854
-0.000321484945788
-0.000322982266928
-0.000325926341613
-0.000281504253062
0.000342404544744
0.000361105465315
0.000743471486743
0.265145571047
-0.000316453987038
-0.000317191440559
-0.000317807395342
-0.000318468404747
-0.000319273709062
-0.000320390509243
-0.000322248513219
-0.00032568467516
-0.000332960007584
-0.00035655397861
-0.000404572817666
-0.000244611296629
-0.00188601300785
-0.0231115825967
0.600177535022
-0.000261817210275
-0.000276297150843
-0.000316059485955
-0.000317416628544
-0.000318177591737
-0.000318847701661
-0.00031959623233
-0.000320538625517
-0.000321918418263
-0.000324403784531
-0.000329724009852
-0.000343305705508
-0.000387648085411
-0.000519665771953
-0.000713066222025
-0.00345320295004
-0.0391629634971
0.0922720534712
-0.000263499655149
-0.000277546253001
-0.00030404255344
-0.000313605153366
-0.000316994752097
-0.000318343447534
-0.000319138872561
-0.00031987307734
-0.000320714078696
-0.000321793790235
-0.000323437668649
-0.00032656208506
-0.000333519158226
-0.00035153761419
-0.000407584187752
-0.000577683877106
-0.0010690267819
-0.0045495974841
-0.0346886549629
-0.193570601299
-0.000264892477729
-0.000278848950262
-0.000305167514238
-0.000314576271352
-0.000317896680171
-0.000319247016484
-0.000320072417522
-0.000320853341207
-0.00032175626815
-0.000322915259868
-0.00032467009162
-0.000327967197271
-0.000335495989112
-0.000355895175881
-0.000420991418369
-0.000640289252052
-0.00144219256933
-0.00490420714086
-0.0111490091212
-0.591159502576
-0.000265789340926
-0.000280206401244
-0.000306369576198
-0.000315603387309
-0.000318819864922
-0.000320142399825
-0.000320982789948
-0.000321798077925
-0.000322749401435
-0.000323970965254
-0.000325806618451
-0.000329257122405
-0.000337306507156
-0.000359823620441
-0.00043424528013
-0.000706340364265
-0.00179100282803
-0.00505366812573
0.00768495654713
0.0811782566097
-0.000266660417222
-0.000281531716962
-0.000307547458964
-0.000316612023781
-0.00031972779161
-0.000321015570272
-0.000321865976248
-0.000322714272646
-0.000323708407912
-0.000324981328991
-0.000326878804206
-0.000330454845021
-0.000338967480863
-0.000363301485482
-0.000445047143229
-0.000762759519239
-0.00213445958911
-0.00547471919881
0.0320092772768
0.339760873631
-0.000267471657306
-0.000282794065907
-0.000308681724789
-0.000317587247103
-0.000320608268645
-0.000321861628238
-0.000322720367931
-0.000323600789469
-0.000324635182987
-0.000325953906793
-0.000327898565833
-0.000331584250898
-0.000340468207768
-0.000366340211135
-0.000454535905695
-0.000812480047516
-0.00242773680682
-0.00642507924128
0.0250963733444
0.29183489387
-0.000268274252245
-0.000284001648186
-0.000309764745116
-0.000318519622341
-0.000321450623322
-0.0003226761611
-0.000323547291744
-0.000324459685491
-0.000325536904415
-0.000326902622736
-0.000328901040397
-0.000332671273564
-0.000341883312674
-0.000369295977252
-0.000465166072366
-0.000867131764995
-0.00271994767768
-0.00883890889321
0.00306172543288
0.761355308716
)
;
    }
    sides
    {
        type            calculated;
        value           nonuniform List<scalar> 0();
    }
    bottom
    {
        type            calculated;
        value           nonuniform List<scalar> 7(-0.000261817210275 -0.000263499655149 -0.000264892477729 -0.000265789340926 -0.000266660417222 -0.000267471657306 -0.000268274252245);
    }
    front
    {
        type            calculated;
        value           nonuniform List<scalar> 
166
(
-0.000316736963472
-0.00031731643441
-0.000317965011641
-0.000318798029765
-0.000319973483854
-0.000321484945788
-0.000322982266928
-0.000325926341613
-0.000281504253062
0.000342404544744
0.000361105465315
0.000743471486743
0.265145571047
-0.000316453987038
-0.000317191440559
-0.000317807395342
-0.000318468404747
-0.000319273709062
-0.000320390509243
-0.000322248513219
-0.00032568467516
-0.000332960007584
-0.00035655397861
-0.000404572817666
-0.000244611296629
-0.00188601300785
-0.0231115825967
0.600177535022
-0.000261817210275
-0.000276297150843
-0.000316059485955
-0.000317416628544
-0.000318177591737
-0.000318847701661
-0.00031959623233
-0.000320538625517
-0.000321918418263
-0.000324403784531
-0.000329724009852
-0.000343305705508
-0.000387648085411
-0.000519665771953
-0.000713066222025
-0.00345320295004
-0.0391629634971
0.0922720534712
-0.000263499655149
-0.000277546253001
-0.00030404255344
-0.000313605153366
-0.000316994752097
-0.000318343447534
-0.000319138872561
-0.00031987307734
-0.000320714078696
-0.000321793790235
-0.000323437668649
-0.00032656208506
-0.000333519158226
-0.00035153761419
-0.000407584187752
-0.000577683877106
-0.0010690267819
-0.0045495974841
-0.0346886549629
-0.193570601299
-0.000264892477729
-0.000278848950262
-0.000305167514238
-0.000314576271352
-0.000317896680171
-0.000319247016484
-0.000320072417522
-0.000320853341207
-0.00032175626815
-0.000322915259868
-0.00032467009162
-0.000327967197271
-0.000335495989112
-0.000355895175881
-0.000420991418369
-0.000640289252052
-0.00144219256933
-0.00490420714086
-0.0111490091212
-0.591159502576
-0.000265789340926
-0.000280206401244
-0.000306369576198
-0.000315603387309
-0.000318819864922
-0.000320142399825
-0.000320982789948
-0.000321798077925
-0.000322749401435
-0.000323970965254
-0.000325806618451
-0.000329257122405
-0.000337306507156
-0.000359823620441
-0.00043424528013
-0.000706340364265
-0.00179100282803
-0.00505366812573
0.00768495654713
0.0811782566097
-0.000266660417222
-0.000281531716962
-0.000307547458964
-0.000316612023781
-0.00031972779161
-0.000321015570272
-0.000321865976248
-0.000322714272646
-0.000323708407912
-0.000324981328991
-0.000326878804206
-0.000330454845021
-0.000338967480863
-0.000363301485482
-0.000445047143229
-0.000762759519239
-0.00213445958911
-0.00547471919881
0.0320092772768
0.339760873631
-0.000267471657306
-0.000282794065907
-0.000308681724789
-0.000317587247103
-0.000320608268645
-0.000321861628238
-0.000322720367931
-0.000323600789469
-0.000324635182987
-0.000325953906793
-0.000327898565833
-0.000331584250898
-0.000340468207768
-0.000366340211135
-0.000454535905695
-0.000812480047516
-0.00242773680682
-0.00642507924128
0.0250963733444
0.29183489387
-0.000268274252245
-0.000284001648186
-0.000309764745116
-0.000318519622341
-0.000321450623322
-0.0003226761611
-0.000323547291744
-0.000324459685491
-0.000325536904415
-0.000326902622736
-0.000328901040397
-0.000332671273564
-0.000341883312674
-0.000369295977252
-0.000465166072366
-0.000867131764995
-0.00271994767768
-0.00883890889321
0.00306172543288
0.761355308716
)
;
    }
    atmosphere
    {
        type            calculated;
        value           nonuniform List<scalar> 9(0.135885302896 -0.0756346832281 -0.289130869631 0.713229327076 -1.28187960882 0.0127296279681 0.131630545282 -0.0757696799447 0.331922929117);
    }
    floatingObject
    {
        type            calculated;
        value           nonuniform List<scalar> 0();
    }
    procBoundary0to1
    {
        type            processor;
        value           nonuniform List<scalar> 10(-0.000317071033011 -0.000317383508532 -0.000316387662405 -0.000310235347864 -0.000289643814635 -0.000158699320029 0.000860917283915 0.00398609444237 0.00946996121675 0.0132343823791);
    }
    procBoundary0to2
    {
        type            processor;
        value           nonuniform List<scalar> 
14
(
-0.000315660188331
-0.000316124370076
-0.000316604635988
-0.000315487861156
-0.000316190970499
-0.000316190970499
-0.000260385938902
-0.000274927370053
-0.000315096092501
-0.000315096092501
-0.000302939546101
-0.000302939546101
-0.000312625958387
-0.000312625958387
)
;
    }
    procBoundary0to4
    {
        type            processor;
        value           nonuniform List<scalar> 8(-0.000269022215016 -0.000285139639553 -0.000310786790214 -0.000319402782694 -0.000322255031645 -0.000323463004928 -0.000324353502812 -0.000325302217767);
    }
    procBoundary0to5
    {
        type            processor;
        value           nonuniform List<scalar> 
12
(
-0.000326424904874
-0.000327837969012
-0.00032988868616
-0.000333721422271
-0.000343212912646
-0.000372075667965
-0.000476213882384
-0.00092432712244
-0.00298026812206
-0.0107226827325
-0.0318888964028
0.00352526693089
)
;
    }
}


// ************************************************************************* //
