/*--------------------------------*- C++ -*----------------------------------*\
| =========                 |                                                 |
| \\      /  F ield         | OpenFOAM: The Open Source CFD Toolbox           |
|  \\    /   O peration     | Version:  v2012                                 |
|   \\  /    A nd           | Website:  www.openfoam.com                      |
|    \\/     M anipulation  |                                                 |
\*---------------------------------------------------------------------------*/
FoamFile
{
    version     2.0;
    format      ascii;
    class       volScalarField;
    location    "5.2";
    object      p_rgh;
}
// * * * * * * * * * * * * * * * * * * * * * * * * * * * * * * * * * * * * * //

dimensions      [1 -1 -2 0 0 0 0];


internalField   nonuniform List<scalar> 
166
(
8656.12015814
8657.02412708
8658.10016014
8659.38044788
8660.87780594
8662.64187149
8664.70361928
8667.15342387
8670.05641833
8673.88645267
6228.31189045
364.147252483
-0.0152271826649
8655.77248086
8656.43810107
8657.28143998
8658.26730293
8659.43360547
8660.80656693
8662.40396087
8664.26410042
8666.41915743
8668.95773025
8671.96652722
8675.92398248
6258.61108915
376.334061102
-0.0128383001441
8654.96262979
8655.06845706
8656.06515002
8656.64911556
8657.38542165
8658.27991636
8659.32654987
8660.55743623
8661.99082005
8663.64291989
8665.53900806
8667.70356928
8670.1934019
8673.11192003
8676.93335778
6271.05320523
378.030154371
-0.0114198331241
8655.57910298
8655.69563379
8655.929272
8656.28613753
8656.77606173
8657.40689328
8658.17424741
8659.10756773
8660.20176271
8661.47764054
8662.94715862
8664.6204627
8666.50767538
8668.61681198
8670.92242375
8673.47839045
8676.65710335
6262.19538401
374.991604425
-0.0103315799524
8656.07622544
8656.2027887
8656.45054323
8656.82978938
8657.34747949
8658.0017673
8658.80497927
8659.76186186
8660.89568961
8662.20089677
8663.69015954
8665.36436353
8667.22120939
8669.24544993
8671.37003352
8673.63714571
8676.07903005
6238.63179747
371.715855466
-0.00744311949537
8656.44916249
8656.58113238
8656.84097198
8657.23504038
8657.76676023
8658.44120591
8659.27266089
8660.25338585
8661.41073232
8662.73543577
8664.23538369
8665.90539758
8667.73162143
8669.68121633
8671.66995902
8673.74385252
8675.83426478
6208.77160849
373.103802545
-0.00285254788588
8656.69217921
8656.82814281
8657.09524754
8657.49748067
8658.03905946
8658.72915907
8659.58112263
8660.58441157
8661.75207635
8663.09000769
8664.59668596
8666.26624996
8668.07846484
8669.99192697
8671.93475372
8673.88963771
8675.77130412
6183.89372932
374.046397085
-0.0176306554212
8656.80393489
8656.94192167
8657.21215485
8657.61942005
8658.16855334
8658.86654498
8659.71830485
8660.73446981
8661.91617942
8663.26937544
8664.78901968
8666.46607429
8668.28710971
8670.21697426
8672.18236733
8674.16742287
8676.13287437
6188.10288596
376.62831867
-0.0939133241069
8656.78140985
8656.92053975
8657.1911021
8657.59853053
8658.14882771
8658.84560955
8659.68874865
8660.69229596
8661.87863824
8663.25817847
8664.79785652
8666.5006178
8668.35609959
8670.33288383
8672.37993322
8674.52398571
8676.72639618
6208.74403761
379.307274089
-0.239797726054
)
;

boundaryField
{
    back
    {
        type            fixedFluxPressure;
        gradient        uniform 0;
        value           nonuniform List<scalar> 
166
(
8656.12015814
8657.02412708
8658.10016014
8659.38044788
8660.87780594
8662.64187149
8664.70361928
8667.15342387
8670.05641833
8673.88645267
6228.31189045
364.147252483
-0.0152271826649
8655.77248086
8656.43810107
8657.28143998
8658.26730293
8659.43360547
8660.80656693
8662.40396087
8664.26410042
8666.41915743
8668.95773025
8671.96652722
8675.92398248
6258.61108915
376.334061102
-0.0128383001441
8654.96262979
8655.06845706
8656.06515002
8656.64911556
8657.38542165
8658.27991636
8659.32654987
8660.55743623
8661.99082005
8663.64291989
8665.53900806
8667.70356928
8670.1934019
8673.11192003
8676.93335778
6271.05320523
378.030154371
-0.0114198331241
8655.57910298
8655.69563379
8655.929272
8656.28613753
8656.77606173
8657.40689328
8658.17424741
8659.10756773
8660.20176271
8661.47764054
8662.94715862
8664.6204627
8666.50767538
8668.61681198
8670.92242375
8673.47839045
8676.65710335
6262.19538401
374.991604425
-0.0103315799524
8656.07622544
8656.2027887
8656.45054323
8656.82978938
8657.34747949
8658.0017673
8658.80497927
8659.76186186
8660.89568961
8662.20089677
8663.69015954
8665.36436353
8667.22120939
8669.24544993
8671.37003352
8673.63714571
8676.07903005
6238.63179747
371.715855466
-0.00744311949537
8656.44916249
8656.58113238
8656.84097198
8657.23504038
8657.76676023
8658.44120591
8659.27266089
8660.25338585
8661.41073232
8662.73543577
8664.23538369
8665.90539758
8667.73162143
8669.68121633
8671.66995902
8673.74385252
8675.83426478
6208.77160849
373.103802545
-0.00285254788588
8656.69217921
8656.82814281
8657.09524754
8657.49748067
8658.03905946
8658.72915907
8659.58112263
8660.58441157
8661.75207635
8663.09000769
8664.59668596
8666.26624996
8668.07846484
8669.99192697
8671.93475372
8673.88963771
8675.77130412
6183.89372932
374.046397085
-0.0176306554212
8656.80393489
8656.94192167
8657.21215485
8657.61942005
8658.16855334
8658.86654498
8659.71830485
8660.73446981
8661.91617942
8663.26937544
8664.78901968
8666.46607429
8668.28710971
8670.21697426
8672.18236733
8674.16742287
8676.13287437
6188.10288596
376.62831867
-0.0939133241069
8656.78140985
8656.92053975
8657.1911021
8657.59853053
8658.14882771
8658.84560955
8659.68874865
8660.69229596
8661.87863824
8663.25817847
8664.79785652
8666.5006178
8668.35609959
8670.33288383
8672.37993322
8674.52398571
8676.72639618
6208.74403761
379.307274089
-0.239797726054
)
;
    }
    sides
    {
        type            fixedFluxPressure;
        gradient        nonuniform List<scalar> 0();
        value           nonuniform List<scalar> 0();
    }
    bottom
    {
        type            fixedFluxPressure;
        gradient        uniform 0;
        value           nonuniform List<scalar> 7(8654.96262979 8655.57910298 8656.07622544 8656.44916249 8656.69217921 8656.80393489 8656.78140985);
    }
    front
    {
        type            fixedFluxPressure;
        gradient        uniform 0;
        value           nonuniform List<scalar> 
166
(
8656.12015814
8657.02412708
8658.10016014
8659.38044788
8660.87780594
8662.64187149
8664.70361928
8667.15342387
8670.05641833
8673.88645267
6228.31189045
364.147252483
-0.0152271826649
8655.77248086
8656.43810107
8657.28143998
8658.26730293
8659.43360547
8660.80656693
8662.40396087
8664.26410042
8666.41915743
8668.95773025
8671.96652722
8675.92398248
6258.61108915
376.334061102
-0.0128383001441
8654.96262979
8655.06845706
8656.06515002
8656.64911556
8657.38542165
8658.27991636
8659.32654987
8660.55743623
8661.99082005
8663.64291989
8665.53900806
8667.70356928
8670.1934019
8673.11192003
8676.93335778
6271.05320523
378.030154371
-0.0114198331241
8655.57910298
8655.69563379
8655.929272
8656.28613753
8656.77606173
8657.40689328
8658.17424741
8659.10756773
8660.20176271
8661.47764054
8662.94715862
8664.6204627
8666.50767538
8668.61681198
8670.92242375
8673.47839045
8676.65710335
6262.19538401
374.991604425
-0.0103315799524
8656.07622544
8656.2027887
8656.45054323
8656.82978938
8657.34747949
8658.0017673
8658.80497927
8659.76186186
8660.89568961
8662.20089677
8663.69015954
8665.36436353
8667.22120939
8669.24544993
8671.37003352
8673.63714571
8676.07903005
6238.63179747
371.715855466
-0.00744311949537
8656.44916249
8656.58113238
8656.84097198
8657.23504038
8657.76676023
8658.44120591
8659.27266089
8660.25338585
8661.41073232
8662.73543577
8664.23538369
8665.90539758
8667.73162143
8669.68121633
8671.66995902
8673.74385252
8675.83426478
6208.77160849
373.103802545
-0.00285254788588
8656.69217921
8656.82814281
8657.09524754
8657.49748067
8658.03905946
8658.72915907
8659.58112263
8660.58441157
8661.75207635
8663.09000769
8664.59668596
8666.26624996
8668.07846484
8669.99192697
8671.93475372
8673.88963771
8675.77130412
6183.89372932
374.046397085
-0.0176306554212
8656.80393489
8656.94192167
8657.21215485
8657.61942005
8658.16855334
8658.86654498
8659.71830485
8660.73446981
8661.91617942
8663.26937544
8664.78901968
8666.46607429
8668.28710971
8670.21697426
8672.18236733
8674.16742287
8676.13287437
6188.10288596
376.62831867
-0.0939133241069
8656.78140985
8656.92053975
8657.1911021
8657.59853053
8658.14882771
8658.84560955
8659.68874865
8660.69229596
8661.87863824
8663.25817847
8664.79785652
8666.5006178
8668.35609959
8670.33288383
8672.37993322
8674.52398571
8676.72639618
6208.74403761
379.307274089
-0.239797726054
)
;
    }
    atmosphere
    {
        type            totalPressure;
        rho             rho;
        psi             none;
        gamma           1;
        p0              uniform 0;
        value           nonuniform List<scalar> 9(-0.000809278350457 -0.000427463821392 -0.000184509584905 -6.39443891172e-05 -3.2225200652e-06 0 -8.31350194609e-06 -3.94052475863e-06 0);
    }
    floatingObject
    {
        type            fixedFluxPressure;
        gradient        nonuniform List<scalar> 0();
        value           nonuniform List<scalar> 0();
    }
    procBoundary0to1
    {
        type            processor;
        value           nonuniform List<scalar> 10(8657.68817994 8659.02902348 8660.62414203 8662.50605886 8664.74481456 8667.41200369 8670.880848 6183.17026231 335.326869378 -0.0143952291566);
    }
    procBoundary0to2
    {
        type            processor;
        value           nonuniform List<scalar> 
14
(
8654.811168
8655.59763177
8656.54966517
8654.76250402
8655.37603207
8655.37603207
8654.23550403
8654.33010677
8655.23657373
8655.23657373
8655.28528129
8655.28528129
8655.61782418
8655.61782418
)
;
    }
    procBoundary0to4
    {
        type            processor;
        value           nonuniform List<scalar> 8(8656.62431149 8656.76322633 8657.03149611 8657.43492097 8657.98041069 8658.67254764 8659.51698087 8660.5157821);
    }
    procBoundary0to5
    {
        type            processor;
        value           nonuniform List<scalar> 
12
(
8661.68731898
8663.06336457
8664.61595776
8666.34573567
8668.24347739
8670.3022341
8672.50130941
8674.81869408
8677.24695307
6216.9372456
390.366828896
0.0785158653804
)
;
    }
}


// ************************************************************************* //
