/*--------------------------------*- C++ -*----------------------------------*\
| =========                 |                                                 |
| \\      /  F ield         | OpenFOAM: The Open Source CFD Toolbox           |
|  \\    /   O peration     | Version:  v2012                                 |
|   \\  /    A nd           | Website:  www.openfoam.com                      |
|    \\/     M anipulation  |                                                 |
\*---------------------------------------------------------------------------*/
FoamFile
{
    version     2.0;
    format      ascii;
    class       volScalarField;
    location    "5.6";
    object      k_0;
}
// * * * * * * * * * * * * * * * * * * * * * * * * * * * * * * * * * * * * * //

dimensions      [0 2 -2 0 0 0 0];


internalField   nonuniform List<scalar> 
1984
(
0.000889343107068
0.0010409208258
0.00109455928252
0.00111804313779
0.0011312093745
0.00114104572381
0.00115004266673
0.00115924618917
0.0011694539497
0.00118209870191
0.00120099660331
0.00123718898359
0.00132668881695
0.00159250500334
0.00242008417439
0.00471940687287
0.00983622146809
0.0190109401116
0.0339781494409
0.0664264484006
0.00104267160873
0.00128130314473
0.00135898073257
0.0013911397425
0.00140726282154
0.00141791757563
0.00142691743925
0.00143589902343
0.00144602074578
0.00145940709861
0.00148145584425
0.00152760484155
0.00164797180511
0.00201040597928
0.003118701915
0.0060207558958
0.0118068438648
0.02062729357
0.0330209179496
0.049754629825
0.00109896841825
0.0013643383929
0.00145165114273
0.00148735208306
0.00150460735468
0.00151558253531
0.00152473539061
0.00153387820785
0.00154433652678
0.00155848088994
0.0015822681447
0.00163268850246
0.00176351647508
0.00215192654788
0.00332097744521
0.00632839132432
0.0122430356773
0.021304901853
0.0341008429597
0.0507510134643
0.00112351979399
0.00139963461989
0.00149102654393
0.00152814845677
0.00154570791767
0.00155662177023
0.0015656828384
0.00157481194421
0.00158537330364
0.00159977979846
0.0016240941602
0.00167541773995
0.0018069449275
0.0021910526129
0.00333089046971
0.00626934299429
0.0121795186729
0.0216144062807
0.0355771686304
0.0549826210283
0.00113633166536
0.00141689908098
0.0015099977689
0.00154756858514
0.00156502073309
0.00157566295748
0.00158445217049
0.0015933736132
0.00160379150108
0.00161804564095
0.00164200275542
0.00169199336193
0.00181738934284
0.00217373497619
0.0032186132705
0.00597951620712
0.0118734662458
0.021898287659
0.0374530152583
0.0628500342249
0.00114472783697
0.00142730122177
0.00152112075923
0.00155872518086
0.00157589581492
0.00158616499357
0.00159459061546
0.00160318217686
0.00161327563604
0.00162710960351
0.00165018858085
0.00169754293697
0.00181295212401
0.00212946239045
0.00304401989992
0.00557900460568
0.0114802621143
0.022224770901
0.0393184947282
0.074362349121
0.00115141755785
0.00143508850501
0.00152924195113
0.00156672837166
0.00158356653465
0.00159343664871
0.00160146516582
0.00160967098227
0.00161935576609
0.00163263799889
0.00165467514829
0.00169936480936
0.00180632391379
0.00209301213904
0.0029134025496
0.00525804534578
0.0110702064777
0.0222389017323
0.0402439343196
0.0753773766629
0.00115738363281
0.00144184804667
0.00153620174165
0.00157353499497
0.00159004828181
0.00159953454963
0.00160717029754
0.0016149827574
0.00162423327667
0.00163693258983
0.00165795597364
0.00170055637001
0.00180308947097
0.00208084951858
0.00288143308575
0.00514467513707
0.0106940100097
0.0215559668582
0.0398873512274
0.0754297163116
0.00116294648816
0.00144814287304
0.0015426681774
0.00157986018283
0.00159607995341
0.00160521490889
0.00161248324498
0.00161991620573
0.00162874065956
0.0016408604261
0.00166089979059
0.00170160200629
0.00180073615034
0.00207501972296
0.00287322544512
0.00507743195773
0.0102669775492
0.020459567466
0.0386615624093
0.0750756857252
0.00116820437483
0.00145415837879
0.00154885844087
0.00158593686004
0.00160190173509
0.00161072394877
0.00161765886003
0.0016247397212
0.00163316022265
0.00164471563348
0.00166375883053
0.00170232689683
0.00179646718236
0.00205877562949
0.0028246500724
0.00491731809375
0.00978188022366
0.0194291779072
0.0375431744829
0.0748120537535
0.00117318175854
0.00145990448104
0.00155481734598
0.00159181846126
0.0016075674023
0.0016161162809
0.00162275330117
0.00162951671974
0.00163756249003
0.00164857602418
0.00166660702455
0.00170281336578
0.00179038221098
0.00203230031457
0.00273548080035
0.00467260546623
0.00927665927853
0.0186913051999
0.0370452179128
0.0748688465419
0.00117786780197
0.00146539895709
0.00156054659712
0.00159749950458
0.0016130666265
0.00162137925508
0.0016277541552
0.00163423059924
0.00164192806824
0.00165240850488
0.00166941940469
0.00170315540828
0.00178338872956
0.00200078277974
0.00262679958329
0.00438857091044
0.00877803562314
0.0181077126957
0.036670963607
0.0749395521448
0.00118224624092
0.00147061594863
0.00156602315663
0.0016029545444
0.00161837033921
0.00162647721788
0.00163262304124
0.00163883914114
0.00164620780125
0.00165617192074
0.0016721680284
0.0017034517268
0.00177653298428
0.00197058526785
0.00252396759046
0.00411978433932
0.00832584904238
0.0176468427758
0.0363162986112
0.0748942511554
0.00118628497405
0.00147553399214
0.00157122120772
0.00160815239152
0.00162344371152
0.00163137290468
0.00163731737349
0.00164330116357
0.00165036567396
0.00165984209094
0.0016748597598
0.00170378614905
0.00177033275298
0.00194463333998
0.00243900130807
0.00389360945292
0.00793374224873
0.0173420950338
0.0363358677022
0.0749917435882
0.00118997746249
0.00148013537558
0.00157611214722
0.00161306459174
0.00162825406186
0.00163602987197
0.00164179622114
0.00164757567138
0.0016543650266
0.00166339402506
0.00167749436997
0.00170421526985
0.00176489078649
0.00192253952062
0.00236909438775
0.00370091440298
0.00754984045839
0.0169532850434
0.0361768313612
0.0749747829926
0.00119333397437
0.00148439892741
0.00158067298527
0.00161766153172
0.00163276908649
0.00164041552186
0.00164602647829
0.00165162695995
0.00165817275978
0.0016667877679
0.00168005521565
0.00170479247095
0.00176027958496
0.00190348300689
0.00230844093811
0.0035251026776
0.00715226609511
0.0164088803917
0.035423917936
0.0743119217789
0.0011963349036
0.001488311708
0.00158488141401
0.00162191746102
0.00163696168484
0.00164449931063
0.0016499821353
0.00165542649546
0.00166175594332
0.00166999060924
0.00168248647285
0.00170544893869
0.00175633584279
0.0018866391295
0.00225353049755
0.00335804880939
0.00673223943113
0.0156084860208
0.0333053364404
0.0693510784236
0.00119896037479
0.00149185291211
0.00158872859167
0.0016258244411
0.00164082198345
0.00164827432666
0.00165365121915
0.00165895339835
0.00166507837441
0.00167296257076
0.00168474336212
0.00170606596283
0.00175280691957
0.00187195172202
0.00220685040339
0.00321611739226
0.0063315425463
0.014691136576
0.0309362201877
0.0582865852856
0.00120120606867
0.00149502087584
0.00159220452978
0.00162937238921
0.00164434111005
0.00165173182199
0.00165701657358
0.00166219612672
0.00166813954147
0.00167571487532
0.00168685325479
0.00170673276472
0.00174998953556
0.00186051330906
0.00217296284089
0.00311070517535
0.00598763776082
0.0138027348893
0.030247068592
0.0605312943599
0.00120324231448
0.00149780210476
0.0015952799801
0.00163253992577
0.00164750619001
0.00165484891112
0.00166005823566
0.00166513846714
0.00167093533043
0.00167825845461
0.00168887242166
0.00170756795545
0.00174813369988
0.00185257682888
0.00215135460426
0.00304503554575
0.00571924046272
0.0130311577427
0.0305102058118
0.0695899232201
0.00120513592705
0.00150017593867
0.00159792409868
0.00163529556241
0.0016502844147
0.00165759577159
0.0016627553015
0.00166776476516
0.0016734507698
0.0016805730879
0.00169076880635
0.00170854014179
0.00174712674262
0.00184780982064
0.00214061861117
0.00301588254245
0.00554745329251
0.0124440794366
0.0311199006872
0.0737717415075
0.00120681649952
0.0015021148372
0.00160011400967
0.00163761729888
0.00165265411842
0.00165996288063
0.00166509486179
0.00167005860795
0.00167566843215
0.00168263689328
0.00169250413565
0.00170956958127
0.00174676687794
0.00184547694774
0.00213817233013
0.00301096963346
0.00543949184051
0.0120142239929
0.0310998476234
0.0741380160034
0.00120821896878
0.00150362926482
0.00160186232292
0.00163950931079
0.00165461345056
0.00166194613457
0.00166707128038
0.00167200929848
0.00167756900542
0.00168442378959
0.00169403472189
0.00171055330124
0.00174678948522
0.00184450072706
0.00213869250435
0.00301017261949
0.00533560001053
0.0115178221038
0.0305174669023
0.0741780218849
0.0012093010637
0.00150471540676
0.00160317368212
0.00164097514193
0.00165616620558
0.00166353848918
0.00166867469125
0.001673604318
0.00167913244568
0.00168590563072
0.00169531711396
0.00171140940056
0.00174690277946
0.0018438684627
0.00213904468967
0.00300770623903
0.00523112197983
0.0109151358932
0.0290584079983
0.0738731677059
0.00121003052566
0.0015053844437
0.00160405210189
0.00164201324456
0.00165730356816
0.00166472696009
0.00166988999686
0.00167483096314
0.00168034923479
0.00168706898902
0.00169632700167
0.00171207305598
0.00174690159197
0.00184300815344
0.00213796462743
0.00300282352635
0.00514852302709
0.0103262017883
0.0269583958199
0.0730266491148
0.00121038301379
0.00150562743603
0.00160449343583
0.00164261744673
0.00165801612498
0.00166550559977
0.00167071093459
0.00167568244449
0.00168121529932
0.00168790883886
0.00169704812113
0.00171248171431
0.0017466485306
0.00184168453014
0.00213563667001
0.0029961846551
0.00507741605907
0.00972999377603
0.0241133652582
0.070254329701
0.0012103524466
0.0015054417558
0.00160449213673
0.00164277930425
0.00165829497455
0.00166586419693
0.00167112721042
0.0016761453221
0.00168171445465
0.00168841355615
0.00169747248622
0.00171263910995
0.00174615488045
0.00183982194367
0.00213143388603
0.00298562563535
0.00501597170792
0.00918932574641
0.0201749360057
0.0601956785933
0.00120994709223
0.00150484066955
0.00160404627542
0.00164249170339
0.00165813399596
0.00166579680813
0.00167113420304
0.0016762152886
0.00168183814066
0.00168857189188
0.00169759516192
0.00171256758764
0.00174554060301
0.0018378954832
0.00212705430307
0.00298128132648
0.00504410630698
0.00955319948804
0.0225423212255
0.0662796547415
0.00120915675525
0.00150381076693
0.00160314197976
0.00164174119825
0.00165752130147
0.00166529458612
0.00167072455577
0.00167588861091
0.00168158783613
0.00168838759018
0.00169743542754
0.00171233877412
0.00174502433907
0.00183654508778
0.00212383650539
0.00297795835897
0.00509621044553
0.0101733737892
0.0259318518443
0.0718187824341
0.00120799113798
0.00150233836531
0.00160175700487
0.00164050961203
0.00165644407758
0.00166434868857
0.00166989316102
0.00167516534856
0.00168097200315
0.00168787720324
0.00169703051454
0.00171206591115
0.00174490713381
0.00183621738116
0.00212148902066
0.00297443476325
0.00512277755622
0.0104641687809
0.027059819575
0.0729228292791
0.0012064605395
0.00150041675617
0.00159987945674
0.0016387851432
0.0016548915425
0.00166295200814
0.00166863668438
0.00167404463261
0.00167999355653
0.0016870610342
0.0016964461786
0.00171195327867
0.00174577198921
0.001838340154
0.0021228698842
0.00297262923154
0.00512787442009
0.0105176099616
0.0271912536827
0.0730681532463
0.00120454529813
0.00149802395342
0.0015974881171
0.00163654875421
0.00165285246483
0.00166109911073
0.00166695476956
0.00167253085422
0.00167866285831
0.00168596677032
0.00169577443939
0.00171228921142
0.00174852492766
0.00184559796848
0.0021349821393
0.00298294476544
0.00511182087629
0.0103121532125
0.0264544115102
0.0729333107473
0.00120219526157
0.00149510589842
0.00159456045224
0.00163379015365
0.00165031993669
0.00165878658484
0.00166484874192
0.0016706319029
0.00167699678484
0.00168462676046
0.00169509135486
0.00171329199564
0.00175384804229
0.00186011600502
0.00216289044206
0.00301540365739
0.00508079349368
0.00986725923133
0.0253569012275
0.0725431465966
0.00119938268863
0.00149165994651
0.00159108568367
0.00163050121785
0.00164728786507
0.00165601074113
0.00166231863845
0.00166835316474
0.00167500658692
0.00168305277061
0.00169438558862
0.00171485710189
0.0017612972328
0.00188047462191
0.00220418707994
0.00306959777017
0.00507300321882
0.00943150898447
0.0234365455195
0.0712802872983
0.00119610004962
0.00148768661578
0.00158705642534
0.00162667255788
0.00164374837284
0.001652766705
0.00165936328067
0.00166569447564
0.00167268742497
0.00168121497565
0.0016935128448
0.00171642306047
0.00176903733303
0.00190163742107
0.00224711780639
0.00312763060431
0.00509976779929
0.00930473718431
0.0219941186896
0.0686526399868
0.00119233553724
0.00148317393302
0.00158246653613
0.00162229659768
0.0016396944503
0.00164905004572
0.00165597968858
0.00166265307593
0.00167002553558
0.00167905352831
0.00169224730969
0.00171718604971
0.00177455781413
0.00191700844589
0.00227788915074
0.00316683782413
0.00512390238183
0.00940856205066
0.0220070940282
0.0657952634339
0.00118807512432
0.00147811146217
0.00157731246396
0.00161737019215
0.00163512177808
0.00164485762392
0.00165216796486
0.00165923014335
0.00166701776694
0.00167653757507
0.00169044625191
0.00171665522457
0.00177646870962
0.00192323155408
0.00228994505298
0.00317792608797
0.00511147337531
0.00946376002302
0.022751466075
0.0681552425672
0.00118331187514
0.00147250803596
0.00157159803615
0.00161189481149
0.00163003192569
0.00164019143423
0.0016479327188
0.00165543464031
0.00166367973437
0.00167368781831
0.0016881522621
0.00171499502842
0.00177534376083
0.00192192428578
0.00228666834879
0.00316715949736
0.00506942263401
0.00935028113538
0.0231146394461
0.0713710515248
0.00117804297482
0.00146637290303
0.00156533813954
0.00160588162304
0.00162443199913
0.00163505834678
0.00164328394166
0.0016512836639
0.00166003489932
0.00167054343872
0.00168546061167
0.0017125056107
0.0017722234366
0.00191629566681
0.00227594954979
0.0031481875756
0.00502202325905
0.00911888572592
0.0220441338549
0.0706213234948
0.00117229360838
0.00145972822351
0.0015585558955
0.00159935057246
0.00161833733447
0.00162947256484
0.00163824009847
0.00164679957529
0.00165611225686
0.00166711708222
0.00168233626101
0.00170901903648
0.00176690901076
0.0019067569081
0.00226022764274
0.00312578071077
0.00497688718964
0.00886501555492
0.0207625967993
0.0703870158678
0.00116605573308
0.00145261572336
0.00155129714824
0.00159233652697
0.00161177656183
0.00162345617681
0.00163281915551
0.00164200565526
0.0016519286714
0.00166345547923
0.00167877376534
0.00170452554211
0.00175944694725
0.00189393863207
0.00224197761917
0.00310338513027
0.00492502217364
0.0085466422798
0.0188222679078
0.0612324867085
0.00115940957157
0.00144512270443
0.00154363151319
0.00158490472087
0.00160478060331
0.00161702282438
0.0016270191728
0.00163689853568
0.00164755381719
0.00165967175149
0.0016751213184
0.0016999363386
0.00175204295614
0.00188228127152
0.00222866283982
0.00309152092014
0.00489344910005
0.00841403286138
0.017897537035
0.0492910606433
0.00115238637479
0.00143733900564
0.00153566223122
0.00157711196071
0.00159739748588
0.00161014962805
0.00162076125239
0.00163135047682
0.00164281443221
0.0016557033389
0.00167158065129
0.00169613334435
0.00174696310725
0.00187550584151
0.0022236366588
0.00309272731183
0.00490100869309
0.00853602863082
0.0182045557738
0.0484029860493
0.00114506656678
0.00142940711575
0.0015275327836
0.00156908965415
0.00158962305051
0.00160270519084
0.00161368028903
0.00162477701801
0.00163704650936
0.00165091483448
0.00166765225369
0.00169309587355
0.00174539579095
0.00187576141941
0.0022277269438
0.00310424392035
0.00493613920103
0.00888298125725
0.021841271222
0.0776265965236
0.00113762222074
0.00142153777838
0.00151943680888
0.00156091832651
0.00158136400237
0.00159414494681
0.0016045525431
0.00161517863913
0.00162777688155
0.00164274403814
0.00166071509261
0.00168822870903
0.00174639746067
0.00188443914222
0.00224381189788
0.00312787681
0.00495935041941
0.00890331261761
0.0221851092489
0.0796218461629
0.00113030961091
0.00141404004656
0.00151160281819
0.00155267399758
0.00157223708443
0.00158307561916
0.00159001596034
0.00159636343209
0.00160689061729
0.00162249469894
0.00164163469486
0.00167262533586
0.00174616356041
0.00190472564531
0.00228370252614
0.00318122350884
0.00497190163106
0.00849108352
0.0193683831155
0.068888869116
0.00112331886588
0.00140714711858
0.00150422579131
0.00154428547718
0.00156143107521
0.00156654066499
0.00156168026717
0.00154713119087
0.00154683403431
0.00156038819381
0.0015806859186
0.00161981398876
0.00173103996887
0.00193893626938
0.00236344972474
0.00328678577907
0.0050248416244
0.00821510541583
0.0179402918081
0.0668607431624
0.00111692209468
0.00140119141021
0.00149761535329
0.00153603460991
0.0015489181298
0.00154302446232
0.00150959595468
0.00142426931031
0.00132956977974
0.0013208707456
0.00134114111146
0.00140942061274
0.00166575927541
0.00200337023485
0.00251415656375
0.00346755962121
0.00515212877894
0.00823313966562
0.0168118370813
0.0541199010809
0.00111129163746
0.00139603329099
0.00149198341237
0.00152879509828
0.00153773127137
0.00152195539278
0.00146073298712
0.00123566878977
0.00173070527516
0.00224233137197
0.00279223139664
0.00372622984301
0.00531971433347
0.00837003715719
0.016920059324
0.0441635977953
0.00110756268821
0.00139313853647
0.00148890721937
0.00152477205174
0.00153135456584
0.00151029538382
0.00143629548228
0.0011778901017
0.0018410956546
0.00244852998504
0.00301704110582
0.00391886145199
0.0054308150288
0.00843842393947
0.0182869552732
0.0514430769454
0.00110748101357
0.00139308173769
0.0014888693479
0.00152474604754
0.00153133107772
0.00151026371697
0.00143628988224
0.0011780237079
0.00183951830655
0.00244450359436
0.00300951555219
0.00391499196828
0.00545187337098
0.00854303672324
0.0193766990662
0.0624561823589
0.00111117652654
0.00139590975769
0.0014918992205
0.00152872647747
0.00153765880552
0.00152187215606
0.00146067964799
0.00123565715133
0.00172896178246
0.00223586062121
0.002781094769
0.0037228885204
0.00537380746248
0.00877356940058
0.0203416291887
0.0682349476443
0.00111681638109
0.00140107209513
0.00149752288803
0.00153596052073
0.0015488266456
0.00154284848545
0.00150915846151
0.00142369375038
0.00132898510616
0.00132039739948
0.00134083776946
0.00140976780038
0.00166641836432
0.00200282073916
0.00251383520409
0.00347554675055
0.00521329301917
0.0087153453569
0.0202717777127
0.0687207411661
0.00112326630888
0.00140710303494
0.00150416852814
0.0015442280183
0.00156136630956
0.00156644910226
0.00156153444084
0.00154672949405
0.00154662773284
0.00156029161954
0.00158080845166
0.00162044174916
0.00173276219574
0.0019439680533
0.00237771588725
0.0033136537238
0.00507782454471
0.00856789062333
0.0204254693195
0.0736891264317
0.00113028148601
0.0014140243831
0.00151155951276
0.00155261350735
0.00157217710631
0.00158302107002
0.00158995489018
0.00159628661783
0.00160685189853
0.00162253915509
0.00164193154801
0.00167368155363
0.00174921749763
0.00191401577136
0.00230773823849
0.00322231039165
0.00501291406187
0.008556337788
0.0206902872253
0.0755056126472
0.00113759757039
0.00142153412407
0.00151939388451
0.00156086036848
0.00158130281389
0.00159409158169
0.00160451165504
0.00161514167344
0.00162775324107
0.00164276856209
0.00166095942884
0.00168917587087
0.00174944159466
0.00189386173415
0.0022683184448
0.00317145386298
0.00499932464361
0.00872487407039
0.0205982976486
0.073059566546
0.0011450280812
0.00142938485275
0.00152748442238
0.00156902500018
0.00158956190118
0.00160264683704
0.00161363194914
0.00162473679538
0.00163700266164
0.00165088954731
0.00166774770157
0.00169363282298
0.00174738240104
0.00188225831727
0.00224574319591
0.00313967654492
0.00498610937633
0.00893355903683
0.0218178850254
0.0738158258074
0.0011523519709
0.00143732441578
0.00153561407641
0.00157705318917
0.00159733121888
0.00161009223011
0.001620704501
0.00163129439009
0.00164274741686
0.00165563458152
0.00167155391057
0.00169631385785
0.00174792605005
0.00187933625773
0.00223621311089
0.00312031141427
0.00496275335708
0.00903148460001
0.0230126011736
0.0756353665084
0.00115938505186
0.00144511369146
0.00154358875407
0.00158484284444
0.00160472522734
0.00161696735656
0.00162696354525
0.00163683151664
0.00164746101701
0.00165955988107
0.00167500290573
0.00169993746333
0.00175270812355
0.00188594369534
0.00224200644556
0.00312075382646
0.0049664466653
0.00912839111502
0.0233144395143
0.069492903693
0.00116602977268
0.00145259247815
0.00155125216746
0.00159228714187
0.00161173219019
0.00162341998482
0.00163278204906
0.00164195434154
0.00165186413788
0.00166336017779
0.00167865348244
0.0017045211665
0.00176020103576
0.00189841751902
0.00225799978311
0.00313564368433
0.00497965847207
0.00903882501305
0.0220598427963
0.0603402989218
0.00117226422773
0.00145968753869
0.00155851216169
0.0015993139845
0.00161831743589
0.00162946739351
0.0016382388137
0.00164678715073
0.00165607054867
0.0016670446802
0.00168220338053
0.00170889913945
0.00176713847206
0.0019093389193
0.0022708180769
0.00314843933251
0.00500455988365
0.00903728295313
0.0215390229505
0.05337679544
0.00117801424389
0.00146632540757
0.0015653032244
0.00160586549567
0.00162443989706
0.00163508648993
0.0016433220049
0.00165131370314
0.00166003774688
0.00167049950993
0.00168533792812
0.00171222585077
0.00177162928241
0.00191559338538
0.0022771858465
0.00315793453676
0.00506231683439
0.00934630838092
0.0225911653383
0.0584532495495
0.00118329113609
0.00147246994072
0.00157157766866
0.00161189919017
0.00163006554305
0.00164024993084
0.00164800683551
0.0016555071766
0.00166372707741
0.00167367811033
0.00168803517625
0.00171460502322
0.00177418861436
0.00191904468224
0.00228180949093
0.0031683146675
0.00511284921397
0.00956244078588
0.0233154726829
0.0687843816476
0.00118805407589
0.00147807158112
0.0015772964437
0.00161738618837
0.0016351735001
0.00164494205127
0.0016522743748
0.00165934391525
0.00166711718828
0.00167656934328
0.00169035651398
0.001716243831
0.00177524550183
0.00192010184022
0.00228398337826
0.00317447823953
0.00512864619171
0.00950288510316
0.0228691710894
0.0691806953995
0.00119230530798
0.00148309661905
0.00158243029674
0.00162230539547
0.00163974556999
0.00164913869269
0.00165609820733
0.00166278959556
0.00167016043588
0.00167914535549
0.00169221838455
0.00171685068026
0.0017735891675
0.00191473207327
0.002273616795
0.00316175429195
0.00511249877482
0.00934228233169
0.0223960764644
0.0679953805993
0.00119606998485
0.00148758980455
0.00158700850628
0.00162667916511
0.00164380270609
0.00165286204389
0.00165949282288
0.00166584990042
0.00167285143884
0.00168136289253
0.00169358507548
0.00171626813403
0.00176843759071
0.00190035076147
0.00224476064928
0.00312340713747
0.00508470031545
0.00924325414195
0.0223969545873
0.070638128376
0.00119936062641
0.00149156365466
0.00159103804715
0.00163051124644
0.00164734697934
0.00165611081474
0.0016624539049
0.00166851997466
0.00167519412152
0.00168324248455
0.00169454594622
0.00171489979894
0.00176114491991
0.00187996808296
0.00220325082764
0.00306720629937
0.00506672968006
0.00940696770034
0.0229666805569
0.0710815881858
0.00120218724679
0.00149501547671
0.00159451916331
0.00163380671674
0.00165038363685
0.0016588890494
0.00166498568242
0.00167080344363
0.00167719715027
0.00168483957895
0.00169530010359
0.00171343869508
0.00175393321471
0.00186010084738
0.00216207448494
0.00301093118672
0.00506542362278
0.00986584859175
0.0255455681528
0.0724148007646
0.00120455858535
0.00149794069412
0.00159745606577
0.00163657304959
0.00165292104422
0.00166120348049
0.00166709213969
0.00167270338542
0.00167886838174
0.00168619077109
0.00169600790589
0.00171247932891
0.00174866554043
0.00184547521216
0.00213285097244
0.00297176750101
0.00505821123407
0.0100574615759
0.0261100007115
0.0727624488577
0.00120649749421
0.00150035601418
0.00159986392338
0.00163881936412
0.00165496727585
0.00166306070111
0.00166877559778
0.00167421766809
0.0016802015572
0.00168729290944
0.00169669305837
0.00171215512503
0.00174583135649
0.00183755625087
0.00211776836209
0.00295109560513
0.00504291840945
0.010074218172
0.0260605481078
0.0728918675249
0.0012080492492
0.00150229925658
0.00160176164351
0.00164056060103
0.00165653098823
0.00166446476722
0.00167003621942
0.00167534072989
0.00168118363965
0.00168811665768
0.00169728729445
0.00171227520377
0.00174485193845
0.00183457973248
0.0021127823161
0.00294561743634
0.00504674057536
0.0101484023908
0.0261265169023
0.0728302603716
0.00120923445338
0.00150380172669
0.00160316444314
0.00164180625895
0.0016576210301
0.00166542083253
0.00167087434622
0.00167606734149
0.00168180107888
0.0016886296819
0.00169770043773
0.0017125695841
0.0017449606056
0.00183467173753
0.00211431973009
0.0029522412137
0.00506434431731
0.0101708438033
0.025771693725
0.0724066194664
0.00121003961451
0.00150485244769
0.00160408802285
0.00164257398629
0.00165824896563
0.00166593522997
0.00167129189023
0.00167639533921
0.00168204571122
0.0016888086524
0.00169786267427
0.00171282932751
0.00174559524477
0.00183668806242
0.00212094967755
0.0029666790745
0.00506671700257
0.00999572616003
0.0249510225501
0.0706235494938
0.00121045996304
0.00150546615984
0.0016045513341
0.00164287976456
0.00165842660956
0.00166601561028
0.00167129352309
0.00167632685136
0.00168191592576
0.00168864287821
0.00169773320604
0.00171291449546
0.00174633979891
0.00183953483231
0.00212999877255
0.00298612462471
0.00505837810409
0.00958218343272
0.0217568341262
0.05915378355
0.00121050277073
0.00150566462195
0.00160457091097
0.00164273638912
0.00165816364778
0.00166566969063
0.00167088597113
0.0016758681261
0.00168141794241
0.00168813680999
0.00169730259226
0.00171275548606
0.0017468904901
0.0018419223218
0.00213687773693
0.00299952848125
0.00505167850566
0.00932090681901
0.0213879631449
0.0656187708599
0.00121016781616
0.00150544819597
0.00160415251903
0.00164215104106
0.00165746625317
0.0016649040193
0.00167007572933
0.0016750265239
0.0016805612878
0.00168730265526
0.0016965826729
0.00171233757581
0.00174714474997
0.0018433224254
0.00213963124371
0.00300659135276
0.0051014288517
0.00966338093437
0.0232979434791
0.0688133506307
0.0012094662994
0.00150480733737
0.00160329751573
0.00164113166571
0.00165634452269
0.00166372733579
0.00166886936457
0.00167380673682
0.0016793495368
0.00168614452619
0.0016955825726
0.00171169927294
0.00174717937397
0.001844057958
0.00213977636349
0.00301340035543
0.00523710286663
0.01060342329
0.0268819443792
0.0719811040269
0.00120840816198
0.00150374766643
0.00160200815359
0.00163968446687
0.00165480832565
0.00166215002323
0.00166727711378
0.00167221704383
0.00167778498886
0.00168465835033
0.00169429793123
0.00171086796957
0.00174717329828
0.00184486899031
0.00213934087461
0.00301906581605
0.00537528702999
0.0113281919348
0.028456752172
0.0726348988955
0.00120701110993
0.00150225554166
0.00160028281827
0.00163781255814
0.0016528652354
0.00166018123774
0.00166531080578
0.00167027172344
0.00167588337383
0.00168286436354
0.00169276197916
0.00170991181056
0.00174732160441
0.00184646415131
0.00214036029329
0.0030221454978
0.00547845640061
0.0117708817084
0.0289268605284
0.0725904614871
0.00120533821278
0.00150034108942
0.00159812107716
0.0016355174066
0.00165051989055
0.00165782963787
0.00166298142404
0.00166798514252
0.0016736681796
0.00168079545158
0.00169102345822
0.00170890975683
0.00174788239582
0.00184978374475
0.00214636815681
0.00303375329897
0.00556811094865
0.012091591387
0.0291389091563
0.0727000998851
0.00120345405968
0.00149800396944
0.00159551274268
0.00163279420838
0.00164777035595
0.00165510305879
0.00166029947224
0.0016653674293
0.0016711544261
0.00167847301007
0.00168911389623
0.00170793557267
0.00174898334788
0.00185518186459
0.00215980114386
0.00306721701489
0.00570591650576
0.0126180059087
0.0296981308682
0.0728269537612
0.00120143952774
0.00149524887991
0.00159245735811
0.00162964575655
0.00164462697358
0.00165201175224
0.00165727883417
0.0016624364201
0.00166835690583
0.00167591338256
0.00168706066444
0.00170704722787
0.0017508106742
0.00186332165181
0.00218265424833
0.00313509680543
0.00596087006056
0.0134500009883
0.0301688144986
0.0649012710143
0.00119918792487
0.00149208402706
0.00158898400617
0.00162609967122
0.00164111325363
0.00164856933064
0.00165393142328
0.00165920699901
0.00166529216108
0.00167313522408
0.00168489091008
0.00170625850684
0.00175341113735
0.00187454700776
0.00221700745459
0.00324328187902
0.00633260610168
0.0144592234682
0.0309867141871
0.0623808079729
0.00119655892692
0.0014885388772
0.00158512935652
0.00162218574815
0.00163724629043
0.00164479327594
0.00165026839583
0.00165568363927
0.0016619635252
0.0016701416704
0.00168256537052
0.00170548704186
0.00175659839626
0.00188877310674
0.00226399836284
0.00338701647143
0.00674485337118
0.0155135187416
0.0336994710681
0.0735362254356
0.00119356639693
0.00148462501752
0.00158091433078
0.00161792030847
0.00163304456706
0.00164070182789
0.00164631202759
0.00165189023291
0.0016583928848
0.00166694213108
0.00168010072361
0.00170469157138
0.00176017540741
0.00190521283465
0.00232020184519
0.00355907660227
0.00718055904827
0.0164497778241
0.0357454773438
0.0747802071026
0.00119021941871
0.00148036955969
0.0015763569584
0.0016133245024
0.00162852990484
0.00163631919936
0.00164208744248
0.00164785300346
0.00165460654739
0.0016635641688
0.00167752986134
0.00170396570013
0.00176427169111
0.00192328782709
0.00238113966906
0.00374396332412
0.00763110056365
0.0171939502994
0.0366082719754
0.0750335605159
0.00118652691287
0.00147577386125
0.00157147109105
0.00160841747029
0.00162372581149
0.00163167072072
0.00163762230701
0.00164360323325
0.00165063900255
0.00166004765797
0.00167490007547
0.00170336350983
0.00176879138725
0.00194151892152
0.00243841687136
0.00391560478267
0.00804952468888
0.0177546789557
0.0368442944504
0.0748758684531
0.0011824942487
0.0014708522917
0.00156627417447
0.00160322249307
0.00161865827846
0.00162678480351
0.00163294672727
0.00163917013507
0.00164651897259
0.00165642457863
0.00167223866572
0.00170285785221
0.00177356558348
0.00195959995099
0.00249164637845
0.00407093043996