/*--------------------------------*- C++ -*----------------------------------*\
| =========                 |                                                 |
| \\      /  F ield         | OpenFOAM: The Open Source CFD Toolbox           |
|  \\    /   O peration     | Version:  v2012                                 |
|   \\  /    A nd           | Website:  www.openfoam.com                      |
|    \\/     M anipulation  |                                                 |
\*---------------------------------------------------------------------------*/
FoamFile
{
    version     2.0;
    format      ascii;
    class       volVectorField;
    location    "5.6";
    object      U;
}
// * * * * * * * * * * * * * * * * * * * * * * * * * * * * * * * * * * * * * //

dimensions      [0 1 -1 0 0 0 0];


internalField   nonuniform List<vector> 
1984
(
(-0.000290063280277 0.000275710440353 6.32721016771e-22)
(-9.17625416791e-05 0.000649100459192 7.05663107534e-22)
(-1.76113987243e-05 0.000858129608876 3.05692614962e-22)
(-4.1361128909e-05 0.00104456203376 -2.63585278397e-22)
(-9.64485699078e-05 0.00129229263841 -6.70290079961e-22)
(-0.000156494786384 0.00166616365212 -6.85487092161e-22)
(-0.000238947595406 0.00217372942835 -4.40003669939e-22)
(-0.000330385020023 0.00280653322148 9.58895425394e-23)
(-0.000431842533764 0.00363494053631 4.22637627717e-22)
(-0.000563879546352 0.00470658328647 3.98675546343e-22)
(-0.000721686684577 0.00605340075787 1.03318544838e-22)
(-0.000927501360259 0.00773337220592 -1.61196159593e-22)
(-0.00124405648278 0.00995782838921 -5.45351458843e-22)
(-0.00185379298226 0.0130727461074 -1.37643771879e-21)
(-0.00263409344231 0.0149079719315 -6.26992804132e-22)
(-0.00327367654096 0.0236823906516 5.46678073215e-21)
(-0.00265980018943 0.0164293461669 1.59175679134e-20)
(0.00456633768049 0.0314804027737 4.96305496154e-20)
(-0.0227720699754 0.0470902694399 4.98939164871e-20)
(-0.0246343800466 0.0974372716349 8.79550991014e-21)
(-0.000623871567236 3.93717061259e-05 9.21299168923e-22)
(-0.000381977943284 0.00031455997186 9.49068245553e-22)
(-0.000298856569629 0.000487616741748 4.81127762225e-22)
(-0.000344721511395 0.000639132151936 -1.53375297659e-22)
(-0.000461851995552 0.000846791028967 -6.30205336059e-22)
(-0.000617521144986 0.00113108734319 -6.64132145057e-22)
(-0.000824837065489 0.00152479110024 -4.50810146315e-22)
(-0.00107734823028 0.00205041470931 -1.0440514854e-22)
(-0.00137995378199 0.00275320936247 1.3286389015e-22)
(-0.00177808468143 0.00368750649601 9.22700889599e-23)
(-0.00229404191035 0.00489944126409 -1.06363068118e-22)
(-0.00292110833372 0.00640806438673 -2.63633768127e-22)
(-0.00373356774452 0.00832408797797 -6.82902615417e-22)
(-0.00465657336154 0.0110219111237 -2.28958853069e-21)
(-0.00539453412412 0.0122839917798 -5.59272572455e-21)
(-0.00618153251542 0.0199712410997 -1.18765936022e-20)
(-0.00855338246289 0.0133063615885 -1.09904093597e-20)
(-0.0148363004719 0.0272859349232 -1.20990609221e-20)
(-0.0254340225156 0.0313840743616 -1.15593313724e-20)
(-0.0619685528634 0.0648676707052 2.86734095006e-21)
(-0.000726192603562 -7.58793208302e-05 1.24850173079e-21)
(-0.000498863225483 9.36409263749e-05 1.23618588728e-21)
(-0.000421248228993 0.000186076617361 7.59813755595e-22)
(-0.000478650745406 0.000272505765153 9.84221216274e-23)
(-0.00064869800953 0.000406886016825 -3.33355865476e-22)
(-0.000899196856648 0.000603453211486 -4.51596393444e-22)
(-0.00121596340728 0.00089539699037 -3.04905765973e-22)
(-0.0016077342692 0.00131659350545 -1.16569356393e-22)
(-0.0020859625558 0.00189445750156 4.69153325805e-24)
(-0.0027084561386 0.00264356392262 -1.22949726294e-23)
(-0.00349571328262 0.00365695351035 -1.62987281951e-22)
(-0.00447571734908 0.00494093679307 -3.62955269563e-22)
(-0.0056793081263 0.00654454603436 -8.95701481918e-22)
(-0.00701186549474 0.00875614679187 -2.30823755646e-21)
(-0.00838367989104 0.00938618431305 -7.28290107833e-21)
(-0.0108605932883 0.0163558355782 -2.16769150241e-20)
(-0.0132632471721 0.0111282656165 -2.84589799567e-20)
(-0.0202553749391 0.0261184747708 -4.57578669025e-20)
(-0.0337696593702 0.0300370907203 -4.56004661257e-20)
(-0.0725640489209 0.0274960682931 -1.3961875062e-20)
(-0.000715949857108 -0.000121494350011 1.32381490772e-21)
(-0.000511168550718 -4.97072500532e-05 1.31743564067e-21)
(-0.000448507827705 -5.3311184803e-05 9.08418111741e-22)
(-0.000528768739565 -5.71832601637e-05 3.3167566007e-22)
(-0.000744708057423 -1.68916770511e-05 -5.99106466311e-23)
(-0.00106970590995 7.97200952594e-05 -1.8584949271e-22)
(-0.00148808209343 0.000259438490361 -1.37649641311e-22)
(-0.00201274579413 0.000553656592981 -3.58777353031e-23)
(-0.00266603780797 0.00098590052836 -1.78223315971e-23)
(-0.00348542513426 0.001585358707 -4.72910779809e-23)
(-0.00450147836843 0.00238008593128 -1.02942559896e-22)
(-0.00575608847189 0.00336856704085 -2.93760311203e-22)
(-0.00724485907499 0.00463975027067 -7.00779276771e-22)
(-0.00889595737791 0.00644733076223 -1.33016849209e-21)
(-0.0108021876195 0.00685287587073 -2.90197959055e-21)
(-0.0147885585517 0.0133668461407 -6.18386484363e-21)
(-0.0195260129459 0.00858093496426 -1.62689106511e-20)
(-0.0308352388591 0.0229197686317 -2.67806495656e-20)
(-0.0354965544895 0.0255199021184 -2.67494470567e-20)
(-0.0448480410799 0.0189859635951 -9.45722121936e-21)
(-0.000631753348509 -0.000141533602802 1.10192213483e-21)
(-0.00043748863021 -0.000155993263631 1.22286889077e-21)
(-0.000387451698109 -0.000251340345468 9.318374181e-22)
(-0.000490024697844 -0.000353569901181 4.5863675798e-22)
(-0.000746975008326 -0.000416751731116 1.14767241008e-22)
(-0.00113441911658 -0.000430546049719 -2.23631131777e-23)
(-0.00164345405219 -0.000375547119322 -4.03575112571e-23)
(-0.00228369080338 -0.000229786926495 -6.62117291199e-24)
(-0.0030812697199 3.89828771158e-05 -2.06003504531e-24)
(-0.00405587542619 0.000445842724621 -2.30099213901e-23)
(-0.0052748151143 0.00102792505219 -9.58304748949e-23)
(-0.00675134286857 0.00178243807433 -3.12954787349e-22)
(-0.00848270760454 0.00276443717716 -8.06497485103e-22)
(-0.0104013977076 0.00423351475866 -1.31650983447e-21)
(-0.0128997949374 0.00483318088494 -1.9061928955e-21)
(-0.01813815029 0.0108377790228 -2.84181826328e-21)
(-0.0248892184962 0.00573295329583 -5.87508235022e-21)
(-0.038952626755 0.0182909676946 -9.27553097499e-21)
(-0.03601527879 0.0217134392448 -9.25015982205e-21)
(-0.0294846297167 0.0177347438328 -2.57739991245e-21)
(-0.000490463515698 -0.000163154306788 9.11144711462e-22)
(-0.00028078031137 -0.000260947338899 1.06934472564e-21)
(-0.000233482008601 -0.000444068777902 8.53238807529e-22)
(-0.000352670341083 -0.000648101547664 4.64185035338e-22)
(-0.000643661980255 -0.000820567310314 1.72259485965e-22)
(-0.0010822720294 -0.000954542364283 3.93123784169e-23)
(-0.00166354371158 -0.00103363294972 3.85331915393e-25)
(-0.00239237524963 -0.00104580823792 -1.21461104523e-24)
(-0.00330345812203 -0.000963637700723 -2.93940467733e-24)
(-0.00442135966537 -0.000769952112345 -1.55785206596e-23)
(-0.00579123313857 -0.000435911756115 -9.33336196087e-23)
(-0.0074886984971 6.27825391991e-05 -3.057811088e-22)
(-0.00950556093714 0.00080174272735 -1.10136481319e-21)
(-0.0118682600575 0.00204416960158 -1.95711955505e-21)
(-0.0150831408508 0.00319427408186 -2.54159185487e-21)
(-0.020513224455 0.00867883713124 -4.51163411152e-22)
(-0.0276541707152 0.00248138943434 4.83214033827e-21)
(-0.043377446811 0.0107120140991 9.20704306545e-21)
(-0.0352298145765 0.0130906887429 8.91255837813e-21)
(-0.0163465384162 0.00191451977872 1.26936114529e-21)
(-0.000283755030802 -0.000190951260331 8.25456789642e-22)
(-4.08196076678e-05 -0.000378794108355 9.90407942833e-22)
(1.58440997218e-05 -0.00065048462536 7.91850145385e-22)
(-0.000110348777983 -0.000958706204842 4.30113950936e-22)
(-0.000424450015422 -0.0012457649343 1.69170486266e-22)
(-0.000900780155558 -0.00150807469008 5.47230449042e-23)
(-0.00153341725834 -0.00173089891266 6.11689724758e-24)
(-0.00233794640409 -0.00191756844654 -4.6474196727e-24)
(-0.00332439718762 -0.00204748500903 -1.61797090663e-23)
(-0.00454970625726 -0.00208845205599 -1.87248627164e-23)
(-0.00604863519149 -0.00205016585463 -1.23948473539e-22)
(-0.00794290122626 -0.00188921230812 -3.99582181102e-22)
(-0.0103065664053 -0.00149837572233 -1.22175414235e-21)
(-0.0133599153832 -0.000695555357284 -2.62717941423e-21)
(-0.017268278783 0.00061601228385 -5.89860718798e-21)
(-0.0219926908111 0.00481668382243 -1.06888719736e-20)
(-0.0275779179701 -0.00235803939615 5.68987954697e-21)
(-0.0421880883255 0.00175953918228 2.26478397474e-20)
(-0.0315762301574 0.00335796208629 2.12895324028e-20)
(-0.00720768085453 -0.0133768694944 3.12817967478e-21)
(6.53368329325e-07 -0.000225837888308 8.72637970853e-22)
(0.000285666589815 -0.000508818062252 9.71932819907e-22)
(0.000363250985087 -0.000871002289127 7.64403846923e-22)
(0.00024143076497 -0.00128624825027 4.36260594406e-22)
(-8.23396352172e-05 -0.00169254705764 1.83046703877e-22)
(-0.000577937292833 -0.00209060199733 6.22409269834e-23)
(-0.0012370006586 -0.00247736552645 1.57866117446e-23)
(-0.00207601231977 -0.0028383564963 6.55587004922e-25)
(-0.00310859468693 -0.00317970543335 -1.19728420816e-23)
(-0.00439197430904 -0.00349616257186 -3.55025649716e-23)
(-0.00599763840252 -0.00380865349671 -1.43051224578e-22)
(-0.00798533048814 -0.00408965545387 -4.34282390831e-22)
(-0.0106266681644 -0.00433101032079 -1.03541120904e-21)
(-0.0140570636035 -0.0043147631773 -1.78795233812e-21)
(-0.0183115154687 -0.00384959988908 -4.53179035075e-21)
(-0.0227338364468 -0.00233621507323 -9.85027966255e-21)
(-0.0264224427558 -0.00989120415713 -1.30978167506e-21)
(-0.0378514005368 -0.00773620890378 -6.73586253035e-21)
(-0.0268240394501 -0.00365800495689 -6.185489005e-21)
(0.00148891012918 -0.0187620368387 4.31566428886e-24)
(0.000370764509595 -0.00026551355704 8.5168055714e-22)
(0.000702929046558 -0.000644793846869 9.29029274994e-22)
(0.000811048606129 -0.00109887394881 7.47313902576e-22)
(0.000704947694216 -0.00162239680702 4.28435125207e-22)
(0.000385997743264 -0.00214817973762 1.89221647071e-22)
(-0.000109745430665 -0.00268260563068 7.72028272687e-23)
(-0.000768303367502 -0.00322586980633 2.19662773195e-23)
(-0.00159758904023 -0.00377925446363 5.25157243688e-24)
(-0.00263574657731 -0.00435454920691 -6.00898195216e-24)
(-0.00390904616819 -0.00497805986144 -3.79676710179e-23)
(-0.00550071616723 -0.00563365088259 -1.20997027505e-22)
(-0.00749373390697 -0.00641639839509 -3.74182662784e-22)
(-0.0100706031223 -0.00730298078565 -7.4836391241e-22)
(-0.0134253661054 -0.00822505831685 -1.33790105158e-21)
(-0.0176223018403 -0.00930622950907 -2.53433201984e-21)
(-0.0223500158166 -0.0109021105251 -3.86108907978e-21)
(-0.0256253065586 -0.0181605149783 -6.16908171087e-21)
(-0.0340297878553 -0.016848516692 -9.36967224856e-21)
(-0.023565821525 -0.0112153221939 -9.26893217243e-21)
(0.00514897150631 -0.0187938839825 -1.0787270969e-21)
(0.000829438394147 -0.000308586379132 6.33803459033e-22)
(0.00121521035908 -0.000780034763512 7.45410779804e-22)
(0.00135757468514 -0.00132536216079 6.18657630512e-22)
(0.00127850209879 -0.00195614084797 3.79162285796e-22)
(0.000979279235861 -0.00259879923234 1.64595470787e-22)
(0.000501183707729 -0.00326581694632 5.61474069573e-23)
(-0.000133953858468 -0.00396282918864 1.71676767074e-23)
(-0.000931190773069 -0.00469997392002 3.12529124443e-24)
(-0.0019119813233 -0.00549627188569 -3.70612658238e-24)
(-0.00309548067879 -0.00638754548994 -2.98909078876e-23)
(-0.00453539167853 -0.00742250958784 -1.126707414e-22)
(-0.0063733494968 -0.00861920150463 -3.30374539193e-22)
(-0.00868171375333 -0.0100908789565 -6.06972922434e-22)
(-0.0116421891632 -0.0118835859574 -1.06973328087e-21)
(-0.0153645814311 -0.0142013222056 -2.12490045122e-21)
(-0.020424715009 -0.0178129544796 -4.32608131327e-21)
(-0.0244227769804 -0.0248787681352 -6.49404829251e-21)
(-0.0315341463301 -0.0245777977995 -1.24684737723e-20)
(-0.0222635674371 -0.0188930159776 -1.20886800084e-20)
(0.00367657368206 -0.0220799715254 -1.40476179013e-21)
(0.00137535241968 -0.000348222440751 2.96979891426e-22)
(0.00181909855964 -0.000909655924814 5.00229330333e-22)
(0.00199959694911 -0.00154600173055 4.83406967829e-22)
(0.00195802368403 -0.00227420996752 2.88436720029e-22)
(0.00169206376882 -0.00302668045402 1.29966082026e-22)
(0.00124986216193 -0.00381818228088 4.03569579976e-23)
(0.000660006329113 -0.00465775161116 8.83165554555e-24)
(-7.00285835307e-05 -0.00556575342151 -8.02905009223e-25)
(-0.000951581499464 -0.00657075743741 -5.35761744781e-24)
(-0.00199652844564 -0.00770830058519 -3.09101945745e-23)
(-0.0032477526064 -0.00902288985182 -1.1316750053e-22)
(-0.00479894029742 -0.0105889594781 -3.16655066928e-22)
(-0.00674671448976 -0.0124766062805 -5.64506008079e-22)
(-0.00906945581948 -0.0148178936571 -9.97486959544e-22)
(-0.0120949909703 -0.0178770218528 -1.28934985394e-21)
(-0.0172241320473 -0.0224686883607 -1.74814164188e-21)
(-0.0221617601833 -0.0293895454454 -6.88865422623e-21)
(-0.0289367379627 -0.0298155461491 -1.24263837426e-20)
(-0.0214723063016 -0.0264886489507 -1.21135849605e-20)
(0.00156071792225 -0.031659265893 -6.05874345986e-22)
(0.00200247745216 -0.000383072638088 1.61638951558e-22)
(0.0025041664434 -0.00102863648139 4.28463774256e-22)
(0.00273200500802 -0.00175009727028 4.22394555853e-22)
(0.00273661903629 -0.00256605246879 2.65664679227e-22)
(0.00251517267424 -0.00341763549384 1.12829504639e-22)
(0.00212611699388 -0.00431998763588 3.31955463875e-23)
(0.0016032477859 -0.00528668197662 6.91048916939e-24)
(0.000966608044538 -0.00634931953224 -1.81907634307e-23)
(0.000214313497083 -0.00753294792522 -2.21535367219e-23)
(-0.000666643180243 -0.00886313554497 -3.02415504771e-23)
(-0.00170036941177 -0.010391881475 -1.02696642066e-22)
(-0.00295111729038 -0.0121692392929 -2.61907430927e-22)
(-0.00443975850249 -0.0143095534527 -4.911663923e-22)
(-0.00615487980691 -0.0169604240575 -1.03904125613e-21)
(-0.0084000198332 -0.0202257646532 -2.18394085362e-21)
(-0.0130263776029 -0.0250065499811 -3.43423394824e-21)
(-0.0182283659391 -0.0318456815644 -6.49057104476e-21)
(-0.0248359971366 -0.0326007220197 -1.11470685e-20)
(-0.0192047091916 -0.0325400901976 -1.1211906006e-20)
(0.000925051440647 -0.0423192658672 -5.01974706005e-21)
(0.00270328725022 -0.000411556377441 1.36654010065e-22)
(0.00326197633497 -0.0011322441687 3.29307166429e-22)
(0.00354580791408 -0.00192952902806 3.72023082873e-22)
(0.00360419950661 -0.00282246212516 2.55407218143e-22)
(0.00343679187385 -0.00375953462179 1.0653004536e-22)
(0.00311219117108 -0.00475968122859 2.69083487937e-23)
(0.00267537513697 -0.00583739744449 6.95489870788e-24)
(0.00214408348229 -0.00701483936864 -8.28509458939e-24)
(0.00153105773109 -0.00831960159313 -1.28319791492e-23)
(0.000826257876973 -0.00978072273968 -2.91930696625e-23)
(2.4495468449e-05 -0.0114472807659 -8.45262721156e-23)
(-0.000901349934769 -0.0133788089365 -1.67243268964e-22)
(-0.00199295704602 -0.0156643292615 -3.96498831109e-22)
(-0.00319750043225 -0.0183916186849 -8.85011542966e-22)
(-0.0047818078265 -0.021564985245 -2.60089889376e-21)
(-0.00840862350505 -0.0260706219424 -4.99049576774e-21)
(-0.0130689322525 -0.0326636851943 5.03286944544e-22)
(-0.0189858468628 -0.033652472197 -9.29238031996e-21)
(-0.0154439809049 -0.0362576355807 -9.50347457153e-21)
(0.00113978870764 -0.0492620427629 -1.56170943861e-21)
(0.00346905246409 -0.000435047395495 -2.65675138202e-23)
(0.00408425637543 -0.00121777868874 1.74379760839e-22)
(0.00442935002355 -0.00207692695592 2.44856414738e-22)
(0.00454720085449 -0.00303452405241 1.76031847787e-22)
(0.0044428167909 -0.00404626653304 7.70510129547e-23)
(0.00418914916843 -0.00512579268266 1.9786884603e-23)
(0.00384435207143 -0.00628613970383 3.62301296252e-24)
(0.00342600272024 -0.00754634753729 -1.22648114225e-23)
(0.00295403694996 -0.00893967617449 -1.57112256656e-23)
(0.00243005897599 -0.0104947763681 -1.96733931549e-23)
(0.00185613182568 -0.0122440028379 -1.01491245084e-22)
(0.00122495346628 -0.0142507674826 -1.77344998255e-22)
(0.000502340633404 -0.0165822156147 -4.29710195376e-22)
(-0.00030173384842 -0.0192856131382 -8.5472771701e-22)
(-0.00139395483831 -0.0223011122197 -1.99135841835e-21)
(-0.00394231198451 -0.026426598455 -2.3268710377e-21)
(-0.00741437750563 -0.0324254296362 -6.25902514953e-21)
(-0.0120295025747 -0.0331336967239 -7.56778189007e-21)
(-0.0105234555722 -0.0373167099694 -7.08169166309e-21)
(0.0020595892091 -0.0536410891959 -1.9327088822e-21)
(0.00428592773102 -0.000453385304753 -2.82041872211e-22)
(0.00496115615974 -0.00128145606667 -9.99389092081e-23)
(0.00536934721315 -0.00219105796325 2.94194358286e-23)
(0.00555143789768 -0.0032020323772 4.00122859879e-23)
(0.00551433737587 -0.00426841119928 1.80744375845e-23)
(0.00533559781628 -0.0054015387066 1.4457628701e-24)
(0.0050817233217 -0.00661760916241 -4.4157633289e-24)
(0.00478158610619 -0.0079386720613 -1.48679114133e-23)
(0.00445052855887 -0.00939168670516 -6.32563943341e-24)
(0.00410843102578 -0.0110058272861 3.55766935724e-24)
(0.00375458838029 -0.0127963260239 -8.02747073608e-23)
(0.00337638326705 -0.014814301539 -9.00145886218e-23)
(0.00296033161618 -0.0171168735436 -1.8231971629e-22)
(0.00247897103335 -0.0197316727893 -1.32930947528e-22)
(0.00178156313822 -0.0225722788883 3.84617564171e-22)
(0.000120714176496 -0.0262636261324 2.50971549792e-21)
(-0.00215934116373 -0.031406571598 2.52539425472e-21)
(-0.00500875639463 -0.0314427530419 -6.24220890153e-21)
(-0.00453379798434 -0.0360744763183 -6.41000298237e-21)
(0.00566442279697 -0.0546580432988 -4.33689751437e-21)
(0.00513966201714 -0.000465250466111 -5.95688885334e-22)
(0.00587761501108 -0.00133046885041 -3.61392474842e-22)
(0.00634909996454 -0.00227205616831 -1.83894150921e-22)
(0.00659832005436 -0.00331174976514 -8.50679004531e-23)
(0.00662998403628 -0.00440863944752 -3.09443634851e-23)
(0.00652808491357 -0.00557439983125 -7.40573683139e-24)
(0.00636493164312 -0.00682415973314 3.16358669444e-24)
(0.00618611216647 -0.00817949874168 5.31752813333e-24)
(0.00600191756363 -0.00966039594469 2.97323908731e-23)
(0.00582191212481 -0.0112946986669 2.86929382167e-23)
(0.00566156809274 -0.0130998764171 -6.13534884486e-23)
(0.00550114462322 -0.0150943218488 -9.57212279995e-23)
(0.00532925669947 -0.0173125582556 -1.753359545e-22)
(0.00510448997788 -0.0197946831424 -1.37982246188e-22)
(0.00469984438458 -0.0224494957758 2.90088499445e-22)
(0.00363632109222 -0.0255526471353 2.46196961005e-21)
(0.00217211226205 -0.0297097322375 -2.08256137764e-21)
(0.00127309604704 -0.0292298177373 -5.17021455767e-21)
(0.00239619475247 -0.0339477280767 -5.29893111161e-21)
(0.00975681093548 -0.0511923667975 -1.86714328209e-21)
(0.00601689410716 -0.000469511091732 -6.70847832614e-22)
(0.00681339857835 -0.00135633798145 -4.03810957313e-22)
(0.00734527645805 -0.00230734694541 -2.29984487477e-22)
(0.0076596794289 -0.00334658560612 -1.07041235421e-22)
(0.00776026282864 -0.00444476034148 -3.891957267e-23)
(0.00774017110407 -0.00561828377928 -3.94078980046e-24)
(0.0076759032978 -0.00688523994369 2.42197540283e-23)
(0.00761398579058 -0.00825765297263 2.22315207393e-23)
(0.00756785844671 -0.00975194110693 2.13164120013e-23)
(0.00753168672592 -0.0113814988766 9.36623056691e-24)
(0.0075303122941 -0.013159610443 -3.38803289882e-23)
(0.00756374393563 -0.015098676033 -8.98392233717e-23)
(0.00758936039368 -0.0172026688083 -2.54447168207e-22)
(0.00754226611209 -0.0195126830161 -7.93775943884e-22)
(0.00730729932981 -0.0219913940121 -1.59457034997e-21)
(0.00656431525363 -0.0244802755677 -2.82399848646e-22)
(0.00563014654725 -0.0276812934062 -5.53021950087e-21)
(0.00636515385671 -0.02702965578 -5.12120194367e-21)
(0.00923466767715 -0.031845927071 -5.03051294399e-21)
(0.0132205666986 -0.0408320777585 -3.99015497487e-22)
(0.00690404626554 -0.000466311964033 -3.98254563939e-22)
(0.00775306335595 -0.00135609913689 -2.0635727241e-22)
(0.00834266796428 -0.00230793391038 -1.02728615497e-22)
(0.00871802519424 -0.00334185570196 -4.27159558467e-23)
(0.00888823593735 -0.00443114706859 -1.48000175057e-23)
(0.00895484414103 -0.00559367269918 4.36302749908e-24)
(0.00899413691994 -0.00685056503086 7.37918819477e-24)
(0.00903868481316 -0.00821412195253 -6.50552420874e-24)
(0.00910473802165 -0.00968607504486 1.09361921928e-23)
(0.00919792144524 -0.0112665316848 1.70631066359e-23)
(0.0093393091127 -0.0129702269065 -1.71055755212e-23)
(0.00953261759122 -0.0148122236139 -7.43267121997e-23)
(0.00972020042186 -0.0167811268217 -3.1513358392e-22)
(0.00977880572333 -0.0188778344933 -1.07520615894e-21)
(0.00958252227224 -0.0212278489452 -1.69195492682e-21)
(0.00898859536315 -0.0233210084293 -3.32540333709e-21)
(0.00851121033605 -0.0258685180617 -4.34255844288e-21)
(0.00982410689373 -0.0255314613072 -9.25376686706e-21)
(0.0104934232122 -0.0302208469325 -9.63417975941e-21)
(-0.000946353433036 -0.00901470620119 -9.6351394488e-21)
(0.00779128282904 -0.000448616633087 -6.56705189691e-23)
(0.00868762450583 -0.00133628107184 4.22563672871e-23)
(0.00933313721618 -0.0022803702579 6.39986273336e-23)
(0.00976587825053 -0.00330358857932 5.61759840589e-23)
(0.0100057010261 -0.00438243995055 2.17997262492e-23)
(0.0101599283544 -0.00553476287244 3.69738722438e-24)
(0.0102882338596 -0.00677220347559 7.06500508826e-26)
(0.0104244405289 -0.00809484061596 -5.08359573248e-24)
(0.0105877951214 -0.00950604157364 -1.58239010131e-23)
(0.0107954542381 -0.0110079087299 6.5563984767e-24)
(0.0110536266363 -0.0126097283222 -1.02406898318e-23)
(0.0113747673244 -0.0143241428037 -1.32852714834e-22)
(0.0116921619375 -0.016141740182 -5.89023241597e-22)
(0.0118247593367 -0.0179964539688 -1.78444033572e-21)
(0.0115793091403 -0.0201959350148 -3.40527579722e-21)
(0.0111015032236 -0.0220527109132 -4.4623327718e-21)
(0.0112727765358 -0.024455549783 -3.9007371878e-21)
(0.0111883043846 -0.0240170655868 -8.55683904674e-21)
(-0.0151782966103 -0.0256881622719 -9.79880001141e-21)
(-0.028199145233 0.0650485223492 -6.54833909359e-20)
(0.00866219066536 -0.000432887637442 1.1265467244e-23)
(0.00960935230878 -0.00131597873842 7.48495525037e-23)
(0.0103104443039 -0.00224718816929 1.00740610687e-22)
(0.0108059179496 -0.00325776015827 7.77012344512e-23)
(0.0111120939167 -0.00432365890854 3.3315675093e-23)
(0.0113376326606 -0.00545377328003 5.40643414569e-24)
(0.0115367834329 -0.0066449744423 4.4434157147e-24)
(0.0117486189835 -0.00790008358093 -1.35443284555e-23)
(0.0119930871393 -0.00923486152204 -3.95624655858e-23)
(0.0122972394833 -0.0106539688752 -4.23075813895e-23)
(0.0126543442433 -0.012153522535 -7.98563267694e-23)
(0.0130639121575 -0.0137306960366 -1.89913843514e-22)
(0.0134677395185 -0.0153933900188 -7.77123138474e-22)
(0.0136709915181 -0.0170289728328 -2.14329136282e-21)
(0.0133907998195 -0.0190398987884 -3.10229857541e-21)
(0.0130197620819 -0.0206798761986 -1.24171249842e-21)
(0.0139909223782 -0.0230046510479 -2.30661514234e-21)
(0.0111032362158 -0.0218212193641 -1.46996540555e-20)
(-0.100664159436 -0.0124214718072 -1.49356669187e-20)
(-0.0403451297015 0.0861159597509 -3.23776499054e-20)
(0.00951877303188 -0.000419757652507 -2.10388486028e-22)
(0.0105133508419 -0.00128986563548 -6.26305619728e-23)
(0.0112698631138 -0.00220346458277 5.18495046509e-24)
(0.0118282933511 -0.00319113064258 4.32858663314e-23)
(0.0121929197901 -0.00422499509915 1.95301437484e-23)
(0.012464290737 -0.00530742375523 2.42475869282e-24)
(0.0127266793452 -0.00643837466568 1.87695764352e-24)
(0.0130077512233 -0.00762818595668 -8.30656506086e-24)
(0.0133231284011 -0.0088904265824 -2.19587877809e-23)
(0.0137000982537 -0.0102265500274 -3.76373395211e-23)
(0.0141371039653 -0.0116356862953 -4.61121047019e-23)
(0.014613086445 -0.0130967514046 -1.60243624892e-22)
(0.0150664961892 -0.014617839196 -6.49376912938e-22)
(0.0153262038909 -0.0160943870387 -1.46135112867e-21)
(0.0150842231091 -0.0179602377608 -2.67708761257e-21)
(0.0148960150935 -0.0194978029069 -9.78450295799e-22)
(0.0164838950287 -0.0217287980758 -6.14939023829e-21)
(0.0131908637261 -0.0196710057084 -1.02230740144e-20)
(-0.138167065774 -0.0268670758863 -9.29242194919e-21)
(-0.0292316586309 -0.0319056845568 -4.03957240439e-21)
(0.0103515414625 -0.000397596301207 -3.95293898054e-22)
(0.0113907142865 -0.00124358233573 -2.05135326193e-22)
(0.0122015156121 -0.00212347180406 -5.84049096717e-23)
(0.0128141239892 -0.00306628993192 2.62336316776e-23)
(0.0132255514297 -0.00405405580713 1.98376337321e-23)
(0.0135400236147 -0.00508526803887 1.77014854526e-23)
(0.0138545507321 -0.00616136142438 7.49415883825e-24)
(0.0141990947986 -0.00729480184396 7.57919746905e-24)
(0.0145841330129 -0.0084874361543 1.43140440472e-23)
(0.0150229215699 -0.00974117600065 -9.06398164346e-24)
(0.015517380657 -0.0110638829109 -3.4804913467e-23)
(0.0160520838713 -0.0124355617556 -1.6316107706e-22)
(0.016546313359 -0.0138539891438 -5.15644360156e-22)
(0.0168694687614 -0.0152485364286 -1.35955247706e-21)
(0.016759056349 -0.017050065851 -2.57622054788e-21)
(0.0168464929303 -0.0187583063965 -1.13071646402e-21)
(0.018686081413 -0.0209102085736 -5.6700283348e-21)
(0.016996983604 -0.0179997377579 -6.8875937089e-21)
(-0.12016933733 -0.028666860455 -7.30650562704e-21)
(-0.0289317149021 -0.0570883382216 -4.96786358396e-23)
(0.0111450771625 -0.000371076327217 -4.15204312755e-22)
(0.0122287317636 -0.00117940022272 -2.35526445132e-22)
(0.0130888152033 -0.00201026044814 -6.55266845323e-23)
(0.0137476499738 -0.00289710046907 2.94623978889e-23)
(0.014200558932 -0.00382986394743 1.38862629687e-23)
(0.0145651607511 -0.00480832806905 1.18753046342e-23)
(0.0149267521897 -0.00583293707547 7.80486247612e-24)
(0.0153244759505 -0.00690707626359 1.2859406874e-23)
(0.0157723345489 -0.0080281171713 2.13399089797e-23)
(0.0162706911143 -0.00920303783619 1.35452899839e-23)
(0.0168210509179 -0.0104434651441 -1.86173426105e-23)
(0.0173985717555 -0.0117403457051 -1.34998564912e-22)
(0.017954072968 -0.0130861197494 -2.88558820163e-22)
(0.018386533732 -0.014460773176 -8.39855625607e-22)
(0.0185317578489 -0.0162379399144 -9.05980983295e-22)
(0.0189221339314 -0.0182725893406 -3.75129279628e-22)
(0.0206332789282 -0.0203170825078 -2.22832586447e-21)
(0.0206101167113 -0.0167297379864 -5.12925797686e-21)
(-0.0951996314375 -0.0276015838402 -4.08230301992e-21)
(-0.0275887957616 -0.0587700854867 -2.81354302278e-21)
(0.0118919483107 -0.000340089383192 -3.42563990329e-22)
(0.0130149819249 -0.00110096969937 -1.64027923705e-22)
(0.0139202199834 -0.0018763654034 -1.76782563839e-23)
(0.0146225869975 -0.00270187701803 5.69531008842e-23)
(0.0151196600095 -0.00357167979505 3.08166414396e-23)
(0.0155319135219 -0.00448389667874 1.20783594842e-23)
(0.015941664041 -0.00544173770956 3.22779687914e-24)
(0.0163864626888 -0.00644827810769 4.47267792761e-24)
(0.0168837319587 -0.0075013463927 1.47342702835e-23)
(0.0174368526439 -0.00860485711586 1.05759327993e-23)
(0.018046684118 -0.00977642380385 -2.2250459671e-23)
(0.0186829201514 -0.0110045162857 -4.72162546479e-23)
(0.0193193173165 -0.0122870374892 -2.01403063453e-22)
(0.0198953960472 -0.0136558020152 -7.81571599707e-22)
(0.0203899576212 -0.0153940478526 -6.87572038055e-22)
(0.0211348686016 -0.0176033718499 1.42367262371e-22)
(0.0225619220415 -0.0197786466176 -2.40827937545e-21)
(0.023371331561 -0.0158308678672 -4.67494058458e-21)
(-0.0712389983468 -0.0261140813526 -5.30836388037e-21)
(-0.0232794550803 -0.0564388487477 6.40336896492e-21)
(0.0125845593611 -0.000306587869573 -2.18776183442e-22)
(0.0137400611102 -0.00101002547837 -1.23399603687e-22)
(0.0146890372455 -0.00172000416978 2.67462411542e-24)
(0.015433533121 -0.00247621339806 6.08223687853e-23)
(0.015971690693 -0.00327355894899 3.73759438341e-23)
(0.0164231869332 -0.00410524283746 1.05307549883e-23)
(0.0168799929948 -0.00497595220943 -2.38404060973e-25)
(0.0173789520273 -0.00590038614369 -6.39677865418e-24)
(0.0179286518006 -0.00688583323218 -4.44723162956e-25)
(0.0185339981121 -0.00792839197799 -5.99325306581e-24)
(0.0192014288535 -0.00904059582426 1.95360740212e-23)
(0.0199186804922 -0.0102085686278 1.05386354997e-23)
(0.0206425549641 -0.0114372334437 -1.1110924902e-22)
(0.0213741962057 -0.0127787699932 -5.96508878797e-22)
(0.0222262715954 -0.0144368156044 -6.8705468959e-22)
(0.0234481286565 -0.016633712642 3.02973775659e-22)
(0.0248178870141 -0.0193787494388 -1.10345793213e-21)
(0.0257966995008 -0.0152786453387 -6.44878270949e-21)
(-0.0514696817426 -0.0249569693188 -1.18305311899e-20)
(-0.0174341239683 -0.0504118078176 -5.71754851356e-21)
(0.0132096608173 -0.000270111267624 -1.87027690212e-22)
(0.0143990226832 -0.000906920847295 -7.68010480134e-23)
(0.0153878072675 -0.00154263292766 -9.83626153225e-24)
(0.0161712025519 -0.00222362559736 4.29303257816e-23)
(0.0167444691814 -0.00294613107484 2.53389469636e-23)
(0.0172321104835 -0.00370089065604 3.71177865301e-24)
(0.0177328122396 -0.00448974890692 -3.21903847175e-24)
(0.0182894815751 -0.00532842988591 -5.01325776085e-24)
(0.018903634073 -0.00623114449612 3.72909215483e-25)
(0.0195682084686 -0.00719694442151 2.56890240371e-24)
(0.0202931033159 -0.00822876754626 2.79262975621e-23)
(0.0210883956035 -0.00932981786764 3.72798157099e-23)
(0.021916963809 -0.010504611314 -2.26220314446e-23)
(0.0228088673426 -0.0117939565196 -2.62965472549e-22)
(0.023979460697 -0.0133325791224 -6.50165046619e-22)
(0.0256641422203 -0.0152728778216 5.46492789608e-22)
(0.0272036331854 -0.0181485509389 -3.41832592502e-21)
(0.0282734998238 -0.0137141995336 -6.01150362222e-21)
(-0.0367558643363 -0.0232798644953 -3.3034289268e-21)
(-0.0115049687772 -0.0450153086826 -1.5138960606e-21)
(0.013757013842 -0.000226343400319 -1.29584097292e-22)
(0.0149840871431 -0.000788658322758 -9.02311688356e-23)
(0.0160102242386 -0.00134603782885 -1.70805164356e-23)
(0.0168306886393 -0.00194655552609 1.56425659575e-23)
(0.0174376782271 -0.00258863670977 5.67577751811e-24)
(0.0179619311438 -0.00326603875583 -2.92164872022e-24)
(0.0185030891112 -0.00397991833514 -6.20828504962e-24)
(0.0191101574747 -0.00473440523516 -1.32129580978e-24)
(0.0197917387784 -0.00554286953014 5.62746573913e-24)