/*--------------------------------*- C++ -*----------------------------------*\
| =========                 |                                                 |
| \\      /  F ield         | OpenFOAM: The Open Source CFD Toolbox           |
|  \\    /   O peration     | Version:  v2012                                 |
|   \\  /    A nd           | Website:  www.openfoam.com                      |
|    \\/     M anipulation  |                                                 |
\*---------------------------------------------------------------------------*/
FoamFile
{
    version     2.0;
    format      ascii;
    class       surfaceVectorField;
    location    "5.6";
    object      Uf_0;
}
// * * * * * * * * * * * * * * * * * * * * * * * * * * * * * * * * * * * * * //

dimensions      [0 1 -1 0 0 0 0];


internalField   nonuniform List<vector> 
3840
(
(-3.29742913573e-05 0.000192906814159 6.68731190759e-22)
(-0.00019307254916 9.40613793833e-06 7.77151465659e-22)
(0.000109598351004 0.000177007685993 5.05282858117e-22)
(1.57103299059e-05 5.4461081433e-05 8.27970724591e-22)
(0.000141817526834 8.20363330632e-05 2.0449788902e-23)
(9.47719540588e-05 -2.87464482803e-05 3.93570775e-22)
(0.000107626008676 1.41754196678e-05 -4.68505869368e-22)
(6.76611248339e-05 -0.000141024394637 -2.09830561613e-22)
(4.63419667114e-05 2.90583663996e-05 -6.79521861805e-22)
(-1.5068136177e-05 -0.00019825422576 -6.51103614849e-22)
(-2.84906590982e-05 0.000152893751368 -5.62746562641e-22)
(-0.000123967308586 -0.000172427444169 -6.76355843714e-22)
(-0.000113889490237 0.000396527554958 -1.71347073988e-22)
(-0.000243686604514 -3.6866243914e-05 -4.44073399241e-22)
(-0.000205632426087 0.000787898103068 2.59532506918e-22)
(-0.000391354872992 0.000233091132215 -3.56914278948e-24)
(-0.000317753354268 0.00139701600144 4.09682810631e-22)
(-0.000609038674619 0.000670780092763 2.78241362539e-22)
(-0.000457825567245 0.00222363526772 2.49874266276e-22)
(-0.000826463211006 0.00132498888445 2.44285555182e-22)
(-0.000635918184938 0.00340094126924 -2.93810510027e-23)
(-0.00117707686432 0.0022468555515 -1.47475874834e-24)
(-0.000900974077118 0.00498373511571 -3.54258021795e-22)
(-0.00158250475579 0.00346507437379 -2.11569974351e-22)
(-0.00137333531919 0.00714693458515 -9.51541779088e-22)
(-0.00216287974952 0.00517403906352 -6.16297208521e-22)
(-0.00209773313024 0.0101469282903 -9.85511519845e-22)
(-0.00299967443093 0.00769960888288 -1.82760046688e-21)
(-0.00283600489473 0.0138002231506 2.50271690878e-21)
(-0.00365302947661 0.00890184501601 -3.05759858869e-21)
(-0.00273043367808 0.0179149377875 1.09785065627e-20)
(-0.00411456071527 0.0165886876226 -3.09294751588e-21)
(0.00240561641765 0.0235590066923 3.44530570232e-20)
(-0.00564404205052 0.00974234469812 2.6888807703e-21)
(-0.000581706623821 0.0278154335657 5.15647278784e-20)
(-0.00425602463254 0.0244143163713 2.01553969472e-20)
(-0.0029056234705 0.037014523987 2.86175948799e-20)
(-0.00919602339153 0.0320271126005 1.97749024023e-20)
(-0.00589638793772 0.0500655408034 5.97921202421e-21)
(-6.41216340873e-05 -6.644583894e-05 9.36390999491e-22)
(-0.000126812134182 -0.00016224640725 1.08643390469e-21)
(0.000107760930814 -0.000179299914039 7.16258641474e-22)
(0.000128360263536 -0.000215617329467 1.09218516947e-21)
(0.0001369121309 -0.000299170626365 1.63290424485e-22)
(0.000214430667263 -0.000355118981729 6.21831536214e-22)
(6.48290918806e-05 -0.000407131623751 -3.92428307095e-22)
(0.00017541395274 -0.000518532414364 -2.86587606987e-23)
(-6.86565786569e-05 -0.000468488196922 -6.47937596759e-22)
(4.61008596077e-05 -0.000639183941045 -4.82422980974e-22)
(-0.000243974869967 -0.000445707208565 -5.57682680314e-22)
(-0.000146879793225 -0.000699154192763 -5.59748649368e-22)
(-0.000460113894802 -0.00030124147619 -2.76295468042e-22)
(-0.000388204783838 -0.000664194951726 -3.77440014616e-22)
(-0.000724850914269 -1.42184502549e-05 1.51397128321e-23)
(-0.000678351905459 -0.000501457640655 -1.10247816117e-22)
(-0.00106412915752 0.000435303996704 1.1284410709e-22)
(-0.0010584453064 -0.000191389740888 6.85980964289e-23)
(-0.0014976407502 0.00114453736953 -7.06346984266e-24)
(-0.00153550430675 0.000313205126508 4.08229087387e-23)
(-0.00204927330058 0.00213275908689 -1.83663682096e-22)
(-0.00216504403609 0.00106393527405 -1.35017484039e-22)
(-0.00276941974449 0.00349880074142 -4.73609161076e-22)
(-0.00294824265293 0.00206296293343 -3.12298020937e-22)
(-0.00365526181306 0.005314007504 -1.49235589632e-21)
(-0.00397775787289 0.00344170612131 -7.91294466666e-22)
(-0.00452161485131 0.0073716238849 -3.89968753573e-21)
(-0.00505697894881 0.00548776903422 -2.26434814149e-21)
(-0.00516691847435 0.00998336554277 -8.65326301335e-21)
(-0.00626451675716 0.00621249333424 -6.4727978986e-21)
(-0.00660114622616 0.013532729927 -1.13825733083e-20)
(-0.00766378920403 0.0128024685492 -1.6618189099e-20)
(-0.0104918900753 0.0177009207826 -1.16087793057e-20)
(-0.0098121916423 0.00683930186215 -1.98364559616e-20)
(-0.0131674194517 0.0278475315191 -1.16344285289e-20)
(-0.0143997367949 0.0218134659667 -2.98170982978e-20)
(-0.0102804026321 0.0403107779006 -2.86348045342e-21)
(-0.0216608979322 0.0258167140505 -2.84633858315e-20)
(-0.0239419930017 0.0516788178301 -4.02727550498e-21)
(8.77699212419e-05 -0.00022981876021 1.24222807466e-21)
(0.000102819673582 -0.00023959036477 1.28826834701e-21)
(0.000247867530527 -0.000428976206044 9.97758064205e-22)
(0.000327314289303 -0.000390746820427 1.2760233199e-21)
(0.000267629642539 -0.00062277935437 4.2988235103e-22)
(0.000408023002789 -0.000616118802228 8.36382725412e-22)
(0.000166529069062 -0.000800219925852 -1.18653434578e-22)
(0.000352647172277 -0.000854141900021 2.14559151551e-22)
(-2.59574900675e-05 -0.000933313280495 -3.94234033583e-22)
(0.000179007333407 -0.00105336142497 -1.97753410938e-22)
(-0.000285260656302 -0.0010015738238 -3.7950598367e-22)
(-7.87531377991e-05 -0.0012007922167 -3.20638380434e-22)
(-0.000609472940749 -0.000965015137666 -2.11392362692e-22)
(-0.000424832619569 -0.00126725695157 -2.22673912956e-22)
(-0.00101665554731 -0.000796281941766 -5.67894325202e-23)
(-0.000847037233723 -0.00122263945863 -7.62597774373e-23)
(-0.00153648773633 -0.000478723611377 -3.4231019227e-24)
(-0.0013758953089 -0.00104545210593 -6.42855494581e-24)
(-0.00220401602855 4.41863820313e-05 -8.71311054581e-23)
(-0.00205819452007 -0.000701906951163 -3.0734064397e-23)
(-0.00305239997078 0.000800502276909 -2.63651822879e-22)
(-0.00292110758344 -0.000162362544682 -1.32962119453e-22)
(-0.00411326781685 0.00185615606255 -6.29983326526e-22)
(-0.00400360351029 0.000572114898307 -3.28265876074e-22)
(-0.00536998293291 0.003202839764 -1.56328671184e-21)
(-0.00532413564835 0.00160854988601 -7.90723510886e-22)
(-0.0067177747278 0.00495846944106 -4.83745850437e-21)
(-0.00681231795104 0.00319304645672 -1.77749720171e-21)
(-0.00841888608518 0.00702818021921 -1.44377239843e-20)
(-0.00833399790025 0.00371038370053 -5.16319231593e-21)
(-0.0107929844644 0.0105304915334 -2.50720717523e-20)
(-0.0111659762368 0.00960242304447 -1.38662154227e-20)
(-0.0155508985438 0.0158936243672 -3.80447749537e-20)
(-0.0151752892923 0.00444531359874 -2.25854048153e-20)
(-0.0212977877143 0.0264222422573 -4.66460556003e-20)
(-0.0249266897211 0.0197886820791 -3.74733305812e-20)
(-0.0274550735305 0.0312328279765 -2.9627180883e-20)
(-0.0264730734155 0.023150164923 -3.67071465057e-20)
(-0.0244614350534 0.035088829989 -1.11878156717e-20)
(0.000359085265822 -0.000315657002996 1.32206359225e-21)
(0.000418298835125 -0.000268415552901 1.21576682184e-21)
(0.000502906279448 -0.000609325185415 1.11464798111e-21)
(0.000620789631178 -0.00050585334149 1.26851126471e-21)
(0.000508671085984 -0.000891311175558 6.21059525933e-22)
(0.000689807898884 -0.000820199282619 9.22145827503e-22)
(0.000380889354967 -0.00115490943328 1.35459175191e-22)
(0.000616045783074 -0.00114671328605 3.95299346558e-22)
(0.000137370078118 -0.00138186126445 -1.24157757789e-22)
(0.000405777214997 -0.00143811346941 2.69251539488e-23)
(-0.00020100813975 -0.00154364943725 -1.63806309719e-22)
(8.28935600841e-05 -0.00168450124185 -1.05164458125e-22)
(-0.000632585829111 -0.00162422678725 -8.75413277014e-23)
(-0.000344318831871 -0.00186295704424 -9.01773980133e-23)
(-0.00117500749467 -0.00158713561187 -2.58988998629e-23)
(-0.000884116248822 -0.00194959809396 -2.07711028522e-23)
(-0.00185779018452 -0.0014173220414 -3.37395174201e-23)
(-0.00154550996773 -0.00192017558063 -8.83096649485e-24)
(-0.00272626355309 -0.00107792272174 -7.65650783918e-23)
(-0.00239736410347 -0.00175248218435 -3.7099424128e-23)
(-0.00380779705324 -0.0005835446412 -1.97576172647e-22)
(-0.00341523916975 -0.00142460008987 -9.87669786722e-23)
(-0.00511505428323 0.000169282330427 -4.89006060434e-22)
(-0.00475616801913 -0.000944305337814 -3.02548219902e-22)
(-0.00662980940055 0.00112461146553 -1.00493400075e-21)
(-0.00627919121067 -0.000228619323337 -7.45294653398e-22)
(-0.00835595883541 0.00231675058386 -2.10323101326e-21)
(-0.00800420259829 0.000969902441246 -1.30811045546e-21)
(-0.0110458191885 0.00414776626394 -4.59168375434e-21)
(-0.0101648102263 0.00168209637865 -2.38861994357e-21)
(-0.015476737333 0.00729169490087 -1.13795484857e-20)
(-0.014309794993 0.00692600328146 -4.56910936717e-21)
(-0.0241545651493 0.0127500985741 -2.20139604428e-20)
(-0.0206336615391 0.00156059935768 -1.12244963582e-20)
(-0.0296247768207 0.0213290241434 -2.75344214865e-20)
(-0.0335041174213 0.0155287827994 -1.86818744996e-20)
(-0.0260175874821 0.0249563689885 -1.82677812944e-20)
(-0.0301027294388 0.0183852698907 -1.85916133762e-20)
(-0.0204483012439 0.02356834794 -5.71367938114e-21)
(0.000704638746509 -0.000370396444699 1.16221449431e-21)
(0.000788533134416 -0.000284558069507 1.00928277776e-21)
(0.000839367730011 -0.000745260656938 1.0760091111e-21)
(0.000995478012401 -0.000599267437404 1.14331505492e-21)
(0.000832355812594 -0.0011160533308 6.96385648127e-22)
(0.00106041534267 -0.000996206138309 8.94125275891e-22)
(0.000679680118154 -0.00147264865467 2.86765325315e-22)
(0.00097245475098 -0.0014148745783 4.61737606263e-22)
(0.000392979390947 -0.00179709979541 4.59184536128e-23)
(0.000730056140525 -0.00180423955455 1.43523785943e-22)
(-1.18583504867e-05 -0.00207107287132 -3.15355464193e-23)
(0.000356727897842 -0.00215813001824 8.05324004048e-24)
(-0.000535698637261 -0.00227591060106 -2.34071731641e-23)
(-0.000139563142947 -0.00245875654422 -2.00089801543e-23)
(-0.0011943025074 -0.00238971625625 -3.70316948411e-24)
(-0.000770301217147 -0.00268926206264 -3.79508182063e-24)
(-0.00201148550267 -0.00238543416041 -1.21908732028e-23)
(-0.00154968294224 -0.00282648589285 -2.23981579057e-24)
(-0.00303266616567 -0.00226089026137 -5.93013244084e-23)
(-0.00252162398349 -0.00285543345221 -1.97465922222e-23)
(-0.00429296792496 -0.00195580158097 -2.03739025927e-22)
(-0.00372003633078 -0.00274653891521 -9.38425827872e-23)
(-0.00579629771379 -0.0015067318178 -5.58836812865e-22)
(-0.00520501322146 -0.00249782103728 -3.08635781648e-22)
(-0.00751262840652 -0.000841271628924 -1.04847110811e-21)
(-0.00694441931597 -0.00204142130573 -9.53292501562e-22)
(-0.00959159608587 0.000102519886144 -1.59349938577e-21)
(-0.00894777444735 -0.00111745393928 -1.6191023469e-21)
(-0.0132282477461 0.00153684538858 -2.3660455564e-21)
(-0.0115989586741 8.80604994692e-05 -2.21319949053e-21)
(-0.0193990318788 0.00426398564502 -4.41405723962e-21)
(-0.0170368393371 0.00471836470969 -1.59536269947e-21)
(-0.0307971224434 0.00788885998518 -7.89241041498e-21)
(-0.0242585151671 -0.00165545395749 -4.98660858959e-22)
(-0.0353567573131 0.0143154118557 -9.73906638933e-21)
(-0.0399282585344 0.00870840809393 -3.24259979541e-22)
(-0.0263529036597 0.0164224946422 -6.03751146296e-21)
(-0.0322124115767 0.0112144200049 -3.8792051078e-22)
(-0.0168845500387 0.00734213012533 -5.42825406607e-22)
(0.00111246262762 -0.000424819053697 9.90383338371e-22)
(0.00121321042489 -0.000303875805107 8.6880154191e-22)
(0.00125598068016 -0.000875904600141 9.61431219707e-22)
(0.00144640942817 -0.000696145441063 1.03021665067e-21)
(0.00124358325597 -0.00133326820553 6.59477234027e-22)
(0.00151761429643 -0.00117218382494 8.23519719006e-22)
(0.00107163324266 -0.00178401284519 3.1849606689e-22)
(0.001423031101 -0.0016841457908 4.47213745969e-22)
(0.000749871927491 -0.00221214629494 1.0565857237e-22)
(0.00115803150731 -0.00217552072832 1.70329768743e-22)
(0.000293495757495 -0.0026048103809 1.95798063055e-23)
(0.000749261567057 -0.00264324397781 4.6954842377e-23)
(-0.000300284425176 -0.0029450995444 -3.96888810829e-25)
(0.000200639734706 -0.00307521613584 2.97732397302e-24)
(-0.00104732400978 -0.00321978564433 -2.33172812709e-24)
(-0.000495622034107 -0.0034604743261 -3.03444085824e-24)
(-0.00197429730887 -0.00340215548979 -9.79553480999e-24)
(-0.00136723981884 -0.00378277544217 -9.44372247848e-24)
(-0.00312020332265 -0.00348958148276 -5.4287850601e-23)
(-0.00243406270627 -0.00402571213677 -1.78879856703e-23)
(-0.00453968800267 -0.0034246077176 -1.98739338509e-22)
(-0.00378478329514 -0.00417282917278 -1.07651016642e-22)
(-0.00625641021098 -0.00321517658208 -7.03091470344e-22)
(-0.00541426131673 -0.00419449979316 -3.51195320563e-22)
(-0.00826856936508 -0.00268307266865 -1.52392374035e-21)
(-0.00747632782235 -0.00399769395429 -1.16055635017e-21)
(-0.0107995017033 -0.00168956529369 -2.23880245166e-21)
(-0.00994109302246 -0.00333567179871 -2.28516382481e-21)
(-0.0150263664002 -2.92683851665e-05 -1.4425166336e-21)
(-0.0132590999713 -0.00191078559661 -4.19975213578e-21)
(-0.0215545771189 0.0016168454452 2.3200336812e-21)
(-0.0186828675402 0.00180957206465 -5.46881198917e-21)
(-0.033765152908 0.00245561228578 7.06948957648e-21)
(-0.0250972667573 -0.00569198781061 5.48245042627e-21)
(-0.0373750158825 0.00352303230122 9.02688589901e-21)
(-0.0409926557585 -0.000292373304571 1.58355268317e-20)
(-0.0229488299384 0.00178687142864 5.10676554558e-21)
(-0.0304786299853 0.00254970983528 1.51744507822e-20)
(-0.00984379091676 -0.0117303352311 2.42847829839e-21)
(0.00158508981854 -0.000487635111464 9.08634854213e-22)
(0.00170072730357 -0.000329107621052 8.50106413066e-22)
(0.00175232154667 -0.00101468113991 8.92305149972e-22)
(0.00197332609368 -0.000803302743063 9.79134752308e-22)
(0.00174518137702 -0.00155892393956 6.11256230949e-22)
(0.00206171612234 -0.0013580708482 7.79312948261e-22)
(0.00156396392018 -0.00210694159487 2.99047447822e-22)
(0.00197090147974 -0.00196420294696 4.33202077909e-22)
(0.00121950707364 -0.00264497043913 1.11626038749e-22)
(0.00169591923 -0.00256061163132 1.75546062595e-22)
(0.000728732165793 -0.00316105902614 3.03523600445e-23)
(0.00126523065116 -0.00314751428521 5.84870365038e-23)
(8.83901685386e-05 -0.00364926300673 3.39771925609e-25)
(0.000688759628042 -0.00371891091469 1.06466824554e-23)
(-0.000720178381311 -0.00409716631506 -1.01464352096e-23)
(-4.77409842141e-05 -0.00427007822701 -3.08514178256e-24)
(-0.00172825723951 -0.0044946353344 -1.75361733388e-23)
(-0.000969724208006 -0.00479363844011 -1.33753181745e-23)
(-0.00297702410802 -0.00481562692738 -7.12511517118e-23)
(-0.00211297547438 -0.00527647718534 -2.74721413765e-23)
(-0.00454150390917 -0.00506244640658 -2.60106998697e-22)
(-0.0035377911098 -0.0057283023179 -1.31901592535e-22)
(-0.0065111457648 -0.0051334424174 -8.08660200386e-22)
(-0.00534311461075 -0.00611281079243 -4.13111033381e-22)
(-0.00902748896148 -0.00492464494027 -1.92179643463e-21)
(-0.00768495807151 -0.00637394964094 -1.1274701554e-21)
(-0.0122620251334 -0.00421230516558 -4.24611350893e-21)
(-0.0106532658626 -0.00627402901648 -2.21241867725e-21)
(-0.0166368311561 -0.00278802879171 -8.22604749135e-21)
(-0.0146832348377 -0.00547540372878 -5.2208128457e-21)
(-0.0219608006906 -0.00196627829618 -2.3063952441e-21)
(-0.0195045348612 -0.00365281686461 -1.01581981343e-20)
(-0.0321314489538 -0.00299585523144 1.42484876815e-20)
(-0.0240676828367 -0.011669398674 2.69203483523e-21)
(-0.0341052919541 -0.00705448208549 2.19830917149e-20)
(-0.0369320527849 -0.00972013606851 8.28692749052e-21)
(-0.0170032625214 -0.0116551013598 1.2496163535e-20)
(-0.0258797500883 -0.00524038679251 7.75046151911e-21)
(-0.000634718115601 -0.0233352971714 1.82594626095e-21)
(0.00212875752624 -0.000558568325965 9.20606311162e-22)
(0.00225920242098 -0.000359643750567 8.63824239412e-22)
(0.00232973714648 -0.00116280957481 8.66142550596e-22)
(0.00257746402397 -0.000917395545507 9.47533556598e-22)
(0.0023390855839 -0.00179530295813 6.01258795221e-22)
(0.00269409335238 -0.0015509309275 7.57492064985e-22)
(0.00216056589046 -0.00244211909459 3.09700692682e-22)
(0.00261759228083 -0.00225174847685 4.32683350144e-22)
(0.0018085636897 -0.00309212934603 1.2240706035e-22)
(0.00234580565766 -0.00295403146936 1.86038330603e-22)
(0.00130334145184 -0.00373975951687 3.87813589148e-23)
(0.0019127526121 -0.00366263724696 6.96168708326e-23)
(0.000643617394124 -0.00438239439725 7.22176874723e-24)
(0.00133131345877 -0.00437716573718 1.86829020885e-23)
(-0.00019095026943 -0.00501876087727 -6.31402474746e-24)
(0.000588594465652 -0.00509995868099 2.05697974594e-24)
(-0.00123619128355 -0.00564610849466 -2.33112862122e-23)
(-0.00034235284536 -0.00583502776311 -8.58771090413e-24)
(-0.00254810083087 -0.00625136100164 -8.81225821995e-23)
(-0.00150765028179 -0.00658939313212 -3.66673653038e-23)
(-0.00419951078774 -0.00688309506556 -2.84905627219e-22)
(-0.00290592579787 -0.00737553384013 -1.30198382848e-22)
(-0.00635409239918 -0.00740793440601 -7.31920988391e-22)
(-0.00481814655182 -0.00821772255253 -3.99893671028e-22)
(-0.00921494328533 -0.00796318909876 -1.41809239802e-21)
(-0.00712955376581 -0.00910288100445 -8.8999837978e-22)
(-0.0129006241678 -0.00812577198099 -3.18711801402e-21)
(-0.0104905284858 -0.00988375604945 -1.56651171947e-21)
(-0.0173343594533 -0.00817201292093 -7.15296348861e-21)
(-0.0146368594647 -0.0105145098783 -3.55031741067e-21)
(-0.0214575592859 -0.00825097769282 -5.15976805493e-21)
(-0.0194254890347 -0.0114851396545 -6.88559661388e-21)
(-0.028539439091 -0.00966500171266 -3.26952535578e-21)
(-0.0226536477388 -0.0192438075431 -3.38155066481e-21)
(-0.0284058048829 -0.0146350020561 -5.94570270526e-21)
(-0.0319600696424 -0.0185478646018 -7.68096841213e-21)
(-0.00969687923987 -0.0196686356598 -2.91975575491e-21)
(-0.02084787856 -0.0131370643248 -7.62067376402e-21)
(0.00590757401969 -0.0263218451595 -5.00169228626e-22)
(0.00274814497076 -0.000632601638037 8.90751484848e-22)
(0.00289173569225 -0.000393704096793 7.43793100377e-22)
(0.00299004119822 -0.00131505162088 8.38883070986e-22)
(0.00325983623801 -0.00103211880632 8.34262916704e-22)
(0.00302605374261 -0.00203571742366 5.88916619909e-22)
(0.00341466713297 -0.00174332501406 6.84453573345e-22)
(0.00286264402236 -0.0027812873458 3.09020988066e-22)
(0.00336305780873 -0.00253761034137 4.04265991297e-22)
(0.00251905774422 -0.00354461249464 1.33248141086e-22)
(0.00310902310786 -0.00334331411882 1.76791930555e-22)
(0.00202078515281 -0.00432292782937 4.95184140064e-23)
(0.00269096919468 -0.00417133079066 6.67305796556e-23)
(0.00137052688338 -0.00512029689815 1.35181130872e-23)
(0.00212860413863 -0.00502630485413 1.93911496313e-23)
(0.000550450734371 -0.00594680809727 -2.16706410732e-25)
(0.00141506671264 -0.00591735043224 4.25985980993e-24)
(-0.000472475886731 -0.00681336737774 -2.19437899957e-23)
(0.000524219498297 -0.00686086728551 -4.78718390044e-24)
(-0.00175550971365 -0.00775317439492 -7.87431659519e-23)
(-0.000567789154692 -0.00788591600496 -3.34122961204e-23)
(-0.00338285026176 -0.00873333379616 -2.45186426657e-22)
(-0.00192565658905 -0.00901749217846 -1.15443843384e-22)
(-0.00549652904959 -0.00993987529538 -5.57971062417e-22)
(-0.0036114885235 -0.0103113751997 -3.50491753467e-22)
(-0.00828764261539 -0.0111498759483 -1.03841770123e-21)
(-0.00591941241204 -0.0118085293873 -6.74568316507e-22)
(-0.0119127593954 -0.012731166739 -1.92971111612e-21)
(-0.00890908858941 -0.0135179806853 -1.20313838021e-21)
(-0.0163474098235 -0.014593537214 -3.28295053593e-21)
(-0.012774356819 -0.0156504332687 -2.31887182985e-21)
(-0.0203366663487 -0.0163190290832 -5.10737922376e-21)
(-0.0176999159772 -0.019092693283 -4.18640948302e-21)
(-0.0255490687995 -0.0177333691849 -7.79299372117e-21)
(-0.0212392895755 -0.0263163943134 -6.18808344241e-21)
(-0.0239692510672 -0.0217695119245 -9.35593947089e-21)
(-0.0279225505012 -0.0261387047219 -1.10386745685e-20)
(-0.00559268508066 -0.0247690823154 -5.20108723774e-21)
(-0.0178495000014 -0.0213098996206 -1.08156922676e-20)
(0.00702484018066 -0.0278854512648 -1.2775978965e-21)
(0.00344547428558 -0.000706039117208 6.87304532233e-22)
(0.00359772973652 -0.0004271445527 4.66626826322e-22)
(0.00373322189577 -0.00147341923977 6.79833419063e-22)
(0.00402716228779 -0.00114181127048 6.22203745946e-22)
(0.00380302717283 -0.00227397028214 4.99802944733e-22)
(0.00421514820336 -0.00192904202838 5.52036191409e-22)
(0.00366743794424 -0.0031103366359 2.72036933786e-22)
(0.00419933844527 -0.00281004138939 3.34425659089e-22)
(0.00334831295472 -0.00397998749875 1.10274369125e-22)
(0.00397857978398 -0.00371297015126 1.47187037163e-22)
(0.00287793877345 -0.00488426819296 3.66033152805e-23)
(0.00359515852303 -0.00465285097656 4.82271751618e-23)
(0.00226549458905 -0.00583207401746 1.0132896354e-23)
(0.00307633216754 -0.00563857910433 1.29460053876e-23)
(0.00149985180078 -0.00683835786798 -3.10617679784e-25)
(0.00242130663402 -0.00668731963421 1.18818264869e-24)
(0.00056142244369 -0.00793203525968 -1.62556900251e-23)
(0.00161789790739 -0.00782494693037 -4.22909151611e-24)
(-0.000589084059085 -0.00915498658216 -7.01129735522e-23)
(0.000655206322118 -0.00908904114814 -2.89412772225e-23)
(-0.00204662803554 -0.0105661941686 -2.20749170194e-22)
(-0.000514357385103 -0.0105297643157 -1.11751568043e-22)
(-0.00391731151444 -0.0121766877879 -4.67089007556e-22)
(-0.00200088597534 -0.0121944712321 -3.22124215485e-22)
(-0.0063403031306 -0.0141951600532 -8.39288995486e-22)
(-0.00390080409035 -0.0141840475583 -5.82972268034e-22)
(-0.00946727266695 -0.0167482199953 -1.59229909395e-21)
(-0.00635588188657 -0.0166073323312 -1.0351135966e-21)
(-0.0136620045989 -0.0200558009386 -3.22233077695e-21)
(-0.00946664437601 -0.0197399238858 -1.70451262416e-21)
(-0.0180478654295 -0.0233214011341 -5.26711370168e-21)
(-0.0144342342044 -0.0245355262167 -3.09613422015e-21)
(-0.0229467688933 -0.0258156513201 -9.43376428973e-21)
(-0.0187450099278 -0.0313748303244 -6.51415591429e-21)
(-0.0214252753359 -0.0290885465769 -1.24984273652e-20)
(-0.0246494283055 -0.0316931023393 -1.24787178469e-20)
(-0.00548590006265 -0.0305616761153 -6.89220292638e-21)
(-0.0163764759128 -0.0289276045698 -1.21192503232e-20)
(0.00480684655338 -0.0338487134662 -9.8612281005e-22)
(0.00421713692495 -0.000775813879303 4.01526040035e-22)
(0.00437351950403 -0.000455879469697 2.29987857316e-22)
(0.00455467428288 -0.00160943830121 4.94406518292e-22)
(0.00486075377864 -0.00124169707902 4.65714056442e-22)
(0.00466507308767 -0.00249036438787 3.86658905765e-22)
(0.00509602370547 -0.00210088166057 4.53666432007e-22)
(0.00456884055704 -0.00341539997432 2.09575762466e-22)
(0.0051243042474 -0.00305759914489 2.77636258297e-22)
(0.00428952696309 -0.00438503653562 8.51398432001e-23)
(0.00494813305343 -0.00404761299058 1.21352540051e-22)
(0.00386644875367 -0.0054046235913 2.45698652688e-23)
(0.00461465862359 -0.00508704067756 3.67296406153e-23)
(0.00331865683877 -0.00648532517847 4.00129168226e-24)
(0.00415695448709 -0.00618838405366 8.16874141976e-24)
(0.00264541550291 -0.007661438769 -2.73029118763e-24)
(0.00359736877809 -0.00737911247765 -9.28579764632e-24)
(0.00183674798973 -0.00896579510809 -1.69146787136e-23)
(0.00292224429856 -0.00868763152667 -1.27534930493e-23)
(0.000866810901964 -0.0104351618061 -7.05798717135e-23)
(0.00212460232965 -0.0101470261801 -2.91179724583e-23)
(-0.000330487266519 -0.0121234644024 -2.13126613334e-22)
(0.00117401983741 -0.0118091332899 -1.07230346253e-22)
(-0.00185112587644 -0.0141220406915 -4.38007475962e-22)
(-2.2086733094e-06 -0.013739876392 -2.86790936717e-22)
(-0.00373305147952 -0.0165578380113 -7.78796869147e-22)
(-0.00146487602431 -0.0160409228442 -5.2448546244e-22)
(-0.00610721397212 -0.0197063231001 -1.14732712681e-21)
(-0.00320725352617 -0.0188615966332 -1.01306493089e-21)
(-0.00982598894066 -0.0236946989508 -1.57831606736e-21)
(-0.00547813929718 -0.022410978244 -1.74153208795e-21)
(-0.0145733024048 -0.028149863439 -4.34317643276e-21)
(-0.00997898888471 -0.027599625502 -2.65052273927e-21)
(-0.0197831449274 -0.0320169272726 -9.5591094715e-21)
(-0.0148779210246 -0.0342059979418 -6.723671588e-21)
(-0.019246438616 -0.0360241980374 -1.20995408049e-20)
(-0.0206415268073 -0.0347607869922 -1.17882226591e-20)
(-0.00612698479807 -0.0378608739355 -6.21317020685e-21)
(-0.0145402942585 -0.0349943233437 -1.16923692147e-20)
(0.002954206259 -0.0429076262458 -2.67316214926e-21)
(0.00505377852061 -0.00083818687323 2.94175873723e-22)
(0.00521170080175 -0.000478555552753 1.50079464893e-22)
(0.00544543835796 -0.00173368790674 4.24973970157e-22)
(0.00575624054034 -0.00132716173486 3.76500482074e-22)
(0.00560502663694 -0.00268340722118 3.44643784539e-22)
(0.00604570946252 -0.00224980098825 3.98267230497e-22)
(0.00555756428987 -0.00368688105007 1.89413035883e-22)
(0.00612772208542 -0.0032709828217 2.61048146092e-22)
(0.00533158048797 -0.00474048425654 7.29423374666e-23)
(0.00600166181646 -0.004334787467 1.09821172303e-22)
(0.00497425217513 -0.0058619986378 2.03285167662e-23)
(0.00573608893932 -0.00545915183662 3.00304616728e-23)
(0.00451356150355 -0.00707030657567 -5.11834790883e-24)
(0.00536518028453 -0.00665895085428 7.40184774756e-24)
(0.00395990368806 -0.00838134440196 -1.9308999508e-23)
(0.00490834635595 -0.00796223990552 -1.25856377144e-23)
(0.00330761165218 -0.00983822384421 -2.4956786794e-23)
(0.00437909874859 -0.00939671367514 -1.56872639723e-23)
(0.00254118759861 -0.0114756319586 -6.57684469976e-23)
(0.00376202054449 -0.0109910770831 -2.86076782369e-23)
(0.00162202479671 -0.0133573385724 -1.80894669636e-22)
(0.00305577656336 -0.0127971993352 -9.31525896525e-23)
(0.000504314526027 -0.0155661113008 -3.73268923195e-22)
(0.00220665414457 -0.0148821972841 -2.1089514256e-22)
(-0.000805542677611 -0.0182275804638 -7.58753524182e-22)
(0.00119671554557 -0.0173439954485 -4.39570391791e-22)
(-0.00242056908761 -0.021510324006 -1.60726989203e-21)
(7.56265541803e-05 -0.0203023886149 -9.47650526398e-22)
(-0.00539706437407 -0.025571736713 -2.81373875986e-21)
(-0.00141660299598 -0.0238265768364 -2.36692260813e-21)
(-0.00993275160895 -0.0305236173725 -5.03101789451e-21)
(-0.00502703014207 -0.0287842188293 -4.25659887367e-21)
(-0.0152384609987 -0.0356445404475 -8.95278477558e-21)
(-0.00975697756845 -0.0351766775876 -3.04933689935e-21)
(-0.0157255378609 -0.0410520491291 -1.13810510688e-20)
(-0.0152331766848 -0.0358008834328 -1.04034331673e-20)
(-0.00535530531235 -0.0442651932292 -8.15236115707e-21)
(-0.0113278651873 -0.0387836395528 -1.06307851521e-20)
(0.00244747512125 -0.0501693744376 -3.21415841099e-21)
(0.00594652787686 -0.000891577639764 2.32404073244e-22)
(0.00610328941646 -0.000495250530673 5.68963767207e-23)
(0.00639583039501 -0.00183865390023 3.49793742414e-22)
(0.0067033193329 -0.001394822948 2.50543198349e-22)
(0.00661232775806 -0.00284564142465 3.1467159205e-22)
(0.00705267894246 -0.00236847250209 3.09499739996e-22)
(0.00662154844842 -0.00391385682877 1.81456282512e-22)
(0.00719589425959 -0.00344177553717 2.16651808847e-22)
(0.00645839927401 -0.00504346486554 6.6909296509e-23)
(0.00713120371978 -0.00456625762225 9.1923646005e-23)
(0.00618079950759 -0.00624074620255 1.71037926541e-23)
(0.00693328884903 -0.00575880769378 2.35471763196e-23)
(0.00582127698727 -0.00753271268895 -6.54420579885e-26)
(0.00665706170354 -0.00703382574582 5.81383434696e-24)
(0.00539666177064 -0.00894360657974 -8.96390217872e-24)
(0.00631917118974 -0.00841269742609 -1.00249615558e-23)
(0.00491023879344 -0.0105053223587 -1.93381554152e-23)
(0.0059407699545 -0.00992689834654 -1.27184126294e-23)
(0.00435676121305 -0.0122531575053 -5.59918208918e-23)
(0.00550984692725 -0.0116062776236 -2.34428653403e-23)
(0.00372243723118 -0.0142378769827 -1.23153062577e-22)
(0.00504051487468 -0.0134929622804 -9.30019917842e-23)
(0.00298424226967 -0.0165503301253 -2.77196611156e-22)
(0.0045191834003 -0.0156517129281 -1.68759344359e-22)
(0.00215846577249 -0.0192700897737 -6.28467394006e-22)
(0.00391658574225 -0.0181589147802 -4.11837202143e-22)
(0.00115662285632 -0.0224606998356 -1.70730324249e-21)
(0.00326636254879 -0.0210881769068 -8.55672783584e-22)
(-0.000954069000213 -0.0262436892802 -3.80978272193e-21)
(0.00236650111162 -0.0244054917155 -2.28353056293e-21)
(-0.00468387315383 -0.0311139610439 -2.2749178785e-21)
(-0.000156685446627 -0.0288896277528 -3.70544139507e-21)
(-0.0094548066484 -0.036947571633 -4.49998529105e-21)
(-0.00392335313125 -0.0348514018349 -2.88722261449e-21)
(-0.0108128343072 -0.0435848096896 -9.65316725054e-21)
(-0.00859479258388 -0.0353091903234 -8.43653193938e-21)
(-0.00360567874212 -0.0477246514501 -5.69258240601e-21)
(-0.00718903689779 -0.0401121138259 -8.40561028509e-21)
(0.00237144599404 -0.0545444079792 -1.21339128434e-21)
(0.0068861848784 -0.000930450897138 7.50355018255e-23)
(0.00703376645877 -0.000506786579336 -1.53809526572e-22)
(0.00739516783996 -0.00191836614748 2.1024919593e-22)
(0.00769125269593 -0.00144182878858 3.62841068221e-23)
(0.00767354514762 -0.00297133687368 2.11479956793e-22)
(0.00810564637682 -0.00245311549894 1.37464980789e-22)
(0.0077460251676 -0.00408529120906 1.27119172341e-22)
(0.00830981806437 -0.00356618257452 1.08630849601e-22)
(0.00765244445138 -0.00526811153015 4.85615258156e-23)
(0.00831396686363 -0.00473530011709 4.73340890238e-23)
(0.00745957350552 -0.00652867396315 1.22572180125e-23)
(0.00819377368883 -0.00597325833345 1.0725285565e-23)
(0.00720657619509 -0.0078863838446 -4.14568515083e-24)
(0.00801468598878 -0.00729510095597 2.33220865055e-25)
(0.00691385844367 -0.00936264294196 -1.37794720064e-23)
(0.00779534387803 -0.0087217402284 -1.38641644215e-23)