/*--------------------------------*- C++ -*----------------------------------*\
| =========                 |                                                 |
| \\      /  F ield         | OpenFOAM: The Open Source CFD Toolbox           |
|  \\    /   O peration     | Version:  v2012                                 |
|   \\  /    A nd           | Website:  www.openfoam.com                      |
|    \\/     M anipulation  |                                                 |
\*---------------------------------------------------------------------------*/
FoamFile
{
    version     2.0;
    format      ascii;
    class       volScalarField;
    location    "2.4";
    object      nut;
}
// * * * * * * * * * * * * * * * * * * * * * * * * * * * * * * * * * * * * * //

dimensions      [0 2 -1 0 0 0 0];


internalField   nonuniform List<scalar> 
164
(
0.000571427284332
0.000848161613568
0.000872521499604
0.000880364549019
0.000882965998216
0.000884105901877
0.00088495011233
0.000885818510459
0.000571563298384
0.000848472578836
0.000872840142648
0.000880696009227
0.000883314437174
0.00088447567393
0.000885345723701
0.000886243795686
0.000571649020617
0.000848684040342
0.000873054905981
0.000880932898086
0.000883578379741
0.000884768679511
0.000885671140475
0.000886605913182
0.000887655025566
0.000888855122153
0.000571673796085
0.000848777349796
0.000873155359725
0.000881067742492
0.000883751821362
0.000884979933998
0.000885922188126
0.000886901977029
0.000888002125684
0.000889258811941
0.000571623513877
0.000848737113573
0.000873131589319
0.000881093553454
0.000883829077109
0.000885104616929
0.000886094823916
0.000887127592923
0.000888288194302
0.000889613766533
0.000571503074322
0.000848564854922
0.00087297813211
0.000881003874904
0.000883803438918
0.000885135823931
0.000886181784033
0.000887275521124
0.000888506343764
0.000889913275017
0.000571312967483
0.000848240897239
0.000872682020528
0.000880788139538
0.000883666646446
0.000885066624444
0.000886176751105
0.000887339540078
0.000888649555913
0.000890147620285
0.0005710361493
0.000847761200078
0.000872239815432
0.000880441369896
0.000883412118139
0.000884890173182
0.000886073445409
0.000887314147661
0.000888711512062
0.000890309367294
0.000570646832449
0.000847126924862
0.000871648055653
0.000879957566273
0.0008830329046
0.000884599426428
0.000885864622756
0.000887190514945
0.000888681955273
0.000890389617865
0.000570140337955
0.000846328076652
0.000870898805548
0.000879329077972
0.000882521864193
0.00088418752251
0.000885543749637
0.000886962357848
0.000888555057913
0.00089037753146
0.000569510028859
0.000845358859104
0.000869984071735
0.000878547512394
0.000881871281451
0.000883648042145
0.000885105608295
0.000886626565396
0.000888327038673
0.000890263894185
0.000568741509895
0.000844209251052
0.000868896249873
0.000877605045018
0.000881072371703
0.000882974033223
0.00088454593049
0.000886180371689
0.000887998056836
0.000890048642283
0.000567847424816
0.000842875446326
0.000867629035472
0.000876494039585
0.000880119502635
0.000882160785671
0.000883861882015
0.000885625181656
0.000887578116632
0.000889768649021
0.000566811010288
0.000841357995029
0.000866181001573
0.000875211080697
0.000879006992552
0.000881202404574
0.000883047479696
0.000884957522344
0.000887063378706
0.000889414912418
0.000565630123445
0.000839654520126
0.000864551803964
0.000873753128369
0.00087773023852
0.000880093630445
0.000882100966099
0.00088417658769
0.000886453178312
0.00088898242827
0.000564296544968
0.000837768127344
0.000862743530604
0.000872122444277
0.000876288418923
0.000878834389307
0.000881023297093
0.00088328588982
0.000885756103973
0.000888469272001
0.00056283279066
0.000835719522333
0.000860774844958
0.000870325970938
0.000874686517021
0.000877424925459
0.000879812899482
0.000872931864997
)
;

boundaryField
{
    back
    {
        type            nutkWallFunction;
        blending        stepwise;
        Cmu             0.09;
        kappa           0.41;
        E               9.8;
        value           nonuniform List<scalar> 
164
(
7.84667463162e-05
8.65029957282e-05
8.87399324117e-05
8.94506799552e-05
8.96833733016e-05
8.97851129864e-05
8.98612082904e-05
8.9939959702e-05
7.84814625271e-05
8.65289663145e-05
8.87674114055e-05
8.94800164243e-05
8.97146088775e-05
8.98184342829e-05
8.98969471386e-05
8.99784553436e-05
7.84904848586e-05
8.65456010559e-05
8.8785349033e-05
8.95008002475e-05
8.9738272608e-05
8.98449077723e-05
8.99264367017e-05
9.00113351043e-05
9.01067473322e-05
9.02158681607e-05
7.84925727947e-05
8.65512909535e-05
8.87928034154e-05
8.95123428068e-05
8.97538085267e-05
8.98640664587e-05
8.99492843555e-05
9.0038320293e-05
9.01384216828e-05
9.0252723709e-05
7.84855870435e-05
8.65446228247e-05
8.8788887878e-05
8.95139994186e-05
8.97606860867e-05
8.98754577727e-05
8.99651072119e-05
9.00589957807e-05
9.01646187015e-05
9.02851884665e-05
7.84706695563e-05
8.65255081276e-05
8.87730852783e-05
8.95051719697e-05
8.97582750846e-05
8.9878436121e-05
8.99732212756e-05
9.00726787225e-05
9.01847058562e-05
9.03126747259e-05
7.84453464254e-05
8.64931000753e-05
8.87446814708e-05
8.94851437067e-05
8.9745890063e-05
8.98723535526e-05
8.99730146856e-05
9.0078777422e-05
9.01980291096e-05
9.03343057029e-05
7.84078541044e-05
8.64468863265e-05
8.87032469214e-05
8.94533408376e-05
8.97228671317e-05
8.98565177135e-05
8.99638223566e-05
9.00766567319e-05
9.02038806549e-05
9.03492761971e-05
7.83564483741e-05
8.638635611e-05
8.86480539749e-05
8.94089983071e-05
8.9688466345e-05
8.98302551692e-05
8.99449876665e-05
9.00655401845e-05
9.02013092154e-05
9.03567031025e-05
7.82905145332e-05
8.63105212029e-05
8.85783220341e-05
8.93513668243e-05
8.96419865609e-05
8.97928859203e-05
8.9915848794e-05
9.00447619211e-05
9.01897188028e-05
9.03555950132e-05
7.82092227856e-05
8.62188346041e-05
8.84932628616e-05
8.92796229528e-05
8.95826752422e-05
8.97437669195e-05
8.98758543292e-05
9.00139476963e-05
9.01686228954e-05
9.03449532549e-05
7.81106103797e-05
8.61103155996e-05
8.83921287797e-05
8.91929919243e-05
8.95096516481e-05
8.9682180669e-05
8.98245211101e-05
8.99727062623e-05
9.01377914959e-05
9.03242571608e-05
7.79963753864e-05
8.59845477078e-05
8.8274265025e-05
8.90906889299e-05
8.94223275386e-05
8.96076285089e-05
8.97615203199e-05
8.9921075339e-05
9.00980389212e-05
9.02967199156e-05
7.78642845678e-05
8.5841578724e-05
8.81394857856e-05
8.89723327079e-05
8.93201053245e-05
8.95194964651e-05
8.96862145746e-05
8.98586739821e-05
9.00489990138e-05
9.0261595247e-05
7.77142208444e-05
8.56811977032e-05
8.79877421707e-05
8.8837564303e-05
8.92024694767e-05
8.94171856321e-05
8.95983385069e-05
8.97853181338e-05
8.99904982568e-05
9.02184736672e-05
7.75451133215e-05
8.5503682479e-05
8.78191607339e-05
8.86865224984e-05
8.90692538587e-05
8.93005889117e-05
8.94978601884e-05
8.97011687933e-05
8.99230707259e-05
9.01669079491e-05
7.73598576336e-05
8.53110000658e-05
8.76354685969e-05
8.85198253759e-05
8.89207884913e-05
8.91696385677e-05
8.93845265349e-05
8.87578523517e-05
)
;
    }
    sides
    {
        type            nutkWallFunction;
        blending        stepwise;
        Cmu             0.09;
        kappa           0.41;
        E               9.8;
        value           nonuniform List<scalar> 0();
    }
    bottom
    {
        type            nutkWallFunction;
        blending        stepwise;
        Cmu             0.09;
        kappa           0.41;
        E               9.8;
        value           nonuniform List<scalar> 
17
(
4.17459114321e-05
4.1753759486e-05
4.17585710286e-05
4.17596845089e-05
4.17559590605e-05
4.17480036699e-05
4.17344990011e-05
4.17145045277e-05
4.16870900016e-05
4.16519275092e-05
4.16085743917e-05
4.15559837336e-05
4.14950609168e-05
4.14246146781e-05
4.13445822662e-05
4.12543921816e-05
4.11555883609e-05
)
;
    }
    front
    {
        type            nutkWallFunction;
        blending        stepwise;
        Cmu             0.09;
        kappa           0.41;
        E               9.8;
        value           nonuniform List<scalar> 
164
(
7.84667463162e-05
8.65029957282e-05
8.87399324117e-05
8.94506799552e-05
8.96833733016e-05
8.97851129864e-05
8.98612082904e-05
8.9939959702e-05
7.84814625271e-05
8.65289663145e-05
8.87674114055e-05
8.94800164243e-05
8.97146088775e-05
8.98184342829e-05
8.98969471386e-05
8.99784553436e-05
7.84904848586e-05
8.65456010559e-05
8.8785349033e-05
8.95008002475e-05
8.9738272608e-05
8.98449077723e-05
8.99264367017e-05
9.00113351043e-05
9.01067473322e-05
9.02158681607e-05
7.84925727947e-05
8.65512909535e-05
8.87928034154e-05
8.95123428068e-05
8.97538085267e-05
8.98640664587e-05
8.99492843555e-05
9.0038320293e-05
9.01384216828e-05
9.0252723709e-05
7.84855870435e-05
8.65446228247e-05
8.8788887878e-05
8.95139994186e-05
8.97606860867e-05
8.98754577727e-05
8.99651072119e-05
9.00589957807e-05
9.01646187015e-05
9.02851884665e-05
7.84706695563e-05
8.65255081276e-05
8.87730852783e-05
8.95051719697e-05
8.97582750846e-05
8.9878436121e-05
8.99732212756e-05
9.00726787225e-05
9.01847058562e-05
9.03126747259e-05
7.84453464254e-05
8.64931000753e-05
8.87446814708e-05
8.94851437067e-05
8.9745890063e-05
8.98723535526e-05
8.99730146856e-05
9.0078777422e-05
9.01980291096e-05
9.03343057029e-05
7.84078541044e-05
8.64468863265e-05
8.87032469214e-05
8.94533408376e-05
8.97228671317e-05
8.98565177135e-05
8.99638223566e-05
9.00766567319e-05
9.02038806549e-05
9.03492761971e-05
7.83564483741e-05
8.638635611e-05
8.86480539749e-05
8.94089983071e-05
8.9688466345e-05
8.98302551692e-05
8.99449876665e-05
9.00655401845e-05
9.02013092154e-05
9.03567031025e-05
7.82905145332e-05
8.63105212029e-05
8.85783220341e-05
8.93513668243e-05
8.96419865609e-05
8.97928859203e-05
8.9915848794e-05
9.00447619211e-05
9.01897188028e-05
9.03555950132e-05
7.82092227856e-05
8.62188346041e-05
8.84932628616e-05
8.92796229528e-05
8.95826752422e-05
8.97437669195e-05
8.98758543292e-05
9.00139476963e-05
9.01686228954e-05
9.03449532549e-05
7.81106103797e-05
8.61103155996e-05
8.83921287797e-05
8.91929919243e-05
8.95096516481e-05
8.9682180669e-05
8.98245211101e-05
8.99727062623e-05
9.01377914959e-05
9.03242571608e-05
7.79963753864e-05
8.59845477078e-05
8.8274265025e-05
8.90906889299e-05
8.94223275386e-05
8.96076285089e-05
8.97615203199e-05
8.9921075339e-05
9.00980389212e-05
9.02967199156e-05
7.78642845678e-05
8.5841578724e-05
8.81394857856e-05
8.89723327079e-05
8.93201053245e-05
8.95194964651e-05
8.96862145746e-05
8.98586739821e-05
9.00489990138e-05
9.0261595247e-05
7.77142208444e-05
8.56811977032e-05
8.79877421707e-05
8.8837564303e-05
8.92024694767e-05
8.94171856321e-05
8.95983385069e-05
8.97853181338e-05
8.99904982568e-05
9.02184736672e-05
7.75451133215e-05
8.5503682479e-05
8.78191607339e-05
8.86865224984e-05
8.90692538587e-05
8.93005889117e-05
8.94978601884e-05
8.97011687933e-05
8.99230707259e-05
9.01669079491e-05
7.73598576336e-05
8.53110000658e-05
8.76354685969e-05
8.85198253759e-05
8.89207884913e-05
8.91696385677e-05
8.93845265349e-05
8.87578523517e-05
)
;
    }
    atmosphere
    {
        type            calculated;
        value           nonuniform List<scalar> 0();
    }
    floatingObject
    {
        type            nutkWallFunction;
        blending        stepwise;
        Cmu             0.09;
        kappa           0.41;
        E               9.8;
        value           nonuniform List<scalar> 0();
    }
    procBoundary4to0
    {
        type            processor;
        value           nonuniform List<scalar> 8(0.000571234042212 0.000847750815815 0.000872103856794 0.000879944328239 0.000882537731904 0.000883663414064 0.000884488369296 0.000885333690307);
    }
    procBoundary4to3
    {
        type            processor;
        value           nonuniform List<scalar> 
13
(
0.000882289348361
0.000884986085246
0.000887938880282
0.000561244119008
0.000833534973219
0.000858668839527
0.000868386551935
0.000875867767595
0.000882289348361
0.000878466697521
0.000868386551935
0.000875867767595
0.000871042728054
)
;
    }
    procBoundary4to5
    {
        type            processor;
        value           nonuniform List<scalar> 
18
(
0.000886793077518
0.000887251243712
0.000887251243712
0.000888406761601
0.000890295835524
0.000890755057379
0.000891182874759
0.000891573048152
0.000891913638326
0.000892198484102
0.000892418932211
0.000892554295159
0.000892570254292
0.000892428326349
0.000892281403126
0.000892113057112
0.000891871353153
0.000891467796217
)
;
    }
}


// ************************************************************************* //
