/*--------------------------------*- C++ -*----------------------------------*\
| =========                 |                                                 |
| \\      /  F ield         | OpenFOAM: The Open Source CFD Toolbox           |
|  \\    /   O peration     | Version:  v2012                                 |
|   \\  /    A nd           | Website:  www.openfoam.com                      |
|    \\/     M anipulation  |                                                 |
\*---------------------------------------------------------------------------*/
FoamFile
{
    version     2.0;
    format      ascii;
    class       volScalarField;
    location    "3.7";
    object      nut;
}
// * * * * * * * * * * * * * * * * * * * * * * * * * * * * * * * * * * * * * //

dimensions      [0 2 -1 0 0 0 0];


internalField   nonuniform List<scalar> 
167
(
0.000633870413337
0.000640630264486
0.000656254113951
0.000695653935628
0.000798597202465
0.00102775421834
0.00141396882829
0.00199749898708
0.00300999284633
0.000640426826377
0.000656325103035
0.000696068063944
0.000800468917409
0.0010347638973
0.00143163796109
0.00203142405639
0.00303883888489
0.000640333164686
0.000656736207982
0.000697367143483
0.00080368903527
0.00104243983908
0.00144873279995
0.0020613496808
0.00305003976242
0.000632705455997
0.000640375826095
0.00065769305136
0.000700446321849
0.000810009561159
0.00105003939907
0.00145858613388
0.00208028636735
0.00305704479307
0.000632354801449
0.000640430816549
0.000658701337594
0.000703769781994
0.000816791587711
0.00105600355877
0.00146044835515
0.00208744046296
0.00306048506678
0.000631990874447
0.000640400850415
0.000659314370417
0.00070576166667
0.000820782637831
0.00105870512508
0.00145778180594
0.00208831859461
0.00306193234934
0.000627451248063
0.000631615641568
0.000640288364369
0.000659554991801
0.000706550981988
0.000822721246932
0.00106116033335
0.00145836831137
0.00209180440047
0.00306409518138
0.00062463067184
0.00062691891397
0.000631243176104
0.000640148750269
0.000659658098891
0.00070693662772
0.000824524039258
0.00106655129416
0.0014662583704
0.00209947660373
0.00306636836114
0.000624013825548
0.000626399279757
0.000630891436703
0.000640076734901
0.000660064906149
0.000708475756711
0.000829332053359
0.00107762177406
0.00148165371801
0.00210916430343
0.00306716817083
0.000625879970358
0.000630550161543
0.000640071266692
0.000660775080019
0.000710992215827
0.000836103154113
0.00109146533549
0.0015007031943
0.00211843088751
0.00306536952273
0.000625314065644
0.000630168177862
0.0006400540496
0.000661554829744
0.000713642640502
0.000842296035693
0.00110270397066
0.00151533475808
0.00212293845555
0.00306141012796
0.000624554416863
0.00062958992895
0.000639858346939
0.000662172038207
0.000715681581102
0.000845878188676
0.00110787595533
0.00152285885159
0.00212241832559
0.00305665705523
0.000623199404225
0.00062839554248
0.000639020436643
0.000662027760096
0.000716339039561
0.000846312833708
0.00110914020701
0.00152843173365
0.00212330490708
0.00305305380098
0.000620182369139
0.000625463594347
0.000636314302932
0.0006597683886
0.000714599867402
0.000845331316971
0.00111347481991
0.00154128351053
0.00213034065123
0.00305066548023
0.000609979114499
0.000612723365626
0.000617934473315
0.000628695182969
0.000652024209859
0.000706815908085
0.000839266128486
0.00111455488495
0.00154533796181
0.0021182511195
0.00303415079415
0.000590670316449
0.000593273062945
0.000598167100159
0.000608269370388
0.000630222582522
0.0006827177501
0.000815154003451
0.00109678245897
0.00152300241659
0.00206979627611
0.00273447238116
0.000396748240522
0.000398507971557
0.000401606659736
0.000407776213285
0.000420875240319
0.000452640453668
0.000539880979286
0.000746168270175
0.00108776953614
0.00154063792094
0.00224385791184
)
;

boundaryField
{
    back
    {
        type            nutkWallFunction;
        blending        stepwise;
        Cmu             0.09;
        kappa           0.41;
        E               9.8;
        value           nonuniform List<scalar> 
167
(
6.61898211397e-05
6.68273001691e-05
6.82941591789e-05
7.19500291014e-05
8.14208277924e-05
0.000102474656481
0.000137899273864
0.000237662610402
0.000342152525669
6.68003021664e-05
6.82779612975e-05
7.19137643852e-05
8.13810691634e-05
0.000102695133086
0.000138697538656
0.000239603304199
0.000343521400524
6.67817643013e-05
6.82902753039e-05
7.19525380077e-05
8.14394106019e-05
0.000102901880992
0.000139389745255
0.000241324907534
0.000344265561539
6.606732771e-05
6.67760428497e-05
6.83535539532e-05
7.2160395365e-05
8.1814025625e-05
0.000103142014172
0.000139434184465
0.000241904222412
0.000344610917478
6.60300982247e-05
6.67721181993e-05
6.84231479232e-05
7.23993601424e-05
8.22813022135e-05
0.000103360421583
0.000138854266702
0.000241227464874
0.000344566933415
6.59922154637e-05
6.67618663844e-05
6.84605413131e-05
7.25256518877e-05
8.25147116421e-05
0.000103358195152
0.000137980529198
0.000239918674574
0.000344328287599
6.55707288931e-05
6.59539329054e-05
6.67459686829e-05
6.84699149734e-05
7.2557232586e-05
8.25843438972e-05
0.00010340027157
0.000137652065225
0.000239303381971
0.00034427110076
6.53073641033e-05
6.55188558284e-05
6.59164983903e-05
6.67290343291e-05
6.84704447178e-05
7.25589070126e-05
8.26432890388e-05
0.00010372906631
0.000138250290084
0.000239996966694
0.000344444447631
6.52479921706e-05
6.54684654552e-05
6.58814102125e-05
6.67189094464e-05
6.84999674946e-05
7.2673587971e-05
8.30143560686e-05
0.000104678963828
0.00013984851674
0.000241839152445
0.000344732368997
6.54184512009e-05
6.5847678903e-05
6.67154196273e-05
6.85582460525e-05
7.2884462151e-05
8.35978390287e-05
0.000105946927123
0.000141960344223
0.000244394200678
0.000345094162617
6.53643399887e-05
6.58106314709e-05
6.67116625278e-05
6.86256576232e-05
7.31214143463e-05
8.41770936034e-05
0.000107046684407
0.000143703552366
0.000246537680647
0.000345319324306
6.52924229328e-05
6.57557271259e-05
6.66924430242e-05
6.86830856883e-05
7.33234873213e-05
8.45679576016e-05
0.000107639138454
0.00014479056893
0.000247957856651
0.000345378823016
6.51649326269e-05
6.56435633614e-05
6.66146418811e-05
6.86758344553e-05
7.34175939354e-05
8.46952943789e-05
0.000107868511093
0.000145729480927
0.000249502550971
0.000345582154799
6.48809130774e-05
6.53682623866e-05
6.63626330788e-05
6.84740339369e-05
7.32918111716e-05
8.46802923678e-05
0.000108404250409
0.000147623643912
0.00025226404861
0.000346141377268
6.39208958403e-05
6.41760315755e-05
6.46582417016e-05
6.56479079989e-05
6.77584701506e-05
7.25987552793e-05
8.41943242799e-05
0.000108733843624
0.000148861790617
0.000252811606978
0.000345692207352
6.20831584843e-05
6.23261623909e-05
6.2780982162e-05
6.37153598088e-05
6.57143022221e-05
7.03782181566e-05
8.20373902323e-05
0.000107385577999
0.000147664048103
0.000249291825323
0.000336653435613
5.61729770193e-05
5.63971356619e-05
5.67895883784e-05
5.75680875267e-05
5.9197978883e-05
6.30418980922e-05
7.34784227981e-05
9.86436955601e-05
0.000141872380727
0.000248583365711
0.00034193570965
)
;
    }
    sides
    {
        type            nutkWallFunction;
        blending        stepwise;
        Cmu             0.09;
        kappa           0.41;
        E               9.8;
        value           nonuniform List<scalar> 
11
(
2.98446113458e-05
2.99644143876e-05
3.0174155548e-05
3.05901852347e-05
3.14610766557e-05
3.35143511041e-05
3.90851197634e-05
5.24981220152e-05
7.54957765139e-05
0.000129131165439
0.000179412852092
)
;
    }
    bottom
    {
        type            nutkWallFunction;
        blending        stepwise;
        Cmu             0.09;
        kappa           0.41;
        E               9.8;
        value           nonuniform List<scalar> 0();
    }
    front
    {
        type            nutkWallFunction;
        blending        stepwise;
        Cmu             0.09;
        kappa           0.41;
        E               9.8;
        value           nonuniform List<scalar> 
167
(
6.61898211397e-05
6.68273001691e-05
6.82941591789e-05
7.19500291014e-05
8.14208277924e-05
0.000102474656481
0.000137899273864
0.000237662610402
0.000342152525669
6.68003021664e-05
6.82779612975e-05
7.19137643852e-05
8.13810691634e-05
0.000102695133086
0.000138697538656
0.000239603304199
0.000343521400524
6.67817643013e-05
6.82902753039e-05
7.19525380077e-05
8.14394106019e-05
0.000102901880992
0.000139389745255
0.000241324907534
0.000344265561539
6.606732771e-05
6.67760428497e-05
6.83535539532e-05
7.2160395365e-05
8.1814025625e-05
0.000103142014172
0.000139434184465
0.000241904222412
0.000344610917478
6.60300982247e-05
6.67721181993e-05
6.84231479232e-05
7.23993601424e-05
8.22813022135e-05
0.000103360421583
0.000138854266702
0.000241227464874
0.000344566933415
6.59922154637e-05
6.67618663844e-05
6.84605413131e-05
7.25256518877e-05
8.25147116421e-05
0.000103358195152
0.000137980529198
0.000239918674574
0.000344328287599
6.55707288931e-05
6.59539329054e-05
6.67459686829e-05
6.84699149734e-05
7.2557232586e-05
8.25843438972e-05
0.00010340027157
0.000137652065225
0.000239303381971
0.00034427110076
6.53073641033e-05
6.55188558284e-05
6.59164983903e-05
6.67290343291e-05
6.84704447178e-05
7.25589070126e-05
8.26432890388e-05
0.00010372906631
0.000138250290084
0.000239996966694
0.000344444447631
6.52479921706e-05
6.54684654552e-05
6.58814102125e-05
6.67189094464e-05
6.84999674946e-05
7.2673587971e-05
8.30143560686e-05
0.000104678963828
0.00013984851674
0.000241839152445
0.000344732368997
6.54184512009e-05
6.5847678903e-05
6.67154196273e-05
6.85582460525e-05
7.2884462151e-05
8.35978390287e-05
0.000105946927123
0.000141960344223
0.000244394200678
0.000345094162617
6.53643399887e-05
6.58106314709e-05
6.67116625278e-05
6.86256576232e-05
7.31214143463e-05
8.41770936034e-05
0.000107046684407
0.000143703552366
0.000246537680647
0.000345319324306
6.52924229328e-05
6.57557271259e-05
6.66924430242e-05
6.86830856883e-05
7.33234873213e-05
8.45679576016e-05
0.000107639138454
0.00014479056893
0.000247957856651
0.000345378823016
6.51649326269e-05
6.56435633614e-05
6.66146418811e-05
6.86758344553e-05
7.34175939354e-05
8.46952943789e-05
0.000107868511093
0.000145729480927
0.000249502550971
0.000345582154799
6.48809130774e-05
6.53682623866e-05
6.63626330788e-05
6.84740339369e-05
7.32918111716e-05
8.46802923678e-05
0.000108404250409
0.000147623643912
0.00025226404861
0.000346141377268
6.39208958403e-05
6.41760315755e-05
6.46582417016e-05
6.56479079989e-05
6.77584701506e-05
7.25987552793e-05
8.41943242799e-05
0.000108733843624
0.000148861790617
0.000252811606978
0.000345692207352
6.20831584843e-05
6.23261623909e-05
6.2780982162e-05
6.37153598088e-05
6.57143022221e-05
7.03782181566e-05
8.20373902323e-05
0.000107385577999
0.000147664048103
0.000249291825323
0.000336653435613
5.61729770193e-05
5.63971356619e-05
5.67895883784e-05
5.75680875267e-05
5.9197978883e-05
6.30418980922e-05
7.34784227981e-05
9.86436955601e-05
0.000141872380727
0.000248583365711
0.00034193570965
)
;
    }
    atmosphere
    {
        type            calculated;
        value           nonuniform List<scalar> 
17
(
0.009
0.009
0.009
0.009
0.009
0.009
0.009
0.009
0.009
0.009
0.009
0.009
0.009
0.009
0.009
0.00273447238116
0.009
)
;
    }
    floatingObject
    {
        type            nutkWallFunction;
        blending        stepwise;
        Cmu             0.09;
        kappa           0.41;
        E               9.8;
        value           nonuniform List<scalar> 0();
    }
    procBoundary11to9
    {
        type            processor;
        value           nonuniform List<scalar> 9(0.000634298408039 0.000640836355046 0.000656147589743 0.000695081625187 0.000796836009334 0.00102231167236 0.00140033094413 0.00194213237763 0.00249343325637);
    }
    procBoundary11to10
    {
        type            processor;
        value           nonuniform List<scalar> 
23
(
0.000630719546064
0.000633450296518
0.000633450296518
0.000633065054534
0.000633065054534
0.000629080684354
0.000628537611393
0.000627992696547
0.000627992696547
0.000625258818467
0.000625258818467
0.000623203351073
0.000622523417117
0.000623395775824
0.000623395775824
0.000622732436533
0.000621881454673
0.000620452880146
0.000617401594021
0.000617401594021
0.000608257917057
0.000588999816175
0.00039551520084
)
;
    }
}


// ************************************************************************* //
