/*--------------------------------*- C++ -*----------------------------------*\
| =========                 |                                                 |
| \\      /  F ield         | OpenFOAM: The Open Source CFD Toolbox           |
|  \\    /   O peration     | Version:  v2012                                 |
|   \\  /    A nd           | Website:  www.openfoam.com                      |
|    \\/     M anipulation  |                                                 |
\*---------------------------------------------------------------------------*/
FoamFile
{
    version     2.0;
    format      ascii;
    class       volScalarField;
    location    "3.7";
    object      p_rgh;
}
// * * * * * * * * * * * * * * * * * * * * * * * * * * * * * * * * * * * * * //

dimensions      [1 -1 -2 0 0 0 0];


internalField   nonuniform List<scalar> 
167
(
8546.42749789
8542.1332949
8537.49192845
8532.63703071
8527.83329551
8429.70043548
3738.99887814
0.00379687061259
0.0021701588236
8536.83222916
8532.62111886
8528.27949087
8523.95162516
8429.56706575
3714.0845285
0.00150805777852
0.0029848573173
8531.73027824
8527.82421804
8523.87897717
8519.98529747
8425.93045826
3679.71768286
-0.00177531220521
0.00419305668164
8530.35000601
8526.74450134
8523.04951899
8519.36793442
8515.79086566
8415.88800518
3633.72622034
-0.00512255546186
0.00501088477293
8525.35886683
8521.82632674
8518.23799009
8514.68605797
8511.26955883
8400.54216394
3575.03839293
-0.00748931818803
0.00514013020665
8520.49027668
8516.95123563
8513.36188661
8509.80653252
8506.3864631
8382.65186488
3502.92855901
-0.00796226351821
0.00489011134541
8519.21561855
8515.74096579
8512.11727638
8508.42176848
8504.73695955
8501.16069706
8364.32274828
3417.92495027
-0.00684914948446
0.00470382525687
8518.10551232
8514.73472339
8511.13223492
8507.34485241
8503.44488466
8499.51006785
8495.62128507
8343.54663872
3322.6498616
-0.00435496739307
0.00455353451586
8513.99831232
8510.48278416
8506.69442202
8502.6755566
8498.48247447
8494.18403168
8489.825248
8318.42660092
3220.45351671
-0.000927167706543
0.00436695996087
8506.49250884
8502.47585178
8498.17046614
8493.61079565
8488.84951805
8483.8804229
8288.35254565
3115.15482452
0.00256483818189
0.00413384904833
8502.807199
8498.53825038
8493.90801663
8488.92972418
8483.63225888
8477.94859934
8253.10279482
3009.93406319
0.00586140806827
0.00382979186734
8499.48840392
8494.95466742
8489.98111411
8484.55739259
8478.68806527
8472.24912522
8216.63675114
2907.25465038
0.00955496728039
0.00345454102155
8496.59651934
8491.80364709
8486.49070067
8480.62342631
8474.18105653
8466.98126902
8180.99655239
2807.11560662
0.0147843068246
0.0031432103312
8494.19291454
8489.16471953
8483.54169794
8477.26665837
8470.29119917
8462.37206494
8149.54511345
2711.38806793
0.0212054740073
0.00325121039391
8496.96352789
8492.33587607
8487.1128232
8481.23424778
8474.62301907
8467.20447981
8458.66985024
8120.98478877
2629.74798634
0.0255656488921
0.00427723388964
8495.80092738
8491.06801144
8485.70681879
8479.64828491
8472.80232541
8465.07733873
8456.13060549
8096.28468879
2571.25936835
0.03816540975
0.00355747234872
8495.18814548
8490.39893762
8484.96724459
8478.82291968
8471.87752705
8464.03612099
8455.03136122
8106.08243372
2527.90369528
0.0269515048452
0.00977560048114
)
;

boundaryField
{
    back
    {
        type            fixedFluxPressure;
        gradient        uniform 0;
        value           nonuniform List<scalar> 
167
(
8546.42749789
8542.1332949
8537.49192845
8532.63703071
8527.83329551
8429.70043548
3738.99887814
0.00379687061259
0.0021701588236
8536.83222916
8532.62111886
8528.27949087
8523.95162516
8429.56706575
3714.0845285
0.00150805777852
0.0029848573173
8531.73027824
8527.82421804
8523.87897717
8519.98529747
8425.93045826
3679.71768286
-0.00177531220521
0.00419305668164
8530.35000601
8526.74450134
8523.04951899
8519.36793442
8515.79086566
8415.88800518
3633.72622034
-0.00512255546186
0.00501088477293
8525.35886683
8521.82632674
8518.23799009
8514.68605797
8511.26955883
8400.54216394
3575.03839293
-0.00748931818803
0.00514013020665
8520.49027668
8516.95123563
8513.36188661
8509.80653252
8506.3864631
8382.65186488
3502.92855901
-0.00796226351821
0.00489011134541
8519.21561855
8515.74096579
8512.11727638
8508.42176848
8504.73695955
8501.16069706
8364.32274828
3417.92495027
-0.00684914948446
0.00470382525687
8518.10551232
8514.73472339
8511.13223492
8507.34485241
8503.44488466
8499.51006785
8495.62128507
8343.54663872
3322.6498616
-0.00435496739307
0.00455353451586
8513.99831232
8510.48278416
8506.69442202
8502.6755566
8498.48247447
8494.18403168
8489.825248
8318.42660092
3220.45351671
-0.000927167706543
0.00436695996087
8506.49250884
8502.47585178
8498.17046614
8493.61079565
8488.84951805
8483.8804229
8288.35254565
3115.15482452
0.00256483818189
0.00413384904833
8502.807199
8498.53825038
8493.90801663
8488.92972418
8483.63225888
8477.94859934
8253.10279482
3009.93406319
0.00586140806827
0.00382979186734
8499.48840392
8494.95466742
8489.98111411
8484.55739259
8478.68806527
8472.24912522
8216.63675114
2907.25465038
0.00955496728039
0.00345454102155
8496.59651934
8491.80364709
8486.49070067
8480.62342631
8474.18105653
8466.98126902
8180.99655239
2807.11560662
0.0147843068246
0.0031432103312
8494.19291454
8489.16471953
8483.54169794
8477.26665837
8470.29119917
8462.37206494
8149.54511345
2711.38806793
0.0212054740073
0.00325121039391
8496.96352789
8492.33587607
8487.1128232
8481.23424778
8474.62301907
8467.20447981
8458.66985024
8120.98478877
2629.74798634
0.0255656488921
0.00427723388964
8495.80092738
8491.06801144
8485.70681879
8479.64828491
8472.80232541
8465.07733873
8456.13060549
8096.28468879
2571.25936835
0.03816540975
0.00355747234872
8495.18814548
8490.39893762
8484.96724459
8478.82291968
8471.87752705
8464.03612099
8455.03136122
8106.08243372
2527.90369528
0.0269515048452
0.00977560048114
)
;
    }
    sides
    {
        type            fixedFluxPressure;
        gradient        uniform 0;
        value           nonuniform List<scalar> 
11
(
8495.18814548
8490.39893762
8484.96724459
8478.82291968
8471.87752705
8464.03612099
8455.03136122
8106.08243372
2527.90369528
0.0269515048452
0.00977560048114
)
;
    }
    bottom
    {
        type            fixedFluxPressure;
        gradient        nonuniform List<scalar> 0();
        value           nonuniform List<scalar> 0();
    }
    front
    {
        type            fixedFluxPressure;
        gradient        uniform 0;
        value           nonuniform List<scalar> 
167
(
8546.42749789
8542.1332949
8537.49192845
8532.63703071
8527.83329551
8429.70043548
3738.99887814
0.00379687061259
0.0021701588236
8536.83222916
8532.62111886
8528.27949087
8523.95162516
8429.56706575
3714.0845285
0.00150805777852
0.0029848573173
8531.73027824
8527.82421804
8523.87897717
8519.98529747
8425.93045826
3679.71768286
-0.00177531220521
0.00419305668164
8530.35000601
8526.74450134
8523.04951899
8519.36793442
8515.79086566
8415.88800518
3633.72622034
-0.00512255546186
0.00501088477293
8525.35886683
8521.82632674
8518.23799009
8514.68605797
8511.26955883
8400.54216394
3575.03839293
-0.00748931818803
0.00514013020665
8520.49027668
8516.95123563
8513.36188661
8509.80653252
8506.3864631
8382.65186488
3502.92855901
-0.00796226351821
0.00489011134541
8519.21561855
8515.74096579
8512.11727638
8508.42176848
8504.73695955
8501.16069706
8364.32274828
3417.92495027
-0.00684914948446
0.00470382525687
8518.10551232
8514.73472339
8511.13223492
8507.34485241
8503.44488466
8499.51006785
8495.62128507
8343.54663872
3322.6498616
-0.00435496739307
0.00455353451586
8513.99831232
8510.48278416
8506.69442202
8502.6755566
8498.48247447
8494.18403168
8489.825248
8318.42660092
3220.45351671
-0.000927167706543
0.00436695996087
8506.49250884
8502.47585178
8498.17046614
8493.61079565
8488.84951805
8483.8804229
8288.35254565
3115.15482452
0.00256483818189
0.00413384904833
8502.807199
8498.53825038
8493.90801663
8488.92972418
8483.63225888
8477.94859934
8253.10279482
3009.93406319
0.00586140806827
0.00382979186734
8499.48840392
8494.95466742
8489.98111411
8484.55739259
8478.68806527
8472.24912522
8216.63675114
2907.25465038
0.00955496728039
0.00345454102155
8496.59651934
8491.80364709
8486.49070067
8480.62342631
8474.18105653
8466.98126902
8180.99655239
2807.11560662
0.0147843068246
0.0031432103312
8494.19291454
8489.16471953
8483.54169794
8477.26665837
8470.29119917
8462.37206494
8149.54511345
2711.38806793
0.0212054740073
0.00325121039391
8496.96352789
8492.33587607
8487.1128232
8481.23424778
8474.62301907
8467.20447981
8458.66985024
8120.98478877
2629.74798634
0.0255656488921
0.00427723388964
8495.80092738
8491.06801144
8485.70681879
8479.64828491
8472.80232541
8465.07733873
8456.13060549
8096.28468879
2571.25936835
0.03816540975
0.00355747234872
8495.18814548
8490.39893762
8484.96724459
8478.82291968
8471.87752705
8464.03612099
8455.03136122
8106.08243372
2527.90369528
0.0269515048452
0.00977560048114
)
;
    }
    atmosphere
    {
        type            totalPressure;
        rho             rho;
        psi             none;
        gamma           1;
        p0              uniform 0;
        value           nonuniform List<scalar> 
17
(
-4.29628975468e-06
-9.11460334793e-05
-0.000295311210322
-0.000495238161588
-0.000603127223157
-0.000629554838861
-0.000678884787764
-0.000729659594136
-0.00072097564637
-0.000643824629627
-0.000503615208153
-0.000342946315171
-0.000230694862171
-0.000192959602282
-5.58808135037e-05
0
-0.000905648781747
)
;
    }
    floatingObject
    {
        type            fixedFluxPressure;
        gradient        nonuniform List<scalar> 0();
        value           nonuniform List<scalar> 0();
    }
    procBoundary11to9
    {
        type            processor;
        value           nonuniform List<scalar> 9(8552.41330851 8547.79473648 8542.65830879 8536.9985195 8531.65252501 8434.46277046 3754.55137972 0.00912018163511 0.00245573665991);
    }
    procBoundary11to10
    {
        type            processor;
        value           nonuniform List<scalar> 
23
(
8550.35132886
8540.83433904
8540.83433904
8535.49907721
8535.49907721
8533.79255802
8528.74823629
8523.88903776
8523.88903776
8522.47485039
8522.47485039
8521.19379865
8517.20233546
8510.18359191
8510.18359191
8506.69485041
8503.58288282
8500.89342576
8498.6728353
8498.6728353
8501.04318316
8499.96106262
8499.39317555
)
;
    }
}


// ************************************************************************* //
