/*--------------------------------*- C++ -*----------------------------------*\
| =========                 |                                                 |
| \\      /  F ield         | OpenFOAM: The Open Source CFD Toolbox           |
|  \\    /   O peration     | Version:  v2012                                 |
|   \\  /    A nd           | Website:  www.openfoam.com                      |
|    \\/     M anipulation  |                                                 |
\*---------------------------------------------------------------------------*/
FoamFile
{
    version     2.0;
    format      ascii;
    class       volVectorField;
    location    "3.7";
    object      U_0;
}
// * * * * * * * * * * * * * * * * * * * * * * * * * * * * * * * * * * * * * //

dimensions      [0 1 -1 0 0 0 0];


internalField   nonuniform List<vector> 
167
(
(-0.0266785202531 -0.000333323579588 -4.90737748987e-23)
(-0.029267392247 -0.000874656748113 -2.7749014732e-22)
(-0.0318946409763 -0.00153581678429 -1.130752737e-21)
(-0.0342351968256 -0.0021514028252 -3.65241568947e-21)
(-0.0365394299143 -0.00261205233766 -5.84877337639e-21)
(-0.040622650607 -0.00586515673101 -1.16547856522e-20)
(-0.0462341882435 -0.0061960485138 -1.60470481516e-20)
(-0.0410941530528 -0.00308528326202 -1.59479998805e-20)
(-0.00567495446637 -0.00470796944448 -2.98444403565e-21)
(-0.0285435992572 -0.00362957428001 -2.64533941013e-22)
(-0.0310507013135 -0.00447656333314 -7.26764806398e-22)
(-0.0334466387692 -0.00515985906332 -2.92826752678e-21)
(-0.0360911597035 -0.00579473765354 -4.35125853365e-21)
(-0.0399637046925 -0.0091385388894 -1.40207302543e-20)
(-0.0444433084479 -0.0106963742049 -2.4922450933e-20)
(-0.0393757972255 -0.00863798349469 -2.43819840454e-20)
(-0.00586467249422 -0.0150599922868 -3.83392842778e-21)
(-0.0275801162754 -0.00626949051954 -3.18459517164e-22)
(-0.0300666347945 -0.00738983014474 -1.00633718545e-21)
(-0.032612813831 -0.00837116760542 -2.64145289906e-21)
(-0.0352701168596 -0.00940037375907 -4.61447925192e-21)
(-0.038172344477 -0.012574965702 -9.52736991208e-21)
(-0.0404301883674 -0.0148002739941 -1.43322865539e-20)
(-0.0354157082637 -0.0146542826833 -1.39747592325e-20)
(-0.00383270533603 -0.0253880830657 -5.23868663228e-22)
(-0.0241194832603 -0.00740386170516 -4.60586506854e-23)
(-0.0262816041639 -0.00882117775124 -1.90518850914e-22)
(-0.0286681172778 -0.0103482832189 -4.90302690692e-22)
(-0.0312522833275 -0.0119433112181 -2.33698142103e-21)
(-0.0338133650375 -0.0138860750181 -3.51993196128e-21)
(-0.0356322001833 -0.0166814587562 -6.02870513069e-21)
(-0.0355003920048 -0.0187182787228 -8.36421469336e-21)
(-0.0308991421879 -0.0203863447719 -8.11661195252e-21)
(-0.0015996635092 -0.0318685445997 -2.4375674201e-21)
(-0.0226863698699 -0.00942897993989 -8.86217595584e-23)
(-0.0246095387604 -0.0111470141291 -4.33970698815e-22)
(-0.0267342549393 -0.0130620709593 -1.36623369035e-21)
(-0.0291516756797 -0.0152840970249 -4.31241431408e-21)
(-0.031611321511 -0.018203849302 -7.56229309375e-21)
(-0.0328237605571 -0.0209140487581 -6.47556417291e-21)
(-0.0305179325559 -0.022459351096 -6.78710328032e-21)
(-0.0264980267943 -0.0254779167294 -6.85600467109e-21)
(-0.00022789572853 -0.0343815872251 -9.0578928702e-22)
(-0.0210089262086 -0.011199847527 -1.76510672463e-22)
(-0.0226341429402 -0.0131501954475 -7.95190369004e-22)
(-0.0243888720822 -0.015354857841 -1.88218579306e-21)
(-0.0264409573306 -0.0180169785369 -3.75653989526e-21)
(-0.028605268255 -0.0215855427443 -8.09857709012e-21)
(-0.0296489716584 -0.0245129318384 -1.5884450717e-20)
(-0.0265792475267 -0.0260866723498 -2.32893358492e-20)
(-0.0237151849805 -0.029501314851 -2.29561565031e-20)
(-0.00129014305849 -0.0347224491787 -1.17369312785e-21)
(-0.0178986024046 -0.0108614839961 -5.48450017361e-23)
(-0.0191518524589 -0.0126840334551 -3.81442363534e-22)
(-0.0204608224591 -0.0147832148715 -1.16033757086e-21)
(-0.0218020407982 -0.0171395957876 -2.18109780428e-21)
(-0.0233457962438 -0.0199612192649 -3.91115705051e-21)
(-0.0250459809983 -0.0238115609762 -7.98414425337e-21)
(-0.0259009523651 -0.0270346336292 -1.8430108165e-20)
(-0.0231589049328 -0.0288343445564 -2.95165380949e-20)
(-0.0218173372897 -0.0320133681028 -2.94276170855e-20)
(-0.00372447478839 -0.0364329630288 1.77833175647e-21)
(-0.0152155985456 -0.010285288107 -1.8849167014e-23)
(-0.0161672556567 -0.0119694105974 -8.13269326471e-23)
(-0.0171800324066 -0.0138885739135 -3.28622349897e-22)
(-0.0181927100625 -0.0160678065147 -9.3118480881e-22)
(-0.0191480630795 -0.0184773674451 -2.24978571493e-21)
(-0.0201731210994 -0.0212673629595 -4.98364594549e-21)
(-0.0212657712249 -0.0250969428698 -9.47838019404e-21)
(-0.0219484242635 -0.0287763970946 -1.49869066864e-20)
(-0.0196868995304 -0.030664513738 -2.62374372851e-20)
(-0.0196412113601 -0.0330854788896 -2.61109132627e-20)
(-0.00547855534561 -0.0386601196051 -3.60326702236e-21)
(-0.0135925797814 -0.0111128528859 -8.84027448674e-24)
(-0.0143578453506 -0.0128683897718 -6.84510628774e-23)
(-0.0151452072911 -0.0148390401429 -2.2168776998e-22)
(-0.015889655244 -0.0170415179596 -7.30771573488e-22)
(-0.0165104678111 -0.0194535562929 -2.39009830167e-21)
(-0.0170529403195 -0.0221598839859 -6.48367324611e-21)
(-0.0174567910179 -0.0258585098265 -1.49791061725e-20)
(-0.01802482541 -0.0301266313919 -1.53806830984e-20)
(-0.0162228481709 -0.0318071201502 -2.19056218671e-20)
(-0.0170981629905 -0.0331448652705 -2.17855820271e-20)
(-0.0061683255405 -0.039519455358 -1.2082320777e-21)
(-0.0125009893318 -0.0135694664004 -5.69982668123e-23)
(-0.0130800705817 -0.0155492282161 -1.91535215606e-22)
(-0.0135864380006 -0.0177409750961 -6.9616186467e-22)
(-0.0139130307123 -0.0201334395952 -1.69273276579e-21)
(-0.0140521004503 -0.0227496428901 -4.20258564048e-21)
(-0.013883498011 -0.0263440722114 -1.08298065875e-20)
(-0.014329738503 -0.0311674211026 -1.03079699021e-20)
(-0.0129608769984 -0.0322959369717 -1.82027429778e-20)
(-0.0146041007079 -0.0326490812726 -1.79430431052e-20)
(-0.00623905284807 -0.0384693376207 -2.22504789941e-21)
(-0.0106281824681 -0.0140716125519 -4.49583607e-23)
(-0.0110189040293 -0.016039182444 -1.9206147798e-22)
(-0.0113078123106 -0.0181763272548 -7.0830893378e-22)
(-0.0113745941435 -0.0205006555788 -1.35110811924e-21)
(-0.0111820526544 -0.0230159319291 -1.83440585881e-21)
(-0.0105870224828 -0.0265009476927 -4.10832272236e-21)
(-0.011030437612 -0.0317640663486 -7.8569068704e-21)
(-0.0102236751626 -0.0321031380191 -1.47490462697e-20)
(-0.0126663379687 -0.0315437047367 -1.46349289277e-20)
(-0.0067960773914 -0.0351731927283 -1.99894732522e-21)
(-0.00876815372938 -0.014399168393 -3.4233178316e-24)
(-0.00899754638064 -0.0163123665461 -1.418046242e-22)
(-0.00910187545878 -0.0183677278478 -7.89154048184e-22)
(-0.00897317737613 -0.0206001199562 -1.89501983854e-21)
(-0.00850875858829 -0.0229697448244 -1.54319805421e-21)
(-0.00760378559033 -0.0262695422163 -1.37680657681e-21)
(-0.0082894020497 -0.0320584426234 -1.07320187138e-21)
(-0.0082688428294 -0.0314292038298 -1.49980845129e-20)
(-0.0117188427323 -0.0295455874444 -1.462427075e-20)
(-0.00812631419789 -0.0306170814996 -1.2462081682e-21)
(-0.00694267040306 -0.0145562494724 7.06504197002e-23)
(-0.00703738613598 -0.0163939494879 -5.20000462234e-23)
(-0.00699349905537 -0.0183449892605 -9.52430432782e-22)
(-0.00671506540601 -0.020432145573 -2.66508833209e-21)
(-0.0060672916124 -0.022540964624 -3.24398733022e-21)
(-0.00516921927979 -0.0254383251073 -3.63741456376e-21)
(-0.00645998055566 -0.0317809616638 -5.7613765047e-22)
(-0.00714034576021 -0.0301211026475 -1.67654376238e-20)
(-0.0114719574806 -0.0263420025117 -1.62036817903e-20)
(-0.0104525765487 -0.0275052576851 -1.23650625821e-21)
(-0.00517799586373 -0.0144871307373 1.96793304617e-22)
(-0.00516800007038 -0.0162161204762 1.45282778967e-22)
(-0.00501243385701 -0.0180276980689 -5.25769632791e-22)
(-0.00462915875271 -0.019917284887 -2.54080287663e-21)
(-0.00392886929462 -0.021682126698 -6.84345683901e-21)
(-0.00338323759671 -0.0240357447572 -1.632733651e-20)
(-0.00538075915866 -0.0309237744703 -1.17571446613e-20)
(-0.00652117951242 -0.0285142188218 -1.2300674855e-20)
(-0.0105958609324 -0.0226857949597 -1.23256724341e-20)
(-0.0100896314718 -0.0283348990483 -1.01987320038e-21)
(-0.00347756967378 -0.0125594586836 3.02919011897e-22)
(-0.00348973935918 -0.0141209303853 4.07284205833e-22)
(-0.00341615452922 -0.0157098130963 4.40372177022e-22)
(-0.00320665908071 -0.0173298543002 -1.08174618224e-22)
(-0.00279412134265 -0.0189459711204 -1.29527961632e-21)
(-0.00220083265841 -0.0203362252801 -3.49413785653e-21)
(-0.0022254275527 -0.0222875846999 -1.02514530488e-20)
(-0.00452755255727 -0.0299156431207 -3.47161913109e-21)
(-0.00560676312586 -0.0275074089861 -1.80150143559e-20)
(-0.00933925757184 -0.0190293823708 -1.60296851401e-20)
(-0.00540885658475 -0.0214318259631 -8.28469460599e-22)
(-0.00199919103333 -0.0119455311998 4.27767054592e-22)
(-0.00198578099818 -0.0133883844484 6.58981046771e-22)
(-0.00190257029001 -0.0148264019879 7.9786084448e-22)
(-0.00170633473912 -0.016224603804 3.41468618476e-22)
(-0.00135764288366 -0.0174889422351 -3.99729301614e-23)
(-0.000997028756165 -0.0184316948222 8.09769658459e-22)
(-0.00148294086392 -0.0202031333316 -3.52785401724e-24)
(-0.00274105560136 -0.0290863785762 9.90136043136e-22)
(-0.00303728309741 -0.0278184867676 3.05879778277e-21)
(-0.00611122869346 -0.01648586703 2.97972499723e-21)
(-0.015498813987 -0.00465200583874 4.6641634237e-23)
(-0.000779850954875 -0.0108669719119 7.68735742361e-22)
(-0.000766056471063 -0.0121555744357 8.21372580809e-22)
(-0.000715009022234 -0.0134154695897 1.04417321116e-21)
(-0.000566062515921 -0.0145360738669 2.2303215337e-22)
(-0.000294086814343 -0.0153560096708 -1.19620009129e-21)
(3.34626918392e-05 -0.0157075315122 9.29958630522e-22)
(-9.61150532647e-06 -0.0167923974719 -1.22510460217e-22)
(-0.00213810296322 -0.0265505831845 2.35920044738e-20)
(-0.0139662615331 -0.0236231371679 3.68608880439e-20)
(-0.0367042363469 -0.0193933280824 3.54094663766e-20)
(-3.61182658978e-05 -0.0578363465329 2.14144925693e-21)
)
;

boundaryField
{
    back
    {
        type            noSlip;
    }
    sides
    {
        type            noSlip;
    }
    bottom
    {
        type            noSlip;
    }
    front
    {
        type            noSlip;
    }
    atmosphere
    {
        type            pressureInletOutletVelocity;
        value           nonuniform List<vector> 
17
(
(0 -0.00470796944448 0)
(0 -0.0150599922868 0)
(0 -0.0253880830657 0)
(0 -0.0318685445997 0)
(0 -0.0343815872251 0)
(0 -0.0347224491787 0)
(0 -0.0364329630288 0)
(0 -0.0386601196051 0)
(0 -0.039519455358 0)
(0 -0.0384693376207 0)
(0 -0.0351731927283 0)
(0 -0.0306170814996 0)
(0 -0.0275052576851 0)
(0 -0.0283348990483 0)
(0 -0.0214318259631 0)
(0 -0.00465200583874 0)
(0 -0.0578363465329 0)
)
;
    }
    floatingObject
    {
        type            movingWallVelocity;
        value           nonuniform List<vector> 0();
    }
    procBoundary11to9
    {
        type            processor;
        value           nonuniform List<vector> 9((-0.0269596372144 0.00230660768433 -8.3719079701e-23) (-0.0297341674618 0.00210489118817 -2.50197394692e-22) (-0.0326004252279 0.00174555368695 -9.41344768077e-22) (-0.0350656595063 0.00127833930898 -3.53699817207e-21) (-0.0367854703757 0.00123285706605 -7.73239900664e-21) (-0.0408656584085 -0.00193263549505 -7.08705237936e-21) (-0.0465139903906 -0.0013850007715 -1.06200639957e-20) (-0.0413526608902 0.001690014313 -1.05034398712e-20) (-0.00423390602276 0.00183718318242 -1.52971014808e-21));
    }
    procBoundary11to10
    {
        type            processor;
        value           nonuniform List<vector> 
23
(
(-0.0243211018431 2.00010536066e-05 -1.90088883618e-23)
(-0.0261038704464 -0.00282518400636 -4.85958562051e-23)
(-0.0261038704464 -0.00282518400636 -4.85958562051e-23)
(-0.0252591120487 -0.0051810404383 -5.73284243193e-23)
(-0.0252591120487 -0.0051810404383 -5.73284243193e-23)
(-0.02218523013 -0.00618846369932 -1.34788406938e-23)
(-0.0209533627288 -0.00795768333798 -4.85849987413e-24)
(-0.019509219802 -0.00952262207159 -1.04190034881e-23)
(-0.019509219802 -0.00952262207159 -1.04190034881e-23)
(-0.0167500971016 -0.00927626939608 -7.75509433015e-24)
(-0.0167500971016 -0.00927626939608 -7.75509433015e-24)
(-0.0143459486958 -0.00877986506214 -2.7446176917e-24)
(-0.0128787935654 -0.00953176651499 6.99104102731e-24)
(-0.0119121490494 -0.0117803509979 -1.30982830528e-23)
(-0.0119121490494 -0.0117803509979 -1.30982830528e-23)
(-0.0101984223945 -0.0122709877726 1.05830938189e-24)
(-0.00847816835982 -0.0126229055776 2.99642220441e-23)
(-0.00677367241348 -0.0128202684505 6.49707926925e-23)
(-0.00510252326297 -0.0128246198998 1.41278663439e-22)
(-0.00510252326297 -0.0128246198998 1.41278663439e-22)
(-0.00341843239016 -0.0110401165482 4.33179476951e-22)
(-0.00197172548211 -0.0105242549691 6.8648196828e-22)
(-0.00076781562425 -0.0095912179231 9.68871273217e-22)
)
;
    }
}


// ************************************************************************* //
