/*--------------------------------*- C++ -*----------------------------------*\
| =========                 |                                                 |
| \\      /  F ield         | OpenFOAM: The Open Source CFD Toolbox           |
|  \\    /   O peration     | Version:  v2012                                 |
|   \\  /    A nd           | Website:  www.openfoam.com                      |
|    \\/     M anipulation  |                                                 |
\*---------------------------------------------------------------------------*/
FoamFile
{
    version     2.0;
    format      ascii;
    class       volScalarField;
    location    "3.7";
    object      k;
}
// * * * * * * * * * * * * * * * * * * * * * * * * * * * * * * * * * * * * * //

dimensions      [0 2 -2 0 0 0 0];


internalField   nonuniform List<scalar> 
167
(
0.00321410129922
0.0032378965457
0.00324866093524
0.00325618392507
0.00326363134493
0.00327222018093
0.00328336899019
0.0033005969787
0.00295795031211
0.00314140100588
0.00320647944142
0.00323030773184
0.00324118191986
0.00324885100532
0.00325647183327
0.00326528338146
0.00327676126889
0.003294646528
0.00332853761428
0.00295057357905
0.00313353652536
0.00319850343188
0.00322240874911
0.00323343394742
0.0032412862195
0.00324911369017
0.00325818235161
0.00327004745548
0.00328868054169
0.00332401006568
0.00294282076216
0.00312532102394
0.00319021753347
0.0032142391255
0.00322545499474
0.00323352905112
0.00324160328233
0.00325096897818
0.00326328982684
0.00328274458297
0.00235181525371
0.00293467904468
0.00311678544037
0.00318166020471
0.00320583960504
0.00321728543928
0.00322562065718
0.00323397966341
0.00324369004381
0.00325650007347
0.0032768567488
0.00234446890308
0.00292625823816
0.00310798696953
0.00317287381775
0.00319725174001
0.00320896994894
0.00321760956433
0.00322630085559
0.00323638802387
0.00324974381503
0.00327098465887
0.00233676204236
0.00291756855235
0.00309896116737
0.00316390098918
0.00318852152211
0.00320056120971
0.00320955616784
0.00321861634923
0.00322913316426
0.00324303015924
0.00232879463008
0.00290863831432
0.00308973202543
0.00315477340088
0.00317969135
0.0031921088834
0.00320150487204
0.0032109789976
0.00322194776793
0.00232059190361
0.0028994587819
0.003080305612
0.00314550321847
0.00317078094127
0.00318363308567
0.00319347296922
0.00320340728228
0.00321485637155
0.00231209300922
0.00288999843722
0.00307060891324
0.00313601165241
0.00316170874975
0.00317504657587
0.003185387473
0.00319581396389
0.00320778822646
0.00322352020298
0.00230314960179
0.0028799566453
0.00306028779611
0.00312592084747
0.00315208861339
0.00316597030788
0.00317685529923
0.00318779574859
0.00320028016072
0.00321664238927
0.00229330530962
0.00286835290966
0.00304819304642
0.00311400331189
0.00314066029595
0.00315512031935
0.00316655986824
0.00317801148517
0.00319097955205
0.00320790477681
0.00228079586424
0.00285238981641
0.00303097809531
0.00309667627697
0.00312374254909
0.0031387565428
0.0031507225552
0.0031626219116
0.00317597407659
0.00319333316316
0.00226063765398
0.0028238702044
0.00299923176145
0.00306403312951
0.00309123342573
0.00310667256884
0.00311906546338
0.00313127662455
0.00314484123772
0.00316232926308
0.00221837572225
0.0027602701504
0.00292751858498
0.00298955147008
0.00301622049602
0.00303179077713
0.00304439219717
0.00305670979086
0.00307018325501
0.00211273002237
0.0025993220823
0.00274701355734
0.00280219507644
0.00282687045262
0.00284196349017
0.00285437846341
0.00286646087651
0.00287946893976
0.00180314842937
0.00210682334557
0.00220495766204
0.00224276026866
0.00226143368029
0.00227442674331
0.00228598871678
0.00229751977292
0.00230977688684
)
;

boundaryField
{
    back
    {
        type            kqRWallFunction;
        value           nonuniform List<scalar> 
167
(
0.00321410129922
0.0032378965457
0.00324866093524
0.00325618392507
0.00326363134493
0.00327222018093
0.00328336899019
0.0033005969787
0.00295795031211
0.00314140100588
0.00320647944142
0.00323030773184
0.00324118191986
0.00324885100532
0.00325647183327
0.00326528338146
0.00327676126889
0.003294646528
0.00332853761428
0.00295057357905
0.00313353652536
0.00319850343188
0.00322240874911
0.00323343394742
0.0032412862195
0.00324911369017
0.00325818235161
0.00327004745548
0.00328868054169
0.00332401006568
0.00294282076216
0.00312532102394
0.00319021753347
0.0032142391255
0.00322545499474
0.00323352905112
0.00324160328233
0.00325096897818
0.00326328982684
0.00328274458297
0.00235181525371
0.00293467904468
0.00311678544037
0.00318166020471
0.00320583960504
0.00321728543928
0.00322562065718
0.00323397966341
0.00324369004381
0.00325650007347
0.0032768567488
0.00234446890308
0.00292625823816
0.00310798696953
0.00317287381775
0.00319725174001
0.00320896994894
0.00321760956433
0.00322630085559
0.00323638802387
0.00324974381503
0.00327098465887
0.00233676204236
0.00291756855235
0.00309896116737
0.00316390098918
0.00318852152211
0.00320056120971
0.00320955616784
0.00321861634923
0.00322913316426
0.00324303015924
0.00232879463008
0.00290863831432
0.00308973202543
0.00315477340088
0.00317969135
0.0031921088834
0.00320150487204
0.0032109789976
0.00322194776793
0.00232059190361
0.0028994587819
0.003080305612
0.00314550321847
0.00317078094127
0.00318363308567
0.00319347296922
0.00320340728228
0.00321485637155
0.00231209300922
0.00288999843722
0.00307060891324
0.00313601165241
0.00316170874975
0.00317504657587
0.003185387473
0.00319581396389
0.00320778822646
0.00322352020298
0.00230314960179
0.0028799566453
0.00306028779611
0.00312592084747
0.00315208861339
0.00316597030788
0.00317685529923
0.00318779574859
0.00320028016072
0.00321664238927
0.00229330530962
0.00286835290966
0.00304819304642
0.00311400331189
0.00314066029595
0.00315512031935
0.00316655986824
0.00317801148517
0.00319097955205
0.00320790477681
0.00228079586424
0.00285238981641
0.00303097809531
0.00309667627697
0.00312374254909
0.0031387565428
0.0031507225552
0.0031626219116
0.00317597407659
0.00319333316316
0.00226063765398
0.0028238702044
0.00299923176145
0.00306403312951
0.00309123342573
0.00310667256884
0.00311906546338
0.00313127662455
0.00314484123772
0.00316232926308
0.00221837572225
0.0027602701504
0.00292751858498
0.00298955147008
0.00301622049602
0.00303179077713
0.00304439219717
0.00305670979086
0.00307018325501
0.00211273002237
0.0025993220823
0.00274701355734
0.00280219507644
0.00282687045262
0.00284196349017
0.00285437846341
0.00286646087651
0.00287946893976
0.00180314842937
0.00210682334557
0.00220495766204
0.00224276026866
0.00226143368029
0.00227442674331
0.00228598871678
0.00229751977292
0.00230977688684
)
;
    }
    sides
    {
        type            kqRWallFunction;
        value           nonuniform List<scalar> 9(0.00180314842937 0.00210682334557 0.00220495766204 0.00224276026866 0.00226143368029 0.00227442674331 0.00228598871678 0.00229751977292 0.00230977688684);
    }
    bottom
    {
        type            kqRWallFunction;
        value           nonuniform List<scalar> 
13
(
0.00235181525371
0.00234446890308
0.00233676204236
0.00232879463008
0.00232059190361
0.00231209300922
0.00230314960179
0.00229330530962
0.00228079586424
0.00226063765398
0.00221837572225
0.00211273002237
0.00180314842937
)
;
    }
    front
    {
        type            kqRWallFunction;
        value           nonuniform List<scalar> 
167
(
0.00321410129922
0.0032378965457
0.00324866093524
0.00325618392507
0.00326363134493
0.00327222018093
0.00328336899019
0.0033005969787
0.00295795031211
0.00314140100588
0.00320647944142
0.00323030773184
0.00324118191986
0.00324885100532
0.00325647183327
0.00326528338146
0.00327676126889
0.003294646528
0.00332853761428
0.00295057357905
0.00313353652536
0.00319850343188
0.00322240874911
0.00323343394742
0.0032412862195
0.00324911369017
0.00325818235161
0.00327004745548
0.00328868054169
0.00332401006568
0.00294282076216
0.00312532102394
0.00319021753347
0.0032142391255
0.00322545499474
0.00323352905112
0.00324160328233
0.00325096897818
0.00326328982684
0.00328274458297
0.00235181525371
0.00293467904468
0.00311678544037
0.00318166020471
0.00320583960504
0.00321728543928
0.00322562065718
0.00323397966341
0.00324369004381
0.00325650007347
0.0032768567488
0.00234446890308
0.00292625823816
0.00310798696953
0.00317287381775
0.00319725174001
0.00320896994894
0.00321760956433
0.00322630085559
0.00323638802387
0.00324974381503
0.00327098465887
0.00233676204236
0.00291756855235
0.00309896116737
0.00316390098918
0.00318852152211
0.00320056120971
0.00320955616784
0.00321861634923
0.00322913316426
0.00324303015924
0.00232879463008
0.00290863831432
0.00308973202543
0.00315477340088
0.00317969135
0.0031921088834
0.00320150487204
0.0032109789976
0.00322194776793
0.00232059190361
0.0028994587819
0.003080305612
0.00314550321847
0.00317078094127
0.00318363308567
0.00319347296922
0.00320340728228
0.00321485637155
0.00231209300922
0.00288999843722
0.00307060891324
0.00313601165241
0.00316170874975
0.00317504657587
0.003185387473
0.00319581396389
0.00320778822646
0.00322352020298
0.00230314960179
0.0028799566453
0.00306028779611
0.00312592084747
0.00315208861339
0.00316597030788
0.00317685529923
0.00318779574859
0.00320028016072
0.00321664238927
0.00229330530962
0.00286835290966
0.00304819304642
0.00311400331189
0.00314066029595
0.00315512031935
0.00316655986824
0.00317801148517
0.00319097955205
0.00320790477681
0.00228079586424
0.00285238981641
0.00303097809531
0.00309667627697
0.00312374254909
0.0031387565428
0.0031507225552
0.0031626219116
0.00317597407659
0.00319333316316
0.00226063765398
0.0028238702044
0.00299923176145
0.00306403312951
0.00309123342573
0.00310667256884
0.00311906546338
0.00313127662455
0.00314484123772
0.00316232926308
0.00221837572225
0.0027602701504
0.00292751858498
0.00298955147008
0.00301622049602
0.00303179077713
0.00304439219717
0.00305670979086
0.00307018325501
0.00211273002237
0.0025993220823
0.00274701355734
0.00280219507644
0.00282687045262
0.00284196349017
0.00285437846341
0.00286646087651
0.00287946893976
0.00180314842937
0.00210682334557
0.00220495766204
0.00224276026866
0.00226143368029
0.00227442674331
0.00228598871678
0.00229751977292
0.00230977688684
)
;
    }
    atmosphere
    {
        type            inletOutlet;
        inletValue      nonuniform List<scalar> 0();
        value           nonuniform List<scalar> 0();
    }
    floatingObject
    {
        type            kqRWallFunction;
        value           nonuniform List<scalar> 0();
    }
    procBoundary10to9
    {
        type            processor;
        value           nonuniform List<scalar> 
15
(
0.00322133569002
0.00324513272694
0.0032558228606
0.00326324878404
0.00327057145831
0.00327900624763
0.0032898539554
0.00330653937796
0.00296493290747
0.00314887764154
0.00314887764154
0.00237189562662
0.00236557222813
0.00235884968372
0.00235884968372
)
;
    }
    procBoundary10to11
    {
        type            processor;
        value           nonuniform List<scalar> 
23
(
0.0033333274111
0.0033333274111
0.00340127823183
0.00339920384324
0.00331978323403
0.00331978323403
0.00331567268991
0.00331149286688
0.00326518188562
0.00326518188562
0.00323642523634
0.00323642523634
0.00322996162665
0.00322996162665
0.00324853783943
0.00324263463009
0.00323479798039
0.00322093106691
0.00319015560423
0.00308732388724
0.00308732388724
0.00289559447968
0.0023241654336
)
;
    }
}


// ************************************************************************* //
