/*--------------------------------*- C++ -*----------------------------------*\
| =========                 |                                                 |
| \\      /  F ield         | OpenFOAM: The Open Source CFD Toolbox           |
|  \\    /   O peration     | Version:  v2012                                 |
|   \\  /    A nd           | Website:  www.openfoam.com                      |
|    \\/     M anipulation  |                                                 |
\*---------------------------------------------------------------------------*/
FoamFile
{
    version     2.0;
    format      ascii;
    class       volScalarField;
    location    "0.4";
    object      ddt0(k);
}
// * * * * * * * * * * * * * * * * * * * * * * * * * * * * * * * * * * * * * //

dimensions      [0 2 -3 0 0 0 0];


internalField   nonuniform List<scalar> 
167
(
-0.0732252517333
-0.0731842093395
-0.073143722545
-0.0731039152106
-0.0730648891048
-0.07302637504
-0.0729830773554
-0.0728736333039
-0.0721372825689
-0.0669648531053
-0.0422153784499
0.00066289838753
-0.0779084255095
-0.077865715106
-0.0778231086249
-0.0777807110511
-0.0777385261261
-0.0776956278657
-0.0776413769114
-0.0774758723074
-0.0764351896502
-0.0701659231352
-0.0443565832007
-0.00197683828389
-0.0769792821479
-0.0769382154271
-0.0768973737081
-0.0768569126653
-0.076816915703
-0.0767765028055
-0.0767245955624
-0.0765573393107
-0.0754962684915
-0.0692152129093
-0.0438025476026
-0.00204653882071
-0.0765266022932
-0.0764883803757
-0.0764505881505
-0.0764133467667
-0.0763758020042
-0.0763266640829
-0.076160338672
-0.0750907136904
-0.0687826937683
-0.0434140069555
-0.00196367475571
-0.0763933262722
-0.0763572274833
-0.0763215712132
-0.0762855175386
-0.0762375010306
-0.0760697283966
-0.0749846410258
-0.0686146715311
-0.0431608114797
-0.00187931292852
-0.0763628155269
-0.0763279614304
-0.0762933868811
-0.0762582373989
-0.0762105747279
-0.0760397351434
-0.074932969215
-0.0684773055238
-0.0428896050154
-0.00178275903506
-0.0763390446732
-0.076305361173
-0.0762717773063
-0.0762374083654
-0.0761898389211
-0.0760148233217
-0.0748807920723
-0.0683189165475
-0.0425660285388
-0.00166895982148
-0.0763134412895
-0.0762809117752
-0.0762483033673
-0.0762146829569
-0.0761670439116
-0.0759868063342
-0.0748198968778
-0.0681318464685
-0.0421864568516
-0.001537077217
-0.0762851805702
-0.0762537612969
-0.0762220936581
-0.0761891753631
-0.0761412833955
-0.0759546934028
-0.0747489974856
-0.0679145418991
-0.041750891781
-0.0013870911874
-0.0762543530821
-0.076223966968
-0.0761931725168
-0.0761608780383
-0.0761125049485
-0.0759182998152
-0.0746674810071
-0.067665769578
-0.0412591684303
-0.00121909592674
-0.076221126699
-0.0761916629727
-0.0761616421709
-0.0761298598205
-0.0760807252346
-0.075877480441
-0.0745746751801
-0.067384039539
-0.040710830196
-0.00103318806398
-0.0761856497438
-0.076156972768
-0.0761275973305
-0.0760961827483
-0.0760459486368
-0.0758320489734
-0.0744697725742
-0.0670675866806
-0.0401052474037
-0.000829452424592
-0.0761480576037
-0.0761200045451
-0.0760911184428
-0.0760598941815
-0.0760081580042
-0.0757817655092
-0.0743518143144
-0.0667143785676
-0.0394416885658
-0.000607958227792
-0.0761084608843
-0.0760808472379
-0.0760522684134
-0.0760210230928
-0.0759673111395
-0.0757263288029
-0.0742196762998
-0.0663221145922
-0.0387193606914
-0.00036874630108
-0.0760669589056
-0.0760395841486
-0.0760111006244
-0.0759795904088
-0.0759233406953
-0.0756653721859
-0.0740720471278
-0.0658882169596
-0.037937431112
-0.000111802666846
-0.0760236764143
-0.0759962907812
-0.0759676685875
-0.0759355927898
-0.0758761555426
-0.0755984369352
-0.0739074177976
-0.0654098154148
-0.0370950631219
0.000162976392405
)
;

boundaryField
{
    back
    {
        type            calculated;
        value           nonuniform List<scalar> 
167
(
-0.0732252517333
-0.0731842093395
-0.073143722545
-0.0731039152106
-0.0730648891048
-0.07302637504
-0.0729830773553
-0.0728736333039
-0.0721372825689
-0.0669648531053
-0.0422153784499
0.00066289838753
-0.0779084255095
-0.077865715106
-0.0778231086249
-0.0777807110511
-0.0777385261261
-0.0776956278657
-0.0776413769114
-0.0774758723074
-0.0764351896502
-0.0701659231352
-0.0443565832007
-0.00197683828389
-0.0769792821479
-0.0769382154271
-0.0768973737081
-0.0768569126653
-0.076816915703
-0.0767765028055
-0.0767245955624
-0.0765573393107
-0.0754962684915
-0.0692152129093
-0.0438025476026
-0.00204653882071
-0.0765266022932
-0.0764883803757
-0.0764505881505
-0.0764133467667
-0.0763758020042
-0.0763266640829
-0.076160338672
-0.0750907136904
-0.0687826937683
-0.0434140069555
-0.00196367475571
-0.0763933262722
-0.0763572274833
-0.0763215712132
-0.0762855175386
-0.0762375010306
-0.0760697283966
-0.0749846410258
-0.0686146715311
-0.0431608114797
-0.00187931292852
-0.0763628155269
-0.0763279614304
-0.0762933868811
-0.0762582373989
-0.0762105747279
-0.0760397351434
-0.074932969215
-0.0684773055239
-0.0428896050154
-0.00178275903506
-0.0763390446732
-0.076305361173
-0.0762717773063
-0.0762374083654
-0.0761898389211
-0.0760148233217
-0.0748807920723
-0.0683189165475
-0.0425660285388
-0.00166895982148
-0.0763134412895
-0.0762809117752
-0.0762483033673
-0.0762146829569
-0.0761670439116
-0.0759868063342
-0.0748198968778
-0.0681318464685
-0.0421864568516
-0.001537077217
-0.0762851805702
-0.0762537612969
-0.0762220936581
-0.0761891753631
-0.0761412833955
-0.0759546934028
-0.0747489974856
-0.0679145418991
-0.041750891781
-0.0013870911874
-0.0762543530821
-0.076223966968
-0.0761931725168
-0.0761608780383
-0.0761125049485
-0.0759182998152
-0.0746674810071
-0.067665769578
-0.0412591684303
-0.00121909592674
-0.076221126699
-0.0761916629727
-0.0761616421709
-0.0761298598205
-0.0760807252346
-0.075877480441
-0.0745746751801
-0.067384039539
-0.040710830196
-0.00103318806398
-0.0761856497438
-0.076156972768
-0.0761275973305
-0.0760961827483
-0.0760459486368
-0.0758320489734
-0.0744697725742
-0.0670675866806
-0.0401052474037
-0.000829452424591
-0.0761480576037
-0.0761200045451
-0.0760911184428
-0.0760598941815
-0.0760081580042
-0.0757817655092
-0.0743518143144
-0.0667143785676
-0.0394416885658
-0.000607958227792
-0.0761084608843
-0.0760808472379
-0.0760522684134
-0.0760210230928
-0.0759673111395
-0.0757263288029
-0.0742196762998
-0.0663221145922
-0.0387193606914
-0.000368746301079
-0.0760669589056
-0.0760395841486
-0.0760111006244
-0.0759795904088
-0.0759233406953
-0.0756653721859
-0.0740720471278
-0.0658882169596
-0.037937431112
-0.000111802666846
-0.0760236764143
-0.0759962907812
-0.0759676685875
-0.0759355927898
-0.0758761555426
-0.0755984369352
-0.0739074177976
-0.0654098154148
-0.0370950631219
0.000162976392404
)
;
    }
    sides
    {
        type            calculated;
        value           nonuniform List<scalar> 
12
(
-0.0732252517333
-0.0731842093395
-0.073143722545
-0.0731039152106
-0.0730648891048
-0.07302637504
-0.0729830773553
-0.0728736333039
-0.0721372825689
-0.0669648531053
-0.0422153784499
0.00066289838753
)
;
    }
    bottom
    {
        type            calculated;
        value           nonuniform List<scalar> 0();
    }
    front
    {
        type            calculated;
        value           nonuniform List<scalar> 
167
(
-0.0732252517333
-0.0731842093395
-0.073143722545
-0.0731039152106
-0.0730648891048
-0.07302637504
-0.0729830773553
-0.0728736333039
-0.0721372825689
-0.0669648531053
-0.0422153784499
0.00066289838753
-0.0779084255095
-0.077865715106
-0.0778231086249
-0.0777807110511
-0.0777385261261
-0.0776956278657
-0.0776413769114
-0.0774758723074
-0.0764351896502
-0.0701659231352
-0.0443565832007
-0.00197683828389
-0.0769792821479
-0.0769382154271
-0.0768973737081
-0.0768569126653
-0.076816915703
-0.0767765028055
-0.0767245955624
-0.0765573393107
-0.0754962684915
-0.0692152129093
-0.0438025476026
-0.00204653882071
-0.0765266022932
-0.0764883803757
-0.0764505881505
-0.0764133467667
-0.0763758020042
-0.0763266640829
-0.076160338672
-0.0750907136904
-0.0687826937683
-0.0434140069555
-0.00196367475571
-0.0763933262722
-0.0763572274833
-0.0763215712132
-0.0762855175386
-0.0762375010306
-0.0760697283966
-0.0749846410258
-0.0686146715311
-0.0431608114797
-0.00187931292852
-0.0763628155269
-0.0763279614304
-0.0762933868811
-0.0762582373989
-0.0762105747279
-0.0760397351434
-0.074932969215
-0.0684773055239
-0.0428896050154
-0.00178275903506
-0.0763390446732
-0.076305361173
-0.0762717773063
-0.0762374083654
-0.0761898389211
-0.0760148233217
-0.0748807920723
-0.0683189165475
-0.0425660285388
-0.00166895982148
-0.0763134412895
-0.0762809117752
-0.0762483033673
-0.0762146829569
-0.0761670439116
-0.0759868063342
-0.0748198968778
-0.0681318464685
-0.0421864568516
-0.001537077217
-0.0762851805702
-0.0762537612969
-0.0762220936581
-0.0761891753631
-0.0761412833955
-0.0759546934028
-0.0747489974856
-0.0679145418991
-0.041750891781
-0.0013870911874
-0.0762543530821
-0.076223966968
-0.0761931725168
-0.0761608780383
-0.0761125049485
-0.0759182998152
-0.0746674810071
-0.067665769578
-0.0412591684303
-0.00121909592674
-0.076221126699
-0.0761916629727
-0.0761616421709
-0.0761298598205
-0.0760807252346
-0.075877480441
-0.0745746751801
-0.067384039539
-0.040710830196
-0.00103318806398
-0.0761856497438
-0.076156972768
-0.0761275973305
-0.0760961827483
-0.0760459486368
-0.0758320489734
-0.0744697725742
-0.0670675866806
-0.0401052474037
-0.000829452424591
-0.0761480576037
-0.0761200045451
-0.0760911184428
-0.0760598941815
-0.0760081580042
-0.0757817655092
-0.0743518143144
-0.0667143785676
-0.0394416885658
-0.000607958227792
-0.0761084608843
-0.0760808472379
-0.0760522684134
-0.0760210230928
-0.0759673111395
-0.0757263288029
-0.0742196762998
-0.0663221145922
-0.0387193606914
-0.000368746301079
-0.0760669589056
-0.0760395841486
-0.0760111006244
-0.0759795904088
-0.0759233406953
-0.0756653721859
-0.0740720471278
-0.0658882169596
-0.037937431112
-0.000111802666846
-0.0760236764143
-0.0759962907812
-0.0759676685875
-0.0759355927898
-0.0758761555426
-0.0755984369352
-0.0739074177976
-0.0654098154148
-0.0370950631219
0.000162976392404
)
;
    }
    atmosphere
    {
        type            calculated;
        value           uniform 0;
    }
    floatingObject
    {
        type            calculated;
        value           nonuniform List<scalar> 0();
    }
    procBoundary1to0
    {
        type            processor;
        value           nonuniform List<scalar> 10(-0.0759786906124 -0.075951032143 -0.0759219896125 -0.0758890244941 -0.0758256213109 -0.0755250073027 -0.0737240513867 -0.0648837593897 -0.036191442916 0.00045584865839);
    }
    procBoundary1to2
    {
        type            processor;
        value           nonuniform List<scalar> 
18
(
-0.0732667487033
-0.0779511605604
-0.0770203558372
-0.0765650208561
-0.0765650208561
-0.0764297358947
-0.0764297358947
-0.0763978065968
-0.076372662517
-0.0763457153314
-0.076316168873
-0.0762841555561
-0.0762498681418
-0.0762134854877
-0.0761751570362
-0.0761350183059
-0.0760931957668
-0.0760497968426
)
;
    }
}


// ************************************************************************* //
