/*--------------------------------*- C++ -*----------------------------------*\
| =========                 |                                                 |
| \\      /  F ield         | OpenFOAM: The Open Source CFD Toolbox           |
|  \\    /   O peration     | Version:  v2012                                 |
|   \\  /    A nd           | Website:  www.openfoam.com                      |
|    \\/     M anipulation  |                                                 |
\*---------------------------------------------------------------------------*/
FoamFile
{
    version     2.0;
    format      ascii;
    class       volScalarField;
    location    "0.4";
    object      epsilon;
}
// * * * * * * * * * * * * * * * * * * * * * * * * * * * * * * * * * * * * * //

dimensions      [0 2 -3 0 0 0 0];


internalField   nonuniform List<scalar> 
167
(
0.0778700062287
0.0779125350805
0.0779532762611
0.0779920246468
0.0780285855214
0.0780628306193
0.0780956163366
0.0781410391879
0.078365046785
0.0803818836036
0.0969343670652
0.208821409343
0.0734691149524
0.0735037070956
0.073537433315
0.0735701257789
0.0736016464972
0.0736320212162
0.0736629856415
0.0737146905912
0.0739827373082
0.0760552052855
0.0902831503773
0.16826300146
0.0759614518012
0.0759931594863
0.0760238559027
0.0760533416615
0.0760814419113
0.0761081440763
0.0761352072853
0.0761836455745
0.0764550693225
0.0785522839925
0.0927150189783
0.169421741321
0.0763598654212
0.0763885435998
0.0764160444122
0.0764421658371
0.0764668692296
0.076491929643
0.0765387145223
0.0768112145258
0.0789212174987
0.0931079245945
0.16960625898
0.076444625204
0.0764709599368
0.0764960424755
0.0765198067835
0.0765440540521
0.0765905822736
0.0768664468578
0.0789979866332
0.093254075232
0.16970956472
0.076467090958
0.0764924150281
0.0765166414493
0.0765396852796
0.0765633918858
0.0766101234518
0.0768909307079
0.0790513877764
0.0934019917431
0.169825589377
0.0764891421543
0.0765134384953
0.0765367969717
0.0765591195465
0.0765823154711
0.0766294560512
0.076916536328
0.0791127376175
0.0935789205383
0.169963881068
0.0765140737528
0.0765373297153
0.076559802688
0.0765813881956
0.0766040813517
0.0766518169149
0.0769465175601
0.0791853223645
0.0937874999644
0.170125865865
0.076542106286
0.0765643417792
0.076585938509
0.0766067929705
0.0766290100786
0.0766775553991
0.0769813191599
0.0792698447364
0.0940285816305
0.170312314128
0.0765732131601
0.0765944777099
0.0766152353099
0.0766353897523
0.0766571818153
0.0767067918888
0.0770211925027
0.0793669349311
0.0943032093707
0.170524027529
0.076607376019
0.0766277459152
0.0766477267982
0.0766672361622
0.0766886793028
0.0767396558054
0.0770664264758
0.0794773492944
0.094612680726
0.170761909256
0.0766446099589
0.0766641827091
0.0766834719685
0.0767024138638
0.0767236099521
0.0767763078459
0.0771173701382
0.0796019866086
0.0949585270654
0.171026984891
0.0766849588189
0.0767038531829
0.0767225576055
0.0767410319886
0.0767621099766
0.0768169451241
0.0771744408951
0.0797418992769
0.0953425182513
0.171320424282
0.0767284993711
0.0767468535175
0.0767651012704
0.0767832308367
0.0768043481872
0.0768618061746
0.077238133122
0.0798983093908
0.0957666820823
0.171643566576
0.0767753346145
0.0767933046103
0.0768112468119
0.0768291768003
0.076850524977
0.0769111720972
0.0773090292584
0.0800726307421
0.0962333385029
0.171997952538
0.0768255764328
0.0768433500834
0.0768611602645
0.0768790693855
0.0769008748412
0.0769653806505
0.0773878120551
0.0802665021014
0.0967451341743
0.172385361075
)
;

boundaryField
{
    back
    {
        lowReCorrection 0;
        blending        stepwise;
        n               2;
        type            epsilonWallFunction;
        value           nonuniform List<scalar> 
167
(
0.0778700062287
0.0779125350805
0.0779532762611
0.0779920246468
0.0780285855214
0.0780628306193
0.0780956163366
0.0781410391879
0.078365046785
0.0803818836036
0.0969343670652
0.208821409343
0.0734691149524
0.0735037070956
0.073537433315
0.0735701257789
0.0736016464972
0.0736320212162
0.0736629856415
0.0737146905912
0.0739827373082
0.0760552052855
0.0902831503773
0.16826300146
0.0759614518012
0.0759931594863
0.0760238559027
0.0760533416615
0.0760814419113
0.0761081440763
0.0761352072853
0.0761836455745
0.0764550693225
0.0785522839925
0.0927150189783
0.169421741321
0.0763598654212
0.0763885435998
0.0764160444122
0.0764421658371
0.0764668692296
0.076491929643
0.0765387145223
0.0768112145258
0.0789212174987
0.0931079245945
0.16960625898
0.076444625204
0.0764709599368
0.0764960424755
0.0765198067835
0.0765440540521
0.0765905822736
0.0768664468578
0.0789979866332
0.093254075232
0.16970956472
0.076467090958
0.0764924150281
0.0765166414493
0.0765396852796
0.0765633918858
0.0766101234518
0.0768909307079
0.0790513877764
0.0934019917431
0.169825589377
0.0764891421543
0.0765134384953
0.0765367969717
0.0765591195465
0.0765823154711
0.0766294560512
0.076916536328
0.0791127376175
0.0935789205383
0.169963881068
0.0765140737528
0.0765373297153
0.076559802688
0.0765813881956
0.0766040813517
0.0766518169149
0.0769465175601
0.0791853223645
0.0937874999644
0.170125865865
0.076542106286
0.0765643417792
0.076585938509
0.0766067929705
0.0766290100786
0.0766775553991
0.0769813191599
0.0792698447364
0.0940285816305
0.170312314128
0.0765732131601
0.0765944777099
0.0766152353099
0.0766353897523
0.0766571818153
0.0767067918888
0.0770211925027
0.0793669349311
0.0943032093707
0.170524027529
0.076607376019
0.0766277459152
0.0766477267982
0.0766672361622
0.0766886793028
0.0767396558054
0.0770664264758
0.0794773492944
0.094612680726
0.170761909256
0.0766446099589
0.0766641827091
0.0766834719685
0.0767024138638
0.0767236099521
0.0767763078459
0.0771173701382
0.0796019866086
0.0949585270654
0.171026984891
0.0766849588189
0.0767038531829
0.0767225576055
0.0767410319886
0.0767621099766
0.0768169451241
0.0771744408951
0.0797418992769
0.0953425182513
0.171320424282
0.0767284993711
0.0767468535175
0.0767651012704
0.0767832308367
0.0768043481872
0.0768618061746
0.077238133122
0.0798983093908
0.0957666820823
0.171643566576
0.0767753346145
0.0767933046103
0.0768112468119
0.0768291768003
0.076850524977
0.0769111720972
0.0773090292584
0.0800726307421
0.0962333385029
0.171997952538
0.0768255764328
0.0768433500834
0.0768611602645
0.0768790693855
0.0769008748412
0.0769653806505
0.0773878120551
0.0802665021014
0.0967451341743
0.172385361075
)
;
    }
    sides
    {
        lowReCorrection 0;
        blending        stepwise;
        n               2;
        type            epsilonWallFunction;
        value           nonuniform List<scalar> 
12
(
0.0778700062287
0.0779125350805
0.0779532762611
0.0779920246468
0.0780285855214
0.0780628306193
0.0780956163366
0.0781410391879
0.078365046785
0.0803818836036
0.0969343670652
0.208821409343
)
;
    }
    bottom
    {
        lowReCorrection 0;
        blending        stepwise;
        n               2;
        type            epsilonWallFunction;
        value           nonuniform List<scalar> 0();
    }
    front
    {
        lowReCorrection 0;
        blending        stepwise;
        n               2;
        type            epsilonWallFunction;
        value           nonuniform List<scalar> 
167
(
0.0778700062287
0.0779125350805
0.0779532762611
0.0779920246468
0.0780285855214
0.0780628306193
0.0780956163366
0.0781410391879
0.078365046785
0.0803818836036
0.0969343670652
0.208821409343
0.0734691149524
0.0735037070956
0.073537433315
0.0735701257789
0.0736016464972
0.0736320212162
0.0736629856415
0.0737146905912
0.0739827373082
0.0760552052855
0.0902831503773
0.16826300146
0.0759614518012
0.0759931594863
0.0760238559027
0.0760533416615
0.0760814419113
0.0761081440763
0.0761352072853
0.0761836455745
0.0764550693225
0.0785522839925
0.0927150189783
0.169421741321
0.0763598654212
0.0763885435998
0.0764160444122
0.0764421658371
0.0764668692296
0.076491929643
0.0765387145223
0.0768112145258
0.0789212174987
0.0931079245945
0.16960625898
0.076444625204
0.0764709599368
0.0764960424755
0.0765198067835
0.0765440540521
0.0765905822736
0.0768664468578
0.0789979866332
0.093254075232
0.16970956472
0.076467090958
0.0764924150281
0.0765166414493
0.0765396852796
0.0765633918858
0.0766101234518
0.0768909307079
0.0790513877764
0.0934019917431
0.169825589377
0.0764891421543
0.0765134384953
0.0765367969717
0.0765591195465
0.0765823154711
0.0766294560512
0.076916536328
0.0791127376175
0.0935789205383
0.169963881068
0.0765140737528
0.0765373297153
0.076559802688
0.0765813881956
0.0766040813517
0.0766518169149
0.0769465175601
0.0791853223645
0.0937874999644
0.170125865865
0.076542106286
0.0765643417792
0.076585938509
0.0766067929705
0.0766290100786
0.0766775553991
0.0769813191599
0.0792698447364
0.0940285816305
0.170312314128
0.0765732131601
0.0765944777099
0.0766152353099
0.0766353897523
0.0766571818153
0.0767067918888
0.0770211925027
0.0793669349311
0.0943032093707
0.170524027529
0.076607376019
0.0766277459152
0.0766477267982
0.0766672361622
0.0766886793028
0.0767396558054
0.0770664264758
0.0794773492944
0.094612680726
0.170761909256
0.0766446099589
0.0766641827091
0.0766834719685
0.0767024138638
0.0767236099521
0.0767763078459
0.0771173701382
0.0796019866086
0.0949585270654
0.171026984891
0.0766849588189
0.0767038531829
0.0767225576055
0.0767410319886
0.0767621099766
0.0768169451241
0.0771744408951
0.0797418992769
0.0953425182513
0.171320424282
0.0767284993711
0.0767468535175
0.0767651012704
0.0767832308367
0.0768043481872
0.0768618061746
0.077238133122
0.0798983093908
0.0957666820823
0.171643566576
0.0767753346145
0.0767933046103
0.0768112468119
0.0768291768003
0.076850524977
0.0769111720972
0.0773090292584
0.0800726307421
0.0962333385029
0.171997952538
0.0768255764328
0.0768433500834
0.0768611602645
0.0768790693855
0.0769008748412
0.0769653806505
0.0773878120551
0.0802665021014
0.0967451341743
0.172385361075
)
;
    }
    atmosphere
    {
        type            inletOutlet;
        inletValue      uniform 0.1;
        value           uniform 0.1;
    }
    floatingObject
    {
        lowReCorrection 0;
        blending        stepwise;
        n               2;
        type            epsilonWallFunction;
        value           nonuniform List<scalar> 0();
    }
    procBoundary1to0
    {
        type            processor;
        value           nonuniform List<scalar> 10(0.0768793794314 0.0768971668445 0.0769150535632 0.0769331440495 0.0769556828694 0.0770248210222 0.0774752858046 0.0804818055668 0.0973050898153 0.172807851939);
    }
    procBoundary1to2
    {
        type            processor;
        value           nonuniform List<scalar> 
18
(
0.0778258906431
0.0734338275107
0.0759289799382
0.0763302602534
0.0763302602534
0.0764172614118
0.0764172614118
0.0764409140893
0.0764641763145
0.0764903183597
0.0765195253127
0.0765517365577
0.0765869108242
0.076625040329
0.076666153873
0.0767103088643
0.0767575875183
0.0768080970327
)
;
    }
}


// ************************************************************************* //
