/*--------------------------------*- C++ -*----------------------------------*\
| =========                 |                                                 |
| \\      /  F ield         | OpenFOAM: The Open Source CFD Toolbox           |
|  \\    /   O peration     | Version:  v2012                                 |
|   \\  /    A nd           | Website:  www.openfoam.com                      |
|    \\/     M anipulation  |                                                 |
\*---------------------------------------------------------------------------*/
FoamFile
{
    version     2.0;
    format      ascii;
    class       surfaceVectorField;
    location    "0.4";
    object      Uf_0;
}
// * * * * * * * * * * * * * * * * * * * * * * * * * * * * * * * * * * * * * //

dimensions      [0 1 -1 0 0 0 0];


internalField   nonuniform List<vector> 
306
(
(0.00162064409488 -0.0270493872883 1.75384744121e-22)
(0.00282259676523 -0.0259657587685 1.12444744504e-22)
(0.00156907715032 -0.0297936546472 1.26586917737e-22)
(0.00274424798089 -0.0287836942565 1.01349050112e-23)
(0.00151166365639 -0.0324499574976 3.0409967927e-23)
(0.00265627546968 -0.0315171550651 -5.49054827669e-24)
(0.00144809792238 -0.0350083115071 2.19104927956e-23)
(0.00255832124104 -0.0341562699363 -4.89669576394e-23)
(0.00137772745874 -0.0374581979466 1.91021708774e-23)
(0.00244985246293 -0.0366909505215 -5.67251737984e-23)
(0.00129869083522 -0.0397879559482 2.36692434392e-23)
(0.00232972575859 -0.039110866145 2.48736629441e-23)
(0.00120531769603 -0.0419826595815 6.87118215828e-24)
(0.00219467660472 -0.0414051361141 2.86410820342e-23)
(0.001081513657 -0.0440181058507 4.7729612235e-23)
(0.00203542562801 -0.0435640135123 -1.97904063404e-23)
(0.000880643850761 -0.0458499451946 5.06669077543e-23)
(0.00183182639599 -0.0455916139927 5.77393685907e-23)
(0.000771818315544 -0.0473672862618 -3.76798472551e-22)
(0.00151733477126 -0.0473899483216 8.38552275706e-23)
(0.00304106849575 -0.0485366585796 -4.051894624e-22)
(0.00116937191517 -0.0484747518243 -8.00038064042e-23)
(0.002736930188 -0.0511217905911 -4.78487319445e-22)
(0.00414589675323 -0.0275554542091 -5.28050946055e-23)
(0.00569721209164 -0.0262813993995 7.29740387506e-23)
(0.004023054372 -0.0303501662448 -1.21942561003e-22)
(0.00553893688319 -0.0291345559154 -1.31331445926e-22)
(0.00388565902972 -0.0330551719189 -8.48674738431e-23)
(0.0053612512548 -0.0319026307002 -1.38976408048e-23)
(0.00373322607653 -0.0356605830455 -1.27602624233e-22)
(0.00516369782925 -0.0345756840824 -5.69759965621e-23)
(0.00356500565805 -0.0381566494642 -5.09536817317e-23)
(0.00494588349935 -0.0371437730592 -5.52151034373e-23)
(0.00337936865812 -0.0405343552902 2.98455015391e-23)
(0.00470740020121 -0.0395972870948 4.12388286484e-23)
(0.00317219003331 -0.0427875897724 1.97949353555e-24)
(0.00444788591768 -0.0419271974074 5.04583631861e-23)
(0.00293331344273 -0.0449193852284 -9.78064998471e-24)
(0.00416720461031 -0.0441273456056 4.69034460048e-24)
(0.0026371858824 -0.0469501740809 9.0927688407e-23)
(0.00386260691269 -0.0462246097364 9.02605962626e-23)
(0.00220492229906 -0.0489763696802 3.80649893717e-22)
(0.00354352958817 -0.0481965736982 1.16987261627e-22)
(0.00155526490756 -0.0510513940484 -1.53301663449e-22)
(0.00324439967954 -0.0494032538876 9.52517635923e-22)
(0.0025227455599 -0.0512742234847 -3.81024854645e-22)
(0.00702682249605 -0.0277511555342 -5.55231257007e-24)
(0.00681692802505 -0.0305684725404 -2.32865257286e-23)
(0.00835621998923 -0.0293650929313 -7.90020456016e-24)
(0.00658252820937 -0.0332962654043 1.39938364761e-23)
(0.00808901187715 -0.032159325558 -3.18256438091e-24)
(0.00632321422176 -0.0359245811721 1.5411524234e-23)
(0.00779197870801 -0.0348588058057 2.04246062916e-23)
(0.00603875749538 -0.0384435492596 3.69774069428e-23)
(0.00746481822734 -0.0374534042226 -4.3094165686e-24)
(0.00572928032342 -0.0408437198515 6.18516902953e-23)
(0.00710754237978 -0.0399331331474 4.06742447458e-23)
(0.00539568181026 -0.0431166221709 5.3169214251e-23)
(0.00672076874888 -0.042287996072 2.96001783395e-23)
(0.005039788485 -0.0452552848685 1.04731590848e-22)
(0.00630585745626 -0.0445092957913 3.15812885139e-23)
(0.00467361860101 -0.0472552945721 1.16320169482e-22)
(0.00586261685822 -0.0466092904176 9.60393744324e-23)
(0.00430628585053 -0.0491118693334 6.88855003833e-22)
(0.00540011092715 -0.0485077032984 9.41192585058e-23)
(0.00361865448955 -0.0506719988921 7.24794444727e-22)
(0.00480453739004 -0.0495772156502 8.18893952244e-22)
(0.00327048336065 -0.0518159221233 1.09100835733e-22)
(0.00963562974302 -0.0308388292454 1.22037567875e-23)
(0.00930522472346 -0.0335965581053 3.24820543456e-24)
(0.0108467027143 -0.0324913757986 -2.00643435285e-24)
(0.00893969748628 -0.0362550473318 7.03665488956e-25)
(0.0104504334966 -0.035226046162 7.11755680201e-24)
(0.00853895234041 -0.0388040635744 -6.12578765544e-25)
(0.0100138037825 -0.0378559222762 -4.56801837726e-24)
(0.00810343391197 -0.041233460765 8.42273278995e-24)
(0.0095369167708 -0.0403704685667 6.11293883853e-24)
(0.00763423535216 -0.0435332526487 8.01225260229e-24)
(0.00902054821225 -0.0427587712823 5.40688781779e-24)
(0.00713160039522 -0.045693313637 2.28890720985e-23)
(0.00846591820978 -0.0450110423088 7.41990793339e-24)
(0.0065977199646 -0.0477024195717 7.3838463456e-23)
(0.00787173269416 -0.0471350655867 4.24102652307e-23)
(0.00595930854164 -0.0495432367947 2.24158206917e-22)
(0.00724094321721 -0.0490408794469 1.18166496768e-22)
(0.0046414542026 -0.0511216221141 2.03200343249e-22)
(0.00638293570537 -0.0500957655979 2.97956838018e-22)
(0.0041537379188 -0.0524862678667 7.98301640029e-23)
(0.0120360170487 -0.0339925975954 1.8629170146e-24)
(0.0136442450057 -0.0329159156529 6.91263279872e-25)
(0.0115658939059 -0.0366912496785 1.84587293579e-24)
(0.0131490527256 -0.0356961005568 3.34334906696e-24)
(0.0110500453235 -0.0392802806956 2.15749922682e-24)
(0.0126028083244 -0.038371679941 7.41084084135e-25)
(0.0104888462172 -0.0417488174953 3.09709386637e-24)
(0.01200543674 -0.0409315463164 4.2731478133e-24)
(0.00988312237101 -0.0440857690137 4.81454314888e-24)
(0.0113574958422 -0.0433639928889 2.02136483163e-24)
(0.00923228269154 -0.0462794708791 2.69411010656e-23)
(0.0106596294158 -0.0456585198296 8.09669565424e-24)
(0.00853546932139 -0.0483169063636 8.67382985422e-23)
(0.00990918789009 -0.0478209875322 4.82470557379e-23)
(0.00768084289785 -0.0501805258551 1.91965127869e-22)
(0.00910458553458 -0.0497594619703 1.29698435172e-22)
(0.00590815191539 -0.0517901863431 1.74586658772e-22)
(0.00799261334577 -0.0508226485093 2.61705378598e-22)
(0.00512966943198 -0.0533403458241 7.36874476576e-23)
(0.014811758747 -0.034487211417 2.17169533223e-24)
(0.016492136814 -0.0334340191989 1.57689691012e-24)
(0.0142371752301 -0.0372367209576 2.2385602153e-24)
(0.0158985319503 -0.0362705414099 3.51243898393e-24)
(0.0136057868442 -0.0398766442344 2.85673267062e-24)
(0.015242709029 -0.0390029159757 1.40263344124e-24)
(0.0129176801779 -0.0423954773251 3.19741877857e-24)
(0.0145242590542 -0.0416194775508 5.30279313601e-24)
(0.0121732238783 -0.0447813564515 5.30351733699e-24)
(0.0137433786381 -0.0441078564547 3.05044275201e-24)
(0.0113709804315 -0.0470218556011 2.94026503265e-23)
(0.0129001465276 -0.0464571249158 9.85880677147e-24)
(0.0105077309849 -0.0491036601452 9.12071923673e-23)
(0.0119910202972 -0.0486722740077 5.88947621087e-23)
(0.00944106391361 -0.0510098993699 1.99438685901e-22)
(0.0110108536701 -0.0506605340065 2.19736635798e-22)
(0.00723398071693 -0.0526682345742 1.60806167484e-22)
(0.00965096885786 -0.0517432113291 2.98806204902e-22)
(0.00617300844795 -0.0543832413505 4.39015059033e-23)
(0.0176442826565 -0.0350802195154 2.91764056182e-24)
(0.0194011641938 -0.0340449774473 2.81818062317e-24)
(0.0169656204339 -0.0378917417222 2.67651220988e-24)
(0.0187100263915 -0.0369490696692 5.33987688462e-24)
(0.0162185279621 -0.0405940604278 3.84869390663e-24)
(0.0179450087701 -0.0397498718546 1.83695273268e-24)
(0.0154027085604 -0.0431750816045 5.15581710945e-24)
(0.0171052743178 -0.0424351482429 7.83144909189e-24)
(0.0145180869827 -0.0456223116718 7.60573218649e-24)
(0.0161906184319 -0.0449918929415 5.91664379321e-24)
(0.013562651241 -0.047922817629 3.93509185537e-23)
(0.0152006769565 -0.0474088178758 1.35642931712e-23)
(0.0125312901326 -0.050063221216 1.8742420554e-22)
(0.014131457639 -0.0496904771 7.87949259626e-23)
(0.0112530446041 -0.0520271435964 3.19104154799e-22)
(0.0129748092423 -0.0517424242055 2.16855408463e-22)
(0.00861501571854 -0.0537447676936 1.81901543322e-22)
(0.0113686154237 -0.052850252425 3.66563845605e-22)
(0.00727454870836 -0.0556200955857 8.96151729569e-23)
(0.0205441922223 -0.0357707495255 5.24041694596e-24)
(0.0223825022186 -0.03474748808 1.40223902415e-24)
(0.0197622871888 -0.0386559229942 4.50031740741e-24)
(0.0215951739408 -0.037730833488 5.01256184628e-24)
(0.0188997760026 -0.0414327105082 5.81970791794e-24)
(0.0207217798027 -0.0406122450759 7.24272427667e-25)
(0.0179559198809 -0.0440884026603 8.59227577564e-24)
(0.019760963896 -0.0433788653002 5.68392672158e-24)
(0.0169302396853 -0.0466098571666 1.18752047779e-23)
(0.0187120867407 -0.0460169848437 5.25960648112e-24)
(0.0158203812259 -0.0489835691205 5.30083005801e-23)
(0.0175744176504 -0.0485148636814 1.16114067416e-23)
(0.0146196849656 -0.0511958394327 1.08226128886e-22)
(0.0163437655121 -0.0508767239755 6.291774273e-23)
(0.0131289230106 -0.0532301868479 2.64315099268e-22)
(0.0150091925189 -0.0530049860275 1.24241994189e-22)
(0.0100565898769 -0.0550160339875 2.7427747524e-22)
(0.0131544863623 -0.0541418825291 3.55312382607e-22)
(0.00843529859448 -0.057057219779 1.38278485207e-22)
(0.0235231118188 -0.0365574791556 1.17438392447e-24)
(0.025447722699 -0.0355397309429 4.32779814544e-26)
(0.0226392958335 -0.0395284544746 1.23651686654e-24)
(0.0245661247413 -0.0386144985671 3.75350053695e-24)
(0.0216620961237 -0.0423923804281 5.88491231302e-25)
(0.0235856908947 -0.0415893021658 -1.02979094719e-25)
(0.0205902561954 -0.0451358462878 2.35125742705e-24)
(0.0225044291898 -0.0444505704782 3.09669614033e-24)
(0.0194228846037 -0.0477449365501 4.99580844485e-24)
(0.0213211931624 -0.0471837555889 2.01903582417e-24)
(0.0181573769807 -0.0502053640887 2.15208488915e-23)
(0.0200348763495 -0.049776490308 7.83526536826e-24)
(0.0167856545621 -0.0525027149519 7.89336080332e-23)
(0.0186411560129 -0.0522326574144 4.55171067755e-23)
(0.0150796447705 -0.0546198138194 2.15239277528e-22)
(0.0171263286401 -0.0544499524033 1.33004007637e-22)
(0.011565677172 -0.0564836842915 2.19313392575e-22)
(0.0150183812345 -0.0556196142132 2.74895132365e-22)
(0.00966146444024 -0.0587017334822 1.32563075923e-22)
(0.0265931859328 -0.0374385185078 2.62239459394e-24)
(0.0286088291584 -0.0364192215024 8.35146958196e-25)
(0.0256093952817 -0.0405080207193 2.4140045757e-24)
(0.027635602845 -0.0395981284312 3.53295072323e-24)
(0.0245187487906 -0.0434724392412 2.40522581431e-24)
(0.0265500950885 -0.04267980022 -2.22985392382e-24)
(0.0233193558217 -0.0463175323357 2.76447453745e-24)
(0.0253495224543 -0.0456498294164 2.51705224131e-24)
(0.0220098375344 -0.0490284271956 4.85849274758e-24)
(0.0240321050724 -0.0484926490361 -1.18055963834e-24)
(0.0205873096348 -0.0515897881226 3.18315232522e-23)
(0.022596269285 -0.0511950503439 7.990667317e-24)
(0.019042263425 -0.0539860925117 9.95875063791e-23)
(0.0210375006841 -0.0537605590168 4.08314827485e-23)
(0.0171167933963 -0.05619902091 1.92659862473e-22)
(0.0193392944741 -0.0560805046106 3.50133969641e-23)
(0.0131514387676 -0.0581522556414 1.88144815713e-22)
(0.0169716402588 -0.0572870037835 2.00236607832e-22)
(0.0109623338205 -0.0605617810589 1.14564998419e-22)
(0.0297670839487 -0.038411270485 1.74570308749e-24)
(0.0318783204799 -0.0373826461095 2.97292855305e-25)
(0.0286860030504 -0.0415926873872 -1.11090777628e-24)
(0.0308169954622 -0.0406790372585 4.30723910674e-24)
(0.0274837768002 -0.0446717690245 -2.11802749682e-24)
(0.0296291621657 -0.0438818701641 -2.15350382863e-24)
(0.026157711959 -0.047633282524 -1.42798193448e-24)
(0.028311035787 -0.0469757571267 2.08274574444e-24)
(0.0247057998949 -0.0504611782347 1.95161493108e-24)
(0.0268600174151 -0.0499438998134 -1.74494413084e-24)
(0.0231247581675 -0.0531387786151 1.69906268132e-23)
(0.0252739010763 -0.0527720125489 7.32931679341e-24)
(0.0214035851985 -0.0556490768698 -2.37426266665e-23)
(0.0235478383938 -0.0554632643389 3.37486305252e-23)
(0.0192533410256 -0.0579722607418 4.25901423228e-23)
(0.0216625146866 -0.057900868556 1.22669998849e-23)
(0.0148252572826 -0.060027964089 1.26656790538e-22)
(0.0190273669809 -0.0591488798415 1.85023940499e-22)
(0.0123496781997 -0.0626467335079 1.39424387574e-22)
(0.0330580935865 -0.0394722559265 2.85882887455e-24)
(0.0352692449365 -0.0384256659788 6.93750772477e-25)
(0.0318833411797 -0.0427797486956 3.26464305439e-24)
(0.034124462404 -0.0418536046442 7.15299405182e-24)
(0.0305721931471 -0.045988641709 2.04726941262e-24)
(0.0328380391773 -0.0451928518283 1.16361686792e-24)
(0.0291209265114 -0.0490825300391 1.76578354808e-24)
(0.0314049222909 -0.0484268800555 7.39092218873e-24)
(0.0275266938706 -0.0520439413299 3.63275773149e-24)
(0.0298214435024 -0.0515374212478 3.79042673922e-24)
(0.0257856265782 -0.0548545396981 2.40873205054e-23)
(0.0280845286107 -0.0545088606202 8.5819884755e-24)
(0.0238851599978 -0.0574954563526 6.97582570767e-23)
(0.0261887920581 -0.0573440323441 5.85543572994e-23)
(0.0215039719058 -0.0599450714147 1.54700798062e-22)
(0.024112163474 -0.0599160857997 1.10738647341e-22)
(0.0166006764761 -0.0621183234496 1.97791537535e-22)
(0.0212006405579 -0.0612110271134 1.98936071805e-22)
(0.0138377668508 -0.0649674024544 1.44809375542e-22)
(0.0364802127917 -0.0406169059202 4.98791594975e-24)
(0.0387952772163 -0.0395426741027 2.12181113734e-25)
(0.0352165806266 -0.0440655281182 5.05196786536e-24)
(0.0375730562164 -0.0431170381715 5.46637915642e-24)
(0.0338001841314 -0.0474205384411 6.50726964403e-24)
(0.0361930307219 -0.0466090714825 -3.93665131138e-24)
(0.032225977341 -0.0506641610529 9.41556537987e-24)
(0.0346485398717 -0.0500009350407 7.18605488939e-24)
(0.0304899950304 -0.0537772301927 8.73965748323e-24)
(0.0329345237494 -0.05327262756 -2.70410303081e-25)
(0.0285875287787 -0.0567394048042 4.30490252695e-23)
(0.0310467282113 -0.0564069344309 5.92836593208e-24)
(0.0265043892185 -0.0595295484036 9.95347475637e-23)
(0.0289789681934 -0.0594063986862 3.38071592043e-23)
(0.0238853952307 -0.062123904687 1.54973921084e-22)
(0.0267065491729 -0.062131869781 -4.2451269762e-23)
(0.018493612493 -0.0644320586388 1.45953909812e-22)
(0.0235088134998 -0.0634800637937 1.57066074277e-22)
(0.0154437208642 -0.0675363012208 5.3605628156e-23)
(0.0400482433647 -0.0418392875842 6.90644320399e-25)
(0.0424707689026 -0.0407264990715 -1.46425134502e-24)
(0.0387019953454 -0.0454451172053 -3.52224002032e-24)
(0.0411788470877 -0.0444630767858 3.00001025015e-24)
(0.0371853276639 -0.0489639059044 -3.25786606602e-24)
(0.0397117902632 -0.0481255517768 -6.84466778951e-24)
(0.0354915025577 -0.0523762943819 -2.49992079356e-24)
(0.0380609120004 -0.0516945976722 4.40773598809e-24)
(0.0336150784221 -0.0556611252707 -3.08170185423e-24)
(0.0362193564877 -0.0551481904183 -5.86591031e-24)
(0.0315501808529 -0.058795667151 -3.31350013311e-24)
(0.0341812863096 -0.0584672224108 6.78271162061e-24)
(0.0292809448891 -0.0617560599989 -1.08178858121e-22)
(0.0319393877672 -0.0616540161316 2.37103885933e-23)
(0.0264167286673 -0.0645160412608 -4.03591165693e-23)
(0.029466555357 -0.0645545002283 -1.55775453531e-22)
(0.0205227795984 -0.0669791380247 6.47177926209e-23)
(0.0259719289771 -0.065963398533 1.72321735923e-22)
(0.01718813975 -0.0703679766439 1.11095116255e-22)
(0.043777882099 -0.0431317906406 8.45114584727e-25)
(0.0463108136142 -0.0419680331984 -3.00035926664e-24)
(0.0423571252639 -0.0469120474359 -3.22417519044e-25)
(0.0449590504169 -0.0458836064355 1.56179586651e-24)
(0.0407468338195 -0.0506138366839 8.20934264594e-25)
(0.0434135309511 -0.0497356389704 -6.3779209265e-24)
(0.0389381177433 -0.0542159832918 1.04174647165e-24)
(0.0416630307003 -0.0535031340203 7.4065454034e-25)
(0.0369236052063 -0.057695016897 3.99850316484e-24)
(0.0396983775344 -0.0571617301026 -7.64486224067e-24)
(0.0346958421937 -0.0610253717404 3.3806600347e-23)
(0.0375116527425 -0.06069010909 6.21484477829e-24)
(0.0322372438766 -0.0641799531064 -2.38862068159e-23)
(0.0350939878136 -0.0640904793512 2.27301892754e-23)
(0.0291199841186 -0.0671295485979 5.69053989619e-23)
(0.0324161777323 -0.067190730725 -1.40445634254e-22)
(0.0227103156125 -0.0697708771963 2.18699059558e-22)
(0.0286132751941 -0.0686692168815 1.36539710069e-22)
(0.0190960214146 -0.0734794180355 1.29981071471e-22)
(0.047685824395 -0.0444846695967 -2.28367798486e-24)
(0.0462009639942 -0.0484578652818 -4.49370754094e-24)
(0.0445058184203 -0.0523636621426 -6.45820065075e-24)
(0.0425887766927 -0.0561788566326 -7.94595417198e-24)
(0.0404399648088 -0.0598772911259 -5.42852062722e-24)
(0.038049824802 -0.0634300902747 -4.86156629329e-24)
(0.0353990103314 -0.0668062922408 -9.38292381627e-23)
(0.0320206736125 -0.0699732556931 -6.08113231473e-23)
(0.0250826347597 -0.072820054884 4.78217219819e-23)
)
;

boundaryField
{
    back
    {
        type            calculated;
        value           uniform (0 0 0);
    }
    sides
    {
        type            calculated;
        value           uniform (0 0 0);
    }
    bottom
    {
        type            calculated;
        value           nonuniform List<vector> 0();
    }
    front
    {
        type            calculated;
        value           uniform (0 0 0);
    }
    atmosphere
    {
        type            calculated;
        value           nonuniform List<vector> 
16
(
(0 -0.0512735901381 0)
(0 -0.0508372107251 0)
(0 -0.0514197362001 0)
(0 -0.0520048747067 0)
(0 -0.0527661147409 0)
(0 -0.0537115696166 0)
(0 -0.0548463034206 0)
(0 -0.0561767790318 0)
(0 -0.0577098452198 0)
(0 -0.0594531202977 0)
(0 -0.061415304265 0)
(0 -0.0636064087256 0)
(0 -0.0660380101362 0)
(0 -0.0687235542999 0)
(0 -0.0716787552468 0)
(0 -0.0749220668324 0)
)
;
    }
    floatingObject
    {
        type            calculated;
        value           nonuniform List<vector> 0();
    }
    procBoundary1to0
    {
        type            processor;
        value           nonuniform List<vector> 10((0.0503313000004 -0.0432558026433 -1.56893816933e-24) (0.0489321807228 -0.0473682246059 3.57659941888e-24) (0.0473192754138 -0.051430564358 -4.47749680006e-24) (0.0454781827297 -0.055419977847 -8.79824548319e-25) (0.0433967962667 -0.0593094277249 -1.2269913124e-23) (0.0410644497327 -0.0630750464025 -1.75302316838e-24) (0.0384702088806 -0.066719092882 -2.39610726492e-23) (0.0355831604065 -0.0700476681787 -1.35921031456e-22) (0.0314600923798 -0.071606461787 -1.56816342004e-23) (0.0211980349209 -0.0768905983709 -8.42126315572e-23));
    }
    procBoundary1to2
    {
        type            processor;
        value           nonuniform List<vector> 
18
(
(0.00166658411908 -0.0242267761875 1.27502821364e-22)
(0.00425463609647 -0.0246808160278 2.5298669042e-24)
(0.0072127538476 -0.0248542286853 4.42371981879e-23)
(0.00859412756247 -0.0264861758291 1.08603116132e-23)
(0.00993135811458 -0.0279920622604 8.51241962314e-24)
(0.0112029575676 -0.0296623590277 1.63008683297e-23)
(0.0124606110037 -0.0311950059812 2.09067718939e-24)
(0.0153300082988 -0.0316392699573 1.8036088123e-24)
(0.0182553740856 -0.0321711459007 3.95499017381e-24)
(0.0212468446106 -0.0327893670615 3.25980840021e-24)
(0.0243155080638 -0.0334922173918 4.74438015129e-25)
(0.0274728414798 -0.0342773706374 1.37467879767e-24)
(0.0307306862988 -0.0351417386663 1.80684883394e-24)
(0.0341013054538 -0.0360812872076 1.7924336424e-24)
(0.0375974282757 -0.0370908262846 2.6355485857e-24)
(0.0412322878346 -0.0381637375145 8.00844984951e-25)
(0.0450196520443 -0.0392916604426 2.50543831702e-25)
(0.0489738417737 -0.0404641018568 -9.79179433859e-25)
)
;
    }
}


// ************************************************************************* //
