/*--------------------------------*- C++ -*----------------------------------*\
| =========                 |                                                 |
| \\      /  F ield         | OpenFOAM: The Open Source CFD Toolbox           |
|  \\    /   O peration     | Version:  v2012                                 |
|   \\  /    A nd           | Website:  www.openfoam.com                      |
|    \\/     M anipulation  |                                                 |
\*---------------------------------------------------------------------------*/
FoamFile
{
    version     2.0;
    format      ascii;
    class       volScalarField;
    location    "5.9";
    object      ddt0(epsilon);
}
// * * * * * * * * * * * * * * * * * * * * * * * * * * * * * * * * * * * * * //

dimensions      [0 2 -4 0 0 0 0];


internalField   nonuniform List<scalar> 
164
(
-0.000181580055871
-0.000188790065112
-0.000208224652227
-0.00021594143396
-0.000219047294989
-0.000220521640141
-0.000221524264766
-0.000222464624618
-0.000181821313109
-0.000188970421333
-0.000208546232111
-0.000216356381076
-0.00021951896708
-0.00022102930054
-0.000222058643589
-0.00022302778981
-0.000181983214901
-0.000189081267089
-0.000208780189718
-0.000216677121793
-0.000219896623333
-0.000221444153706
-0.0002225032899
-0.000223501524947
-0.000224578682092
-0.000225729276021
-0.000182084883206
-0.000189108557639
-0.000208914646035
-0.000216891651305
-0.000220167918768
-0.000221754891515
-0.000222845640002
-0.000223872437923
-0.000224976342737
-0.000226171596095
-0.000182101037801
-0.000189043943896
-0.000208936420676
-0.000216988520164
-0.00022032206413
-0.000221950890211
-0.00022307695208
-0.000224139108172
-0.00022527901807
-0.000226513253899
-0.000182025010973
-0.00018888187229
-0.000208839665614
-0.000216961025182
-0.000220351928076
-0.000222025791023
-0.000223190903543
-0.000224292578509
-0.000225471955223
-0.000226744951775
-0.000181852095021
-0.000188616731406
-0.000208615808791
-0.000216799672218
-0.000220250450531
-0.000221974293194
-0.000223182486201
-0.000224324481724
-0.000225541760971
-0.000226849196816
-0.000181573555715
-0.000188224037147
-0.00020825486628
-0.000216497269963
-0.000220012214498
-0.000221792972736
-0.000223051347741
-0.000224238103658
-0.000225497220772
-0.000226834883777
-0.000181191151988
-0.000187703624269
-0.000207749068684
-0.000216048513537
-0.000219633318592
-0.000221479353647
-0.000222797804376
-0.000224042182066
-0.000225358325924
-0.000226734464971
-0.00018064267842
-0.000187058494577
-0.00020709509019
-0.000215446654011
-0.000219108108427
-0.000221029552956
-0.000222422323702
-0.000223741103391
-0.000225133791634
-0.00022658284948
-0.000179975885438
-0.000186275500877
-0.000206282909568
-0.000214687633457
-0.000218432792639
-0.000220442050829
-0.000221919804553
-0.000223328859262
-0.000224817880928
-0.000226374281867
-0.00017914371457
-0.000185344099
-0.000205310968817
-0.000213767746668
-0.00021760233986
-0.000219708228662
-0.000221285831687
-0.000222800986017
-0.000224404864611
-0.00022610347691
-0.000178184413812
-0.000184272544192
-0.000204178543024
-0.000212683292825
-0.000216611355924
-0.000218824840413
-0.000220515362186
-0.000222151952028
-0.000223895737994
-0.000225773314443
-0.000177004573393
-0.000183050702176
-0.000202885275193
-0.000211433221445
-0.000215459491067
-0.000217789176555
-0.000219606010507
-0.000221384598108
-0.000223290616042
-0.000225375516549
-0.000175711976528
-0.000181690927238
-0.000201436105673
-0.000210022413592
-0.000214147683492
-0.000216600612766
-0.000218562600953
-0.000220493721319
-0.00022259236943
-0.000224881843254
-0.000174263393736
-0.000180210868932
-0.000199849817726
-0.000208461722547
-0.00021268073753
-0.000215272327859
-0.000217376004086
-0.000219494284114
-0.000221769594139
-0.000224309455435
-0.00017263377283
-0.000178626245828
-0.000198144737206
-0.000206764593071
-0.000211084528035
-0.000213790352949
-0.000216068198243
-0.000209341231317
)
;

boundaryField
{
    back
    {
        type            calculated;
        value           nonuniform List<scalar> 
164
(
-0.000181580055871
-0.000188790065112
-0.000208224652227
-0.00021594143396
-0.000219047294989
-0.000220521640141
-0.000221524264766
-0.000222464624618
-0.000181821313109
-0.000188970421333
-0.000208546232111
-0.000216356381076
-0.00021951896708
-0.00022102930054
-0.000222058643589
-0.00022302778981
-0.000181983214901
-0.000189081267089
-0.000208780189718
-0.000216677121793
-0.000219896623333
-0.000221444153706
-0.0002225032899
-0.000223501524947
-0.000224578682092
-0.000225729276021
-0.000182084883206
-0.000189108557639
-0.000208914646035
-0.000216891651305
-0.000220167918768
-0.000221754891515
-0.000222845640002
-0.000223872437923
-0.000224976342737
-0.000226171596095
-0.000182101037801
-0.000189043943896
-0.000208936420676
-0.000216988520164
-0.00022032206413
-0.000221950890211
-0.00022307695208
-0.000224139108172
-0.00022527901807
-0.000226513253899
-0.000182025010973
-0.00018888187229
-0.000208839665614
-0.000216961025182
-0.000220351928076
-0.000222025791023
-0.000223190903543
-0.000224292578509
-0.000225471955223
-0.000226744951775
-0.000181852095021
-0.000188616731406
-0.000208615808791
-0.000216799672218
-0.000220250450531
-0.000221974293194
-0.000223182486201
-0.000224324481724
-0.000225541760971
-0.000226849196816
-0.000181573555715
-0.000188224037147
-0.00020825486628
-0.000216497269963
-0.000220012214498
-0.000221792972736
-0.000223051347741
-0.000224238103658
-0.000225497220772
-0.000226834883777
-0.000181191151988
-0.000187703624269
-0.000207749068684
-0.000216048513537
-0.000219633318592
-0.000221479353647
-0.000222797804376
-0.000224042182066
-0.000225358325924
-0.000226734464971
-0.00018064267842
-0.000187058494577
-0.00020709509019
-0.000215446654011
-0.000219108108427
-0.000221029552956
-0.000222422323702
-0.000223741103391
-0.000225133791634
-0.00022658284948
-0.000179975885438
-0.000186275500877
-0.000206282909568
-0.000214687633457
-0.000218432792639
-0.000220442050829
-0.000221919804553
-0.000223328859262
-0.000224817880928
-0.000226374281867
-0.00017914371457
-0.000185344099
-0.000205310968817
-0.000213767746668
-0.00021760233986
-0.000219708228662
-0.000221285831687
-0.000222800986017
-0.000224404864611
-0.00022610347691
-0.000178184413812
-0.000184272544192
-0.000204178543024
-0.000212683292825
-0.000216611355924
-0.000218824840413
-0.000220515362186
-0.000222151952028
-0.000223895737994
-0.000225773314443
-0.000177004573393
-0.000183050702176
-0.000202885275193
-0.000211433221445
-0.000215459491067
-0.000217789176555
-0.000219606010507
-0.000221384598108
-0.000223290616042
-0.000225375516549
-0.000175711976528
-0.000181690927238
-0.000201436105673
-0.000210022413592
-0.000214147683492
-0.000216600612766
-0.000218562600953
-0.000220493721319
-0.00022259236943
-0.000224881843254
-0.000174263393735
-0.000180210868932
-0.000199849817726
-0.000208461722547
-0.00021268073753
-0.000215272327859
-0.000217376004086
-0.000219494284114
-0.000221769594139
-0.000224309455435
-0.00017263377283
-0.000178626245828
-0.000198144737206
-0.000206764593071
-0.000211084528035
-0.000213790352949
-0.000216068198243
-0.000209341231317
)
;
    }
    sides
    {
        type            calculated;
        value           nonuniform List<scalar> 0();
    }
    bottom
    {
        type            calculated;
        value           nonuniform List<scalar> 
17
(
-0.000181580055871
-0.000181821313109
-0.000181983214901
-0.000182084883206
-0.000182101037801
-0.000182025010973
-0.000181852095021
-0.000181573555715
-0.000181191151988
-0.00018064267842
-0.000179975885438
-0.00017914371457
-0.000178184413812
-0.000177004573393
-0.000175711976528
-0.000174263393735
-0.00017263377283
)
;
    }
    front
    {
        type            calculated;
        value           nonuniform List<scalar> 
164
(
-0.000181580055871
-0.000188790065112
-0.000208224652227
-0.00021594143396
-0.000219047294989
-0.000220521640141
-0.000221524264766
-0.000222464624618
-0.000181821313109
-0.000188970421333
-0.000208546232111
-0.000216356381076
-0.00021951896708
-0.00022102930054
-0.000222058643589
-0.00022302778981
-0.000181983214901
-0.000189081267089
-0.000208780189718
-0.000216677121793
-0.000219896623333
-0.000221444153706
-0.0002225032899
-0.000223501524947
-0.000224578682092
-0.000225729276021
-0.000182084883206
-0.000189108557639
-0.000208914646035
-0.000216891651305
-0.000220167918768
-0.000221754891515
-0.000222845640002
-0.000223872437923
-0.000224976342737
-0.000226171596095
-0.000182101037801
-0.000189043943896
-0.000208936420676
-0.000216988520164
-0.00022032206413
-0.000221950890211
-0.00022307695208
-0.000224139108172
-0.00022527901807
-0.000226513253899
-0.000182025010973
-0.00018888187229
-0.000208839665614
-0.000216961025182
-0.000220351928076
-0.000222025791023
-0.000223190903543
-0.000224292578509
-0.000225471955223
-0.000226744951775
-0.000181852095021
-0.000188616731406
-0.000208615808791
-0.000216799672218
-0.000220250450531
-0.000221974293194
-0.000223182486201
-0.000224324481724
-0.000225541760971
-0.000226849196816
-0.000181573555715
-0.000188224037147
-0.00020825486628
-0.000216497269963
-0.000220012214498
-0.000221792972736
-0.000223051347741
-0.000224238103658
-0.000225497220772
-0.000226834883777
-0.000181191151988
-0.000187703624269
-0.000207749068684
-0.000216048513537
-0.000219633318592
-0.000221479353647
-0.000222797804376
-0.000224042182066
-0.000225358325924
-0.000226734464971
-0.00018064267842
-0.000187058494577
-0.00020709509019
-0.000215446654011
-0.000219108108427
-0.000221029552956
-0.000222422323702
-0.000223741103391
-0.000225133791634
-0.00022658284948
-0.000179975885438
-0.000186275500877
-0.000206282909568
-0.000214687633457
-0.000218432792639
-0.000220442050829
-0.000221919804553
-0.000223328859262
-0.000224817880928
-0.000226374281867
-0.00017914371457
-0.000185344099
-0.000205310968817
-0.000213767746668
-0.00021760233986
-0.000219708228662
-0.000221285831687
-0.000222800986017
-0.000224404864611
-0.00022610347691
-0.000178184413812
-0.000184272544192
-0.000204178543024
-0.000212683292825
-0.000216611355924
-0.000218824840413
-0.000220515362186
-0.000222151952028
-0.000223895737994
-0.000225773314443
-0.000177004573393
-0.000183050702176
-0.000202885275193
-0.000211433221445
-0.000215459491067
-0.000217789176555
-0.000219606010507
-0.000221384598108
-0.000223290616042
-0.000225375516549
-0.000175711976528
-0.000181690927238
-0.000201436105673
-0.000210022413592
-0.000214147683492
-0.000216600612766
-0.000218562600953
-0.000220493721319
-0.00022259236943
-0.000224881843254
-0.000174263393735
-0.000180210868932
-0.000199849817726
-0.000208461722547
-0.00021268073753
-0.000215272327859
-0.000217376004086
-0.000219494284114
-0.000221769594139
-0.000224309455435
-0.00017263377283
-0.000178626245828
-0.000198144737206
-0.000206764593071
-0.000211084528035
-0.000213790352949
-0.000216068198243
-0.000209341231317
)
;
    }
    atmosphere
    {
        type            calculated;
        value           nonuniform List<scalar> 0();
    }
    floatingObject
    {
        type            calculated;
        value           nonuniform List<scalar> 0();
    }
    procBoundary4to0
    {
        type            processor;
        value           nonuniform List<scalar> 8(-0.000181258826929 -0.000188535459422 -0.000207814842163 -0.000215432635619 -0.000218481313424 -0.000219921538908 -0.000220896719545 -0.00022180324195);
    }
    procBoundary4to3
    {
        type            processor;
        value           nonuniform List<scalar> 
13
(
-0.00021836578056
-0.00022087392269
-0.000223578089264
-0.000170897763661
-0.000176969109764
-0.000196339257589
-0.000204967245032
-0.000212190287576
-0.00021836578056
-0.000214622167979
-0.000204967245032
-0.000212190287576
-0.00020751183601
)
;
    }
    procBoundary4to5
    {
        type            processor;
        value           nonuniform List<scalar> 
18
(
-0.000223463210104
-0.00022406529428
-0.00022406529428
-0.000225160624894
-0.000226804319876
-0.000227310996426
-0.000227710241553
-0.000227979287527
-0.000228105937415
-0.00022810465229
-0.000228020116788
-0.00022793293097
-0.000227866013401
-0.00022782361375
-0.000227771835369
-0.000227683534401
-0.000227537572679
-0.000227199923282
)
;
    }
}


// ************************************************************************* //
