/*--------------------------------*- C++ -*----------------------------------*\
| =========                 |                                                 |
| \\      /  F ield         | OpenFOAM: The Open Source CFD Toolbox           |
|  \\    /   O peration     | Version:  v2012                                 |
|   \\  /    A nd           | Website:  www.openfoam.com                      |
|    \\/     M anipulation  |                                                 |
\*---------------------------------------------------------------------------*/
FoamFile
{
    version     2.0;
    format      ascii;
    class       volScalarField;
    location    "5.9";
    object      epsilon;
}
// * * * * * * * * * * * * * * * * * * * * * * * * * * * * * * * * * * * * * //

dimensions      [0 2 -3 0 0 0 0];


internalField   nonuniform List<scalar> 
164
(
0.000391894307751
0.000408475887912
0.000449274822917
0.000465380572711
0.000471970884975
0.000475210264222
0.000477478393773
0.00047965473793
0.000391829808481
0.000408385390919
0.000449253317097
0.000465425817357
0.000472064185205
0.000475335749089
0.000477626321709
0.000479818832779
0.000391593267008
0.000408130388323
0.000449050834309
0.000465287290803
0.000471977578215
0.000475286693505
0.000477605757872
0.000479820832595
0.000482284174516
0.000485273136325
0.000391179660314
0.000407704237052
0.000448661530091
0.000464959807093
0.000471706653222
0.000475060036525
0.00047741475554
0.000479660789239
0.000482151642662
0.000485158970305
0.000390585197958
0.000407100973542
0.000448077311787
0.000464436776363
0.000471246365969
0.000474652327689
0.000477051741084
0.000479338739256
0.000481869288568
0.000484912848422
0.000389815588975
0.000406318512268
0.000447294207004
0.000463713188195
0.000470592469407
0.000474060914724
0.000476515413974
0.00047885473026
0.000481438956528
0.000484543352021
0.000388863556933
0.00040534783978
0.000446303634386
0.000462781916167
0.000469740042007
0.000473283060654
0.000475805456399
0.000478211344079
0.000480868227646
0.000484068472324
0.000387706841351
0.000404170114133
0.00044509628643
0.000461636822999
0.000468684979775
0.000472316536615
0.000474921885958
0.000477411313445
0.000480164073505
0.000483503317711
0.000386327371095
0.000402784277076
0.000443667071949
0.000460273588969
0.000467423857995
0.000471158912465
0.000473863908703
0.000476455622085
0.000479328089914
0.00048284728669
0.000384745613289
0.000401189144263
0.000442009888829
0.000458686882289
0.000465952402699
0.000469807405566
0.000472629567238
0.000475341976225
0.000478354899593
0.00048207999471
0.000382934492576
0.000399381698167
0.000440124428585
0.000456874501923
0.000464267976245
0.000468259488179
0.000471216574071
0.000474068435873
0.000477237840766
0.000481174028945
0.000380905890851
0.000397357207569
0.000438008952458
0.000454835157916
0.000462368528385
0.00046651360336
0.000469625361714
0.000472634810441
0.000475973161888
0.000480110662381
0.000378646927596
0.000395120891567
0.000435666467316
0.000452570281942
0.00046025483281
0.000464570900101
0.000467856627104
0.000471043446928
0.000474565772838
0.000478895963175
0.000376171999373
0.000392677438895
0.000433103946744
0.000450085089928
0.000457930898592
0.000462433874107
0.000465914283214
0.000469300978712
0.000473025823709
0.000477549189937
0.000373469409884
0.000390037923277
0.000430333206762
0.000447389802031
0.000455403428457
0.000460108596753
0.000463806278453
0.000467417061622
0.000471366418464
0.000476075786766
0.000370547655822
0.000387222126466
0.00042737400001
0.000444499006929
0.000452683456904
0.000457604679708
0.000461538431156
0.00046540124325
0.000469589515148
0.000474504102064
0.000367454525165
0.000384263116099
0.000424256793269
0.000441439562577
0.000449787352769
0.000454925747754
0.000459112229749
0.00044672998225
)
;

boundaryField
{
    back
    {
        lowReCorrection 0;
        blending        stepwise;
        n               2;
        type            epsilonWallFunction;
        value           nonuniform List<scalar> 
164
(
0.000391894307751
0.000408475887912
0.000449274822917
0.000465380572711
0.000471970884975
0.000475210264222
0.000477478393773
0.00047965473793
0.000391829808481
0.000408385390919
0.000449253317097
0.000465425817357
0.000472064185205
0.000475335749089
0.000477626321709
0.000479818832779
0.000391593267008
0.000408130388323
0.000449050834309
0.000465287290803
0.000471977578215
0.000475286693505
0.000477605757872
0.000479820832595
0.000482284174516
0.000485273136325
0.000391179660314
0.000407704237052
0.000448661530091
0.000464959807093
0.000471706653222
0.000475060036525
0.00047741475554
0.000479660789239
0.000482151642662
0.000485158970305
0.000390585197958
0.000407100973542
0.000448077311787
0.000464436776363
0.000471246365969
0.000474652327689
0.000477051741084
0.000479338739256
0.000481869288568
0.000484912848422
0.000389815588975
0.000406318512268
0.000447294207004
0.000463713188195
0.000470592469407
0.000474060914724
0.000476515413974
0.00047885473026
0.000481438956528
0.000484543352021
0.000388863556933
0.00040534783978
0.000446303634386
0.000462781916167
0.000469740042007
0.000473283060654
0.000475805456399
0.000478211344079
0.000480868227646
0.000484068472324
0.000387706841351
0.000404170114133
0.00044509628643
0.000461636822999
0.000468684979775
0.000472316536615
0.000474921885958
0.000477411313445
0.000480164073505
0.000483503317711
0.000386327371095
0.000402784277076
0.000443667071949
0.000460273588969
0.000467423857995
0.000471158912465
0.000473863908703
0.000476455622085
0.000479328089914
0.00048284728669
0.000384745613289
0.000401189144263
0.000442009888829
0.000458686882289
0.000465952402699
0.000469807405566
0.000472629567238
0.000475341976225
0.000478354899593
0.00048207999471
0.000382934492576
0.000399381698167
0.000440124428585
0.000456874501923
0.000464267976245
0.000468259488179
0.000471216574071
0.000474068435873
0.000477237840766
0.000481174028945
0.000380905890851
0.000397357207569
0.000438008952458
0.000454835157916
0.000462368528385
0.00046651360336
0.000469625361714
0.000472634810441
0.000475973161888
0.000480110662381
0.000378646927596
0.000395120891567
0.000435666467316
0.000452570281942
0.00046025483281
0.000464570900101
0.000467856627104
0.000471043446928
0.000474565772838
0.000478895963175
0.000376171999373
0.000392677438895
0.000433103946744
0.000450085089928
0.000457930898592
0.000462433874107
0.000465914283214
0.000469300978712
0.000473025823709
0.000477549189937
0.000373469409884
0.000390037923277
0.000430333206762
0.000447389802031
0.000455403428457
0.000460108596753
0.000463806278453
0.000467417061622
0.000471366418464
0.000476075786766
0.000370547655822
0.000387222126466
0.00042737400001
0.000444499006929
0.000452683456904
0.000457604679708
0.000461538431156
0.00046540124325
0.000469589515148
0.000474504102064
0.000367454525165
0.000384263116099
0.000424256793269
0.000441439562577
0.000449787352769
0.000454925747754
0.000459112229749
0.00044672998225
)
;
    }
    sides
    {
        lowReCorrection 0;
        blending        stepwise;
        n               2;
        type            epsilonWallFunction;
        value           nonuniform List<scalar> 0();
    }
    bottom
    {
        lowReCorrection 0;
        blending        stepwise;
        n               2;
        type            epsilonWallFunction;
        value           nonuniform List<scalar> 
17
(
0.000391894307751
0.000391829808481
0.000391593267008
0.000391179660314
0.000390585197958
0.000389815588975
0.000388863556933
0.000387706841351
0.000386327371095
0.000384745613289
0.000382934492576
0.000380905890851
0.000378646927596
0.000376171999373
0.000373469409884
0.000370547655822
0.000367454525165
)
;
    }
    front
    {
        lowReCorrection 0;
        blending        stepwise;
        n               2;
        type            epsilonWallFunction;
        value           nonuniform List<scalar> 
164
(
0.000391894307751
0.000408475887912
0.000449274822917
0.000465380572711
0.000471970884975
0.000475210264222
0.000477478393773
0.00047965473793
0.000391829808481
0.000408385390919
0.000449253317097
0.000465425817357
0.000472064185205
0.000475335749089
0.000477626321709
0.000479818832779
0.000391593267008
0.000408130388323
0.000449050834309
0.000465287290803
0.000471977578215
0.000475286693505
0.000477605757872
0.000479820832595
0.000482284174516
0.000485273136325
0.000391179660314
0.000407704237052
0.000448661530091
0.000464959807093
0.000471706653222
0.000475060036525
0.00047741475554
0.000479660789239
0.000482151642662
0.000485158970305
0.000390585197958
0.000407100973542
0.000448077311787
0.000464436776363
0.000471246365969
0.000474652327689
0.000477051741084
0.000479338739256
0.000481869288568
0.000484912848422
0.000389815588975
0.000406318512268
0.000447294207004
0.000463713188195
0.000470592469407
0.000474060914724
0.000476515413974
0.00047885473026
0.000481438956528
0.000484543352021
0.000388863556933
0.00040534783978
0.000446303634386
0.000462781916167
0.000469740042007
0.000473283060654
0.000475805456399
0.000478211344079
0.000480868227646
0.000484068472324
0.000387706841351
0.000404170114133
0.00044509628643
0.000461636822999
0.000468684979775
0.000472316536615
0.000474921885958
0.000477411313445
0.000480164073505
0.000483503317711
0.000386327371095
0.000402784277076
0.000443667071949
0.000460273588969
0.000467423857995
0.000471158912465
0.000473863908703
0.000476455622085
0.000479328089914
0.00048284728669
0.000384745613289
0.000401189144263
0.000442009888829
0.000458686882289
0.000465952402699
0.000469807405566
0.000472629567238
0.000475341976225
0.000478354899593
0.00048207999471
0.000382934492576
0.000399381698167
0.000440124428585
0.000456874501923
0.000464267976245
0.000468259488179
0.000471216574071
0.000474068435873
0.000477237840766
0.000481174028945
0.000380905890851
0.000397357207569
0.000438008952458
0.000454835157916
0.000462368528385
0.00046651360336
0.000469625361714
0.000472634810441
0.000475973161888
0.000480110662381
0.000378646927596
0.000395120891567
0.000435666467316
0.000452570281942
0.00046025483281
0.000464570900101
0.000467856627104
0.000471043446928
0.000474565772838
0.000478895963175
0.000376171999373
0.000392677438895
0.000433103946744
0.000450085089928
0.000457930898592
0.000462433874107
0.000465914283214
0.000469300978712
0.000473025823709
0.000477549189937
0.000373469409884
0.000390037923277
0.000430333206762
0.000447389802031
0.000455403428457
0.000460108596753
0.000463806278453
0.000467417061622
0.000471366418464
0.000476075786766
0.000370547655822
0.000387222126466
0.00042737400001
0.000444499006929
0.000452683456904
0.000457604679708
0.000461538431156
0.00046540124325
0.000469589515148
0.000474504102064
0.000367454525165
0.000384263116099
0.000424256793269
0.000441439562577
0.000449787352769
0.000454925747754
0.000459112229749
0.00044672998225
)
;
    }
    atmosphere
    {
        type            inletOutlet;
        inletValue      nonuniform List<scalar> 0();
        value           nonuniform List<scalar> 0();
    }
    floatingObject
    {
        lowReCorrection 0;
        blending        stepwise;
        n               2;
        type            epsilonWallFunction;
        value           nonuniform List<scalar> 0();
    }
    procBoundary4to0
    {
        type            processor;
        value           nonuniform List<scalar> 8(0.000391773256152 0.000408398358549 0.000449117529811 0.00046515544438 0.000471701069785 0.000474914284 0.000477167282984 0.000479335352726);
    }
    procBoundary4to3
    {
        type            processor;
        value           nonuniform List<scalar> 
13
(
0.000463248313689
0.000467735083278
0.000472873983458
0.000364193709562
0.000381198791159
0.000421023082142
0.000438239604805
0.000452065211743
0.000463248313689
0.000456493143632
0.000438239604805
0.000452065211743
0.000443520070982
)
;
    }
    procBoundary4to5
    {
        type            processor;
        value           nonuniform List<scalar> 
18
(
0.000482093452889
0.000482266611647
0.000482266611647
0.000485253560514
0.000489407105454
0.000489283055901
0.000489062594668
0.000488778974172
0.000488480057351
0.000488202311026
0.000487931392208
0.000487590134949
0.000487067038618
0.000486289878756
0.000485275432201
0.000484074767262
0.000482687501543
0.000481110938365
)
;
    }
}


// ************************************************************************* //
