/*--------------------------------*- C++ -*----------------------------------*\
| =========                 |                                                 |
| \\      /  F ield         | OpenFOAM: The Open Source CFD Toolbox           |
|  \\    /   O peration     | Version:  v2012                                 |
|   \\  /    A nd           | Website:  www.openfoam.com                      |
|    \\/     M anipulation  |                                                 |
\*---------------------------------------------------------------------------*/
FoamFile
{
    version     2.0;
    format      ascii;
    class       surfaceScalarField;
    location    "5.9";
    object      phi;
}
// * * * * * * * * * * * * * * * * * * * * * * * * * * * * * * * * * * * * * //

dimensions      [0 3 -1 0 0 0 0];
oriented        oriented;


internalField   nonuniform List<scalar> 
300
(
-2.20851017382e-06
-0.000141337251563
-4.60589919851e-06
-0.000136610045932
-7.19561993696e-06
-0.000133304655193
-9.98406428481e-06
-0.000131814131466
-1.2988759123e-05
-0.000132168134538
-1.61916186344e-05
-0.000133759772519
-1.96731414057e-05
-0.000136060894484
-0.000138806709534
-2.64346189064e-06
-0.000138693563667
-5.48159266068e-06
-0.000133771680327
-8.50338578827e-06
-0.00013028263889
-1.1719045213e-05
-0.000128598271912
-1.51309636813e-05
-0.00012875604585
-1.87619174442e-05
-0.000130128681264
-2.26380120961e-05
-0.000132184693047
-0.00013465122268
-3.07794203066e-06
-0.000135615389914
-6.30000943881e-06
-0.000130549378408
-9.70776242034e-06
-0.000126874663535
-1.32961847336e-05
-0.000125009647853
-1.7063910829e-05
-0.000124988144772
-2.10233188277e-05
-0.000126169128414
-2.51857700674e-05
-0.000128022128893
-2.95639684439e-05
-0.000130272937636
-3.41951817961e-05
-0.000132775116051
-0.000135471592841
-3.46451980544e-06
-0.000132150652833
-7.06409260915e-06
-0.000126949590361
-1.08238450429e-05
-0.000123114705375
-1.47393679016e-05
-0.00012109393351
-1.88120971457e-05
-0.000120915243243
-2.30453559693e-05
-0.000121935721146
-2.74511932004e-05
-0.000123616170034
-3.20539642953e-05
-0.000125670068423
-3.68957907155e-05
-0.000127933206675
-0.000130351614624
-3.82451786196e-06
-0.000128325953795
-7.7760780804e-06
-0.000122997853484
-1.18561867417e-05
-0.000119034424205
-1.60760860452e-05
-0.000116873866899
-2.04215740928e-05
-0.000116569597202
-2.48961233632e-05
-0.000117461029039
-2.95145343235e-05
-0.000118997636447
-3.43046036167e-05
-0.000120879895411
-3.92520174304e-05
-0.000122985700654
-0.000125235436585
-4.18091201796e-06
-0.000124144912551
-8.46031661838e-06
-0.000118718324802
-1.28443756146e-05
-0.000114650238811
-1.73350191014e-05
-0.000112383092805
-2.19267852266e-05
-0.00011197770013
-2.66182425362e-05
-0.000112769447665
-3.14131493386e-05
-0.000114202619613
-3.6316586768e-05
-0.000115976361376
-4.13153169571e-05
-0.000117986880919
-0.000120120378961
-4.53692908727e-06
-0.000119607914424
-9.11484169402e-06
-0.000114140348367
-1.37731215092e-05
-0.000109991887361
-1.85175385977e-05
-0.000107638592489
-2.33440503374e-05
-0.000107151097731
-2.8250383024e-05
-0.000107863025324
-3.32329205189e-05
-0.000109220001838
-3.83020520756e-05
-0.000110907157771
-4.34298436584e-05
-0.000112859019625
-0.000114934899746
-4.86945407958e-06
-0.000114738453656
-9.7232460622e-06
-0.000109286555707
-1.46421922805e-05
-0.00010507292984
-1.96310971334e-05
-0.000102649661209
-2.46850531373e-05
-0.00010209710483
-2.98141966488e-05
-0.00010273384333
-3.50375769006e-05
-0.000103996589387
-4.03084646933e-05
-0.000105636241002
-4.56939262947e-05
-0.000107473525174
-0.00010949872583
-5.11866465318e-06
-0.000109619843215
-1.03066015943e-05
-0.000104098681126
-1.54930288454e-05
-9.98865549696e-05
-2.06845217905e-05
-9.74582065807e-05
-2.59445127976e-05
-9.68371430383e-05
-3.12770833377e-05
-9.74013008437e-05
-3.66999334271e-05
-9.85737712279e-05
-4.22444889975e-05
-0.000100091714522
-4.79331440788e-05
-0.000101784885716
-0.000103662262354
-5.44067090729e-06
-0.000104179283656
-1.08245405222e-05
-9.87149341565e-05
-1.6216045211e-05
-9.44951668602e-05
-2.1645032538e-05
-9.20293270359e-05
-2.71133634989e-05
-9.13689158089e-05
-3.26593197204e-05
-9.18554495763e-05
-3.82639072205e-05
-9.29692896509e-05
-4.4018900033e-05
-9.43368162734e-05
-4.9937016162e-05
-9.58668365015e-05
-9.74996051233e-05
-5.69170211338e-06
-9.84877432891e-05
-1.13314616006e-05
-9.30753509167e-05
-1.69378269942e-05
-8.8888977971e-05
-2.25581664266e-05
-8.64091637042e-05
-2.82065716101e-05
-8.57206902188e-05
-3.39009343163e-05
-8.61612709609e-05
-3.96972893122e-05
-8.71731155173e-05
-4.56002193491e-05
-8.84340439951e-05
-5.1666521514e-05
-8.98006460589e-05
-9.1145335336e-05
-5.97586471204e-06
-9.25120792024e-05
-1.18252620038e-05
-8.7226171114e-05
-1.76286222844e-05
-8.30858433566e-05
-2.34125681357e-05
-8.06254535848e-05
-2.92180236051e-05
-7.991548289e-05
-3.50642647234e-05
-8.03152857761e-05
-4.09725104114e-05
-8.12651165743e-05
-4.69677530117e-05
-8.24390097806e-05
-5.3114985451e-05
-8.36535556787e-05
-8.47203360289e-05
-6.19040809914e-06
-8.63218933878e-05
-1.22961250852e-05
-8.11206946599e-05
-1.82897512316e-05
-7.70924752595e-05
-2.42365387454e-05
-7.4678945853e-05
-3.01832127812e-05
-7.39691099892e-05
-3.61446797179e-05
-7.43541294902e-05
-4.21330068724e-05
-7.52770808136e-05
-4.81642229587e-05
-7.64080277202e-05
-5.4276057388e-05
-7.75418728712e-05
-7.85090610733e-05
-6.51343641525e-06
-7.98086795165e-05
-1.27839382213e-05
-7.48504345528e-05
-1.89415090739e-05
-7.09351738784e-05
-2.50408376823e-05
-6.85799199813e-05
-3.11101642745e-05
-6.79001135847e-05
-3.71650436256e-05
-6.8299584695e-05
-4.31984655357e-05
-6.92439573454e-05
-4.91998673686e-05
-7.0406894506e-05
-5.51975299411e-05
-7.15443875418e-05
-7.25944531857e-05
-6.74472629034e-06
-7.30641515798e-05
-1.3242236219e-05
-6.83531517455e-05
-1.95946578596e-05
-6.45830328687e-05
-2.58236320145e-05
-6.23512993566e-05
-3.20135638738e-05
-6.1710527254e-05
-3.8162913353e-05
-6.21506115271e-05
-4.42344070604e-05
-6.31729318637e-05
-5.02332547316e-05
-6.44083406571e-05
-5.60659598052e-05
-6.571191432e-05
-6.69930216531e-05
-6.92509260197e-06
-6.6139226763e-05
-1.36539153086e-05
-6.16245591816e-05
-2.0163082741e-05
-5.80742136896e-05
-2.65653390771e-05
-5.59493945699e-05
-3.29040683427e-05
-5.53723534295e-05
-3.91863540757e-05
-5.58689287946e-05
-4.53385761763e-05
-5.70210842651e-05
-5.1334166156e-05
-5.71415652498e-05
-7.17643049011e-06
-1.40385798064e-05
-2.07086215342e-05
-2.72702419706e-05
-3.3774178023e-05
-4.88689194361e-05
-4.02134590417e-05
)
;

boundaryField
{
    back
    {
        type            calculated;
        value           uniform 0;
    }
    sides
    {
        type            calculated;
        value           nonuniform List<scalar> 0();
    }
    bottom
    {
        type            calculated;
        value           uniform 0;
    }
    front
    {
        type            calculated;
        value           uniform 0;
    }
    atmosphere
    {
        type            calculated;
        value           nonuniform List<scalar> 0();
    }
    floatingObject
    {
        type            calculated;
        value           nonuniform List<scalar> 0();
    }
    procBoundary4to0
    {
        type            processor;
        value           nonuniform List<scalar> 8(0.00014354603885 0.000139007737044 0.000135894672576 0.000134602850359 0.000135173072139 0.00013696283734 0.000139542582151 0.000142689903956);
    }
    procBoundary4to3
    {
        type            processor;
        value           nonuniform List<scalar> 
13
(
-5.84131536844e-05
-5.99045743418e-05
-6.15737894462e-05
-5.89629325081e-05
-5.47626281111e-05
-5.14044720748e-05
-4.93883983119e-05
-4.94301608668e-05
-4.65584818442e-05
-5.06765597768e-05
2.78581482824e-05
-3.45742021548e-05
-4.21536974474e-05
)
;
    }
    procBoundary4to5
    {
        type            processor;
        value           nonuniform List<scalar> 
18
(
-2.35561898568e-05
-2.67934188592e-05
0.000137406435149
0.000140570344053
-3.92938366242e-05
-4.20157013553e-05
-4.43681201267e-05
-4.64302999183e-05
-4.86152618525e-05
-5.1130064729e-05
-5.37696036799e-05
-5.60996994383e-05
-5.80208391125e-05
-5.95400432057e-05
-6.0487388297e-05
-6.11122035422e-05
-6.16672984352e-05
-6.25608904149e-05
)
;
    }
}


// ************************************************************************* //
