/*--------------------------------*- C++ -*----------------------------------*\
| =========                 |                                                 |
| \\      /  F ield         | OpenFOAM: The Open Source CFD Toolbox           |
|  \\    /   O peration     | Version:  v2012                                 |
|   \\  /    A nd           | Website:  www.openfoam.com                      |
|    \\/     M anipulation  |                                                 |
\*---------------------------------------------------------------------------*/
FoamFile
{
    version     2.0;
    format      ascii;
    class       surfaceVectorField;
    location    "0.7";
    object      ddtCorrDdt0(Uf);
}
// * * * * * * * * * * * * * * * * * * * * * * * * * * * * * * * * * * * * * //

dimensions      [0 1 -2 0 0 0 0];


internalField   nonuniform List<vector> 
300
(
(0.0948133292418 0.00775431476385 -3.79180941462e-22)
(0.0884678536694 0.00436497291725 -1.16407010043e-21)
(0.0989243983414 0.0155507390273 -1.89903517425e-22)
(0.0937976579553 0.012497105988 4.71846138783e-22)
(0.101796235256 0.0235137067106 -1.47284713467e-22)
(0.0963993604159 0.0206058309886 -2.39153945658e-22)
(0.105308266777 0.0317550439058 -9.57121393802e-23)
(0.0992843010344 0.0293425288594 -2.96075687948e-22)
(0.109885326595 0.0403699573051 -4.17652895454e-23)
(0.103074249555 0.0383588472803 -4.0276112092e-23)
(0.115715013498 0.049442007659 -1.88085961318e-23)
(0.107993601976 0.0478541977746 -4.85523575544e-24)
(0.122964319526 0.0590463044335 1.86147592054e-23)
(0.114202845926 0.0579255167412 2.52932946054e-23)
(0.121885100666 0.0686674388038 3.20501412494e-24)
(0.0865758715827 0.0086209828238 -3.13043020185e-22)
(0.0798431666706 0.00490792092254 -1.24740597682e-21)
(0.0905558933535 0.0173130595295 4.2259571055e-22)
(0.0851020256552 0.0136585981981 1.51494250805e-21)
(0.0931683895531 0.0262538982853 -3.87944920139e-22)
(0.0874557058498 0.0226560592214 -7.14612017555e-23)
(0.0963127990019 0.0355530835219 -2.4063966066e-22)
(0.0899834637234 0.0323983639519 -3.01898586613e-22)
(0.10041786356 0.0453307969039 -3.36605830205e-24)
(0.0932961927108 0.0424678073866 -6.14344443584e-23)
(0.105677823374 0.0557048228478 3.92466549818e-23)
(0.0976205561459 0.0531335377382 2.01879190468e-23)
(0.112267253221 0.0667895769089 9.8835495249e-24)
(0.103119783797 0.0645367955729 -1.42269650227e-23)
(0.109983116506 0.0768171445473 -1.67173722124e-23)
(0.0775248788419 0.00935287928151 5.8057955142e-22)
(0.0704869207013 0.0053831820931 -8.08480362056e-22)
(0.0813039464206 0.018807806782 1.02088559575e-21)
(0.0756439872938 0.0145833268128 5.00113265692e-22)
(0.0835714047496 0.0286442227476 1.45851317704e-23)
(0.0776170547442 0.0243548827153 1.02426583272e-23)
(0.0862645813225 0.0388949874698 -1.22693370311e-22)
(0.0797317639509 0.0350225027785 -3.42938826056e-23)
(0.0897763318234 0.0497181803797 -3.78804670095e-23)
(0.082473456882 0.0460032522607 1.00467560443e-23)
(0.0943043776244 0.0612777438319 -3.32857009577e-23)
(0.0860626199815 0.0576947159667 -2.55711577221e-23)
(0.100027402193 0.0737339162505 -4.082788676e-23)
(0.0906659060851 0.0702905679943 -5.75703581059e-23)
(0.107159931015 0.0872442908621 2.23325618457e-23)
(0.0964743089225 0.0839775321211 -3.62280689396e-23)
(0.115969948496 0.101963136273 -3.68915410449e-23)
(0.103727230185 0.0989415665223 6.01299553595e-23)
(0.112726571679 0.115370394861 -1.09444383981e-22)
(0.0677965107766 0.00988762570896 -8.88946647784e-22)
(0.0605961856069 0.0058197017202 -3.9683040152e-22)
(0.0712739898642 0.0199720311623 -5.10529671727e-22)
(0.0655569088222 0.015252360114 -5.14983935693e-22)
(0.0731130871452 0.0306630031017 -3.86363560488e-23)
(0.0669244891373 0.0256671759743 1.59180117384e-22)
(0.0753034702791 0.0416985220322 9.84462437501e-23)
(0.0686961499214 0.0371788742515 1.15141978316e-22)
(0.0781009305352 0.05339444932 2.23560653317e-23)
(0.0707789572463 0.0488434688854 1.04593439563e-22)
(0.0817299959576 0.0659740081162 -4.98558148703e-23)
(0.0734856154906 0.0613661416141 1.12236586476e-23)
(0.086372595222 0.0796413691136 -5.29705402855e-23)
(0.0770014665919 0.0749681882879 -4.48437086918e-23)
(0.0922409346524 0.0946044188852 1.56932457411e-24)
(0.0815127048979 0.0898757535899 -1.64493607664e-22)
(0.0996026446253 0.111078803536 -1.24228875766e-23)
(0.0872506372517 0.106330212411 6.10412947915e-23)
(0.0945116593453 0.124592141542 1.27963049339e-23)
(0.0577201615186 0.0100823294601 -2.286768943e-23)
(0.0505111264506 0.00627194096007 6.00796131279e-22)
(0.0605358713083 0.0209184665058 1.54725853418e-22)
(0.0547186872262 0.0154671147828 7.39689673163e-22)
(0.0619355667589 0.0323998621501 3.12958451749e-22)
(0.055442320209 0.0265985812509 5.22584470016e-22)
(0.0636474781138 0.0438585783133 1.21289174129e-22)
(0.0572383872052 0.0388465989485 5.18698191959e-22)
(0.065578683501 0.0561996208593 9.3461032879e-23)
(0.0584405494254 0.0508091900926 3.68891058673e-23)
(0.0681364865136 0.0695936852738 1.62357648261e-23)
(0.0600953057212 0.0639590433953 9.31931305161e-24)
(0.0714845552937 0.0842643088573 -1.5636677607e-22)
(0.0623346773946 0.0783455636654 2.46171194177e-23)
(0.0758183370512 0.100466037187 -1.05021637446e-22)
(0.0653126341417 0.0942349891228 -1.49534951243e-22)
(0.0813892652444 0.118477802736 8.6260487302e-23)
(0.0692358824718 0.111924572277 -6.89241690747e-24)
(0.0743706883529 0.13175816163 1.14378777642e-23)
(0.0461648565054 0.0116392548723 1.36335349387e-21)
(0.0388697372603 0.00613334963769 5.31401557329e-22)
(0.0494522564041 0.023388033877 1.10754828976e-21)
(0.0429686261253 0.0155568582512 1.81862299381e-22)
(0.0507023989857 0.0331284364167 7.28324210226e-22)
(0.0457021927772 0.0271295684655 3.19403483334e-22)
(0.0514538969187 0.045101544834 4.34298123697e-22)
(0.0452675320837 0.0394763060835 6.78820575653e-22)
(0.0524080159671 0.0579472111048 -4.72526139602e-23)
(0.0455989935033 0.0517546845014 -3.72900353867e-23)
(0.0537450699796 0.071935109678 1.77006676432e-23)
(0.0461126416362 0.0653058757805 1.04607714176e-22)
(0.0555998143319 0.0873561522011 3.14489442452e-23)
(0.0469186734308 0.0802133856624 1.82633046638e-22)
(0.0581427993258 0.104520983565 -5.14057307037e-23)
(0.0481499003443 0.0967924778578 1.16665425608e-22)
(0.0615836697367 0.12376735194 -8.17150264452e-23)
(0.0499857607552 0.115381488511 -2.0724580624e-23)
(0.0526027467807 0.136434714365 -8.51955478688e-23)
(0.0351678611034 0.0106094933082 -6.50089637163e-22)
(0.0282588929754 0.00588807080628 3.23553467507e-22)
(0.0383316120084 0.0211390371433 -6.06282507046e-22)
(0.0324387965371 0.0156752552644 -7.77435564463e-22)
(0.0391408267581 0.0333443466299 2.69899848761e-22)
(0.0334984231241 0.0270848902757 1.66902884107e-22)
(0.0389184649853 0.0454553955563 2.07232416569e-22)
(0.0331602825042 0.0390473990299 5.12314759276e-22)
(0.0388224669904 0.0585232614984 1.14570292749e-22)
(0.0325369859236 0.0516036154512 6.12840712711e-23)
(0.0388149275155 0.0728376696129 2.69540093171e-22)
(0.0318052311993 0.0652793284472 2.503741677e-22)
(0.0390018359356 0.0887164012113 2.67849528002e-22)
(0.0310464668557 0.080393739168 3.68726745971e-22)
(0.0395141166331 0.10652669102 1.47346575688e-22)
(0.0303423518627 0.0973048012649 1.53989868467e-22)
(0.0405315153804 0.126697363879 -2.42051020476e-23)
(0.0298106187589 0.116402612819 2.10265403346e-22)
(0.0296875549462 0.138234744157 2.2609592192e-22)
(0.0245443221765 0.010544179765 1.96207540206e-22)
(0.0177142603962 0.0060018081846 3.74170477734e-22)
(0.0271126561958 0.0212537044603 -4.25017331023e-24)
(0.0217300903784 0.015380522242 -6.39066440996e-22)
(0.0271730520722 0.0327000501948 4.09317794623e-22)
(0.0220550172015 0.0263727101083 2.46718177363e-22)
(0.0263136229928 0.0447807194845 3.66366413978e-22)
(0.0210851459117 0.0379690996458 5.79919437092e-22)
(0.0251022903529 0.0578214065236 1.97087946222e-22)
(0.0195041424089 0.0503188372327 2.79791622948e-22)
(0.0236585677307 0.0721472972596 3.495608205e-22)
(0.0174883760507 0.063799747599 2.53732772944e-22)
(0.0220476643379 0.0881135967959 2.54867086436e-22)
(0.0150884790226 0.0787623437061 2.45931929391e-22)
(0.0203454361891 0.106120381157 2.16908696125e-22)
(0.0123392268274 0.0955917456818 2.81611317883e-22)
(0.0186872100252 0.126630942249 4.60566427314e-22)
(0.00929515271485 0.114740996242 3.33831557575e-22)
(0.00607305017858 0.136777375338 4.34343585542e-22)
(0.0141301155038 0.0101375430255 -4.61103503468e-22)
(0.0075771502904 0.00587554073444 5.22375706378e-22)
(0.0162314184574 0.0205461594808 -3.88098090322e-22)
(0.0113233564786 0.0146465272672 -5.52545980486e-22)
(0.0156152775283 0.0314912408657 4.17319819832e-22)
(0.0111142691552 0.0250496088478 5.16670386078e-22)
(0.0139211571506 0.0431606821137 4.93344646061e-22)
(0.00942303143539 0.0360967837658 4.70512504395e-22)
(0.0115631452527 0.0558298965268 3.3643644967e-22)
(0.00684490202018 0.0479012209126 2.27900438036e-22)
(0.00863463273029 0.069812333483 1.50103881835e-22)
(0.00351725040405 0.0608374121423 3.02656528084e-22)
(0.00515164549781 0.0854684736527 2.72676160837e-22)
(-0.000557230153986 0.0752555283014 4.22624866805e-22)
(0.00112189731271 0.103224630049 3.98534179333e-22)
(-0.00541189820321 0.0915475482491 2.79311527698e-22)
(-0.0034131649802 0.123600248089 3.07608715803e-22)
(-0.0110850307843 0.11019917858 5.47859363027e-22)
(-0.0175658860715 0.131774929565 2.52677080091e-22)
(0.00416716586675 0.00950593288875 4.30933229359e-22)
(-0.00192765727376 0.00556179138197 1.56039095522e-21)
(0.00584801464856 0.0193205380026 3.52222495915e-22)
(0.00151145260644 0.0135154358675 3.98115295341e-22)
(0.00462051702011 0.0295858778277 5.69863070641e-22)
(0.000854435685382 0.0231237238386 6.25394460791e-22)
(0.00206690547992 0.0405683318649 2.0506829637e-22)
(-0.00155044023016 0.0333902995195 4.37228874464e-22)
(-0.00144577780558 0.0525338181847 1.94120516451e-22)
(-0.00510849724943 0.0443515592547 4.9894902625e-23)
(-0.00586779297215 0.0657966468064 5.75177513054e-22)
(-0.00973185217951 0.056395024707 1.28651237508e-22)
(-0.0112443987279 0.0807127459987 4.29260233667e-22)
(-0.0154604491613 0.06986318554 4.24670651693e-22)
(-0.0176403502532 0.0977238137475 4.28636711393e-22)
(-0.0224158851583 0.0851405408941 -6.96671011262e-23)
(-0.0251205558614 0.117315707174 4.92927727315e-22)
(-0.0306797653984 0.102709970617 4.38078418093e-22)
(-0.0404236282629 0.12312537137 3.66565471684e-22)
(-0.00506496602317 0.00864288847805 1.52757302121e-21)
(-0.0105691535376 0.0050824971111 1.82942698328e-21)
(-0.00377776429373 0.0175971393648 6.71287260217e-22)
(-0.00743976830851 0.0120213685056 -8.60336429201e-22)
(-0.00557281535762 0.0269724268829 4.92760264614e-22)
(-0.00851464063652 0.0206216329164 2.26891777286e-22)
(-0.00895057610396 0.036993399247 2.82055480719e-22)
(-0.0115611612443 0.0298666000929 2.7736023567e-22)
(-0.0135816212218 0.0479449071841 -1.55743763173e-23)
(-0.0160460477184 0.0397020468414 7.97898416246e-23)
(-0.0194565083047 0.0601290324551 -2.18556238536e-23)
(-0.0218998758622 0.0505183781576 -4.984515319e-23)
(-0.0266705537413 0.0738946180351 -7.42566831001e-23)
(-0.029210485126 0.0626453360207 1.97948650168e-22)
(-0.0353592235282 0.0896104351382 -6.0225394426e-23)
(-0.0381218056103 0.0764457257459 7.73590725611e-23)
(-0.0457063715563 0.107780471012 3.11716162462e-22)
(-0.0488491961219 0.0923598067316 2.3235670909e-22)
(-0.0616874398164 0.110895658153 4.16929327088e-22)
(-0.0133365978819 0.00755246263126 -5.58482467125e-22)
(-0.0181206304676 0.00446171392914 1.52738172804e-21)
(-0.0124150339196 0.0154236013182 -1.30473191213e-21)
(-0.0153082516705 0.0102154522727 -2.25891549804e-21)
(-0.0147201620777 0.0236598278651 1.14917483421e-23)
(-0.0167446163396 0.0176006744932 -7.46250767366e-23)
(-0.0188507654281 0.0324823225287 7.50945965754e-23)
(-0.0203727196227 0.0255884520907 1.57894026386e-22)
(-0.0245123708242 0.0421268436319 4.55190647519e-23)
(-0.0256751908417 0.0340341585581 2.1787232944e-22)
(-0.0317307921577 0.0528661420628 1.69959120832e-22)
(-0.0326209693931 0.0433131558931 1.31183365011e-22)
(-0.0406455630919 0.0650110371319 3.4956440583e-22)
(-0.0413372217414 0.0537386318079 3.00912335221e-22)
(-0.0514676749034 0.0789411806246 3.69941176077e-22)
(-0.0520387593267 0.0656284177018 4.57733047231e-23)
(-0.064477656618 0.0951119660622 3.37569873716e-22)
(-0.0650146504778 0.0793582529884 -1.87814448721e-23)
(-0.0806025181622 0.0953642800908 2.4551704412e-22)
(-0.0204293425158 0.00627253655026 -1.73051302875e-22)
(-0.0243933713452 0.00372727215839 1.8303066675e-21)
(-0.0198444497065 0.0128608617506 -1.02880866264e-21)
(-0.0218950251149 0.00815585025676 -2.69125783511e-21)
(-0.0225913700873 0.0197605211363 7.17772013068e-23)
(-0.0236386234794 0.014141550026 -3.27227112301e-22)
(-0.0273709533417 0.0271388560284 3.0067175925e-22)
(-0.0277399938944 0.0206605058236 4.75024703274e-22)
(-0.0339223330688 0.0351980332044 3.03536629699e-22)
(-0.033718041634 0.0274830267844 4.52940401618e-22)
(-0.0423104921328 0.0441765853628 2.621365794e-22)
(-0.0415796563075 0.0349483807904 1.47280274322e-22)
(-0.0527255784542 0.0543514656585 -2.87876588553e-24)
(-0.0514917935117 0.0433455081961 1.77589762946e-23)
(-0.0654406888288 0.0660469016857 -3.42949316226e-22)
(-0.0637180352139 0.0529353464278 -2.54571668042e-22)
(-0.0807899964033 0.0796336905367 -1.10834274468e-22)
(-0.0785914850493 0.0640309273365 3.58584738169e-23)
(-0.096506339433 0.0769756029516 3.95323735716e-22)
(-0.0261815128436 0.00484074489719 -6.87899864731e-22)
(-0.0292361011716 0.00290616801381 2.58969228782e-21)
(-0.0258862860699 0.00998926810479 -1.98967628477e-21)
(-0.0270435061688 0.00590144283405 -3.03617939398e-21)
(-0.0289788497453 0.0153696915755 7.60203896669e-23)
(-0.0290142804101 0.0103425048234 -6.70532526805e-22)
(-0.0342692878389 0.021103205943 6.27293345642e-22)
(-0.0334625185872 0.0152189348776 9.63753430406e-22)
(-0.0415333836665 0.0273431248976 2.9668404624e-22)
(-0.0399408606354 0.0202232040095 2.97930349288e-22)
(-0.0508768785953 0.0342842110287 -9.70973287834e-23)
(-0.0484995185094 0.0256390015623 1.24295180166e-22)
(-0.0625303622037 0.0421580195432 -2.33933925862e-22)
(-0.0593440217559 0.0317258804771 7.00495624867e-23)
(-0.0768068754492 0.0512305986902 1.24236122001e-22)
(-0.0727690339663 0.0386895645888 1.21003176563e-22)
(-0.0940787896848 0.0617998102037 5.42016484e-22)
(-0.0891450769178 0.0467897684045 6.76969984263e-22)
(-0.108880754863 0.0562791776468 5.19315066537e-22)
(-0.0304526421984 0.00329641210783 2.41412758571e-22)
(-0.0325377403263 0.00202897598745 5.13944573494e-21)
(-0.0303903710181 0.00688625467468 -1.71703563602e-21)
(-0.0306353622996 0.00351805829849 -2.26809636721e-21)
(-0.0337100252403 0.010613670269 2.17200513934e-22)
(-0.0327374904139 0.00632066646246 -1.0909175697e-21)
(-0.0393433738382 0.014540910712 6.34390434053e-22)
(-0.0373777554401 0.00942723279318 7.30172250157e-22)
(-0.0471056357759 0.0187670640956 1.25541483213e-22)
(-0.0441491773402 0.0124646713382 2.12211330892e-22)
(-0.0571427260551 0.0234356680436 2.91442071436e-22)
(-0.053143765915 0.0156435073458 5.78480300279e-23)
(-0.0697250029319 0.0287320215466 4.24986664912e-22)
(-0.0646042364537 0.0191874208961 3.15809770491e-22)
(-0.0851968957214 0.0348739568865 6.73737038826e-22)
(-0.07888285925 0.0232573544618 1.16881485287e-22)
(-0.10394244984 0.0421064861182 6.542685668e-22)
(-0.0963593860312 0.0280829260281 5.07720452236e-22)
(-0.117412207693 0.0338613202332 4.79503517539e-22)
(-0.0331243948848 0.00169188745743 2.62993660916e-21)
(-0.0342377706875 0.0011327234734 7.04034738134e-21)
(-0.0332412909217 0.00365509962411 -1.6419783009e-21)
(-0.0326010849664 0.00109177253259 -1.07224188595e-21)
(-0.0366533218339 0.00564434955012 -5.77945833482e-22)
(-0.0347209709014 0.0022220899218 -3.17408563819e-22)
(-0.0424317415102 0.00765349457457 3.07993146997e-22)
(-0.0393691714675 0.00348750722223 6.03316202355e-22)
(-0.0504361173078 0.00972085336526 1.44517877707e-22)
(-0.0461861753978 0.00446255762374 5.36025580229e-22)
(-0.0608613454854 0.0119336655278 8.22157290838e-23)
(-0.0553099012991 0.00526453305903 4.22343995118e-23)
(-0.07403110766 0.0144179947665 7.70459086685e-24)
(-0.0670508894697 0.00606991098258 -2.50870902143e-23)
(-0.0903268041174 0.0173859494273 -4.9135101303e-23)
(-0.11011867986 0.0210531906252 3.32955402975e-22)
(-0.0341579150101 9.40611636584e-05 3.33816888623e-21)
(-0.034383200183 0.00042508867857 2.5232785113e-22)
(-0.0377276925292 0.000654006639355 8.63853472018e-22)
(-0.0434191466678 0.000692891426012 8.31348635587e-22)
(-0.0513701799865 0.000510314219523 4.33742102033e-22)
(-0.0459534308657 -0.00348190247852 4.23359253055e-22)
(-0.0618342650489 0.000108908756887 -6.50684197863e-23)
)
;

boundaryField
{
    back
    {
        type            calculated;
        value           uniform (0 0 0);
    }
    sides
    {
        type            calculated;
        value           nonuniform List<vector> 0();
    }
    bottom
    {
        type            calculated;
        value           uniform (0 0 0);
    }
    front
    {
        type            calculated;
        value           uniform (0 0 0);
    }
    atmosphere
    {
        type            calculated;
        value           nonuniform List<vector> 0();
    }
    floatingObject
    {
        type            calculated;
        value           nonuniform List<vector> 0();
    }
    procBoundary4to0
    {
        type            processor;
        value           nonuniform List<vector> 8((0.0962293083838 0.00377229009382 -6.62663286473e-22) (0.101600993305 0.0111537427746 -5.87198642266e-22) (0.104368211978 0.018269995345 -3.14917713435e-23) (0.107529884914 0.0259221425617 -5.96125208109e-23) (0.111691482095 0.0337889854738 -2.59457859267e-23) (0.117066106325 0.042015846513 -4.77081247404e-23) (0.123806130519 0.0506631633637 2.25287691184e-24) (0.132083690073 0.0597863012584 2.87110876051e-25));
    }
    procBoundary4to3
    {
        type            processor;
        value           nonuniform List<vector> 
13
(
(-0.0818152698476 0.00701186839488 -1.57284620593e-22)
(-0.100010321895 0.00834134159515 -1.3770339503e-22)
(-0.121934163272 0.0102659732966 3.07748937858e-22)
(-0.0343394941757 0.000258834214294 4.48585576558e-21)
(-0.032932800992 -0.00127014242487 1.29889188626e-21)
(-0.0349319676674 -0.00177757720267 7.91837835554e-23)
(-0.0393765398716 -0.00235804814874 5.66408159062e-22)
(-0.0548640517499 -0.0051448635363 2.49426351107e-22)
(-0.0752120733804 -0.000426958402574 -1.90076301674e-22)
(-0.0664678675767 -0.00724139051584 -3.36540279443e-22)
(-0.0422530381333 -0.00604707794099 1.5841877653e-22)
(-0.0497959241281 -0.00852101417708 2.39043502129e-22)
(-0.0434190620647 -0.0110054959092 3.17196583102e-22)
)
;
    }
    procBoundary4to5
    {
        type            processor;
        value           nonuniform List<vector> 
18
(
(0.131830353406 0.0692461290181 1.8572424743e-23)
(0.120394951421 0.0786931681549 2.27619574418e-23)
(0.118446984179 0.0901057266336 6.18118915e-23)
(0.128805166985 0.104523837013 -4.95365462139e-23)
(0.126792263525 0.118036669056 -8.02697778701e-23)
(0.108799386153 0.129288047536 -2.58366031402e-23)
(0.0885330197824 0.138611479446 4.88945768567e-24)
(0.0662446198061 0.145526181962 -1.82432108115e-23)
(0.0423222338983 0.149601545029 6.68401379275e-23)
(0.0172293893942 0.150232860466 1.53978536808e-23)
(-0.00841054566466 0.147226087039 6.35602810884e-22)
(-0.033767976289 0.14016175055 -4.01618883508e-24)
(-0.0579385031462 0.129036323622 4.74162154664e-23)
(-0.0800206766384 0.114024539329 7.39388050022e-22)
(-0.0991997976496 0.0955401243544 3.88400019486e-22)
(-0.114810906637 0.0741803746924 5.76727270216e-22)
(-0.126403163992 0.0506378464729 6.60190878169e-22)
(-0.133757384029 0.0255731901702 5.51797131261e-22)
)
;
    }
}


// ************************************************************************* //
