/*--------------------------------*- C++ -*----------------------------------*\
| =========                 |                                                 |
| \\      /  F ield         | OpenFOAM: The Open Source CFD Toolbox           |
|  \\    /   O peration     | Version:  v2012                                 |
|   \\  /    A nd           | Website:  www.openfoam.com                      |
|    \\/     M anipulation  |                                                 |
\*---------------------------------------------------------------------------*/
FoamFile
{
    version     2.0;
    format      ascii;
    class       volScalarField;
    location    "0.7";
    object      epsilon_0;
}
// * * * * * * * * * * * * * * * * * * * * * * * * * * * * * * * * * * * * * //

dimensions      [0 2 -3 0 0 0 0];


internalField   nonuniform List<scalar> 
164
(
0.0394024906624
0.0386427033203
0.040603003296
0.0409869595075
0.0410654411244
0.0411009838528
0.041135808083
0.0411753784686
0.0394597293381
0.0386980140554
0.0406654380223
0.041052794258
0.0411337355766
0.0411719520671
0.0412099503108
0.0412532549228
0.039508836862
0.0387489138851
0.0407245232081
0.0411158508519
0.0411996799244
0.0412410335342
0.0412827518935
0.0413304318116
0.0413845949969
0.0414451352914
0.0395483029824
0.0387943972338
0.0407793489859
0.0411752776001
0.0412624638154
0.0413074602962
0.0413534951178
0.0414062481441
0.0414662678633
0.0415334796355
0.0395764986844
0.0388333335971
0.0408288749015
0.0412301010525
0.0413211604501
0.0413703548557
0.0414213632137
0.0414799625888
0.0415467338295
0.041621631051
0.0395920052446
0.0388642404056
0.0408718504208
0.0412792124158
0.041374719473
0.0414287194736
0.0414854196548
0.0415507116066
0.0416252141083
0.0417089112934
0.039600039605
0.0388818716399
0.0409050712273
0.0413208506874
0.0414218778541
0.0414814189817
0.0415445868312
0.0416174803913
0.0417007848217
0.0417945227876
0.0396017247756
0.0388837124644
0.0409262695089
0.0413532945305
0.0414612856476
0.0415272835422
0.0415977981716
0.0416792714418
0.0417724665797
0.0418774509895
0.039594556272
0.0388684481481
0.0409336405959
0.0413749663986
0.0414914940712
0.0415649643659
0.0416438128958
0.0417349810512
0.0418393497612
0.0419570224905
0.0395761107955
0.0388347015177
0.0409254207241
0.0413841559106
0.041510917576
0.041592980921
0.0416812458554
0.0417833369882
0.0419002676862
0.0420321973832
0.0395437962505
0.0387811162139
0.04089977774
0.0413790387301
0.0415178542926
0.0416097553376
0.0417086394188
0.0418229781821
0.0419539665075
0.042101857807
0.0394948205468
0.0387064104002
0.0408549633364
0.0413577373755
0.0415105245478
0.0416136165041
0.0417244235465
0.0418524513166
0.0419991646748
0.0421648709807
0.0394263683448
0.0386098143168
0.0407895025503
0.0413184542101
0.0414871168172
0.0416028225624
0.0417269575522
0.0418702946
0.0420346005018
0.0422201578705
0.039335975304
0.0384911258846
0.0407023104024
0.0412595267947
0.0414458519399
0.0415756487806
0.041714642136
0.0418750762684
0.0420590296735
0.0422667203757
0.0392215177427
0.0383506479375
0.0405927623243
0.0411795805663
0.0413851048661
0.0415304621575
0.041685947465
0.0418654475122
0.0420713794582
0.0423038115344
0.0390813882611
0.0381893254933
0.0404608716459
0.041077711186
0.0413035661294
0.0414658307451
0.0416394806957
0.0418402450199
0.0420709172963
0.0423311473403
0.0389151344407
0.0380091675087
0.0403076180973
0.0409537646893
0.0412004323614
0.0413806790791
0.0415741755918
0.0410757415083
)
;

boundaryField
{
    back
    {
        lowReCorrection 0;
        blending        stepwise;
        n               2;
        type            epsilonWallFunction;
        value           nonuniform List<scalar> 
164
(
0.0394024906624
0.0386427033203
0.040603003296
0.0409869595075
0.0410654411244
0.0411009838528
0.041135808083
0.0411753784686
0.0394597293381
0.0386980140554
0.0406654380223
0.041052794258
0.0411337355766
0.0411719520671
0.0412099503108
0.0412532549228
0.039508836862
0.0387489138851
0.0407245232081
0.0411158508519
0.0411996799244
0.0412410335342
0.0412827518935
0.0413304318116
0.0413845949969
0.0414451352914
0.0395483029824
0.0387943972338
0.0407793489859
0.0411752776001
0.0412624638154
0.0413074602962
0.0413534951178
0.0414062481441
0.0414662678633
0.0415334796355
0.0395764986844
0.0388333335971
0.0408288749015
0.0412301010525
0.0413211604501
0.0413703548557
0.0414213632137
0.0414799625888
0.0415467338295
0.041621631051
0.0395920052446
0.0388642404056
0.0408718504208
0.0412792124158
0.041374719473
0.0414287194736
0.0414854196548
0.0415507116066
0.0416252141083
0.0417089112934
0.039600039605
0.0388818716399
0.0409050712273
0.0413208506874
0.0414218778541
0.0414814189817
0.0415445868312
0.0416174803913
0.0417007848217
0.0417945227876
0.0396017247756
0.0388837124644
0.0409262695089
0.0413532945305
0.0414612856476
0.0415272835422
0.0415977981716
0.0416792714418
0.0417724665797
0.0418774509895
0.039594556272
0.0388684481481
0.0409336405959
0.0413749663986
0.0414914940712
0.0415649643659
0.0416438128958
0.0417349810512
0.0418393497612
0.0419570224905
0.0395761107955
0.0388347015177
0.0409254207241
0.0413841559106
0.041510917576
0.041592980921
0.0416812458554
0.0417833369882
0.0419002676862
0.0420321973832
0.0395437962505
0.0387811162139
0.04089977774
0.0413790387301
0.0415178542926
0.0416097553376
0.0417086394188
0.0418229781821
0.0419539665075
0.042101857807
0.0394948205468
0.0387064104002
0.0408549633364
0.0413577373755
0.0415105245478
0.0416136165041
0.0417244235465
0.0418524513166
0.0419991646748
0.0421648709807
0.0394263683448
0.0386098143168
0.0407895025503
0.0413184542101
0.0414871168172
0.0416028225624
0.0417269575522
0.0418702946
0.0420346005018
0.0422201578705
0.039335975304
0.0384911258846
0.0407023104024
0.0412595267947
0.0414458519399
0.0415756487806
0.041714642136
0.0418750762684
0.0420590296735
0.0422667203757
0.0392215177427
0.0383506479375
0.0405927623243
0.0411795805663
0.0413851048661
0.0415304621575
0.041685947465
0.0418654475122
0.0420713794582
0.0423038115344
0.0390813882611
0.0381893254933
0.0404608716459
0.041077711186
0.0413035661294
0.0414658307451
0.0416394806957
0.0418402450199
0.0420709172963
0.0423311473403
0.0389151344407
0.0380091675087
0.0403076180973
0.0409537646893
0.0412004323614
0.0413806790791
0.0415741755918
0.0410757415083
)
;
    }
    sides
    {
        lowReCorrection 0;
        blending        stepwise;
        n               2;
        type            epsilonWallFunction;
        value           nonuniform List<scalar> 0();
    }
    bottom
    {
        lowReCorrection 0;
        blending        stepwise;
        n               2;
        type            epsilonWallFunction;
        value           nonuniform List<scalar> 
17
(
0.0394024906624
0.0394597293381
0.039508836862
0.0395483029824
0.0395764986844
0.0395920052446
0.039600039605
0.0396017247756
0.039594556272
0.0395761107955
0.0395437962505
0.0394948205468
0.0394263683448
0.039335975304
0.0392215177427
0.0390813882611
0.0389151344407
)
;
    }
    front
    {
        lowReCorrection 0;
        blending        stepwise;
        n               2;
        type            epsilonWallFunction;
        value           nonuniform List<scalar> 
164
(
0.0394024906624
0.0386427033203
0.040603003296
0.0409869595075
0.0410654411244
0.0411009838528
0.041135808083
0.0411753784686
0.0394597293381
0.0386980140554
0.0406654380223
0.041052794258
0.0411337355766
0.0411719520671
0.0412099503108
0.0412532549228
0.039508836862
0.0387489138851
0.0407245232081
0.0411158508519
0.0411996799244
0.0412410335342
0.0412827518935
0.0413304318116
0.0413845949969
0.0414451352914
0.0395483029824
0.0387943972338
0.0407793489859
0.0411752776001
0.0412624638154
0.0413074602962
0.0413534951178
0.0414062481441
0.0414662678633
0.0415334796355
0.0395764986844
0.0388333335971
0.0408288749015
0.0412301010525
0.0413211604501
0.0413703548557
0.0414213632137
0.0414799625888
0.0415467338295
0.041621631051
0.0395920052446
0.0388642404056
0.0408718504208
0.0412792124158
0.041374719473
0.0414287194736
0.0414854196548
0.0415507116066
0.0416252141083
0.0417089112934
0.039600039605
0.0388818716399
0.0409050712273
0.0413208506874
0.0414218778541
0.0414814189817
0.0415445868312
0.0416174803913
0.0417007848217
0.0417945227876
0.0396017247756
0.0388837124644
0.0409262695089
0.0413532945305
0.0414612856476
0.0415272835422
0.0415977981716
0.0416792714418
0.0417724665797
0.0418774509895
0.039594556272
0.0388684481481
0.0409336405959
0.0413749663986
0.0414914940712
0.0415649643659
0.0416438128958
0.0417349810512
0.0418393497612
0.0419570224905
0.0395761107955
0.0388347015177
0.0409254207241
0.0413841559106
0.041510917576
0.041592980921
0.0416812458554
0.0417833369882
0.0419002676862
0.0420321973832
0.0395437962505
0.0387811162139
0.04089977774
0.0413790387301
0.0415178542926
0.0416097553376
0.0417086394188
0.0418229781821
0.0419539665075
0.042101857807
0.0394948205468
0.0387064104002
0.0408549633364
0.0413577373755
0.0415105245478
0.0416136165041
0.0417244235465
0.0418524513166
0.0419991646748
0.0421648709807
0.0394263683448
0.0386098143168
0.0407895025503
0.0413184542101
0.0414871168172
0.0416028225624
0.0417269575522
0.0418702946
0.0420346005018
0.0422201578705
0.039335975304
0.0384911258846
0.0407023104024
0.0412595267947
0.0414458519399
0.0415756487806
0.041714642136
0.0418750762684
0.0420590296735
0.0422667203757
0.0392215177427
0.0383506479375
0.0405927623243
0.0411795805663
0.0413851048661
0.0415304621575
0.041685947465
0.0418654475122
0.0420713794582
0.0423038115344
0.0390813882611
0.0381893254933
0.0404608716459
0.041077711186
0.0413035661294
0.0414658307451
0.0416394806957
0.0418402450199
0.0420709172963
0.0423311473403
0.0389151344407
0.0380091675087
0.0403076180973
0.0409537646893
0.0412004323614
0.0413806790791
0.0415741755918
0.0410757415083
)
;
    }
    atmosphere
    {
        type            inletOutlet;
        inletValue      nonuniform List<scalar> 0();
        value           nonuniform List<scalar> 0();
    }
    floatingObject
    {
        lowReCorrection 0;
        blending        stepwise;
        n               2;
        type            epsilonWallFunction;
        value           nonuniform List<scalar> 0();
    }
    procBoundary4to0
    {
        type            processor;
        value           nonuniform List<scalar> 8(0.0393384836388 0.0385838602605 0.0405379963552 0.0409190686567 0.0409954796048 0.0410287693276 0.0410609144302 0.0410973263006);
    }
    procBoundary4to3
    {
        type            processor;
        value           nonuniform List<scalar> 
13
(
0.0417987179831
0.0420574779289
0.0423492129504
0.0387240188381
0.0378138873614
0.0401354678846
0.0408087020827
0.0412745388765
0.0417987179831
0.0414894519996
0.0408087020827
0.0412745388765
0.0409306404229
)
;
    }
    procBoundary4to5
    {
        type            processor;
        value           nonuniform List<scalar> 
18
(
0.0412201693581
0.0413023599671
0.0413023599671
0.0413571588533
0.0415119700593
0.0416078126733
0.0417046023223
0.0418017743495
0.0418986562194
0.0419943008812
0.0420881280026
0.0421792965848
0.0422668356039
0.0423497575923
0.0424271364914
0.0424981925917
0.0425624332089
0.0426199371083
)
;
    }
}


// ************************************************************************* //
