/*--------------------------------*- C++ -*----------------------------------*\
| =========                 |                                                 |
| \\      /  F ield         | OpenFOAM: The Open Source CFD Toolbox           |
|  \\    /   O peration     | Version:  v2012                                 |
|   \\  /    A nd           | Website:  www.openfoam.com                      |
|    \\/     M anipulation  |                                                 |
\*---------------------------------------------------------------------------*/
FoamFile
{
    version     2.0;
    format      ascii;
    class       volScalarField;
    location    "0.7";
    object      k;
}
// * * * * * * * * * * * * * * * * * * * * * * * * * * * * * * * * * * * * * //

dimensions      [0 2 -2 0 0 0 0];


internalField   nonuniform List<scalar> 
164
(
0.0230449998304
0.0275976763632
0.0285463109563
0.028734182273
0.0287733173201
0.0287911186257
0.0288085078793
0.0288282622017
0.0230670742388
0.0276242843862
0.0285761366495
0.0287656351493
0.0288059504243
0.0288250246279
0.0288439217519
0.0288654496942
0.02308573377
0.0276485809932
0.0286041998764
0.0287956080395
0.0288373084704
0.028857873948
0.0288785349977
0.028902136237
0.0289289573722
0.0289589578313
0.0231003854291
0.0276700783747
0.0286300627874
0.0288236922774
0.0288670024182
0.0288892970279
0.0289120008609
0.0289380004996
0.0289675883411
0.0290007377483
0.0231103999975
0.0276882235914
0.0286532239953
0.0288494232721
0.0288945900515
0.0289188742548
0.0289439272124
0.0289726842436
0.0290054525344
0.0290422177232
0.0231157595466
0.0277019398324
0.0286729243197
0.028872235945
0.028919566281
0.0289461293047
0.0289738677458
0.0290057741114
0.029042174516
0.0290830666232
0.023118776747
0.0277086312048
0.0286875539485
0.0288912306739
0.0289413241311
0.0289705374535
0.0290013205192
0.0290367896906
0.0290773010856
0.0291228721967
0.0231189225082
0.0277077441897
0.0286963147473
0.0289056976825
0.0289592418932
0.0289915435723
0.0290257927699
0.0290652918581
0.0291104360961
0.0291612546345
0.0231152877076
0.0276985511629
0.0286983431456
0.0289148823757
0.0289726340636
0.0290085097511
0.0290466888774
0.0290907357726
0.0291411024912
0.0291978291357
0.0231069290186
0.0276803844955
0.0286928102368
0.0289179790123
0.0289807553801
0.0290207425188
0.0290633626285
0.0291125303149
0.0291687624618
0.029232117396
0.0230928416872
0.0276525848337
0.028678853253
0.0289141287802
0.0289828065097
0.029027503591
0.0290751343833
0.0291300444175
0.029192837362
0.0292636049243
0.0230719468797
0.0276145249822
0.0286556437406
0.0289024464463
0.0289779510083
0.0290280117867
0.0290812746478
0.0291426064605
0.0292127378591
0.0292917757511
0.0230431543841
0.02756580686
0.0286224770497
0.0288820823659
0.0289653366449
0.0290214526502
0.0290810215577
0.0291495416315
0.0292278874722
0.029316143767
0.0230055007952
0.0275063005836
0.0285788296475
0.0288522503147
0.0289441251923
0.0290070175673
0.0290736301235
0.0291501893013
0.0292377210701
0.0293362647806
0.0229581567746
0.0274361223111
0.0285243962435
0.028812298422
0.0289135487575
0.028983938293
0.0290583845139
0.0291439284366
0.0292417534477
0.0293518135126
0.022900488846
0.0273556999432
0.028459175984
0.0287617977634
0.0288729838909
0.0289515366777
0.0290346400011
0.0291302243648
0.0292396578741
0.029362675723
0.0228323040668
0.0272659826711
0.0283836348126
0.0287006752981
0.0288220530507
0.0289093115431
0.0290018934151
0.0287607732245
)
;

boundaryField
{
    back
    {
        type            kqRWallFunction;
        value           nonuniform List<scalar> 
164
(
0.0230449998304
0.0275976763632
0.0285463109563
0.028734182273
0.0287733173201
0.0287911186257
0.0288085078793
0.0288282622017
0.0230670742388
0.0276242843862
0.0285761366495
0.0287656351493
0.0288059504243
0.0288250246279
0.0288439217519
0.0288654496942
0.02308573377
0.0276485809932
0.0286041998764
0.0287956080395
0.0288373084704
0.028857873948
0.0288785349977
0.028902136237
0.0289289573722
0.0289589578313
0.0231003854291
0.0276700783747
0.0286300627874
0.0288236922774
0.0288670024182
0.0288892970279
0.0289120008609
0.0289380004996
0.0289675883411
0.0290007377483
0.0231103999975
0.0276882235914
0.0286532239953
0.0288494232721
0.0288945900515
0.0289188742548
0.0289439272124
0.0289726842436
0.0290054525344
0.0290422177232
0.0231157595466
0.0277019398324
0.0286729243197
0.028872235945
0.028919566281
0.0289461293047
0.0289738677458
0.0290057741114
0.029042174516
0.0290830666232
0.023118776747
0.0277086312048
0.0286875539485
0.0288912306739
0.0289413241311
0.0289705374535
0.0290013205192
0.0290367896906
0.0290773010856
0.0291228721967
0.0231189225082
0.0277077441897
0.0286963147473
0.0289056976825
0.0289592418932
0.0289915435723
0.0290257927699
0.0290652918581
0.0291104360961
0.0291612546345
0.0231152877076
0.0276985511629
0.0286983431456
0.0289148823757
0.0289726340636
0.0290085097511
0.0290466888774
0.0290907357726
0.0291411024912
0.0291978291357
0.0231069290186
0.0276803844955
0.0286928102368
0.0289179790123
0.0289807553801
0.0290207425188
0.0290633626285
0.0291125303149
0.0291687624618
0.029232117396
0.0230928416872
0.0276525848337
0.028678853253
0.0289141287802
0.0289828065097
0.029027503591
0.0290751343833
0.0291300444175
0.029192837362
0.0292636049243
0.0230719468797
0.0276145249822
0.0286556437406
0.0289024464463
0.0289779510083
0.0290280117867
0.0290812746478
0.0291426064605
0.0292127378591
0.0292917757511
0.0230431543841
0.02756580686
0.0286224770497
0.0288820823659
0.0289653366449
0.0290214526502
0.0290810215577
0.0291495416315
0.0292278874722
0.029316143767
0.0230055007952
0.0275063005836
0.0285788296475
0.0288522503147
0.0289441251923
0.0290070175673
0.0290736301235
0.0291501893013
0.0292377210701
0.0293362647806
0.0229581567746
0.0274361223111
0.0285243962435
0.028812298422
0.0289135487575
0.028983938293
0.0290583845139
0.0291439284366
0.0292417534477
0.0293518135126
0.022900488846
0.0273556999432
0.028459175984
0.0287617977634
0.0288729838909
0.0289515366777
0.0290346400011
0.0291302243648
0.0292396578741
0.029362675723
0.0228323040668
0.0272659826711
0.0283836348126
0.0287006752981
0.0288220530507
0.0289093115431
0.0290018934151
0.0287607732245
)
;
    }
    sides
    {
        type            kqRWallFunction;
        value           nonuniform List<scalar> 0();
    }
    bottom
    {
        type            kqRWallFunction;
        value           nonuniform List<scalar> 
17
(
0.0230449998304
0.0230670742388
0.02308573377
0.0231003854291
0.0231103999975
0.0231157595466
0.023118776747
0.0231189225082
0.0231152877076
0.0231069290186
0.0230928416872
0.0230719468797
0.0230431543841
0.0230055007952
0.0229581567746
0.022900488846
0.0228323040668
)
;
    }
    front
    {
        type            kqRWallFunction;
        value           nonuniform List<scalar> 
164
(
0.0230449998304
0.0275976763632
0.0285463109563
0.028734182273
0.0287733173201
0.0287911186257
0.0288085078793
0.0288282622017
0.0230670742388
0.0276242843862
0.0285761366495
0.0287656351493
0.0288059504243
0.0288250246279
0.0288439217519
0.0288654496942
0.02308573377
0.0276485809932
0.0286041998764
0.0287956080395
0.0288373084704
0.028857873948
0.0288785349977
0.028902136237
0.0289289573722
0.0289589578313
0.0231003854291
0.0276700783747
0.0286300627874
0.0288236922774
0.0288670024182
0.0288892970279
0.0289120008609
0.0289380004996
0.0289675883411
0.0290007377483
0.0231103999975
0.0276882235914
0.0286532239953
0.0288494232721
0.0288945900515
0.0289188742548
0.0289439272124
0.0289726842436
0.0290054525344
0.0290422177232
0.0231157595466
0.0277019398324
0.0286729243197
0.028872235945
0.028919566281
0.0289461293047
0.0289738677458
0.0290057741114
0.029042174516
0.0290830666232
0.023118776747
0.0277086312048
0.0286875539485
0.0288912306739
0.0289413241311
0.0289705374535
0.0290013205192
0.0290367896906
0.0290773010856
0.0291228721967
0.0231189225082
0.0277077441897
0.0286963147473
0.0289056976825
0.0289592418932
0.0289915435723
0.0290257927699
0.0290652918581
0.0291104360961
0.0291612546345
0.0231152877076
0.0276985511629
0.0286983431456
0.0289148823757
0.0289726340636
0.0290085097511
0.0290466888774
0.0290907357726
0.0291411024912
0.0291978291357
0.0231069290186
0.0276803844955
0.0286928102368
0.0289179790123
0.0289807553801
0.0290207425188
0.0290633626285
0.0291125303149
0.0291687624618
0.029232117396
0.0230928416872
0.0276525848337
0.028678853253
0.0289141287802
0.0289828065097
0.029027503591
0.0290751343833
0.0291300444175
0.029192837362
0.0292636049243
0.0230719468797
0.0276145249822
0.0286556437406
0.0289024464463
0.0289779510083
0.0290280117867
0.0290812746478
0.0291426064605
0.0292127378591
0.0292917757511
0.0230431543841
0.02756580686
0.0286224770497
0.0288820823659
0.0289653366449
0.0290214526502
0.0290810215577
0.0291495416315
0.0292278874722
0.029316143767
0.0230055007952
0.0275063005836
0.0285788296475
0.0288522503147
0.0289441251923
0.0290070175673
0.0290736301235
0.0291501893013
0.0292377210701
0.0293362647806
0.0229581567746
0.0274361223111
0.0285243962435
0.028812298422
0.0289135487575
0.028983938293
0.0290583845139
0.0291439284366
0.0292417534477
0.0293518135126
0.022900488846
0.0273556999432
0.028459175984
0.0287617977634
0.0288729838909
0.0289515366777
0.0290346400011
0.0291302243648
0.0292396578741
0.029362675723
0.0228323040668
0.0272659826711
0.0283836348126
0.0287006752981
0.0288220530507
0.0289093115431
0.0290018934151
0.0287607732245
)
;
    }
    atmosphere
    {
        type            inletOutlet;
        inletValue      nonuniform List<scalar> 0();
        value           nonuniform List<scalar> 0();
    }
    floatingObject
    {
        type            kqRWallFunction;
        value           nonuniform List<scalar> 0();
    }
    procBoundary4to0
    {
        type            processor;
        value           nonuniform List<scalar> 8(0.0230200486536 0.0275691855427 0.0285150988017 0.0287015984051 0.0287397399298 0.0287564673359 0.0287725817551 0.0287908328757);
    }
    procBoundary4to3
    {
        type            processor;
        value           nonuniform List<scalar> 
13
(
0.0291087278435
0.0292313681457
0.0293691030815
0.0227540843622
0.027168761286
0.0282989592119
0.0286294023625
0.0288570269631
0.0291087278435
0.0289598736362
0.0286294023625
0.0288570269631
0.0286897039945
)
;
    }
    procBoundary4to5
    {
        type            processor;
        value           nonuniform List<scalar> 
18
(
0.0288506379421
0.0288898747748
0.0288898747748
0.0289171560621
0.0289921179652
0.0290374334263
0.029082970498
0.0291284475227
0.0291735147242
0.0292177775487
0.0292609652772
0.0293026525308
0.0293423964383
0.0293797524828
0.0294143117541
0.0294457395864
0.029473836787
0.0294986681121
)
;
    }
}


// ************************************************************************* //
