/*--------------------------------*- C++ -*----------------------------------*\
| =========                 |                                                 |
| \\      /  F ield         | OpenFOAM: The Open Source CFD Toolbox           |
|  \\    /   O peration     | Version:  v2012                                 |
|   \\  /    A nd           | Website:  www.openfoam.com                      |
|    \\/     M anipulation  |                                                 |
\*---------------------------------------------------------------------------*/
FoamFile
{
    version     2.0;
    format      ascii;
    class       surfaceScalarField;
    location    "5.9";
    object      alphaPhi0.water;
}
// * * * * * * * * * * * * * * * * * * * * * * * * * * * * * * * * * * * * * //

dimensions      [0 3 -1 0 0 0 0];
oriented        oriented;


internalField   nonuniform List<scalar> 
306
(
0.000104318383863
-1.22608131729e-05
0.000116689217355
-1.23691271279e-05
0.000129352633884
-1.26613168604e-05
0.000141990569874
-1.26358503258e-05
0.000154434132129
-1.24418506847e-05
0.00016602173424
-1.15860724622e-05
0.000173742253624
-7.71788359799e-06
0.000175611877939
-1.8692428777e-06
0.000176093634868
-4.97118189793e-06
1.21464862904e-05
-1.16324832427e-05
1.41621281964e-08
-2.36837022169e-07
-8.12179597427e-09
0.000101361746252
-2.40161077335e-05
0.000113452583829
-2.44577650179e-05
0.000125925787923
-2.51321427657e-05
0.000138623613777
-2.53314761083e-05
0.000151533855435
-2.53504397912e-05
0.000163892025822
-2.39420721525e-05
0.000177228750262
-2.1051930781e-05
0.000193624267105
-1.8264609663e-05
0.000215051084425
-1.87419765679e-05
1.20735165828e-05
-1.29080110483e-05
-1.12178668798e-08
-6.65906818647e-09
-1.90010436474e-08
9.88274752459e-05
0.000111074580307
-3.67022372601e-05
0.00012319909267
-3.72534975532e-05
0.000135742092244
-3.78716670342e-05
0.000148401008616
-3.8007721491e-05
0.000161271717267
-3.68098876065e-05
0.000174616775023
-3.43947577509e-05
0.000192967969498
-3.66153156194e-05
0.000226428175084
-3.67367716752e-05
1.14286057457e-05
-1.78056851091e-05
3.9982931513e-08
5.25044158465e-08
2.52921559449e-08
0.000108821291447
0.000121290787874
-4.9720411486e-05
0.00013416197007
-5.07400492759e-05
0.000147032606486
-5.08757529887e-05
0.000159909163615
-4.96833456449e-05
0.000174271892832
-4.87553235586e-05
0.000194546505065
-5.68891910533e-05
0.00023385896217
-5.7013003883e-05
1.00043417284e-05
-2.36201753452e-05
8.63237719169e-07
8.10749989177e-08
1.24025967774e-07
0.000120064554607
-6.25227985823e-05
0.000133285198922
-6.39563554483e-05
0.000147169355197
-6.4756384587e-05
0.000161811773536
-6.43229266577e-05
0.000178235616685
-6.51769551548e-05
0.000195467230222
-7.41197353431e-05
0.000226863073398
-7.34957436506e-05
8.77241421699e-06
-3.19888029268e-05
2.42348734033e-06
1.07200215055e-08
2.60715257807e-08
0.000118870619343
-7.57775268423e-05
0.00013285540722
-7.79358952713e-05
0.000148085063321
-7.99824213291e-05
0.000165103772344
-8.13388270882e-05
0.000183678563653
-8.37495023678e-05
0.000198900739658
-8.93407679401e-05
0.000220013909395
-8.58680312886e-05
7.75421822004e-06
-4.08604588536e-05
9.14248159183e-07
-1.16315286134e-07
-1.03691318186e-07
0.000116689499364
-8.90758601083e-05
0.000131301666411
-9.25408888544e-05
0.000147617982272
-9.62947884837e-05
0.000166393228704
-0.000100110989593
0.000187382390952
-0.000104736500708
0.000202972235304
-0.000104929852206
0.000228542720712
-0.000100196664497
6.35504571076e-06
-4.77340228303e-05
1.03144329315e-07
-3.54443962374e-08
-2.10607472643e-08
0.000113309767847
-0.000102187833306
0.00012788962324
-0.000107112939724
0.000143748256874
-0.000112148451547
0.00016232205424
-0.000118681119971
0.00018268871716
-0.000125099490956
0.000203648270817
-0.000125889264532
0.000231913122228
-0.000121990332802
4.67895421118e-06
-5.64364034427e-05
4.68319950624e-09
2.01427949361e-08
-1.43695818002e-08
0.00010856471514
-0.000115091181754
0.00012211511634
-0.000120656229401
0.000137661039
-0.000127689738687
0.000154494342549
-0.00013551129184
0.000173646752708
-0.000144248113071
0.00019866805263
-0.000150910162348
0.000186567005529
-0.000152843106262
2.28424568998e-06
-7.05843752027e-05
1.39823958952e-07
-4.57872541963e-08
8.59772659845e-08
0.000102134739868
-0.000126998341684
0.000115346402503
-0.000133863089993
0.00012962595986
-0.000141966349715
0.000145500013534
-0.000151382867897
0.000163984757047
-0.000162732863022
0.000190237510568
-0.000177162955533
0.000175149253229
-0.000185973600546
2.85874033774e-06
-8.72084115756e-05
8.54619257523e-07
-2.3771139024e-08
1.22145023955e-08
9.48114412896e-05
-0.000138259370828
0.00010702983027
-0.000146077477472
0.000120716113345
-0.000155650225326
0.000135659926691
-0.000166324562908
0.000153044573241
-0.00018011689265
0.0001787076778
-0.000202826561859
0.000163211375535
-0.00021774019764
-7.16441050121e-07
-0.000105106904916
-1.3548900709e-07
-2.10207845441e-09
-2.52931350742e-08
8.62360064035e-05
-0.000148513531561
9.77403172414e-05
-0.000157579785103
0.000110467936607
-0.000168376855897
0.000125010194543
-0.000180866231135
0.000142570633447
-0.000197676849344
0.000164102070532
-0.00022435947645
0.000147714819069
-0.000246149970449
-3.82959103929e-07
-0.000120329086239
2.46358171836e-08
-1.91336175215e-08
1.01521177392e-10
7.69201018152e-05
-0.000157565097838
8.69740363333e-05
-0.000167632338653
9.83362642081e-05
-0.000179738567404
0.000111672023447
-0.000194202288698
0.000127454457456
-0.000213460594596
0.000146754025719
-0.00024366176612
0.000128627145663
-0.000267919523766
-7.35570793297e-08
-0.00013187388669
-3.55676564745e-09
-1.14013031121e-07
-3.20834833172e-09
6.63882791498e-05
-0.000165161943424
7.48411897148e-05
-0.000176085261854
8.44201390859e-05
-0.000189318374407
9.58834919227e-05
-0.000205667356997
0.000109697342086
-0.000227276508664
0.000123711028227
-0.000257679292367
0.000107000811995
-0.000284971615655
1.62702669275e-07
-0.000139259852984
2.96933565964e-08
-1.34678585856e-07
-1.50831213768e-09
5.50973924162e-05
-0.000171133849634
6.15700341138e-05
-0.000182559109134
6.88016273957e-05
-0.00019655216033
7.71572043462e-05
-0.000214025845182
8.68871094348e-05
-0.000237010080361
9.73367733591e-05
-0.000268133229399
8.09599327561e-05
-0.000295676428476
-4.91800234044e-08
-0.000142684527471
7.40788906263e-09
-2.38532238888e-07
1.19294946749e-10
4.33930091853e-05
4.77192906722e-05
5.2358584424e-05
5.74919517778e-05
6.31464980513e-05
6.86606910909e-05
5.34748745599e-05
7.19039232495e-08
-2.98360038216e-09
)
;

boundaryField
{
    back
    {
        type            calculated;
        value           uniform 0;
    }
    sides
    {
        type            calculated;
        value           uniform 0;
    }
    bottom
    {
        type            calculated;
        value           nonuniform List<scalar> 0();
    }
    front
    {
        type            calculated;
        value           uniform 0;
    }
    atmosphere
    {
        type            calculated;
        value           nonuniform List<scalar> 
16
(
1.86885156497e-08
3.37378772603e-11
-4.0216591337e-09
-7.32044797662e-09
6.22207795238e-08
1.43450580143e-07
-6.02406424258e-09
-3.68581789259e-11
3.76853538578e-09
-4.21199413476e-08
1.12769781087e-07
-2.38221044956e-10
-4.9821225023e-10
4.0637328067e-09
-1.71420743169e-09
-2.87286345631e-09
)
;
    }
    floatingObject
    {
        type            calculated;
        value           nonuniform List<scalar> 0();
    }
    procBoundary1to0
    {
        type            processor;
        value           nonuniform List<scalar> 10(-0.000175244888861 -0.000186886966347 -0.000201193939089 -0.000219162375646 -0.000242669432927 -0.000273651350402 -0.00029951389041 -0.000142848293713 -1.72103744705e-07 7.57451120865e-14);
    }
    procBoundary1to2
    {
        type            processor;
        value           nonuniform List<scalar> 
18
(
-9.20554573527e-05
-8.96039966829e-05
-8.69861855593e-05
-3.58552801491e-05
-9.67289277155e-05
-4.87917405846e-05
-0.000107257215345
-0.000105608585964
-0.000103385110748
-0.000100191449654
-9.56550217005e-05
-9.02212513158e-05
-8.35442851176e-05
-7.5978032495e-05
-6.78659450962e-05
-5.87898447544e-05
-4.91254561411e-05
-3.92826251838e-05
)
;
    }
}


// ************************************************************************* //
