/*--------------------------------*- C++ -*----------------------------------*\
| =========                 |                                                 |
| \\      /  F ield         | OpenFOAM: The Open Source CFD Toolbox           |
|  \\    /   O peration     | Version:  v2012                                 |
|   \\  /    A nd           | Website:  www.openfoam.com                      |
|    \\/     M anipulation  |                                                 |
\*---------------------------------------------------------------------------*/
FoamFile
{
    version     2.0;
    format      ascii;
    class       volScalarField;
    location    "5.9";
    object      p_rgh;
}
// * * * * * * * * * * * * * * * * * * * * * * * * * * * * * * * * * * * * * //

dimensions      [1 -1 -2 0 0 0 0];


internalField   nonuniform List<scalar> 
167
(
8556.41243059
8555.55908138
8554.76992977
8554.09556223
8553.61108387
8553.46301916
8553.78285513
8554.68996225
8556.28840563
4337.50354304
31.944378796
-0.0223041432574
8556.37633787
8555.47393825
8554.61817489
8553.85329222
8553.26266512
8552.95709105
8553.04308272
8553.68222268
8554.98458991
4316.32392223
27.9166396459
-0.0754657394608
8556.33851941
8555.31862622
8554.34067529
8553.42504894
8552.63631044
8552.07768622
8551.8738352
8552.12867554
8552.77211847
4267.48090221
23.6503238777
-0.212741920101
8555.13360213
8553.95919991
8552.82678207
8551.779838
8550.88109715
8550.2489162
8549.92999287
8549.72499052
4204.98368294
17.4795566913
-0.0482753419077
8553.5222773
8552.12130448
8550.75839718
8549.45085499
8548.31099334
8547.35574171
8546.36628409
4141.02019998
12.6101722729
0.732852898021
8553.09053734
8551.37231302
8549.64304419
8547.86213179
8546.15303219
8544.55109394
8542.90869814
4072.012974
10.0763865504
0.0475503857366
8552.73716229
8550.67686337
8548.50722799
8546.19004992
8543.84383328
8541.50949973
8539.01230313
3985.81784537
6.38185367517
-0.224631177925
8552.55730292
8550.06151058
8547.41930058
8544.52083232
8541.47036701
8538.29592523
8534.72695732
3891.42823019
3.73470815621
-0.13735056873
8552.59045351
8549.69944812
8546.53439671
8542.99350315
8539.16991084
8535.03433778
8530.15927904
3782.85689142
1.77926097606
-0.152108656592
8552.91737883
8549.69238909
8546.00628081
8541.8281593
8537.16856981
8531.94792379
8500.4496301
3701.39498485
2.35542918597
0.337603975945
8553.66918062
8550.07527635
8545.91009854
8541.1523138
8535.72501168
8529.55092493
8478.61765546
3639.18141041
0.56962739628
-0.0215157346475
8554.88410108
8550.93408123
8546.38453749
8541.13975008
8535.08979014
8528.11596008
8465.34495775
3595.58065782
-0.0098607486632
-0.0830400671856
8556.55974599
8552.38102621
8547.54468042
8541.92794368
8535.41017909
8527.88463233
8459.23855976
3583.41726479
0.0308529340067
-0.0330652478463
8558.80474301
8554.47773779
8549.46178841
8543.61757431
8536.78607718
8528.88878213
8454.81062745
3598.17122343
0.199700510052
0.000461789458364
8561.62977314
8557.24314898
8552.16380865
8546.24413313
8539.28549941
8531.30631243
8453.98908241
3647.95049831
0.0659587174542
-0.000101903971191
8565.0289426
8560.66879319
8555.64548876
8549.81000251
8542.9556761
8535.18048239
8458.33484242
3727.17748279
0.0261360956276
0.00250677687615
)
;

boundaryField
{
    back
    {
        type            fixedFluxPressure;
        gradient        uniform 0;
        value           nonuniform List<scalar> 
167
(
8556.41243059
8555.55908138
8554.76992977
8554.09556223
8553.61108387
8553.46301916
8553.78285513
8554.68996225
8556.28840563
4337.50354304
31.944378796
-0.0223041432574
8556.37633787
8555.47393825
8554.61817489
8553.85329222
8553.26266512
8552.95709105
8553.04308272
8553.68222268
8554.98458991
4316.32392223
27.9166396459
-0.0754657394608
8556.33851941
8555.31862622
8554.34067529
8553.42504894
8552.63631044
8552.07768622
8551.8738352
8552.12867554
8552.77211847
4267.48090221
23.6503238777
-0.212741920101
8555.13360213
8553.95919991
8552.82678207
8551.779838
8550.88109715
8550.2489162
8549.92999287
8549.72499052
4204.98368294
17.4795566913
-0.0482753419077
8553.5222773
8552.12130448
8550.75839718
8549.45085499
8548.31099334
8547.35574171
8546.36628409
4141.02019998
12.6101722729
0.732852898021
8553.09053734
8551.37231302
8549.64304419
8547.86213179
8546.15303219
8544.55109394
8542.90869814
4072.012974
10.0763865504
0.0475503857366
8552.73716229
8550.67686337
8548.50722799
8546.19004992
8543.84383328
8541.50949973
8539.01230313
3985.81784537
6.38185367517
-0.224631177925
8552.55730292
8550.06151058
8547.41930058
8544.52083232
8541.47036701
8538.29592523
8534.72695732
3891.42823019
3.73470815621
-0.13735056873
8552.59045351
8549.69944812
8546.53439671
8542.99350315
8539.16991084
8535.03433778
8530.15927904
3782.85689142
1.77926097606
-0.152108656592
8552.91737883
8549.69238909
8546.00628081
8541.8281593
8537.16856981
8531.94792379
8500.4496301
3701.39498485
2.35542918597
0.337603975945
8553.66918062
8550.07527635
8545.91009854
8541.1523138
8535.72501168
8529.55092493
8478.61765546
3639.18141041
0.56962739628
-0.0215157346475
8554.88410108
8550.93408123
8546.38453749
8541.13975008
8535.08979014
8528.11596008
8465.34495775
3595.58065782
-0.0098607486632
-0.0830400671856
8556.55974599
8552.38102621
8547.54468042
8541.92794368
8535.41017909
8527.88463233
8459.23855976
3583.41726479
0.0308529340067
-0.0330652478463
8558.80474301
8554.47773779
8549.46178841
8543.61757431
8536.78607718
8528.88878213
8454.81062745
3598.17122343
0.199700510052
0.000461789458364
8561.62977314
8557.24314898
8552.16380865
8546.24413313
8539.28549941
8531.30631243
8453.98908241
3647.95049831
0.0659587174542
-0.000101903971191
8565.0289426
8560.66879319
8555.64548876
8549.81000251
8542.9556761
8535.18048239
8458.33484242
3727.17748279
0.0261360956276
0.00250677687615
)
;
    }
    sides
    {
        type            fixedFluxPressure;
        gradient        uniform 0;
        value           nonuniform List<scalar> 
12
(
8556.41243059
8555.55908138
8554.76992977
8554.09556223
8553.61108387
8553.46301916
8553.78285513
8554.68996225
8556.28840563
4337.50354304
31.944378796
-0.0223041432574
)
;
    }
    bottom
    {
        type            fixedFluxPressure;
        gradient        nonuniform List<scalar> 0();
        value           nonuniform List<scalar> 0();
    }
    front
    {
        type            fixedFluxPressure;
        gradient        uniform 0;
        value           nonuniform List<scalar> 
167
(
8556.41243059
8555.55908138
8554.76992977
8554.09556223
8553.61108387
8553.46301916
8553.78285513
8554.68996225
8556.28840563
4337.50354304
31.944378796
-0.0223041432574
8556.37633787
8555.47393825
8554.61817489
8553.85329222
8553.26266512
8552.95709105
8553.04308272
8553.68222268
8554.98458991
4316.32392223
27.9166396459
-0.0754657394608
8556.33851941
8555.31862622
8554.34067529
8553.42504894
8552.63631044
8552.07768622
8551.8738352
8552.12867554
8552.77211847
4267.48090221
23.6503238777
-0.212741920101
8555.13360213
8553.95919991
8552.82678207
8551.779838
8550.88109715
8550.2489162
8549.92999287
8549.72499052
4204.98368294
17.4795566913
-0.0482753419077
8553.5222773
8552.12130448
8550.75839718
8549.45085499
8548.31099334
8547.35574171
8546.36628409
4141.02019998
12.6101722729
0.732852898021
8553.09053734
8551.37231302
8549.64304419
8547.86213179
8546.15303219
8544.55109394
8542.90869814
4072.012974
10.0763865504
0.0475503857366
8552.73716229
8550.67686337
8548.50722799
8546.19004992
8543.84383328
8541.50949973
8539.01230313
3985.81784537
6.38185367517
-0.224631177925
8552.55730292
8550.06151058
8547.41930058
8544.52083232
8541.47036701
8538.29592523
8534.72695732
3891.42823019
3.73470815621
-0.13735056873
8552.59045351
8549.69944812
8546.53439671
8542.99350315
8539.16991084
8535.03433778
8530.15927904
3782.85689142
1.77926097606
-0.152108656592
8552.91737883
8549.69238909
8546.00628081
8541.8281593
8537.16856981
8531.94792379
8500.4496301
3701.39498485
2.35542918597
0.337603975945
8553.66918062
8550.07527635
8545.91009854
8541.1523138
8535.72501168
8529.55092493
8478.61765546
3639.18141041
0.56962739628
-0.0215157346475
8554.88410108
8550.93408123
8546.38453749
8541.13975008
8535.08979014
8528.11596008
8465.34495775
3595.58065782
-0.0098607486632
-0.0830400671856
8556.55974599
8552.38102621
8547.54468042
8541.92794368
8535.41017909
8527.88463233
8459.23855976
3583.41726479
0.0308529340067
-0.0330652478463
8558.80474301
8554.47773779
8549.46178841
8543.61757431
8536.78607718
8528.88878213
8454.81062745
3598.17122343
0.199700510052
0.000461789458364
8561.62977314
8557.24314898
8552.16380865
8546.24413313
8539.28549941
8531.30631243
8453.98908241
3647.95049831
0.0659587174542
-0.000101903971191
8565.0289426
8560.66879319
8555.64548876
8549.81000251
8542.9556761
8535.18048239
8458.33484242
3727.17748279
0.0261360956276
0.00250677687615
)
;
    }
    atmosphere
    {
        type            totalPressure;
        rho             rho;
        psi             none;
        gamma           1;
        p0              uniform 0;
        value           nonuniform List<scalar> 
16
(
0
-1.06095756441e-08
0
0
0
0
0
-2.73279617831e-05
0
0
0
-6.14802664322e-06
-7.32498299461e-06
0
0
0
)
;
    }
    floatingObject
    {
        type            fixedFluxPressure;
        gradient        nonuniform List<scalar> 0();
        value           nonuniform List<scalar> 0();
    }
    procBoundary1to0
    {
        type            processor;
        value           nonuniform List<scalar> 10(8568.96784604 8564.7165277 8559.84756979 8554.25420367 8547.75517146 8540.5641624 8466.38857144 3835.06579076 0.0123589640944 0.00526614270541);
    }
    procBoundary1to2
    {
        type            processor;
        value           nonuniform List<scalar> 
18
(
8557.27701822
8557.28829494
8557.33339497
8556.30846684
8556.30846684
8554.95411115
8554.95411115
8554.83089469
8554.78296259
8554.89208196
8555.22078464
8555.87056623
8556.91349692
8558.34429339
8560.20111496
8562.55663732
8565.42494706
8568.79762986
)
;
    }
}


// ************************************************************************* //
