/*--------------------------------*- C++ -*----------------------------------*\
| =========                 |                                                 |
| \\      /  F ield         | OpenFOAM: The Open Source CFD Toolbox           |
|  \\    /   O peration     | Version:  v2012                                 |
|   \\  /    A nd           | Website:  www.openfoam.com                      |
|    \\/     M anipulation  |                                                 |
\*---------------------------------------------------------------------------*/
FoamFile
{
    version     2.0;
    format      ascii;
    class       surfaceVectorField;
    location    "5.9";
    object      Uf;
}
// * * * * * * * * * * * * * * * * * * * * * * * * * * * * * * * * * * * * * //

dimensions      [0 1 -1 0 0 0 0];


internalField   nonuniform List<vector> 
306
(
(-0.0012593302566 0.0208677248194 3.91292958844e-22)
(-0.00245267854258 0.0193497391742 2.49907814707e-22)
(-0.00128035051923 0.0233416688405 2.59450863651e-22)
(-0.00247407014704 0.0217910509087 2.49405906432e-22)
(-0.00128761792807 0.0258735941187 -8.85812725394e-24)
(-0.00253202024818 0.0242685582116 1.98444963757e-23)
(-0.00128015625656 0.0283995366757 -3.07372943922e-22)
(-0.0025260170921 0.0267472307782 -2.02360459021e-22)
(-0.00128465974798 0.0308850046468 -1.02881121206e-21)
(-0.00248552685894 0.0292352040957 -5.23221976238e-22)
(-0.00112093306369 0.0331963434359 -1.25293582024e-21)
(-0.00231138167716 0.0319366951512 -1.77284288111e-21)
(-0.000439442716031 0.0347291104735 1.28226658671e-21)
(-0.00153279418737 0.033041652485 -3.28820265848e-21)
(-0.000274752311858 0.0350850184255 6.64778244912e-21)
(-0.000355920582671 0.0383770041317 -4.32438630158e-21)
(-0.00216680056575 0.0360514984001 1.73063402569e-20)
(-0.000966484835843 0.0336054547518 -8.97996180517e-22)
(-0.0150663231999 0.0407100427545 2.79576887084e-20)
(-0.0046584567155 0.0404363412335 7.21355034817e-21)
(-0.0508335205191 0.0503716489981 2.20878829009e-20)
(-0.00966127306987 0.0371525596871 9.64887796293e-21)
(-0.0343846452925 0.028419017528 7.59090357342e-21)
(-0.00370343982247 0.0202767350864 1.08020762296e-22)
(-0.00480443977939 0.0188207193717 5.59779421491e-23)
(-0.00378843738465 0.0226948945235 9.799539157e-24)
(-0.00489232770656 0.0212080843419 4.58452422218e-23)
(-0.00385526508746 0.0251892316512 -1.73657835391e-22)
(-0.00502643276987 0.023661443951 -1.13167968897e-22)
(-0.00387585297595 0.0277279866839 -4.18209491337e-22)
(-0.00506483041065 0.026150060735 -2.93301452468e-22)
(-0.00376715179466 0.030308227626 -1.26725364529e-21)
(-0.00506581314389 0.0286488275569 -6.86396531767e-22)
(-0.00319949853331 0.0327756538571 -3.80810971935e-21)
(-0.00477884160159 0.0314033317227 -2.30631593467e-21)
(-0.0019725139959 0.0354339505535 -8.89485554677e-21)
(-0.00419111160877 0.0328665083098 -5.81391458293e-21)
(-0.00162974763961 0.0386948164886 -1.18701649312e-20)
(-0.00361679619407 0.0390743262372 -1.73719902177e-20)
(-0.00369791005858 0.0414140378505 -1.09907860892e-20)
(-0.00368569975055 0.0357517784395 -2.05604898715e-20)
(0.00029860467549 0.0418341726583 -1.10952603973e-20)
(-0.00507907594942 0.0432210680528 -2.36958348405e-20)
(0.00280651634287 0.0201935355499 -4.84810136451e-21)
(0.0119798915421 0.0420509397684 -2.61335599187e-20)
(0.0333188750754 -0.0571327654866 -3.38585213402e-21)
(-0.00607468762741 0.0197703626561 -6.19757792483e-24)
(-0.00620307260211 0.0222201585879 -7.71222658318e-23)
(-0.00734216775009 0.0207528255388 -2.10024470841e-23)
(-0.00631126220442 0.0246454556305 -2.32811585973e-22)
(-0.00745176473842 0.0232031021115 -1.19123069274e-22)
(-0.00636421972701 0.0271545551222 -5.61488492898e-22)
(-0.00757395827202 0.025700985505 -3.01762244742e-22)
(-0.00625571930766 0.0296870457179 -1.72545882115e-21)
(-0.00759832933817 0.0282258929178 -7.67687147826e-22)
(-0.00586525366899 0.0322612711787 -4.31212079825e-21)
(-0.00735308728376 0.0309894464946 -1.96788375286e-21)
(-0.00554388438277 0.0349285515619 -1.42910492539e-20)
(-0.00685840541146 0.0325125512219 -4.37619638836e-21)
(-0.00539211733607 0.0385896838101 -2.6062315158e-20)
(-0.00727793418551 0.0388659215256 -1.37923325918e-20)
(-0.00552291083999 0.0421542792997 -3.32655386228e-20)
(-0.00725029579023 0.0359486511562 -2.15195450892e-20)
(0.00888121205076 0.044020551585 -3.87341343619e-20)
(-0.00694546279847 0.0434950131873 -2.807978957e-20)
(0.0752622439572 0.0211256469453 -2.46713106882e-20)
(0.0348731733604 0.0462020498729 -2.98451705333e-20)
(0.21700538805 -0.0441086489713 1.1393259248e-21)
(-0.00865435884654 0.0217702983404 -6.3003250526e-23)
(-0.00881350836675 0.0242653428009 -1.88073728042e-22)
(-0.00994678289232 0.0228856402278 -9.27161535273e-23)
(-0.00889967456808 0.0268415127727 -5.0796089967e-22)
(-0.0101501194102 0.0254334417955 -2.90658944818e-22)
(-0.00878703657969 0.0294190524458 -1.01011207954e-21)
(-0.0101758710031 0.0280455516662 -7.53027473511e-22)
(-0.00849421340509 0.032000394015 -2.03195934297e-21)
(-0.00993443551054 0.0309303720203 -1.51447280416e-21)
(-0.00886585944224 0.0348842245222 -3.87747972627e-21)
(-0.00974224120419 0.0327389976327 -2.39019185452e-21)
(-0.00944474779178 0.0389594309736 -9.24956252304e-21)
(-0.0113531427105 0.0392148220294 -3.93389954819e-21)
(-0.00891280035435 0.0430503671603 -1.63337960365e-20)
(-0.0113412392467 0.0360477105448 -1.03968852321e-20)
(0.0142816149653 0.0456233720558 -1.91908257415e-20)
(-0.00951958970407 0.0427322724912 -1.25323366805e-20)
(0.149077667343 0.0430492911155 -4.0345339203e-21)
(0.0374650598485 0.0507138442928 -1.03423892324e-20)
(0.290454495762 0.186760381436 5.637145218e-21)
(-0.0113721645564 0.0240208611395 -1.95301370303e-22)
(-0.0125094987722 0.0225983072753 -9.02476585241e-23)
(-0.0115245000464 0.0266675572896 -5.35725518659e-22)
(-0.0127967718589 0.0252497910787 -2.95422565841e-22)
(-0.011454952102 0.0294492757075 -1.25738819813e-21)
(-0.0129575708046 0.0280338917889 -8.96568563954e-22)
(-0.0113230737889 0.0323874185949 -1.87270531572e-21)
(-0.0128725728016 0.0311606264674 -1.99483782717e-21)
(-0.0122272324796 0.0356925902889 -2.44661167644e-21)
(-0.0130474117414 0.0335353442412 -2.37582267563e-21)
(-0.0133095967812 0.0391866219948 -5.08122225724e-21)
(-0.0148471739503 0.0400221091357 -2.44181064823e-21)
(-0.0127745014989 0.0426183211291 -6.59542587606e-21)
(-0.0147729393215 0.0360064076056 -3.6930229817e-21)
(-0.00116622420063 0.0469443472404 -3.68390017136e-21)
(-0.0138505973377 0.0413250101337 3.83319288444e-22)
(0.0556612049393 0.108600639153 -6.70710094059e-22)
(-0.0241170981433 0.0460623358301 6.81003018844e-21)
(-0.180426363706 0.278307448337 2.95278671131e-21)
(-0.0140334167584 0.0237816944015 -1.90368854062e-22)
(-0.0151627892013 0.0222327271055 -1.0486475971e-22)
(-0.0143442704622 0.0265807655473 -6.56265611136e-22)
(-0.0155957772568 0.0249741121971 -3.34125777793e-22)
(-0.0144917724373 0.0296307336772 -1.63401819299e-21)
(-0.0160075072419 0.0279496266353 -1.06942813938e-21)
(-0.01465021002 0.0330415867893 -2.49795518708e-21)
(-0.0162834132209 0.0313544612164 -2.4932732831e-21)
(-0.0155849515632 0.0367690994294 -2.37102164742e-21)
(-0.0167749200238 0.0343461241365 -3.8803095238e-21)
(-0.0163809482683 0.0398354628273 -1.05361137268e-21)
(-0.017913536091 0.0409241492642 -7.40989408008e-21)
(-0.0165903272991 0.0423336869412 3.28572218281e-21)
(-0.0172711499555 0.0362051727829 -1.17689216785e-21)
(-0.0287038547858 0.0464838773472 1.08772496482e-20)
(-0.0180040520041 0.0411558487542 9.71183895033e-21)
(-0.152861047286 0.0828951170938 1.04335269938e-20)
(-0.0605017794298 0.0418324074721 1.39589009165e-20)
(-0.303141775707 0.0455750947965 6.13191260487e-21)
(-0.0168110804515 0.0233441510018 -2.48621683441e-22)
(-0.0178241509822 0.0216865908553 -1.31067740194e-22)
(-0.0173958832366 0.0262674886231 -7.4728830604e-22)
(-0.0185190432115 0.0244534056406 -4.04361541566e-22)
(-0.0179982998593 0.0295326965728 -1.9286832295e-21)
(-0.0192726803427 0.0274897771415 -1.03586169582e-21)
(-0.0186557226489 0.0332899571523 -3.87562761982e-21)
(-0.0200406598242 0.0310006030909 -2.41930824225e-21)
(-0.0192808907053 0.0374884692548 -8.91918195646e-21)
(-0.020973427865 0.0342501739324 -3.9688409566e-21)
(-0.0191674301175 0.0405988714118 -7.53317487525e-21)
(-0.0210239375953 0.0409883525251 -1.16377917563e-20)
(-0.0194167185397 0.0434505809814 5.24922459967e-21)
(-0.0201228392706 0.0364670558098 -5.89839326158e-21)
(-0.0343792542285 0.0466135002136 1.27934902185e-20)
(-0.0211687671904 0.0422910469804 1.94592113059e-21)
(-0.144183456311 0.0183831158864 9.65728652753e-21)
(-0.0322727350224 0.04691991736 6.70235559399e-22)
(-0.112727736383 -0.0618054360353 2.45111047057e-21)
(-0.0196304869155 0.022666248163 -2.86807598318e-22)
(-0.020447688153 0.0209007176215 -1.35573318143e-22)
(-0.0205352440403 0.0255821248926 -6.92934931343e-22)
(-0.0214348596602 0.0236036525404 -3.93262857181e-22)
(-0.0215905587112 0.0287539193153 -1.52648670857e-21)
(-0.0224444466452 0.0265666761783 -8.54653789279e-22)
(-0.0227276369719 0.0324679302499 -2.51252157902e-21)
(-0.023754660757 0.0299701532707 -1.68089697696e-21)
(-0.0233012997202 0.036536827878 -6.6874507564e-21)
(-0.0250423236828 0.0330834929217 -2.5470138133e-21)
(-0.0227625502174 0.040714654615 -1.00030101426e-20)
(-0.0252017649268 0.0398551440133 -6.20853877138e-21)
(-0.0226054645546 0.045112490468 -9.20169673066e-21)
(-0.0245206430326 0.0362096988722 -7.79639192421e-21)
(-0.0233505375842 0.0495488608124 -1.01773335286e-20)
(-0.0256081856095 0.0431010658553 -8.67662026334e-21)
(-0.0335018974107 0.0326686823653 -6.53594049756e-21)
(-0.0153829950326 0.0507241133044 -1.00068377063e-20)
(-0.000744620619239 -0.0277824604831 -3.05363676872e-21)
(-0.0223611541782 0.0217151743064 -2.42028577006e-22)
(-0.0230289474668 0.0198559275724 -1.20177242695e-22)
(-0.0235325760869 0.0244243243996 -5.54981715117e-22)
(-0.0241439717363 0.0224415233859 -3.27181066662e-22)
(-0.0248941191643 0.0275327223512 -1.00906405767e-21)
(-0.0255528289603 0.0252794976224 -6.72077612164e-22)
(-0.0264101963203 0.0308981991141 -1.71538921123e-21)
(-0.0271201341494 0.0284873606763 -1.16548724277e-21)
(-0.0275317747216 0.0347261310511 -2.06810182828e-21)
(-0.0288702572312 0.0313846624783 -2.10581497195e-21)
(-0.0277211614659 0.0397271767634 -4.00192055298e-21)
(-0.0302028126187 0.0380279357704 -2.92670357397e-21)
(-0.0281659439219 0.0458506106284 -7.27131545689e-21)
(-0.0306441107186 0.0350266218363 -8.1564244215e-21)
(-0.0205535401489 0.0530532910253 -8.50612444105e-21)
(-0.0328052056894 0.0424148413039 -9.80388712879e-21)
(0.0320251727689 0.0488465526439 -6.52453397743e-21)
(-0.0111955590998 0.0542784003307 -1.05776169902e-20)
(0.137518842408 0.0943209175287 -3.95619624067e-21)
(-0.024903736491 0.0204271059126 -2.05329732351e-22)
(-0.0254104788677 0.0185681082139 -1.12747851497e-22)
(-0.0263098905906 0.0230679916107 -4.44276963709e-22)
(-0.0267848465903 0.0210032582236 -2.98287323973e-22)
(-0.0279349255423 0.025922733299 -8.28500797268e-22)
(-0.0284075697956 0.0236912424956 -5.98900307913e-22)
(-0.0298194346746 0.0290962973828 -1.55591300349e-21)
(-0.0302937023011 0.0267088518149 -1.0201336376e-21)
(-0.0318872533221 0.03279373163 -2.96441671764e-21)
(-0.0325676966242 0.0295491602592 -2.02693665432e-21)
(-0.0335253262241 0.0380521927756 -7.08120744248e-21)
(-0.0354612769843 0.0359510457819 -2.10891739659e-21)
(-0.0356319483567 0.0448263862161 -1.06889960934e-20)
(-0.0374183781809 0.0328960490335 -8.62701169186e-21)
(-0.0315322471314 0.0537349209099 -1.18753796779e-20)
(-0.0417034531917 0.0401516511146 -1.1434275622e-20)
(0.0111187769012 0.0841252462508 -8.00927925344e-21)
(-0.0416218692239 0.0531982269256 -1.19329342693e-20)
(-0.0930800737151 0.179737086464 -5.28478354205e-21)
(-0.0273118186544 0.0189604382424 -2.05705443119e-22)
(-0.0276623612537 0.0170598593152 -1.09837429939e-22)
(-0.0289446393309 0.021402502464 -4.52910668178e-22)
(-0.0292269241795 0.019328323401 -2.53652660419e-22)
(-0.0308109063383 0.0241379191521 -7.90533148247e-22)
(-0.031142998908 0.0218514739431 -5.45497091044e-22)
(-0.0330628014667 0.0271240486426 -1.49115728843e-21)
(-0.0332798428745 0.0246849995118 -1.00705553334e-21)
(-0.0362193239296 0.0305973353161 -1.17143733327e-21)
(-0.0360409922051 0.0275180081614 -2.12869443129e-21)
(-0.039482776421 0.0357232115083 -3.65472164596e-21)
(-0.0405871591766 0.0336284822741 -1.61847677614e-21)
(-0.0437704809963 0.0421579500657 -9.37229122049e-21)
(-0.0438530409368 0.0301014725319 -6.88455456183e-21)
(-0.0521643746626 0.0515805359077 -1.14918302134e-20)
(-0.0511369475309 0.0367148774096 -1.05226704379e-20)
(-0.0886207055068 0.0834242355413 -9.20843855786e-21)
(-0.0734277212803 0.0478219288289 -1.16361963519e-20)
(-0.151180219547 0.0709212964965 -8.79345662385e-21)
(-0.0295605269119 0.0172439160762 -1.57784647239e-22)
(-0.0297123047521 0.015378491521 -9.63232178769e-23)
(-0.0314191610011 0.0195430567869 -3.46239083285e-22)
(-0.0315260967555 0.0174314121168 -1.82171286618e-22)
(-0.03356595351 0.0220863071441 -7.62019476137e-22)
(-0.0336862726209 0.0197196957009 -4.44026687687e-22)
(-0.0362314292664 0.0249913604621 -1.6445926762e-21)
(-0.036184914101 0.0223188802537 -9.75594755684e-22)
(-0.0402632654287 0.0284978304999 -2.57573387416e-21)
(-0.0395474758134 0.0250818584845 -2.15607219401e-21)
(-0.0448497077263 0.0327934105232 -4.84830969201e-21)
(-0.0448827478924 0.0307976159108 -4.78988171302e-21)
(-0.0511794220127 0.0385334783799 -8.03493377924e-21)
(-0.049593051131 0.0268007194136 -6.86503826359e-21)
(-0.0624803750301 0.0461978129535 -1.06670365765e-20)
(-0.0588097076612 0.0323308614644 -8.7235770452e-21)
(-0.0981896185248 0.036183803166 -1.12212144179e-20)
(-0.0633939899786 0.0436435896738 -1.05793501365e-20)
(-0.0762710976829 0.0046401684746 -6.3928318131e-21)
(-0.0315810730188 0.0153798866938 -1.20709857256e-22)
(-0.0315215260833 0.0135257586775 -9.41337927865e-23)
(-0.0336774829048 0.0173889552185 -2.7995889102e-22)
(-0.0335352075854 0.0152886459377 -1.64997621222e-22)
(-0.0361591309423 0.0196592009731 -6.57601967234e-22)
(-0.0359565497197 0.0172551952503 -4.06867784548e-22)
(-0.0392881090438 0.0223234006863 -1.4870742735e-21)
(-0.0388491385742 0.0195199852182 -8.54988950465e-22)
(-0.0439384047219 0.0254758669761 -4.37022003287e-21)
(-0.0426999616462 0.0219994146576 -2.01027931531e-21)
(-0.0493723751317 0.0293298874229 -6.8066102846e-21)
(-0.0487367800736 0.0271261660098 -3.24473696985e-21)
(-0.0570725099946 0.0337527953585 -7.55368152955e-21)
(-0.0540159394192 0.0229799333865 -5.22857662147e-21)
(-0.0623070599516 0.0396969815443 -8.63589060516e-21)
(-0.0647571126573 0.0270529310472 -9.48963039534e-21)
(-0.0572705271633 0.0369512559031 -5.75096753162e-21)
(-0.0606466276878 0.0378662080136 -9.82621231665e-21)
(-0.0344022934792 0.0217551137908 -3.76952163978e-21)
(-0.0333332440423 0.0132730850051 -1.38421556752e-22)
(-0.0330397648658 0.0114952642137 -9.03555725124e-23)
(-0.0356447920458 0.0149621420138 -2.9190651475e-22)
(-0.0352243132667 0.0129233167331 -1.34950154723e-22)
(-0.0384428857872 0.0168761511641 -6.04254767779e-22)
(-0.0378705995447 0.0144976569794 -2.85814569598e-22)
(-0.0420184382319 0.019166774168 -1.37819399227e-21)
(-0.0411397988292 0.0162990911466 -4.47473758403e-22)
(-0.0470857178317 0.021927501541 -8.8479625228e-22)
(-0.0454607211073 0.0182690526044 -7.44396229886e-22)
(-0.0529573167994 0.0247293469301 -1.66670330672e-21)
(-0.0515386489197 0.0225582935613 2.08012652464e-21)
(-0.0612577135722 0.0281937993303 -7.16452548726e-21)
(-0.0574803918775 0.0185750781894 -2.22930623808e-21)
(-0.0639194200599 0.0315668527727 -1.06799521068e-20)
(-0.0681303669434 0.0210634556212 -1.08560445408e-20)
(-0.04485791553 0.0314649331612 -7.84476642481e-21)
(-0.0605480088419 0.0301892621555 -1.04581006436e-20)
(-0.0228603211858 0.0228764147926 -3.15629582279e-21)
(-0.0347470281914 0.0110148329519 -8.68841704833e-23)
(-0.0342329433643 0.00936469621351 -6.53480525794e-23)
(-0.0372266266203 0.0123081165288 -1.28858209571e-22)
(-0.0365176507628 0.0104130824362 -9.66737090498e-23)
(-0.0402779361324 0.0137531387689 -1.29033560222e-22)
(-0.0393156779592 0.0115379648847 -1.60886281226e-22)
(-0.0441989004161 0.0154229877216 1.86324003985e-22)
(-0.0428097009998 0.0127795714345 -1.41712059453e-22)
(-0.0494931607211 0.0173681199144 2.22052654703e-21)
(-0.0474059035024 0.0141228292914 2.47903774672e-22)
(-0.0555279146035 0.0194574412834 1.51752359328e-21)
(-0.0536280030106 0.0173459350864 3.28320778984e-21)
(-0.0635793118282 0.0216271374056 -5.92082529157e-21)
(-0.0596500866114 0.013618079322 -1.65451269137e-21)
(-0.0647150022054 0.0223648555063 -1.06341930775e-20)
(-0.0688691761879 0.014649613882 -1.09481758156e-20)
(-0.0392833689749 0.0217947850172 -5.76963004158e-21)
(-0.059975903472 0.0210792236552 -1.05740960135e-20)
(-0.0133016050869 0.0120583890601 -1.5130004976e-21)
(-0.0357864096979 0.00867414249803 -7.5137591146e-23)
(-0.0383608700705 0.0095384309314 -1.28701780705e-22)
(-0.0415490964742 0.0104654264669 -1.73564780457e-22)
(-0.0456465705068 0.0114914148683 -8.01322887663e-23)
(-0.0510639077509 0.0126224851445 1.31058501748e-21)
(-0.0570553564124 0.0137265004854 1.11171505187e-22)
(-0.0640839821898 0.0144970564926 -6.68186321535e-21)
(-0.0636989432196 0.0131191459445 -1.08880787515e-20)
(-0.0343634614591 0.0106034967114 -6.31746646948e-21)
)
;

boundaryField
{
    back
    {
        type            calculated;
        value           uniform (0 0 0);
    }
    sides
    {
        type            calculated;
        value           uniform (0 0 0);
    }
    bottom
    {
        type            calculated;
        value           nonuniform List<vector> 0();
    }
    front
    {
        type            calculated;
        value           uniform (0 0 0);
    }
    atmosphere
    {
        type            calculated;
        value           nonuniform List<vector> 
16
(
(-0.0752509663637 0.0847561028013 1.3063873395e-20)
(0 -0.0475100590256 0)
(0 -0.162544193513 0)
(0 -0.0304038518018 0)
(0.101572703635 0.57936150711 1.06000566552e-22)
(-0.265115639178 0.205594191096 5.79957285607e-21)
(0 -0.172013104391 0)
(0 -0.0793131604764 0)
(0 -0.0893883613876 0)
(0.0481481744174 0.3146822011 -3.36715035644e-21)
(-0.119598941864 0.141557943556 -7.20241672766e-21)
(0 -0.0387400681103 0)
(0 -0.00492285488202 0)
(-0.028591945724 0.0199229510947 -5.13787617339e-21)
(-0.0177975421859 0.0122358865507 -1.17471547219e-21)
(-0.00954330999014 0.00344623451625 -1.85128552301e-21)
)
;
    }
    floatingObject
    {
        type            calculated;
        value           nonuniform List<vector> 0();
    }
    procBoundary1to0
    {
        type            processor;
        value           nonuniform List<vector> 10((-0.0350540635756 0.00721847803439 -4.34379359017e-23) (-0.0373819921324 0.00787060435721 -1.02064674733e-22) (-0.0402427296626 0.00852763088926 -2.28827014688e-22) (-0.0438357514243 0.0091770249264 -5.38249682321e-22) (-0.0485370268861 0.00979431702957 -8.2082421702e-22) (-0.0547320554936 0.0119073680299 1.08181335572e-21) (-0.0604206549534 0.00837979494039 -3.57183232321e-21) (-0.0674905982844 0.00803652169307 -8.44140053574e-21) (-0.0574605417345 0.0112248276325 -8.30103205173e-21) (-0.0061445103335 0.00150393719802 -1.11954606385e-21));
    }
    procBoundary1to2
    {
        type            processor;
        value           nonuniform List<vector> 
18
(
(-0.00123142510583 0.0184153187633 2.19405095239e-22)
(-0.00363093925414 0.0179252078134 -1.17308994967e-23)
(-0.00595381057468 0.0174018523476 -5.4529009816e-23)
(-0.00717311520095 0.0183806050962 -1.13873523559e-23)
(-0.00846878976932 0.0193510997301 -2.61922215152e-23)
(-0.00976138878735 0.0203988432776 -2.25601461381e-23)
(-0.0111275933167 0.0214580365905 -5.22730491394e-23)
(-0.0136572347741 0.021128227128 -5.13578032272e-23)
(-0.0162426977542 0.0206825818215 -6.13515884732e-23)
(-0.0188340986891 0.0200425241563 -8.74431851769e-23)
(-0.0213365909989 0.0191337791654 -7.89900604081e-23)
(-0.0236911118372 0.0180455149231 -6.84895081152e-23)
(-0.0259086508031 0.0167085640691 -7.28163634925e-23)
(-0.0279635281667 0.015194038351 -7.09876400435e-23)
(-0.0298041775871 0.0135707588308 -5.30246010661e-23)
(-0.0313885793648 0.0117549472361 -5.95300261521e-23)
(-0.0326868677116 0.00982174819509 -3.79786360457e-23)
(-0.0336588144656 0.00785308229315 -1.44718000118e-23)
)
;
    }
}


// ************************************************************************* //
