/*--------------------------------*- C++ -*----------------------------------*\
| =========                 |                                                 |
| \\      /  F ield         | OpenFOAM: The Open Source CFD Toolbox           |
|  \\    /   O peration     | Version:  v2012                                 |
|   \\  /    A nd           | Website:  www.openfoam.com                      |
|    \\/     M anipulation  |                                                 |
\*---------------------------------------------------------------------------*/
FoamFile
{
    version     2.0;
    format      ascii;
    class       surfaceScalarField;
    location    "2.6";
    object      phi;
}
// * * * * * * * * * * * * * * * * * * * * * * * * * * * * * * * * * * * * * //

dimensions      [0 3 -1 0 0 0 0];
oriented        oriented;


internalField   nonuniform List<scalar> 
300
(
6.57290406078e-05
-8.94733059938e-05
7.59141760787e-05
-9.03599171946e-05
8.6951772573e-05
-9.08739925452e-05
9.89944141439e-05
-9.09295219795e-05
0.00011205612943
-9.04340344469e-05
0.00012601920549
-8.9569591435e-05
0.000140473887671
-8.8641720889e-05
0.000155058241333
-8.56439544277e-05
0.000170200335941
-7.12531288757e-05
0.000194423199138
-8.41669272987e-06
0.000352499971042
0.000426751685808
-0.000497081933123
6.48968444352e-05
7.53889980802e-05
8.69578166238e-05
-0.000102436251226
9.96758545248e-05
-0.000103635583759
0.000113485271638
-0.000104224031322
0.000128077459642
-0.000104135908219
0.000142142399567
-0.000102679367188
0.000154437820833
-9.79196694531e-05
0.000161451002069
-7.82595551849e-05
0.000200164362071
-4.71273857905e-05
0.000418964256176
0.000207975246407
-0.000808860028065
8.59101666402e-05
-0.000114495795901
9.93639313912e-05
-0.000117078283535
0.000114176701431
-0.000119020839488
0.000130158909672
-0.000120098561436
0.000145962715321
-0.000118463925118
0.000159404444158
-0.000111348392617
0.000168210971154
-8.70619861896e-05
0.000188427524859
-6.7342744124e-05
0.000200465274704
0.000195946132986
-0.000393463591699
8.34990813411e-05
-0.000126971513172
9.78320509472e-05
-0.000131403668163
0.000114240729549
-0.000135418742156
0.000132497861606
-0.000138343039674
0.00015161836901
-0.000137572634474
0.000166439512958
-0.000126162113841
0.000171161321523
-9.17817125835e-05
0.000156881862992
-5.30629228315e-05
6.52993373975e-05
0.000287532273248
-0.000127883266817
7.92432900168e-05
-0.000139527502713
9.41548569585e-05
-0.000146313349389
0.000111961924749
-0.000153221592699
0.000133060746854
-0.000159436393302
0.000156089455083
-0.000160596277951
0.000172884806623
-0.000142954586662
0.000170903186605
-8.97995066954e-05
0.000130338445517
-1.24981810441e-05
5.19587509885e-05
0.000365913309091
6.29092312314e-05
7.2472768126e-05
-0.000151768297499
8.73763450982e-05
-0.000161221472325
0.000105847214356
-0.000171694856171
0.000129018882777
-0.000182609067945
0.000155581977085
-0.000187159810373
0.00017564022647
-0.000163013360075
0.000174929883896
-8.90896145585e-05
0.000142531223842
1.99012209363e-05
0.000281412130678
0.000227032025848
0.000336531280887
6.29433630896e-05
-0.000162936291101
7.65900599094e-05
-0.000174878256133
9.37465644411e-05
-0.000188859136975
0.000115793346075
-0.000204661794851
0.000141668886607
-0.000213039735141
0.000167216989783
-0.000188564278619
0.0001892842152
-0.000111157916602
0.000207519322331
1.66676636413e-06
0.000380353757591
5.41918672622e-05
0.0010329571377
5.08062275701e-05
-0.000172288357453
6.21568159005e-05
-0.000186242550003
7.57903528377e-05
-0.000202503942249
9.22748440298e-05
-0.000221155366987
0.000111957975214
-0.000232729682607
0.00014111594004
-0.000217726415282
0.000200043017274
-0.000170086464515
0.000303399956881
-0.000101687522633
0.000555116757302
-0.000197528843294
-3.15203448595e-06
3.6606749321e-05
-0.000179413007828
4.51513187665e-05
-0.000194802351265
5.5124363541e-05
-0.000212489884518
6.56072347312e-05
-0.000231648842338
7.97507369446e-05
-0.000246881192149
0.000113565833727
-0.000251546322306
0.000189596790907
-0.000246119066151
0.000350454230357
-0.000262541344882
0.00069180921566
-0.00053889002042
-0.000749535131636
2.09434364976e-05
-0.000184275921183
2.61576961901e-05
-0.000200031774011
3.21804670078e-05
-0.000218525768195
3.9495775303e-05
-0.000238975063959
5.03906646307e-05
-0.000257784337214
7.99003396179e-05
-0.000281060870102
0.000148919786537
-0.000315140016543
0.000276832749581
-0.000390455816079
0.000254483965958
-0.000516539418898
-0.000571418995422
5.01656948929e-06
-0.000186949954136
7.75830772656e-06
-0.000202787674817
1.04601436288e-05
-0.000221240001958
1.37064663314e-05
-0.000242231725446
2.33054447118e-05
-0.000267391055343
4.15685820014e-05
-0.000299328436278
7.99029078462e-05
-0.000353475578599
0.000129708591796
-0.000440264967301
-4.17954891419e-05
-0.000345027697053
-0.000379011928844
-9.9794058645e-06
-0.000188371536602
-7.94969955399e-06
-0.000204829887168
-6.15749862879e-06
-0.000223043065894
-4.96388144548e-06
-0.000243434237089
-1.87067488775e-06
-0.000270490726918
8.1892527235e-07
-0.000302021534432
8.51870126e-06
-0.000361176324915
7.93744181643e-06
-0.000439683096634
-0.000368052598379
3.09637595274e-05
-0.000312247457043
-2.680446386e-05
-0.000187809848936
-2.70737925894e-05
-0.000204570507929
-2.75075879693e-05
-0.0002226175076
-2.94649826378e-05
-0.000241483225312
-3.49147303088e-05
-0.000265045325731
-4.02017287096e-05
-0.000296736674608
-4.39840701865e-05
-0.000357394507099
-7.76817923043e-05
-0.000405982821983
0.0001672997757
-0.000214018116362
-8.39087165931e-05
-4.41808665589e-05
-0.000185137413917
-4.72020530098e-05
-0.000201553925545
-5.17295927394e-05
-0.000218093278477
-5.88154949847e-05
-0.000234399422718
-6.71699677002e-05
-0.000256692116386
-6.76670095353e-05
-0.000296239991026
-7.95475254461e-05
-0.000345514035941
-0.000140949059008
-0.000344576992398
-7.44904498301e-05
-0.000280486960729
-7.83435984804e-05
-6.00567174804e-05
-0.000181572530495
-6.32389469131e-05
-0.000198368717765
-6.7183178088e-05
-0.000214145565203
-7.32121494645e-05
-0.000228367829912
-7.9062495396e-05
-0.000250839507973
-7.5921851273e-05
-0.000299379680084
-9.64866449516e-05
-0.000324948942625
-0.000191343755168
-0.000249723206448
-0.000201371594746
-0.000270486431653
-9.83467677114e-05
-7.48266221082e-05
-7.48164804288e-05
-7.13324700479e-05
-6.67973528229e-05
-6.44624462189e-05
-7.92870125028e-05
-0.000109001736673
-0.000175359805575
-0.000204126941905
)
;

boundaryField
{
    back
    {
        type            calculated;
        value           uniform 0;
    }
    sides
    {
        type            calculated;
        value           nonuniform List<scalar> 0();
    }
    bottom
    {
        type            calculated;
        value           nonuniform List<scalar> 0();
    }
    front
    {
        type            calculated;
        value           uniform 0;
    }
    atmosphere
    {
        type            calculated;
        value           nonuniform List<scalar> 
16
(
0.00257217684669
0.000730759738097
-0.000214917775313
-0.000200276127596
-0.00013883110386
7.78829040332e-06
-0.000316061476909
0.00159122444244
0.00143819081589
7.6368387861e-05
-0.000234204208051
-0.000434816969378
-6.10427776124e-05
-8.00693174657e-05
-0.000181394893409
-0.000157606980005
)
;
    }
    floatingObject
    {
        type            calculated;
        value           nonuniform List<scalar> 0();
    }
    procBoundary5to0
    {
        type            processor;
        value           nonuniform List<scalar> 
12
(
8.01795449045e-05
8.017167554e-05
7.98387601841e-05
7.89000605726e-05
7.7401339405e-05
7.5652364894e-05
7.4242508071e-05
7.11072311394e-05
5.61333703586e-05
-1.57988191294e-05
-0.000584739785498
-0.00172253073459
)
;
    }
    procBoundary5to3
    {
        type            processor;
        value           nonuniform List<scalar> 10(-0.000178286587309 -0.000198368665759 -0.000217620947892 -0.000232895950761 -0.000253170584768 -0.000284553453083 -0.000295234076574 -0.000183373672908 -0.000241761229245 -0.000144898536806);
    }
    procBoundary5to4
    {
        type            processor;
        value           nonuniform List<scalar> 
18
(
-5.6443692554e-05
-5.5386446524e-05
-9.89843255027e-05
-0.000100849143276
-7.38417382879e-05
-7.10174101611e-05
-6.66886883816e-05
-6.02428940589e-05
-5.17951520652e-05
-4.14798806806e-05
-2.95100207414e-05
-1.61076075899e-05
-2.36718306428e-06
1.13793392874e-05
2.62247500651e-05
4.14971365914e-05
5.64942344516e-05
7.15524447008e-05
)
;
    }
}


// ************************************************************************* //
