/*--------------------------------*- C++ -*----------------------------------*\
| =========                 |                                                 |
| \\      /  F ield         | OpenFOAM: The Open Source CFD Toolbox           |
|  \\    /   O peration     | Version:  v2012                                 |
|   \\  /    A nd           | Website:  www.openfoam.com                      |
|    \\/     M anipulation  |                                                 |
\*---------------------------------------------------------------------------*/
FoamFile
{
    version     2.0;
    format      ascii;
    class       volScalarField;
    location    "4.3";
    object      p;
}
// * * * * * * * * * * * * * * * * * * * * * * * * * * * * * * * * * * * * * //

dimensions      [1 -1 -2 0 0 0 0];


internalField   nonuniform List<scalar> 
164
(
2444.98833307
1951.0290591
1456.60317189
961.067511285
466.200853617
104.220603932
-9.0478149267
-9.56634855141
2443.36752419
1949.83186286
1455.65414062
960.367396791
465.730107138
104.106332076
-9.04918675571
-9.56666198848
2443.44482496
1949.92203356
1455.77826947
960.557314783
465.926964495
104.205011489
-9.05886715393
-9.56769748038
2445.19112396
1951.28418176
1456.96170128
961.553368921
466.675218249
104.557523589
-9.06004443299
-9.56525153686
1458.98051789
963.341345423
468.170975036
105.235909305
-9.05484145788
-9.56245704993
1461.8107937
965.881071604
470.422088372
106.223338486
-9.05204572919
-9.56209261548
1465.17007417
969.24898141
473.439845146
107.531771333
-9.04814809108
-9.56203709313
1469.03666458
973.253175768
477.368232447
109.405628645
-9.04581884387
-9.5620583872
1473.5360808
978.183184348
482.563426871
112.119563385
-9.0549335288
-9.56358942945
1478.66932377
984.034558698
489.15110182
115.742751213
-9.07006627558
-9.56378390112
1484.31219927
990.606403082
496.84144752
120.100973143
-9.07403128826
-9.56038137439
1490.2480087
997.518611733
504.979913499
124.780965409
-9.11474063758
-9.56794052677
1496.26672246
1004.42733498
512.947158589
129.234120533
-9.18360539964
-9.59045492362
1502.20381068
1011.09542699
520.408980856
133.283734745
-9.12244761829
-9.58767089369
1507.95917863
1017.42512791
527.340577504
137.046825815
-8.92545082072
-9.54584085992
1513.46195968
1023.35301908
533.709521917
140.787830106
-8.55709265632
-9.54376749619
1518.67653297
1028.85856478
539.520494734
144.658779483
-7.78748278655
-9.55876171973
1523.59525975
1033.94276535
544.760224248
148.213948739
-6.97852587361
-9.56609648558
1528.22731132
1038.58805976
549.365547566
151.148516903
-6.34611356223
-9.56827229447
1532.63048204
1042.83918009
553.323072692
153.337781783
-5.91649200224
-9.56768564771
1536.94321185
1046.91172303
556.900875849
155.076396021
-5.62935425132
-9.56612805439
1541.32846338
1051.05563246
560.500040995
156.865407762
-5.26553183589
-9.56488680017
1545.93530432
1055.55040188
564.687429469
159.238724796
-4.79361606993
-9.56507519219
1550.87902565
1060.60991657
569.870789002
162.644167658
-4.13415989788
-9.56688689606
575.996855315
166.950239277
-3.31993750534
-9.57132249526
582.896936606
171.604004322
-2.5470257363
-9.57355308225
590.665538616
177.216292119
-1.51908520964
-9.5759900592
)
;

boundaryField
{
    back
    {
        type            calculated;
        value           nonuniform List<scalar> 
164
(
2444.98833307
1951.0290591
1456.60317189
961.067511285
466.200853617
104.220603932
-9.0478149267
-9.56634855141
2443.36752419
1949.83186286
1455.65414062
960.367396791
465.730107138
104.106332076
-9.04918675571
-9.56666198848
2443.44482496
1949.92203356
1455.77826947
960.557314783
465.926964495
104.205011489
-9.05886715393
-9.56769748038
2445.19112396
1951.28418176
1456.96170128
961.553368921
466.675218249
104.557523589
-9.06004443299
-9.56525153686
1458.98051789
963.341345423
468.170975036
105.235909305
-9.05484145788
-9.56245704993
1461.8107937
965.881071604
470.422088372
106.223338486
-9.05204572919
-9.56209261548
1465.17007417
969.24898141
473.439845146
107.531771333
-9.04814809108
-9.56203709313
1469.03666458
973.253175768
477.368232447
109.405628645
-9.04581884387
-9.5620583872
1473.5360808
978.183184348
482.563426871
112.119563385
-9.0549335288
-9.56358942945
1478.66932377
984.034558698
489.15110182
115.742751213
-9.07006627558
-9.56378390112
1484.31219927
990.606403082
496.84144752
120.100973143
-9.07403128826
-9.56038137439
1490.2480087
997.518611733
504.979913499
124.780965409
-9.11474063758
-9.56794052677
1496.26672246
1004.42733498
512.947158589
129.234120533
-9.18360539964
-9.59045492362
1502.20381068
1011.09542699
520.408980856
133.283734745
-9.12244761829
-9.58767089369
1507.95917863
1017.42512791
527.340577504
137.046825815
-8.92545082072
-9.54584085992
1513.46195968
1023.35301908
533.709521917
140.787830106
-8.55709265632
-9.54376749619
1518.67653297
1028.85856478
539.520494734
144.658779483
-7.78748278655
-9.55876171973
1523.59525975
1033.94276535
544.760224248
148.213948739
-6.97852587361
-9.56609648558
1528.22731132
1038.58805976
549.365547566
151.148516903
-6.34611356223
-9.56827229447
1532.63048204
1042.83918009
553.323072692
153.337781783
-5.91649200224
-9.56768564771
1536.94321185
1046.91172303
556.900875849
155.076396021
-5.62935425132
-9.56612805439
1541.32846338
1051.05563246
560.500040995
156.865407762
-5.26553183589
-9.56488680017
1545.93530432
1055.55040188
564.687429469
159.238724796
-4.79361606993
-9.56507519219
1550.87902565
1060.60991657
569.870789002
162.644167658
-4.13415989788
-9.56688689606
575.996855315
166.950239277
-3.31993750534
-9.57132249526
582.896936606
171.604004322
-2.5470257363
-9.57355308225
590.665538616
177.216292119
-1.51908520964
-9.5759900592
)
;
    }
    sides
    {
        type            calculated;
        value           nonuniform List<scalar> 0();
    }
    bottom
    {
        type            calculated;
        value           nonuniform List<scalar> 0();
    }
    front
    {
        type            calculated;
        value           nonuniform List<scalar> 
164
(
2444.98833307
1951.0290591
1456.60317189
961.067511285
466.200853617
104.220603932
-9.0478149267
-9.56634855141
2443.36752419
1949.83186286
1455.65414062
960.367396791
465.730107138
104.106332076
-9.04918675571
-9.56666198848
2443.44482496
1949.92203356
1455.77826947
960.557314783
465.926964495
104.205011489
-9.05886715393
-9.56769748038
2445.19112396
1951.28418176
1456.96170128
961.553368921
466.675218249
104.557523589
-9.06004443299
-9.56525153686
1458.98051789
963.341345423
468.170975036
105.235909305
-9.05484145788
-9.56245704993
1461.8107937
965.881071604
470.422088372
106.223338486
-9.05204572919
-9.56209261548
1465.17007417
969.24898141
473.439845146
107.531771333
-9.04814809108
-9.56203709313
1469.03666458
973.253175768
477.368232447
109.405628645
-9.04581884387
-9.5620583872
1473.5360808
978.183184348
482.563426871
112.119563385
-9.0549335288
-9.56358942945
1478.66932377
984.034558698
489.15110182
115.742751213
-9.07006627558
-9.56378390112
1484.31219927
990.606403082
496.84144752
120.100973143
-9.07403128826
-9.56038137439
1490.2480087
997.518611733
504.979913499
124.780965409
-9.11474063758
-9.56794052677
1496.26672246
1004.42733498
512.947158589
129.234120533
-9.18360539964
-9.59045492362
1502.20381068
1011.09542699
520.408980856
133.283734745
-9.12244761829
-9.58767089369
1507.95917863
1017.42512791
527.340577504
137.046825815
-8.92545082072
-9.54584085992
1513.46195968
1023.35301908
533.709521917
140.787830106
-8.55709265632
-9.54376749619
1518.67653297
1028.85856478
539.520494734
144.658779483
-7.78748278655
-9.55876171973
1523.59525975
1033.94276535
544.760224248
148.213948739
-6.97852587361
-9.56609648558
1528.22731132
1038.58805976
549.365547566
151.148516903
-6.34611356223
-9.56827229447
1532.63048204
1042.83918009
553.323072692
153.337781783
-5.91649200224
-9.56768564771
1536.94321185
1046.91172303
556.900875849
155.076396021
-5.62935425132
-9.56612805439
1541.32846338
1051.05563246
560.500040995
156.865407762
-5.26553183589
-9.56488680017
1545.93530432
1055.55040188
564.687429469
159.238724796
-4.79361606993
-9.56507519219
1550.87902565
1060.60991657
569.870789002
162.644167658
-4.13415989788
-9.56688689606
575.996855315
166.950239277
-3.31993750534
-9.57132249526
582.896936606
171.604004322
-2.5470257363
-9.57355308225
590.665538616
177.216292119
-1.51908520964
-9.5759900592
)
;
    }
    atmosphere
    {
        type            calculated;
        value           nonuniform List<scalar> 
27
(
-9.81007909986
-9.81029392271
-9.81081932479
-9.81083753203
-9.81056273308
-9.81044368951
-9.81052204453
-9.81064833406
-9.81074389027
-9.81103340824
-9.81095599735
-9.81077266668
-9.81099475066
-9.81006272335
-9.81019596034
-9.8105390939
-9.81136351598
-9.81172594751
-9.8118132662
-9.81180161706
-9.81135714545
-9.81128682639
-9.8115551289
-9.81267167932
-9.8137917161
-9.81383568108
-9.81403381074
)
;
    }
    floatingObject
    {
        type            calculated;
        value           nonuniform List<scalar> 4(2689.79630471 2688.17586229 2688.25346794 2690.00091611);
    }
    procBoundary6to3
    {
        type            processor;
        value           nonuniform List<scalar> 8(2448.21203582 1953.43057568 1458.42304648 962.558619281 467.173125772 104.478102553 -9.05249243452 -9.5667937618);
    }
    procBoundary6to7
    {
        type            processor;
        value           nonuniform List<scalar> 
11
(
2018.05999928
2022.47741111
2026.84730224
2031.27039375
2035.83204034
2040.59633062
1556.20983951
1066.28613278
1066.28613278
1072.52798787
1079.2447088
)
;
    }
    procBoundary6to8
    {
        type            processor;
        value           nonuniform List<scalar> 
16
(
2448.49833953
1953.82299548
1953.82299548
1957.06976101
1960.41302874
1964.04503811
1968.11554512
1972.65565722
1977.59038857
1982.79245384
1988.12022648
1993.45765155
1998.71837429
2003.83617459
2008.77107712
2013.50812074
)
;
    }
    procBoundary6to9
    {
        type            processor;
        value           nonuniform List<scalar> 4(598.943327318 183.841568425 0.0982032540845 -9.58528646909);
    }
}


// ************************************************************************* //
