/*--------------------------------*- C++ -*----------------------------------*\
| =========                 |                                                 |
| \\      /  F ield         | OpenFOAM: The Open Source CFD Toolbox           |
|  \\    /   O peration     | Version:  v2012                                 |
|   \\  /    A nd           | Website:  www.openfoam.com                      |
|    \\/     M anipulation  |                                                 |
\*---------------------------------------------------------------------------*/
FoamFile
{
    version     2.0;
    format      ascii;
    class       surfaceScalarField;
    location    "3.5";
    object      alphaPhi0.water;
}
// * * * * * * * * * * * * * * * * * * * * * * * * * * * * * * * * * * * * * //

dimensions      [0 3 -1 0 0 0 0];
oriented        oriented;


internalField   nonuniform List<scalar> 
296
(
7.50073574422e-05
5.40719106562e-05
8.58174173474e-05
5.46875441799e-05
9.60114644006e-05
5.6179182077e-05
0.000105848036931
5.7201176584e-05
0.000116260594501
5.66512772739e-05
0.000127185031471
5.60569752387e-05
0.000136486242182
5.84128836797e-05
0.000141068824143
5.88966850525e-05
0.000134088664773
5.16545373581e-05
0.000114394848542
3.62678801636e-05
5.65305150301e-05
7.65908147599e-05
3.79217015307e-07
-2.30407726812e-05
-1.19134383837e-07
7.26574570808e-06
3.42116201771e-05
1.53122096599e-05
4.06829017452e-05
2.39310405468e-05
4.45398643413e-05
4.60235324479e-05
5.32508195597e-05
4.45909843104e-05
6.43468017091e-05
4.33089572136e-05
7.6018521147e-05
4.24038437383e-05
8.71870432577e-05
4.35190109381e-05
9.68832433711e-05
4.64785819884e-05
0.000105863549664
4.82102555312e-05
0.000116592274312
4.59051043383e-05
0.000129506749847
4.311735624e-05
0.000141623834128
4.62649805602e-05
0.000147989649168
5.24993195303e-05
0.000137133803587
6.24853240303e-05
0.000111380240037
6.20078107051e-05
5.86011888733e-05
9.94855920933e-05
-2.55289673988e-07
-6.88348352777e-07
-1.95058895793e-07
6.95888105918e-06
2.72541049873e-05
1.47199935629e-05
3.29239889963e-05
2.31057015719e-05
3.6157747631e-05
3.21209607048e-05
3.70129897072e-05
4.18735011781e-05
3.60163858818e-05
5.25790977734e-05
3.3890626106e-05
6.43152767098e-05
3.15772499996e-05
7.72296332178e-05
2.94925051281e-05
8.86623707332e-05
3.20866605828e-05
9.69726400668e-05
3.81648922629e-05
0.000104025747926
4.11488853701e-05
0.000115115782601
3.48011256404e-05
0.000131621524647
2.65921056307e-05
0.000146622674362
3.12407809703e-05
0.000153175048558
4.59229716519e-05
0.000140728626193
7.49119211104e-05
0.0001095620996
9.31631092985e-05
5.65232008509e-05
0.000124027640227
1.48156049553e-07
2.06890371243e-05
-2.35551569216e-07
6.51775944132e-06
2.07371119519e-05
1.38387046426e-05
2.56042299476e-05
2.1822888944e-05
2.81757344843e-05
3.04744453413e-05
2.83645912392e-05
3.99848305016e-05
2.65098310791e-05
5.07275718898e-05
2.31518814718e-05
6.29605605203e-05
1.93477742854e-05
7.78051985837e-05
1.46500988536e-05
8.89540756318e-05
2.09376266384e-05
9.37701916021e-05
3.33452668318e-05
9.68794480574e-05
3.80318985031e-05
0.000107914985173
2.37533511914e-05
0.000131220650595
3.26990741948e-06
0.000151240467694
1.12015493243e-05
0.000157333004622
3.98108647854e-05
0.000144929639985
8.72989718328e-05
0.000119151676813
0.000118931736072
6.63302322507e-05
0.000141723642613
-4.49026309632e-07
3.79519620795e-05
-5.76842976558e-07
5.92034921018e-06
1.4816933609e-05
1.26427249399e-05
1.8882280541e-05
2.00320245422e-05
2.07875784199e-05
2.79529887093e-05
2.04456232498e-05
3.65516992327e-05
1.79137742408e-05
4.62274458477e-05
1.34790108737e-05
5.82269181324e-05
7.35070159006e-06
7.43276099679e-05
-1.44947576971e-06
8.2962647137e-05
1.23014624974e-05
8.295033361e-05
3.33534946078e-05
8.21916139262e-05
3.87829848386e-05
9.17577459476e-05
1.41758272953e-05
0.000124999320829
-2.99859828684e-05
0.000149512173323
-1.33274786588e-05
0.000154919761466
3.4386893369e-05
0.000143878807237
9.83261164498e-05
0.000122769212159
0.0001400330839
7.55096177898e-05
0.000148632005845
-1.07349120389e-06
4.8095192111e-05
-1.63193355199e-06
5.10281678006e-06
9.71362308714e-06
1.10568736071e-05
1.29278976608e-05
1.76709951753e-05
1.41737167812e-05
2.44066693405e-05
1.37109347841e-05
3.02258569434e-05
1.20961333698e-05
3.45666157839e-05
9.13994502888e-06
4.30036218566e-05
-1.08511310028e-06
6.32526148371e-05
-2.16986462996e-05
7.41047932138e-05
1.447194276e-06
7.23385476822e-05
3.51150859633e-05
7.61435867459e-05
3.49702406458e-05
9.94014506e-05
-9.09189614817e-06
0.000141067481839
-7.16644282505e-05
0.000150038490719
-2.23119058625e-05
0.000143376202919
4.10354115698e-05
0.000130595235394
0.000111095040292
0.000112419277396
0.000158201950749
5.8150501854e-05
0.000172949376637
-7.91362687762e-06
9.24720013612e-05
-4.73443786546e-06
3.94624136686e-06
5.76624076805e-06
8.84322506623e-06
8.02988275659e-06
1.44339831319e-05
8.58243240432e-06
2.0869616234e-05
7.27538316229e-06
2.81697306156e-05
4.79654970121e-06
3.50907310754e-05
2.21950462364e-06
4.12232563692e-05
-7.21766096175e-06
4.59943539311e-05
-2.64705376585e-05
4.74397704989e-05
8.25516131055e-05
0.000117517713906
0.000108420559715
0.000159984631411
0.000142653859058
0.000117688810982
0.000105566419337
0.000108545169473
8.02762974546e-05
7.15763884753e-06
3.07693028361e-06
2.68757585878e-06
7.2207762844e-06
3.88432107848e-06
1.1491713378e-05
4.31019034025e-06
1.4740196712e-05
4.02608704638e-06
1.65074437366e-05
3.02884380689e-06
1.69658554884e-05
1.76062508705e-06
1.26607345512e-05
-2.91317469833e-06
-1.38103648861e-05
2.33533958634e-06
3.4907553198e-07
5.87427534546e-06
3.42314945764e-07
9.83718611494e-06
3.44557839128e-07
1.35021275012e-05
3.58854242113e-07
1.61469355227e-05
3.82067168295e-07
1.74995043607e-05
4.06271278853e-07
1.42077652935e-05
3.76855452015e-07
3.96740524322e-07
2.34554450677e-06
-2.00143603887e-06
5.89432022732e-06
-3.21145261361e-06
9.87234939268e-06
-3.63818766449e-06
1.35560949409e-05
-3.32920856046e-06
1.61975738484e-05
-2.26321215221e-06
1.7431481191e-05
-8.31058534042e-07
1.41940062664e-05
3.61212207346e-06
1.45890264453e-05
3.10133379039e-06
7.25755958721e-06
1.15225932419e-05
1.47634172247e-05
1.65644443512e-05
1.70371854189e-05
1.26889046636e-05
)
;

boundaryField
{
    back
    {
        type            calculated;
        value           uniform 0;
    }
    sides
    {
        type            calculated;
        value           nonuniform List<scalar> 0();
    }
    bottom
    {
        type            calculated;
        value           uniform 0;
    }
    front
    {
        type            calculated;
        value           uniform 0;
    }
    atmosphere
    {
        type            calculated;
        value           nonuniform List<scalar> 7(3.63540090272e-07 -1.83414105676e-07 1.36107418018e-07 -1.10377649087e-07 -1.15386023656e-07 6.02112935929e-08 -1.65006216741e-06);
    }
    floatingObject
    {
        type            calculated;
        value           uniform 0;
    }
    procBoundary3to4
    {
        type            processor;
        value           nonuniform List<scalar> 
13
(
-6.50127202527e-05
-6.55011112766e-05
-6.63842253496e-05
-4.14736309443e-05
-4.87236876633e-05
-5.31521231349e-05
-5.51842034465e-05
-5.49853845547e-05
-6.40578773775e-05
-5.4396196862e-05
3.3103390028e-05
-4.28397921232e-05
-4.57581626125e-05
)
;
    }
    procBoundary3to5
    {
        type            processor;
        value           nonuniform List<scalar> 10(-6.70627023766e-05 -6.71013579406e-05 -6.70364253396e-05 -6.77795178819e-05 -6.35490184674e-05 -4.47331938025e-05 -1.66089253134e-05 -5.17505290293e-05 3.84273530952e-05 -6.07986758901e-07);
    }
    procBoundary3to6
    {
        type            processor;
        value           nonuniform List<scalar> 8(-0.000123238816269 -4.9902004952e-06 6.59911629261e-05 0.000123209791272 0.000155218915837 0.000164003340021 0.000105746729377 -8.2549836348e-07);
    }
    procBoundary3to8
    {
        type            processor;
        value           nonuniform List<scalar> 8(-5.10864572045e-06 -7.37385858488e-06 -7.90930032429e-06 -6.57570412135e-06 -4.06950843155e-06 -1.30797090487e-06 7.95637444722e-06 2.72766674491e-05);
    }
}


// ************************************************************************* //
