/*--------------------------------*- C++ -*----------------------------------*\
| =========                 |                                                 |
| \\      /  F ield         | OpenFOAM: The Open Source CFD Toolbox           |
|  \\    /   O peration     | Version:  v2012                                 |
|   \\  /    A nd           | Website:  www.openfoam.com                      |
|    \\/     M anipulation  |                                                 |
\*---------------------------------------------------------------------------*/
FoamFile
{
    version     2.0;
    format      ascii;
    class       volScalarField;
    location    "1.4";
    object      epsilon_0;
}
// * * * * * * * * * * * * * * * * * * * * * * * * * * * * * * * * * * * * * //

dimensions      [0 2 -3 0 0 0 0];


internalField   nonuniform List<scalar> 
167
(
0.0133826732582
0.0135782173635
0.0141237390512
0.0156225055495
0.0193342328723
0.0274770102165
0.043598583082
0.0732882021289
0.139742377551
0.0135653498873
0.0141585329007
0.0157773006409
0.0197482518058
0.0283621930414
0.0450890081591
0.0744863886374
0.135361760252
0.0135532016021
0.0141942759944
0.0159316559489
0.0201550036153
0.0292338543341
0.0468700964895
0.0808346330442
0.168815110973
0.0132956911412
0.0135416956341
0.0142302699834
0.0160835708969
0.0205509237639
0.0300829110023
0.0485940592771
0.0849009415192
0.172733733722
0.0132677482905
0.0135308086599
0.0142659626028
0.0162314692774
0.0209326893398
0.0308967075495
0.0501845816739
0.0878312933778
0.174502913548
0.0132406377253
0.0135205077439
0.0143008892552
0.0163740310192
0.0212971641292
0.031663946152
0.0516125743249
0.0900785358543
0.175637631008
0.0130945032573
0.0132145166615
0.0135107663741
0.0143345125846
0.0165096077529
0.0216405039698
0.0323763581818
0.0528868897933
0.0919244147687
0.176495161915
0.0129924329288
0.0130635072849
0.0131895908943
0.0135015682932
0.0143663337649
0.0166366549809
0.021959601231
0.0330355925999
0.0540778892207
0.093729684641
0.177468261923
0.0129598416927
0.0130340094653
0.0131659523034
0.0134928633875
0.0143960411354
0.0167545163857
0.022252862348
0.0336320722474
0.055123759865
0.0952468912107
0.178287805919
0.0130058281019
0.013143361431
0.013484231701
0.0144228155174
0.0168615196999
0.0225170431494
0.0341606012491
0.0560211598636
0.0964784684008
0.178935956168
0.0129776505941
0.0131204074476
0.0134741023832
0.0144449424208
0.0169559532392
0.0227503924364
0.0346199809203
0.0567811786523
0.0975004127214
0.179482203099
0.012944392192
0.0130917358427
0.0134568170442
0.0144564271133
0.0170315801481
0.0229464253682
0.035002340194
0.0573997657849
0.0983347331942
0.179962965389
0.0128888000071
0.0130396077805
0.0134139331381
0.014437745449
0.0170672829876
0.0230816846301
0.0352783452719
0.0578242727763
0.0988675646983
0.180295060519
0.012757755355
0.0129098857687
0.0132895611046
0.0143298606627
0.0169990859006
0.0230853958293
0.0353628295343
0.0579108540653
0.0988320951803
0.180276277376
0.0123169672113
0.0123994833654
0.0125487465203
0.0129253955548
0.01396516691
0.01664280643
0.0227455210273
0.0349786669074
0.0571813299019
0.0970416090258
0.178780135954
0.0113326395109
0.0114091992442
0.0115470805914
0.0118987540727
0.0128853524046
0.0154626870614
0.0213883013233
0.0331989349046
0.0540180114418
0.090675722418
0.173617702084
0.0112224334286
0.0113134796041
0.0114555209113
0.0117828052214
0.0126908288793
0.0151575117254
0.0213057626225
0.0355062430299
0.0667970653183
0.130757733023
0.23966668855
)
;

boundaryField
{
    back
    {
        lowReCorrection 0;
        blending        stepwise;
        n               2;
        type            epsilonWallFunction;
        value           nonuniform List<scalar> 
167
(
0.0133826732582
0.0135782173635
0.0141237390512
0.0156225055495
0.0193342328723
0.0274770102165
0.043598583082
0.0732882021289
0.139742377551
0.0135653498873
0.0141585329007
0.0157773006409
0.0197482518058
0.0283621930414
0.0450890081591
0.0744863886374
0.135361760252
0.0135532016021
0.0141942759944
0.0159316559489
0.0201550036153
0.0292338543341
0.0468700964895
0.0808346330442
0.168815110973
0.0132956911412
0.0135416956341
0.0142302699834
0.0160835708969
0.0205509237639
0.0300829110023
0.0485940592771
0.0849009415192
0.172733733722
0.0132677482905
0.0135308086599
0.0142659626028
0.0162314692774
0.0209326893398
0.0308967075495
0.0501845816739
0.0878312933778
0.174502913548
0.0132406377253
0.0135205077439
0.0143008892552
0.0163740310192
0.0212971641292
0.031663946152
0.0516125743249
0.0900785358543
0.175637631008
0.0130945032573
0.0132145166615
0.0135107663741
0.0143345125846
0.0165096077529
0.0216405039698
0.0323763581818
0.0528868897933
0.0919244147687
0.176495161915
0.0129924329288
0.0130635072849
0.0131895908943
0.0135015682932
0.0143663337649
0.0166366549809
0.021959601231
0.0330355925999
0.0540778892207
0.093729684641
0.177468261923
0.0129598416927
0.0130340094653
0.0131659523034
0.0134928633875
0.0143960411354
0.0167545163857
0.022252862348
0.0336320722474
0.055123759865
0.0952468912107
0.178287805919
0.0130058281019
0.013143361431
0.013484231701
0.0144228155174
0.0168615196999
0.0225170431494
0.0341606012491
0.0560211598636
0.0964784684008
0.178935956168
0.0129776505941
0.0131204074476
0.0134741023832
0.0144449424208
0.0169559532392
0.0227503924364
0.0346199809203
0.0567811786523
0.0975004127214
0.179482203099
0.012944392192
0.0130917358427
0.0134568170442
0.0144564271133
0.0170315801481
0.0229464253682
0.035002340194
0.0573997657849
0.0983347331942
0.179962965389
0.0128888000071
0.0130396077805
0.0134139331381
0.014437745449
0.0170672829876
0.0230816846301
0.0352783452719
0.0578242727763
0.0988675646983
0.180295060519
0.012757755355
0.0129098857687
0.0132895611046
0.0143298606627
0.0169990859006
0.0230853958293
0.0353628295343
0.0579108540653
0.0988320951803
0.180276277376
0.0123169672113
0.0123994833654
0.0125487465203
0.0129253955548
0.01396516691
0.01664280643
0.0227455210273
0.0349786669074
0.0571813299019
0.0970416090258
0.178780135954
0.0113326395109
0.0114091992442
0.0115470805914
0.0118987540727
0.0128853524046
0.0154626870614
0.0213883013233
0.0331989349046
0.0540180114418
0.090675722418
0.173617702084
0.0112224334286
0.0113134796041
0.0114555209113
0.0117828052214
0.0126908288793
0.0151575117254
0.0213057626225
0.0355062430299
0.0667970653183
0.130757733023
0.23966668855
)
;
    }
    sides
    {
        lowReCorrection 0;
        blending        stepwise;
        n               2;
        type            epsilonWallFunction;
        value           nonuniform List<scalar> 
11
(
0.0112224334286
0.0113134796041
0.0114555209113
0.0117828052214
0.0126908288793
0.0151575117254
0.0213057626225
0.0355062430299
0.0667970653183
0.130757733023
0.23966668855
)
;
    }
    bottom
    {
        lowReCorrection 0;
        blending        stepwise;
        n               2;
        type            epsilonWallFunction;
        value           nonuniform List<scalar> 0();
    }
    front
    {
        lowReCorrection 0;
        blending        stepwise;
        n               2;
        type            epsilonWallFunction;
        value           nonuniform List<scalar> 
167
(
0.0133826732582
0.0135782173635
0.0141237390512
0.0156225055495
0.0193342328723
0.0274770102165
0.043598583082
0.0732882021289
0.139742377551
0.0135653498873
0.0141585329007
0.0157773006409
0.0197482518058
0.0283621930414
0.0450890081591
0.0744863886374
0.135361760252
0.0135532016021
0.0141942759944
0.0159316559489
0.0201550036153
0.0292338543341
0.0468700964895
0.0808346330442
0.168815110973
0.0132956911412
0.0135416956341
0.0142302699834
0.0160835708969
0.0205509237639
0.0300829110023
0.0485940592771
0.0849009415192
0.172733733722
0.0132677482905
0.0135308086599
0.0142659626028
0.0162314692774
0.0209326893398
0.0308967075495
0.0501845816739
0.0878312933778
0.174502913548
0.0132406377253
0.0135205077439
0.0143008892552
0.0163740310192
0.0212971641292
0.031663946152
0.0516125743249
0.0900785358543
0.175637631008
0.0130945032573
0.0132145166615
0.0135107663741
0.0143345125846
0.0165096077529
0.0216405039698
0.0323763581818
0.0528868897933
0.0919244147687
0.176495161915
0.0129924329288
0.0130635072849
0.0131895908943
0.0135015682932
0.0143663337649
0.0166366549809
0.021959601231
0.0330355925999
0.0540778892207
0.093729684641
0.177468261923
0.0129598416927
0.0130340094653
0.0131659523034
0.0134928633875
0.0143960411354
0.0167545163857
0.022252862348
0.0336320722474
0.055123759865
0.0952468912107
0.178287805919
0.0130058281019
0.013143361431
0.013484231701
0.0144228155174
0.0168615196999
0.0225170431494
0.0341606012491
0.0560211598636
0.0964784684008
0.178935956168
0.0129776505941
0.0131204074476
0.0134741023832
0.0144449424208
0.0169559532392
0.0227503924364
0.0346199809203
0.0567811786523
0.0975004127214
0.179482203099
0.012944392192
0.0130917358427
0.0134568170442
0.0144564271133
0.0170315801481
0.0229464253682
0.035002340194
0.0573997657849
0.0983347331942
0.179962965389
0.0128888000071
0.0130396077805
0.0134139331381
0.014437745449
0.0170672829876
0.0230816846301
0.0352783452719
0.0578242727763
0.0988675646983
0.180295060519
0.012757755355
0.0129098857687
0.0132895611046
0.0143298606627
0.0169990859006
0.0230853958293
0.0353628295343
0.0579108540653
0.0988320951803
0.180276277376
0.0123169672113
0.0123994833654
0.0125487465203
0.0129253955548
0.01396516691
0.01664280643
0.0227455210273
0.0349786669074
0.0571813299019
0.0970416090258
0.178780135954
0.0113326395109
0.0114091992442
0.0115470805914
0.0118987540727
0.0128853524046
0.0154626870614
0.0213883013233
0.0331989349046
0.0540180114418
0.090675722418
0.173617702084
0.0112224334286
0.0113134796041
0.0114555209113
0.0117828052214
0.0126908288793
0.0151575117254
0.0213057626225
0.0355062430299
0.0667970653183
0.130757733023
0.23966668855
)
;
    }
    atmosphere
    {
        type            inletOutlet;
        inletValue      uniform 0.1;
        value           nonuniform List<scalar> 
17
(
0.139742377551
0.135361760252
0.1
0.1
0.1
0.1
0.1
0.1
0.1
0.1
0.1
0.1
0.1
0.1
0.1
0.1
0.1
)
;
    }
    floatingObject
    {
        lowReCorrection 0;
        blending        stepwise;
        n               2;
        type            epsilonWallFunction;
        value           nonuniform List<scalar> 0();
    }
    procBoundary11to9
    {
        type            processor;
        value           nonuniform List<scalar> 9(0.0134121904573 0.0135917825695 0.0140905049977 0.0154695845266 0.0189186086055 0.0265689793765 0.0421190470855 0.074058576156 0.161688917088);
    }
    procBoundary11to10
    {
        type            processor;
        value           nonuniform List<scalar> 
23
(
0.0132978983829
0.0133532738558
0.0133532738558
0.0133242284787
0.0133242284787
0.0131938616273
0.0131599126193
0.0131267099671
0.0131267099671
0.013026409791
0.013026409791
0.0129372581364
0.0129022392088
0.012928615769
0.012928615769
0.0128975317252
0.0128617357107
0.0128043523689
0.0126729769573
0.0126729769573
0.0122517725509
0.0112714737709
0.0111443171312
)
;
    }
}


// ************************************************************************* //
