/*--------------------------------*- C++ -*----------------------------------*\
| =========                 |                                                 |
| \\      /  F ield         | OpenFOAM: The Open Source CFD Toolbox           |
|  \\    /   O peration     | Version:  v2012                                 |
|   \\  /    A nd           | Website:  www.openfoam.com                      |
|    \\/     M anipulation  |                                                 |
\*---------------------------------------------------------------------------*/
FoamFile
{
    version     2.0;
    format      ascii;
    class       surfaceScalarField;
    location    "1.4";
    object      phi;
}
// * * * * * * * * * * * * * * * * * * * * * * * * * * * * * * * * * * * * * //

dimensions      [0 3 -1 0 0 0 0];
oriented        oriented;


internalField   nonuniform List<scalar> 
304
(
-0.000123952291938
-0.000131034261183
-0.000367826123552
-0.000136997457707
-0.000382554680557
-0.000141846566851
-0.000397698089602
-0.000145586043387
-0.0004098779802
-0.000146710127766
-0.00041313367724
-0.00012266527996
-0.000404354677321
0.000367589236345
-0.000305522492254
-0.000135169260624
-0.000146256727115
-0.000358850865718
-0.000154407575237
-0.000374403174485
-0.000161727489369
-0.000390377704803
-0.000167878497465
-0.000403726717733
-0.000170289948
-0.000410722135868
-0.00015994172442
-0.000414709024973
-6.02501936936e-05
-0.000405214003685
-0.00021814812269
-0.000162331492099
-0.00034788203271
-0.000172718121924
-0.000364016010924
-0.000182431338032
-0.000380664122364
-0.000190858005789
-0.000395299855651
-0.000195654171368
-0.000405925896676
-0.000198311562003
-0.000412057526112
-0.000203735458651
-0.000399788819624
-0.000195120503078
-0.000165966859273
-0.000320109281641
-0.000179016733972
-0.000334831634129
-0.000191737483791
-0.000351294844889
-0.000204011444834
-0.000368389870903
-0.000215246533497
-0.000384064619864
-0.000223828409262
-0.000397343959424
-0.000234924844166
-0.000400966924232
-0.000253631968669
-0.000381079956286
-0.000154842208713
-0.000180861726808
-0.00030486920592
-0.00019606011001
-0.000319632830231
-0.000211202418519
-0.00033615218774
-0.000226190578454
-0.00035340147457
-0.000240567113719
-0.000369687958864
-0.000253348368453
-0.000384562649141
-0.000269929876706
-0.000384391393716
-0.000288924140437
-0.000362083647248
-0.000122960415344
-0.000195806018682
-0.000287701583042
-0.000213179057862
-0.000302259409286
-0.000230782537493
-0.000318548394184
-0.000248553696562
-0.000335630090367
-0.000266159940289
-0.000352081594061
-0.000283052398666
-0.000367670137202
-0.000303348926805
-0.000364101080728
-0.000323501436478
-0.000341928876562
-0.000101134715101
-0.000191474067598
-0.000256225947804
-0.000210549329935
-0.000268625929835
-0.000230068675933
-0.000282739679423
-0.000250093455495
-0.000298523284301
-0.000270606516426
-0.000315116791694
-0.000291414926637
-0.000331273054009
-0.000312262173544
-0.000346822836481
-0.000335711383604
-0.00034065825984
-0.000357446129397
-0.000320191796225
-8.63857749004e-05
-0.000183572461822
-0.00022560965576
-0.000203924635024
-0.000235873367758
-0.000224853858041
-0.000247696267712
-0.000246444650316
-0.000261148453752
-0.000268779477922
-0.00027618808266
-0.00029186434454
-0.000292031657455
-0.000315584842056
-0.000307552406581
-0.000339911929086
-0.000322495693384
-0.000366239434714
-0.000314337265892
-0.000391050899016
-0.00029537799538
-7.31768689313e-05
-0.000193859607493
-0.000215800160031
-0.00021393222212
-0.000238498404432
-0.000224997477501
-0.000262060610728
-0.000237585735626
-0.000286585733598
-0.000251662531189
-0.000312090869119
-0.000266526211931
-0.000338494838189
-0.000281148267348
-0.000365841461037
-0.000295149013064
-0.000394352799138
-0.000285832547815
-0.000421258618168
-0.000268469829519
-6.10859607532e-05
-0.000226916465154
-0.000190499096485
-0.000251275219457
-0.00020063807244
-0.000276676297943
-0.000212184072935
-0.00030321679151
-0.000225121554846
-0.000330905077416
-0.000238837584424
-0.000359676943942
-0.000252376217263
-0.000389527386831
-0.000265298514658
-0.000419521923177
-0.000255844689615
-0.000447705228596
-0.000240284170306
-5.02510031663e-05
-0.000237102403264
-0.000165684738116
-0.000263002402748
-0.000174737354178
-0.000290114136162
-0.000185071702011
-0.000318524192781
-0.000196710985807
-0.000348187561831
-0.000209173859064
-0.000378920946729
-0.000221642647573
-0.000410683601214
-0.000233535808381
-0.000441722878082
-0.000224812135765
-0.000470786814465
-0.000211217831987
-3.96709510011e-05
-0.000246191504776
-0.000139622140288
-0.000273500662234
-0.000147427460072
-0.000302200386246
-0.000156371332763
-0.000332376281538
-0.000166534576807
-0.000363909164283
-0.00017764063007
-0.000396341540701
-0.000189210093635
-0.000429347355635
-0.000200529947473
-0.000460740681014
-0.000193425585831
-0.000490332813939
-0.000181623164372
-2.74316368752e-05
-0.000254006678661
-0.000112467484421
-0.000282569259726
-0.000118864165969
-0.000312722248941
-0.000126217724357
-0.000344576197876
-0.00013468014799
-0.000377939433566
-0.000144277072099
-0.000411908609273
-0.000155240757938
-0.000445446461272
-0.000166992056541
-0.000475535487478
-0.000163343405899
-0.000504131082087
-0.000153024786536
-1.30004280869e-05
-0.000260270296811
-8.44266748106e-05
-0.000289863433274
-8.927038687e-05
-0.000321254402031
-9.48262002126e-05
-0.000354660447635
-0.000101273668803
-0.000389886714198
-0.000109050523505
-0.000425327222858
-0.000119800108467
-0.000458587482611
-0.000133731766245
-0.000483517458525
-0.000138419845039
-0.000510555508106
-0.000125984064198
4.63428783432e-06
-0.000235594058579
-5.30205486941e-05
-0.000264213763962
-5.58064032015e-05
-0.000294492747595
-5.89908487886e-05
-0.000326851875765
-6.24665825678e-05
-0.000361966015348
-6.61591545033e-05
-0.000400063878283
-7.09524176309e-05
-0.000438723778265
-8.11400871857e-05
-0.000471737408933
-0.000100718102186
-0.000488800527209
-0.000121364365371
-0.000475524112286
-0.00013925634584
-3.39015211262e-05
-0.000234800602088
-2.57674303526e-05
-0.000263472539908
-2.71339604803e-05
-0.000293886025627
-2.85768642076e-05
-0.00032684492114
-2.9507256095e-05
-0.000364153509637
-2.88502348092e-05
-0.00040782723506
-2.7278478118e-05
-0.000457406226293
-3.15609840927e-05
-0.000499856530086
-5.82677912712e-05
-0.000465150147017
-0.000156076685211
-0.000297249650048
-0.000307153885723
-0.000128179672658
-0.000220672326312
-0.000247806038576
-0.000276382676307
-0.000305889745978
-0.000334739848748
-0.000362018250839
-0.000393579208315
-0.00045184701623
-0.00060792461488
-0.000915078935751
)
;

boundaryField
{
    back
    {
        type            calculated;
        value           uniform 0;
    }
    sides
    {
        type            calculated;
        value           uniform 0;
    }
    bottom
    {
        type            calculated;
        value           nonuniform List<scalar> 0();
    }
    front
    {
        type            calculated;
        value           uniform 0;
    }
    atmosphere
    {
        type            calculated;
        value           nonuniform List<scalar> 
17
(
0.000592855800096
2.27263879688e-05
-0.000226764877814
-0.00029391190348
-0.000320807529565
-0.000345328738801
-0.000372196685642
-0.000404261429389
-0.000433351146762
-0.000458541781485
-0.000481368407994
-0.000502573590937
-0.000518563646933
-0.000528191449819
-0.00043698927489
-0.000202972260747
-0.00104325856564
)
;
    }
    floatingObject
    {
        type            calculated;
        value           nonuniform List<scalar> 0();
    }
    procBoundary11to9
    {
        type            processor;
        value           nonuniform List<scalar> 9(0.000362717938192 0.00037490961946 0.000388519110975 0.0004025482161 0.000413618044169 0.000414257992123 0.000380303506051 -0.000184737209439 -9.01055141496e-05);
    }
    procBoundary11to10
    {
        type            processor;
        value           nonuniform List<scalar> 
23
(
0.000115879661324
-0.000354643608529
0.000137282859488
0.000151363707321
0.000333441721367
0.000152635613136
0.000165622383838
0.000178638900105
0.000274919218808
0.000172781260787
0.000245458991133
0.000163723620442
0.000172582376417
-0.000204331899174
0.000203484311932
0.000212289177062
0.000220130084747
0.000226853285104
0.000232230478243
8.02426820648e-05
0.000208372929417
0.000207548114088
0.000194905241103
)
;
    }
}


// ************************************************************************* //
