/*--------------------------------*- C++ -*----------------------------------*\
| =========                 |                                                 |
| \\      /  F ield         | OpenFOAM: The Open Source CFD Toolbox           |
|  \\    /   O peration     | Version:  v2012                                 |
|   \\  /    A nd           | Website:  www.openfoam.com                      |
|    \\/     M anipulation  |                                                 |
\*---------------------------------------------------------------------------*/
FoamFile
{
    version     2.0;
    format      ascii;
    class       volVectorField;
    location    "1.4";
    object      U_0;
}
// * * * * * * * * * * * * * * * * * * * * * * * * * * * * * * * * * * * * * //

dimensions      [0 1 -1 0 0 0 0];


internalField   nonuniform List<vector> 
167
(
(-0.0760278110392 -0.0251421575127 1.8244263522e-26)
(-0.0788147129648 -0.0268131307134 9.21222944292e-23)
(-0.0819327902408 -0.0282440069213 3.69158592422e-22)
(-0.0851772727024 -0.0292795797722 -9.4038259955e-22)
(-0.0878876269652 -0.0295463778904 -2.72713902144e-21)
(-0.0886878244218 -0.0313672065476 -1.67602981837e-20)
(-0.0845277657807 -0.0427553534123 -1.22762820143e-20)
(-0.0145060968882 -0.0198290883775 -1.14364322389e-20)
(0.000184703498273 0.135784526123 2.2017266559e-20)
(-0.0770421494417 -0.0299214280645 6.28413419577e-23)
(-0.0803398523656 -0.0317768510312 3.09728363448e-22)
(-0.0837643780586 -0.0332594377016 -7.11765535013e-22)
(-0.0866977038603 -0.0341487320539 -3.02205185427e-21)
(-0.0880942610932 -0.037970891775 -2.90530847524e-20)
(-0.0879754969676 -0.0482847130537 -1.93374195395e-20)
(-0.0766159023127 -0.034895617415 -1.94523512191e-20)
(-0.03727819213 0.0139107337376 1.3050664413e-20)
(-0.0748502195392 -0.0331755175684 5.21284049103e-23)
(-0.0782682795146 -0.0354675443277 1.11784163579e-22)
(-0.0818183191535 -0.0373897478903 -3.71639722018e-24)
(-0.0849611785111 -0.0389216843863 2.45828673714e-21)
(-0.0870157450172 -0.0447068355656 -7.96022213163e-22)
(-0.088413213438 -0.0536842695843 -1.08420092138e-20)
(-0.0858562906407 -0.0417713198499 -1.08126958543e-20)
(-0.0427163393705 -0.041933616887 -8.71004959109e-22)
(-0.0691069555608 -0.0336483843762 -2.45862172079e-23)
(-0.0722236134685 -0.0365236359822 1.77460202319e-22)
(-0.0757090368185 -0.0392635918645 5.63059376568e-22)
(-0.0793408733416 -0.0416422594804 -8.03586110588e-22)
(-0.0826711411788 -0.0438839503622 -7.38572454248e-22)
(-0.0852761771389 -0.0515666048558 -9.29648259055e-21)
(-0.0867280107532 -0.0595462270127 -1.39379353906e-20)
(-0.0832206661477 -0.0480684247135 -1.37118603146e-20)
(-0.0364189778376 -0.0585982441543 -5.04277466075e-22)
(-0.0660231334739 -0.0366149345492 2.18368187913e-23)
(-0.0691516544155 -0.0399146708944 8.24058909957e-23)
(-0.0726505486639 -0.043110150925 1.4060813944e-22)
(-0.0763109680607 -0.0459674728999 -1.60197794794e-21)
(-0.0797624135972 -0.0489791698504 -9.19312896243e-21)
(-0.0827328840666 -0.0583755881847 -1.74203607697e-20)
(-0.0836578361339 -0.0656153837067 -1.2475885019e-20)
(-0.0790556031405 -0.0546584687609 -1.20410882218e-20)
(-0.0290280237727 -0.0659269310927 -2.40800078698e-21)
(-0.0625384220772 -0.039571366222 6.4796864279e-23)
(-0.065629669779 -0.0432951850425 1.91455883794e-22)
(-0.0690863900844 -0.0469460901997 7.41460839747e-22)
(-0.0727158395791 -0.0502990422587 -1.00702813494e-22)
(-0.0762042687294 -0.0541116750019 -2.79672580694e-21)
(-0.0793536200156 -0.0649860733977 -1.81089484749e-20)
(-0.0796293158715 -0.0716604391257 -1.88736441785e-20)
(-0.0747572006414 -0.0612590235755 -1.85499333665e-20)
(-0.02342812391 -0.0720584189193 -2.59448407285e-21)
(-0.0560103928242 -0.0384223935262 3.67243363761e-23)
(-0.0586561119855 -0.0424715361091 -3.04075391101e-23)
(-0.0616619798476 -0.0466101918603 1.61099687555e-22)
(-0.0650214388393 -0.0507053300113 9.88448541703e-22)
(-0.0685581952735 -0.0545557719081 -6.16186923272e-22)
(-0.0719991772017 -0.0591714081633 -2.42850671246e-21)
(-0.075186378381 -0.071304238765 -2.71487519116e-20)
(-0.0749283099835 -0.0775304156833 -3.34169042997e-20)
(-0.0702861447424 -0.0676938840373 -3.12753308581e-20)
(-0.0197683700602 -0.0782973136688 -1.60086268376e-21)
(-0.0496492821293 -0.0365976170289 -3.23731679265e-24)
(-0.0518536447635 -0.0408574186806 -1.70254115956e-23)
(-0.0543867971855 -0.0452715729957 -3.27405619832e-23)
(-0.0572627112535 -0.0498085130391 1.36030950343e-22)
(-0.0604746670971 -0.054327521068 3.97282524703e-22)
(-0.0638604204215 -0.0586583924215 -1.02456843647e-21)
(-0.0671733905686 -0.0640289487024 -3.01620367821e-21)
(-0.0702713691574 -0.0771710265411 -1.074843413e-20)
(-0.0695814014832 -0.0830037959598 -6.74001760707e-21)
(-0.0653128444879 -0.0736527634305 -5.99345467444e-21)
(-0.0169546292357 -0.0854850566265 -3.62837479553e-21)
(-0.0452891614469 -0.0385992299474 -2.51347408579e-23)
(-0.0473631835745 -0.0431697352709 -2.44202471122e-23)
(-0.0497470917115 -0.0479309063784 -6.53548731417e-23)
(-0.0524522939074 -0.0528442088093 -1.04286857298e-22)
(-0.0554731306485 -0.0577634426388 -6.81372765548e-22)
(-0.0586626914828 -0.0625587548283 -2.70495160237e-21)
(-0.0617921854306 -0.0686388410062 -8.88867857675e-21)
(-0.0647128701664 -0.0825783958871 -1.84026419374e-21)
(-0.0636969745158 -0.0880799538826 1.03059953328e-21)
(-0.0597410045931 -0.0791480719644 1.11195025416e-21)
(-0.0142373022394 -0.0918804010841 5.11850124329e-22)
(-0.0425570522502 -0.0453256965191 -4.23865863007e-23)
(-0.0447577930791 -0.050411183266 -3.15159300055e-23)
(-0.0472556464602 -0.0556743739622 4.68440102688e-23)
(-0.0500471311709 -0.0609639737096 -3.34553060349e-23)
(-0.0530012317091 -0.0661909860083 -2.42685583317e-21)
(-0.0559045247917 -0.0729047071843 -7.53084386325e-21)
(-0.0586063763124 -0.0874562527277 -1.32590692993e-20)
(-0.0574220383767 -0.0926852349765 -1.84841344891e-20)
(-0.0538355079528 -0.0841133619693 -1.78181956889e-20)
(-0.0118343883661 -0.0973306777332 -2.9473823572e-21)
(-0.0374570259861 -0.047293208254 -1.58340333418e-23)
(-0.0394430346591 -0.0526777408384 6.17599962046e-23)
(-0.0417006397221 -0.0582636087698 9.41282494086e-23)
(-0.0442317717116 -0.0638970805691 5.00166397376e-22)
(-0.0469264842852 -0.0695269327823 2.72974277528e-22)
(-0.0495903467894 -0.0767951654671 1.65381373829e-21)
(-0.0520649611399 -0.091783864972 -5.26445459504e-21)
(-0.0508808105775 -0.0967525400035 -8.71975827055e-21)
(-0.0477143749263 -0.0885042879966 -8.58879074446e-21)
(-0.0096517544002 -0.102161950712 -4.03762390376e-21)
(-0.0320948605984 -0.0490420874859 -1.14510528838e-24)
(-0.0338355065042 -0.0546968139064 -1.60109413677e-23)
(-0.0358198612017 -0.0605777440272 2.75592981943e-22)
(-0.03805925717 -0.0665336160257 6.75449050708e-22)
(-0.0404752828438 -0.0725477557367 -1.51565641727e-22)
(-0.0429108544845 -0.0803168610363 -1.5845241563e-21)
(-0.0451927671928 -0.0955985026242 -8.8922938348e-21)
(-0.0441576701064 -0.10029413654 -1.06524459787e-20)
(-0.0414218622872 -0.0922569154693 -1.00438696814e-20)
(-0.00733594253703 -0.106522476118 -4.41981208591e-21)
(-0.0265097713933 -0.0505405096714 4.96560971491e-23)
(-0.0279738697051 -0.0564318637449 3.93310216747e-23)
(-0.0296487081573 -0.0625775989781 3.14252564547e-22)
(-0.0315577045601 -0.0688360607404 8.93795197438e-22)
(-0.0336633473224 -0.0752200677357 -3.12368971092e-22)
(-0.0358852582279 -0.0834468329216 -1.66560037745e-21)
(-0.0380698964505 -0.0989084314814 -9.20972252776e-21)
(-0.0373482671524 -0.103324260389 -8.87869037326e-21)
(-0.0349802933965 -0.0952989847452 -7.92758437818e-21)
(-0.00444340193938 -0.10962066324 -4.30419377338e-21)
(-0.0206918595101 -0.0517399280761 2.33777227114e-22)
(-0.0218467366395 -0.0578238539137 2.68067220892e-22)
(-0.0231716709379 -0.0641896311323 1.98066904402e-23)
(-0.0247013995599 -0.0707116031409 -2.62163743479e-22)
(-0.0264673642254 -0.0774437396731 -1.67071552934e-21)
(-0.0286201212888 -0.0861151294038 -5.81628399888e-21)
(-0.0311620232497 -0.101704319285 -5.35018944635e-22)
(-0.0313643104291 -0.105820898955 4.94717043864e-22)
(-0.0291831143589 -0.0974267031928 4.91689292988e-22)
(-0.00365913672023 -0.110618558818 -1.36003495296e-21)
(-0.01384103387 -0.0466443220151 -2.7415174735e-22)
(-0.0145493815046 -0.0525009871968 5.76679839233e-22)
(-0.0153669852412 -0.0587116326843 6.36972623307e-22)
(-0.0162971926456 -0.0652241424105 3.55012464301e-22)
(-0.0173691717874 -0.0719696357381 3.232044857e-22)
(-0.018741219404 -0.0791681260709 -1.88777255307e-21)
(-0.0210650730052 -0.0885914755715 -6.45572000483e-21)
(-0.0248102120232 -0.104404360361 -9.43867849104e-21)
(-0.027928922529 -0.108081253644 -1.96343801617e-20)
(-0.0285418664033 -0.0979523347446 -1.6637134561e-20)
(0.00647525793886 -0.0936954454024 -2.34732200862e-21)
(-0.00794105314799 -0.0465122015846 -1.41150753457e-21)
(-0.00838054198593 -0.052382634748 1.63039467763e-21)
(-0.00887450571077 -0.0586095488815 1.58648881828e-21)
(-0.0093604859737 -0.0651543624443 1.05869510724e-21)
(-0.00974067428402 -0.0721072410086 3.20831683662e-22)
(-0.0101866446226 -0.0801810208304 1.09597956149e-21)
(-0.0114976000518 -0.091493458231 3.49409315652e-21)
(-0.0137178622105 -0.108742191852 -1.01146749023e-20)
(-0.0163735417631 -0.113793071691 -1.82258340338e-20)
(-0.0114760956319 -0.0953411799616 -1.93642050498e-20)
(-0.0282131709139 -0.0365115907297 -2.54656559472e-21)
(-0.00361890939626 -0.0438789142285 7.78026202538e-22)
(-0.00376537860585 -0.0494580721455 8.35779259115e-22)
(-0.00389287947103 -0.0553589568571 1.88938964844e-21)
(-0.00384655720708 -0.0614474664657 1.40409233129e-21)
(-0.00332032874947 -0.0675365040035 3.5619997353e-21)
(-0.00237958423498 -0.0733586580028 1.55431379781e-21)
(-0.00284278182096 -0.0798548327129 -1.11864618815e-21)
(-0.0129850330811 -0.0965190849029 -9.77323966985e-21)
(-0.0544737025136 -0.111133404329 -3.0098812049e-20)
(-0.141962868087 -0.121158192694 -2.49429808458e-20)
(-0.00746542474091 -0.227786154421 -8.11294771218e-21)
)
;

boundaryField
{
    back
    {
        type            noSlip;
    }
    sides
    {
        type            noSlip;
    }
    bottom
    {
        type            noSlip;
    }
    front
    {
        type            noSlip;
    }
    atmosphere
    {
        type            pressureInletOutletVelocity;
        value           nonuniform List<vector> 
17
(
(0.000184703498273 0.135784526123 2.2017266559e-20)
(-0.03727819213 0.0139107337376 1.3050664413e-20)
(0 -0.041933616887 0)
(0 -0.0585982441543 0)
(0 -0.0659269310927 0)
(0 -0.0720584189193 0)
(0 -0.0782973136688 0)
(0 -0.0854850566265 0)
(0 -0.0918804010841 0)
(0 -0.0973306777332 0)
(0 -0.102161950712 0)
(0 -0.106522476118 0)
(0 -0.10962066324 0)
(0 -0.110618558818 0)
(0 -0.0936954454024 0)
(0 -0.0365115907297 0)
(0 -0.227786154421 0)
)
;
    }
    floatingObject
    {
        type            movingWallVelocity;
        value           nonuniform List<vector> 0();
    }
    procBoundary11to9
    {
        type            processor;
        value           nonuniform List<vector> 9((-0.0776192630971 -0.0225898979699 -4.89786917773e-24) (-0.0801917863269 -0.0239092642044 1.05258595491e-22) (-0.0830581119257 -0.0249391608157 3.08639320201e-22) (-0.0860267516304 -0.0255214200262 -6.90015410902e-22) (-0.0884279254628 -0.0251652415955 -6.13467505763e-21) (-0.0887696110901 -0.0247722255943 -2.01580276004e-20) (-0.080573396828 -0.0361791523508 -9.00104076108e-21) (0.0743244457687 -0.015409957265 -9.37829566623e-21) (0.0155508199552 0.0485610478686 -2.40869857096e-21));
    }
    procBoundary11to10
    {
        type            processor;
        value           nonuniform List<vector> 
23
(
(-0.0735675096425 -0.0233102536881 9.44920536397e-24)
(-0.0740950048125 -0.0278666824294 -2.34944061045e-23)
(-0.0740950048125 -0.0278666824294 -2.34944061045e-23)
(-0.0717939327976 -0.0307172022749 -7.40644407523e-24)
(-0.0717939327976 -0.0307172022749 -7.40644407523e-24)
(-0.0663661436821 -0.0307431817975 -1.39911120181e-23)
(-0.0632722270756 -0.0333269534207 1.20843676527e-23)
(-0.059819469275 -0.0358996954562 2.97119179094e-23)
(-0.059819469275 -0.0358996954562 2.97119179094e-23)
(-0.0537080006495 -0.0344885935944 1.50517529119e-24)
(-0.0537080006495 -0.0344885935944 1.50517529119e-24)
(-0.0477482939229 -0.0324488017402 -1.08102811054e-23)
(-0.0435015844879 -0.0341703325075 -1.62623636019e-23)
(-0.0406436200102 -0.0404645358443 -1.96702948564e-23)
(-0.0406436200102 -0.0404645358443 -1.96702948564e-23)
(-0.035732659577 -0.0421646485653 -2.03352872578e-23)
(-0.0305865202164 -0.0436735544236 -4.72808281947e-24)
(-0.0252431172082 -0.044963793151 6.68391492614e-23)
(-0.0196930384928 -0.04599485185 3.07444585754e-22)
(-0.0196930384928 -0.04599485185 3.07444585754e-22)
(-0.013232929743 -0.0410654059812 3.61940590648e-22)
(-0.00756191556985 -0.0409257313109 1.06732325568e-21)
(-0.00348739185802 -0.0385815365362 1.0924210926e-21)
)
;
    }
}


// ************************************************************************* //
