/*--------------------------------*- C++ -*----------------------------------*\
| =========                 |                                                 |
| \\      /  F ield         | OpenFOAM: The Open Source CFD Toolbox           |
|  \\    /   O peration     | Version:  v2012                                 |
|   \\  /    A nd           | Website:  www.openfoam.com                      |
|    \\/     M anipulation  |                                                 |
\*---------------------------------------------------------------------------*/
FoamFile
{
    version     2.0;
    format      ascii;
    class       surfaceVectorField;
    location    "2.1";
    object      ddtCorrDdt0(Uf);
}
// * * * * * * * * * * * * * * * * * * * * * * * * * * * * * * * * * * * * * //

dimensions      [0 1 -2 0 0 0 0];


internalField   nonuniform List<vector> 
306
(
(0.00411190979544 -0.060111721075 -1.61373681792e-21)
(0.00952345281504 -0.0531192649894 -1.23652183865e-21)
(0.00476510198948 -0.07204900244 -4.91488598855e-22)
(0.0108167108666 -0.0641916879704 4.9729603078e-22)
(0.00551708571463 -0.0858365883938 -3.76597054077e-23)
(0.0122337983931 -0.0768343740499 6.91644543614e-22)
(0.00647235762091 -0.101669463299 -2.72867578698e-22)
(0.0137930317817 -0.0914006279007 2.10164379681e-22)
(0.00763390246349 -0.119593883305 -3.83037168704e-22)
(0.0154762739111 -0.108075895353 7.98253681168e-22)
(0.00836828475826 -0.139206814627 -4.01278699836e-22)
(0.0169380844107 -0.127450886499 -7.27078624984e-22)
(0.00714012144413 -0.158458047255 -5.18363488625e-23)
(0.0167200290888 -0.144992317017 3.5996146201e-21)
(0.00269940402061 -0.17418500714 2.29814752818e-21)
(0.0139050405892 -0.179509226944 5.40668510406e-21)
(-0.0023664032591 -0.179515187512 4.82394562292e-21)
(0.00461154665042 -0.152989055036 -8.90300230581e-22)
(-0.370253582274 -0.163523571676 -9.51634073137e-20)
(-0.0161321592626 -0.15516215414 9.68251978862e-22)
(-3.04252323524 0.763986837807 -5.39743259333e-19)
(-0.927842016249 -0.240550695519 -1.10022432573e-19)
(5.36340625357 -3.65910405117 -7.77754534543e-19)
(0.0153983361731 -0.0564444428204 8.74511010049e-22)
(0.0184357078678 -0.0500993300348 -4.909612413e-22)
(0.0174410776624 -0.0679455816872 1.68042917325e-21)
(0.0210101155672 -0.060775277879 1.58489343244e-21)
(0.0197012234896 -0.0812723018385 9.39468628703e-22)
(0.0238316418492 -0.0730362933837 3.63336928307e-22)
(0.0221984478354 -0.0966547523425 1.28128563955e-21)
(0.0269957100414 -0.0872048203367 3.57525401078e-22)
(0.0248329384156 -0.114190380081 4.54212224888e-22)
(0.0304742716545 -0.10355668501 8.04653899274e-22)
(0.0268393917924 -0.134123720648 3.27381469495e-21)
(0.0342350693362 -0.122899611602 -5.05917876719e-22)
(0.0276960807111 -0.157455862046 9.05813607302e-21)
(0.0376602196477 -0.140968115133 1.76402800274e-21)
(0.0279975818661 -0.186363870041 2.2182373453e-21)
(0.0411598896017 -0.179808263725 2.25991448702e-20)
(0.0293492025336 -0.226915219105 -4.74599387464e-21)
(0.0445409369231 -0.161659735241 2.61608815729e-21)
(-0.349614195507 -0.313477871888 -1.389077328e-20)
(0.0703126172624 -0.156144333401 8.57721733879e-21)
(2.82155414336 -0.917252984902 -3.48033707783e-19)
(-0.324346909841 -0.245681565967 -2.21680219703e-19)
(13.9196982675 0.0415057270356 -3.79655727861e-19)
(0.024280538855 -0.0536209446107 2.19421181092e-22)
(0.027647109751 -0.0648381790083 2.67801187499e-22)
(0.0308677746147 -0.0572820167629 2.15773717351e-22)
(0.0314241456671 -0.0777909442102 -2.18606299317e-22)
(0.0351378773808 -0.0691113351679 9.53654311837e-24)
(0.0356666412457 -0.0928339512168 -1.19106339195e-22)
(0.0399975662151 -0.0827803429098 -2.45483147272e-22)
(0.0404256912086 -0.110182390794 -1.55476202334e-22)
(0.0455099789259 -0.0986446435751 1.18231355774e-22)
(0.0453798316984 -0.130185535348 -2.01570456894e-21)
(0.0518745190092 -0.117486655726 -7.92311823115e-22)
(0.0507824352887 -0.153068709876 1.53050367999e-20)
(0.0584713816525 -0.135185857115 -3.95446556087e-21)
(0.0561054977546 -0.180262512351 2.29969956822e-20)
(0.0669545820979 -0.171497425725 1.32939041981e-20)
(0.0737947711511 -0.210683613834 1.59392993707e-20)
(0.0744524671552 -0.149855423515 1.85227183781e-21)
(0.124757789902 -0.252446555417 -1.99212229085e-19)
(0.111984948363 -0.144755501085 7.81368533841e-21)
(5.05710007573 -0.970345866723 -2.53302239782e-19)
(0.393314811814 -0.1343319896 -2.20634846058e-19)
(1.31294600764 2.73171106217 -7.14922562249e-19)
(0.0379931060845 -0.0605857171542 -4.24909270299e-23)
(0.0433811915214 -0.0729463827692 -1.73403048365e-23)
(0.0460445375981 -0.0637269401906 9.04592022943e-23)
(0.04950029037 -0.0873102298955 -8.14545230227e-24)
(0.0526431753909 -0.0766462775826 -1.15733212552e-22)
(0.0565496059099 -0.103951148475 -5.18604265007e-22)
(0.0602172691677 -0.0916643467833 6.59370827991e-23)
(0.0642636097415 -0.123037914788 -2.73107281505e-21)
(0.0690225296966 -0.109518952725 -2.4970631503e-21)
(0.0734149222277 -0.144374076157 -5.96559816263e-21)
(0.0781260704214 -0.12641977509 -2.54280835944e-21)
(0.0823167054125 -0.168429251213 -7.85081964621e-21)
(0.0898959163249 -0.159683781155 -9.27999430533e-22)
(0.103500945857 -0.191282057791 -6.2733421945e-21)
(0.0969079293099 -0.137714871348 -6.94380929459e-21)
(0.202938374 -0.210115719987 -1.36089316345e-20)
(0.130749541138 -0.132702143548 -7.44193877836e-21)
(0.616379821659 0.00935095635055 -6.82255168525e-19)
(0.173658840065 -0.176559177292 -6.78208482684e-20)
(-1.04759460073 1.82219262462 -6.4925084051e-19)
(0.0547707261511 -0.0663877832646 -7.93370542101e-24)
(0.0561429546799 -0.0566399017801 3.70006084284e-23)
(0.0628464391445 -0.0797576741065 -4.16506774505e-23)
(0.0646826260553 -0.0685607351698 -2.91200983139e-23)
(0.0721331134124 -0.0953972536625 -1.91252180249e-21)
(0.0743690509777 -0.0824831967995 -5.4542461871e-23)
(0.0822458532542 -0.113420270336 -2.30879869469e-21)
(0.0855541430109 -0.0991803061791 -2.92274746659e-21)
(0.093878527946 -0.133644246973 2.49479037265e-21)
(0.0970671070929 -0.115391891336 -4.60773304428e-22)
(0.103758601295 -0.155773380319 -2.09890789115e-23)
(0.111183837408 -0.146610624711 3.50330582389e-21)
(0.125967567542 -0.177170181865 -8.11240587846e-21)
(0.118011547135 -0.126539984249 -1.22492791415e-20)
(0.161507193519 -0.205291914877 -6.16538554122e-20)
(0.15882329547 -0.123834024213 -1.19648405774e-20)
(-1.538939912 -0.289891911633 -3.48165202537e-20)
(0.258043939735 -0.183593699521 2.77787344862e-19)
(-9.36667666876 0.893390203577 8.06859675756e-20)
(0.0654956381245 -0.0578956289931 1.58142155355e-23)
(0.0656602130397 -0.0479081668225 3.6581337672e-23)
(0.0755433487327 -0.0701023498694 -4.20118827344e-23)
(0.0759499218268 -0.0585024234922 -9.7994239617e-23)
(0.0870726142667 -0.0845463209659 -1.06476812597e-21)
(0.0877420095348 -0.0710629122003 4.82029356266e-22)
(0.099694199157 -0.101407713356 -1.07472207633e-21)
(0.10133592265 -0.0863616397649 -2.21178892763e-21)
(0.11391049524 -0.12102359605 5.47742146814e-22)
(0.115751835167 -0.101892092834 2.60983114362e-21)
(0.125015798757 -0.142998988271 -8.72498423866e-21)
(0.132550882524 -0.132173616767 1.47650284079e-20)
(0.145242836879 -0.164484753733 -1.61017138404e-20)
(0.139288806073 -0.118370461081 -1.81713766361e-20)
(0.150454502914 -0.17035455035 3.27476359697e-19)
(0.164659887753 -0.122724968052 -1.82657469597e-20)
(-1.42260784463 0.0762825665481 3.93289832691e-19)
(0.0113859320576 -0.157128052845 7.71845142851e-19)
(1.90279417861 -3.51603247972 -4.29561791663e-20)
(0.0753031002476 -0.0476595817047 -7.72271174806e-23)
(0.0740678381749 -0.0376524200421 2.87173289081e-23)
(0.0872443531734 -0.0583548801195 4.26046999384e-22)
(0.0860217452455 -0.0465530581726 -1.51694006649e-22)
(0.101060016416 -0.0712230117786 -6.64991445393e-22)
(0.0998799338656 -0.057345206088 4.33685360072e-22)
(0.116557939038 -0.0866945729012 1.47276429232e-21)
(0.11605939294 -0.0707135198574 -3.1944084476e-21)
(0.134373354075 -0.105700697198 1.68271174047e-20)
(0.134106412903 -0.0847405695411 6.10213947749e-21)
(0.150413575731 -0.129818936932 5.31863601053e-21)
(0.156242903496 -0.112563177029 2.81302741956e-20)
(0.177492344187 -0.16545016195 -2.03354097554e-20)
(0.174776705632 -0.102851371341 -3.77671399717e-21)
(0.260799722446 -0.235933139562 4.26103036195e-19)
(0.235149102326 -0.109537753924 -4.39474948253e-21)
(1.00781192887 -1.17953777637 3.35599130994e-19)
(0.953818995393 -0.089347943051 4.65907820062e-19)
(8.82931018157 -1.34801349402 -8.8408626881e-20)
(0.0837435847396 -0.0357616608649 -4.57495602604e-23)
(0.0809645029185 -0.0259578223231 3.92144557645e-23)
(0.0974659044365 -0.0445517280441 -1.44055645961e-22)
(0.0944231124691 -0.0328248735164 -8.79048423406e-23)
(0.113507560581 -0.0553233084676 -2.09573164214e-21)
(0.110174798995 -0.0413798540232 -2.54961292051e-22)
(0.131947822945 -0.0684976967561 1.43496673757e-21)
(0.128731866326 -0.0521807455593 -2.19234846083e-21)
(0.153661394241 -0.0848145973737 1.74052962683e-20)
(0.149979191942 -0.0635738408675 1.50153449534e-21)
(0.175670406445 -0.104454734795 1.90349241879e-20)
(0.175592139876 -0.0867368213578 1.51482377881e-20)
(0.215278179648 -0.127725672736 1.21639462757e-20)
(0.197952363878 -0.0771267995739 6.74635026013e-21)
(0.5526158498 -0.15189490787 3.54100343849e-20)
(0.259302366149 -0.0830758096507 8.10667155287e-21)
(4.09269886746 -0.0112067665135 4.19000621875e-20)
(0.81307241064 -0.0654189208018 2.90591734528e-20)
(3.27596196343 1.86672180262 2.50919380241e-19)
(0.0903786950994 -0.0223569479156 -2.94082631571e-24)
(0.0859345869634 -0.0130006833938 3.43047343084e-23)
(0.105677186548 -0.0288392959341 -1.9881048843e-22)
(0.100669465353 -0.0175229056602 -1.26081013427e-22)
(0.123698568025 -0.0370175967016 -3.51578110744e-22)
(0.118048244521 -0.0234121255417 -3.06235678063e-22)
(0.144718122607 -0.0472498256993 -2.12578070306e-21)
(0.138633122601 -0.0311426489864 -2.44307626573e-22)
(0.169392272284 -0.0601539015577 -7.55523984905e-22)
(0.162585141885 -0.039256693208 -2.12635973753e-21)
(0.19474420155 -0.0755668103811 2.85966386033e-21)
(0.190809048376 -0.0576476020604 3.1270628431e-21)
(0.238713732004 -0.0941555436167 2.68907553729e-21)
(0.216477755104 -0.0504227599785 4.07083154816e-21)
(0.499604736669 -0.117590806756 1.7558106208e-21)
(0.282724428933 -0.0611484002661 8.44293157115e-22)
(1.53802528152 0.0207035985297 2.38078491506e-19)
(0.674752341099 -0.0851645276427 -4.31105823519e-20)
(1.66402954043 0.735495725721 2.24607789551e-19)
(0.094807637248 -0.00767115843616 -8.88354528029e-23)
(0.0886753246642 0.000963768105791 1.66423585683e-23)
(0.11138918401 -0.0115037849691 -2.3350620306e-22)
(0.104363949042 -0.000939045419176 -1.45717432348e-22)
(0.131046819353 -0.0166506684075 -1.98965193892e-22)
(0.123003660517 -0.003788661314 -1.77132560646e-22)
(0.154235650637 -0.0234308808396 -2.44886661041e-22)
(0.145197471954 -0.00801836678151 -6.81054802809e-22)
(0.181438216115 -0.0324888642852 1.75622709047e-21)
(0.171444823698 -0.0122446811494 -1.9679447996e-21)
(0.210219707379 -0.0440098733722 4.33823053093e-21)
(0.202199237883 -0.0253374009541 -3.09206348936e-22)
(0.259809483906 -0.0605588966458 2.22604916798e-21)
(0.23298538806 -0.0200569387423 4.65679208907e-21)
(0.470572371372 -0.0867471262736 -4.40220998156e-20)
(0.308903234738 -0.0352841617634 7.62205810566e-21)
(0.899525852793 -0.0518711845897 -5.65812843072e-20)
(0.639846199201 -0.0778897965747 -4.11170995213e-20)
(0.155273856914 0.411204635119 -6.45999775197e-20)
(0.0966964803241 0.00796954195144 -4.02396209767e-23)
(0.0889158135876 0.0155985995901 8.43674946681e-23)
(0.114181662298 0.00709773945581 -8.93437899333e-23)
(0.105153227596 0.0165466803304 -2.65788034231e-22)
(0.135042157894 0.00537890678045 -6.59222169563e-22)
(0.124601442247 0.0170516929081 -1.47055829397e-22)
(0.159901315199 0.00258180829925 -2.40411294137e-21)
(0.147853656276 0.0167112218287 -8.01238711917e-22)
(0.189216138699 -0.00187735141744 -4.03337823901e-21)
(0.175772430431 0.016973453176 -1.99193596577e-21)
(0.221554491459 -0.00822669136904 9.3552092142e-24)
(0.208461662911 0.0104027831797 -4.82796308428e-21)
(0.278145277955 -0.0189551558085 1.00528010268e-20)
(0.243687076597 0.0152357437181 4.90312900225e-21)
(0.482851695135 -0.038073021541 1.05270584e-20)
(0.328013912043 -0.00236493017205 5.31016343255e-21)
(0.440631423727 -0.0644754179633 -4.91357927338e-20)
(0.666232231826 -0.034190864501 -7.02167610418e-21)
(0.562588146425 0.105550470454 -5.99626785997e-20)
(0.0957981404827 0.024195930136 -1.41180918586e-22)
(0.0864897619677 0.0305079394248 7.64914692292e-23)
(0.113708878685 0.0264699837165 -3.23500073695e-22)
(0.102831860613 0.0344576727753 -4.54512826592e-22)
(0.135197339926 0.0285401644726 -2.8907237175e-22)
(0.122456001024 0.0385257093137 -2.64047648945e-22)
(0.161058486671 0.0301950664051 -3.89061736317e-22)
(0.146107260913 0.0424116946852 -9.35777328065e-22)
(0.191660517348 0.0310662093728 -2.78652081104e-21)
(0.174814763281 0.0475308806178 6.71957040899e-23)
(0.226306247072 0.0313442635958 6.58107087551e-23)
(0.208126304761 0.0485754343534 2.44141964174e-21)
(0.287792219438 0.0295102875394 1.6049140805e-22)
(0.245504329903 0.0540948113575 9.83204010609e-21)
(0.491923633586 0.0237132641593 -1.22385710716e-20)
(0.333804772517 0.0372137340009 -2.71250108073e-21)
(0.56569471971 0.0576802740185 -1.78485619701e-20)
(0.632240582589 0.0537197453542 4.43996850152e-21)
(0.647112764818 0.103530656419 -1.3806447482e-20)
(0.0919283605793 0.0405325502931 -2.36840438776e-22)
(0.0812772947432 0.0452406701057 8.80960394914e-23)
(0.109717911841 0.0461695036499 -3.95060401842e-22)
(0.0971668778082 0.0522456116574 -3.11766992249e-22)
(0.131189275604 0.0521639670605 -9.10752605259e-22)
(0.116414614877 0.0599805866813 6.87442360324e-23)
(0.157225875804 0.0584681021069 -4.79519887659e-22)
(0.139744269289 0.068283074211 -6.14639880907e-22)
(0.187964500541 0.0650779378246 5.29513615686e-21)
(0.168148985054 0.0783064147835 1.49285756936e-21)
(0.222960856747 0.0725383014515 1.22076490391e-20)
(0.200629236773 0.0872648135637 8.49957029025e-21)
(0.285961256962 0.08054634786 6.95904761731e-21)
(0.237486849575 0.0941385049684 9.22903654527e-21)
(0.47906515739 0.0890591179049 1.39660384924e-20)
(0.325285780341 0.081314603163 -1.19161381076e-20)
(0.637650080067 0.0972305650807 8.4820829896e-21)
(0.624059893882 0.139608838347 -2.69743885917e-20)
(0.393511368133 0.105994909103 6.41539916977e-22)
(0.0849851017162 0.056458538974 1.31694860188e-23)
(0.073269464807 0.0592871988361 9.73665660345e-23)
(0.102059963963 0.0654576026717 1.52037645626e-22)
(0.0881549237104 0.0693191513769 -9.51238029386e-23)
(0.122842689665 0.0755103797011 3.64856960385e-22)
(0.106336122477 0.0807350812932 1.90673882466e-22)
(0.148241942316 0.0866305487234 1.35773757612e-21)
(0.128586428783 0.0934978673734 -3.02755736574e-22)
(0.178066483226 0.0987588384813 4.69729170275e-21)
(0.155987651691 0.108239373423 1.00948126094e-21)
(0.212067250889 0.112748850775 5.52095779645e-21)
(0.186614800689 0.124195178236 2.69598999285e-21)
(0.271990127601 0.127511479872 -9.64614917968e-21)
(0.222717909808 0.131319209901 -1.12493740083e-21)
(0.45911383657 0.154226292914 -5.28565651917e-20)
(0.298565360501 0.125051838054 -1.02244343611e-20)
(0.543814482532 0.203433338307 -3.48149316643e-20)
(0.574868126277 0.14955072878 -5.68204528264e-20)
(0.637393331274 -0.301354711503 3.72372872355e-20)
(0.0750064590594 0.0714068311832 -1.09267229229e-23)
(0.0625703093199 0.0721157598295 2.26716862061e-23)
(0.0907110969196 0.0837048964636 -5.6487566098e-23)
(0.0758550349267 0.0850345921674 -5.03320016491e-23)
(0.110035225705 0.0978209351627 -4.76938814493e-22)
(0.0921961513921 0.100053381427 -6.01375252452e-23)
(0.134103408923 0.113851674215 -6.51012051754e-22)
(0.11254273573 0.117377570731 -5.09757626413e-22)
(0.163023844362 0.131374663807 -9.91820448958e-22)
(0.138435600524 0.137200146725 -4.19808310878e-22)
(0.197366088037 0.148815005467 -3.94990520443e-21)
(0.169163140303 0.160983332957 3.0541918255e-23)
(0.254003412591 0.162989087572 -1.70322258224e-21)
(0.208540011351 0.171546169241 -2.06598972046e-22)
(0.467203705934 0.175712778034 -1.41883219958e-20)
(0.285847087173 0.17907071111 3.24839071112e-21)
(0.884985879154 -0.000665525314312 1.52317660734e-20)
(0.751295294887 0.201383079205 -2.17658660111e-20)
(1.61278032674 -0.317518676886 -1.38045808976e-20)
(0.0621329363618 0.0847829643655 -1.67335925201e-23)
(0.0757377742783 0.10021300017 -5.39819607964e-23)
(0.0926833336836 0.118353354338 -9.2956337165e-23)
(0.114306951037 0.139567114385 -2.78553885537e-22)
(0.141483829164 0.164073764697 6.02554056335e-22)
(0.172757598397 0.190635474761 3.77384815064e-21)
(0.21653857783 0.230579546388 4.74501432132e-21)
(0.517142905232 0.312300097046 -4.32915330413e-21)
(1.33891739665 0.260533059373 -5.08022129821e-20)
)
;

boundaryField
{
    back
    {
        type            calculated;
        value           uniform (0 0 0);
    }
    sides
    {
        type            calculated;
        value           uniform (0 0 0);
    }
    bottom
    {
        type            calculated;
        value           nonuniform List<vector> 0();
    }
    front
    {
        type            calculated;
        value           uniform (0 0 0);
    }
    atmosphere
    {
        type            calculated;
        value           nonuniform List<vector> 
16
(
(-5.34887923589 -4.59979934442 -8.84236501872e-19)
(94.2900491735 -9.47393118262 8.19180482314e-19)
(-1.81947098107 11.6360443032 -1.40267450397e-19)
(-7.40685339504 2.36961546285 -1.02723452335e-19)
(-4.52674830575 8.02913987582 -6.67218024621e-19)
(-2.9186539316 -11.1943601827 1.20068862733e-19)
(1.55066437504 -8.10335468098 -2.30106770379e-19)
(-19.0780840008 5.54127395172 -6.99884571807e-19)
(0.542146848472 1.63250753711 5.78427498707e-21)
(-13.3513671008 1.45684891033 -9.18569610222e-19)
(-2.73240858708 -0.471825530695 -2.77466134277e-19)
(1.59068660501 -0.0268428577653 -1.7472927864e-19)
(2.19730862348 0.350822648884 1.26485004251e-19)
(-0.000105388546576 -0.0404307218776 -1.64357785033e-23)
(1.19690767675 -0.976000534525 6.36762674102e-20)
(1.88808281623 -0.200115157747 -8.9248967168e-20)
)
;
    }
    floatingObject
    {
        type            calculated;
        value           nonuniform List<vector> 0();
    }
    procBoundary1to0
    {
        type            processor;
        value           nonuniform List<vector> 10((0.0494169259906 0.0831637233798 -1.01225955131e-23) (0.0604127124346 0.0986633174116 -7.44825399781e-24) (0.0740578502729 0.117058767221 -8.57840141558e-23) (0.0913085214747 0.139021870019 -7.91805826932e-23) (0.113924208936 0.164809638827 -2.2948645537e-21) (0.142590313946 0.199647527843 4.98501455644e-21) (0.168593811729 0.215632021039 -4.57742299721e-21) (0.20413766118 0.236201556434 3.23221385653e-22) (0.803140813851 0.315492378256 -1.2067051926e-20) (2.07346248584 0.593948993353 -5.28733089336e-20));
    }
    procBoundary1to2
    {
        type            processor;
        value           nonuniform List<vector> 
18
(
(0.00352980676821 -0.049487983718 -1.77534353275e-21)
(0.0135855430394 -0.0462684911734 -3.55056405051e-23)
(0.0213096669593 -0.0438700054451 -2.51922132495e-22)
(0.0270734159897 -0.0470225452174 2.36043555635e-23)
(0.0332238141671 -0.0498491065286 1.99568918226e-23)
(0.0401653592815 -0.0525193207687 -1.44749204684e-22)
(0.0476793957764 -0.054737914515 -1.179907536e-23)
(0.0567623165812 -0.0473492809131 3.67309984487e-23)
(0.0650454849506 -0.0386141106572 2.39019448316e-24)
(0.0720463080126 -0.0285396978136 1.58300493517e-23)
(0.0774188400627 -0.0172135835987 2.2513416441e-23)
(0.0808405843558 -0.00487321261534 -7.41766964368e-24)
(0.082059940857 0.00823835215577 -8.54687453512e-24)
(0.0808880282762 0.0217611468969 2.45216335331e-24)
(0.077192493766 0.0353149770926 -3.84604263056e-24)
(0.0709383519979 0.0484201248713 6.02204128931e-24)
(0.0621839965062 0.0607124183349 9.97399087385e-25)
(0.0510873818327 0.0715836453108 5.17924477369e-24)
)
;
    }
}


// ************************************************************************* //
