/*--------------------------------*- C++ -*----------------------------------*\
| =========                 |                                                 |
| \\      /  F ield         | OpenFOAM: The Open Source CFD Toolbox           |
|  \\    /   O peration     | Version:  v2012                                 |
|   \\  /    A nd           | Website:  www.openfoam.com                      |
|    \\/     M anipulation  |                                                 |
\*---------------------------------------------------------------------------*/
FoamFile
{
    version     2.0;
    format      ascii;
    class       volScalarField;
    location    "2.1";
    object      epsilon_0;
}
// * * * * * * * * * * * * * * * * * * * * * * * * * * * * * * * * * * * * * //

dimensions      [0 2 -3 0 0 0 0];


internalField   nonuniform List<scalar> 
167
(
0.00473738804728
0.00477820420298
0.00482790461345
0.00490496135693
0.00506225092032
0.00542427561864
0.00621875511469
0.00782964318788
0.0108127217241
0.0163274303113
0.0282124749407
0.0962096022658
0.0048758734007
0.00490976129608
0.00495458923141
0.00503329264983
0.00520705583766
0.00561002142097
0.00647078875364
0.00810177878581
0.0108129433303
0.0154114501975
0.0273975223764
0.115877986222
0.00531177712619
0.00534654527034
0.00539364077575
0.00547826784739
0.00566631000934
0.00609983410606
0.00701827527013
0.00874883176055
0.0116037793567
0.0164128291845
0.0289603907208
0.115874024682
0.00550846592528
0.00555584435001
0.00564126445481
0.00583078585887
0.00626681821468
0.00719130054553
0.00894294638127
0.0118612884364
0.0168069816168
0.0292168495034
0.0917466489951
0.00561762804505
0.00570186629133
0.00588870472414
0.00631923768955
0.00723573216409
0.00898323729674
0.0119257958405
0.0169842614416
0.0305430753127
0.116212820112
0.0056448820712
0.00572707797172
0.00590966085237
0.0063319735805
0.00723621847922
0.00897163225018
0.0119229112708
0.0170080097553
0.0287325842249
0.0714426694851
0.00566121640311
0.00574093504866
0.00591853381351
0.00633139215383
0.00722139557033
0.00894157020296
0.0118973246708
0.0170568423981
0.0288003775983
0.0657510090751
0.00567459033118
0.0057515897762
0.00592372940359
0.0063262759095
0.00720079271334
0.00890375573234
0.011862265251
0.0171137541122
0.0294437850414
0.0779117885371
0.00568744217281
0.00576157341327
0.00592789600363
0.00631936546921
0.00717702433834
0.00886055839583
0.0118204558561
0.0171717032287
0.0307872076087
0.117223438857
0.00570037174023
0.00577153467549
0.00593174123502
0.00631140534298
0.00715078610869
0.00881261046946
0.0117717551792
0.0172021838484
0.031265718736
0.122109798652
0.00571343160774
0.00578155508403
0.0059354085191
0.00630261126946
0.00712233819444
0.00876015803864
0.0117175952901
0.0172595362882
0.031962613211
0.109801688673
0.00572652179627
0.00579158086538
0.00593887924343
0.00629303752871
0.00709175898376
0.00870315060689
0.0116561024199
0.0173534092401
0.0335988021287
0.112964902699
0.00573950690247
0.00580153025164
0.00594223220479
0.00628296297865
0.00705939835021
0.00864137092794
0.0115766914664
0.0173774814969
0.034994947508
0.129719791125
0.0057522881904
0.00581136279208
0.005945605988
0.00627316882026
0.00702741294801
0.00857742689308
0.0114788846989
0.0173862203771
0.0369677626652
0.146378039295
0.00576482653192
0.00582115463224
0.00594947111168
0.00626531490774
0.00700059964466
0.00852271953761
0.0113788506668
0.0173377090032
0.0376756220014
0.111977178931
0.00577709953979
0.00583100959572
0.00595446953088
0.00626184176828
0.00698733966072
0.00850590453521
0.0113449761106
0.0168935724478
0.0317366342046
0.0762888394831
)
;

boundaryField
{
    back
    {
        lowReCorrection 0;
        blending        stepwise;
        n               2;
        type            epsilonWallFunction;
        value           nonuniform List<scalar> 
167
(
0.00473738804728
0.00477820420298
0.00482790461345
0.00490496135693
0.00506225092032
0.00542427561864
0.00621875511469
0.00782964318788
0.0108127217241
0.0163274303113
0.0282124749407
0.0962096022658
0.0048758734007
0.00490976129608
0.00495458923141
0.00503329264983
0.00520705583766
0.00561002142097
0.00647078875364
0.00810177878581
0.0108129433303
0.0154114501975
0.0273975223764
0.115877986222
0.00531177712619
0.00534654527034
0.00539364077575
0.00547826784739
0.00566631000934
0.00609983410606
0.00701827527013
0.00874883176055
0.0116037793567
0.0164128291845
0.0289603907208
0.115874024682
0.00550846592528
0.00555584435001
0.00564126445481
0.00583078585887
0.00626681821468
0.00719130054553
0.00894294638127
0.0118612884364
0.0168069816168
0.0292168495034
0.0917466489951
0.00561762804505
0.00570186629133
0.00588870472414
0.00631923768955
0.00723573216409
0.00898323729674
0.0119257958405
0.0169842614416
0.0305430753127
0.116212820112
0.0056448820712
0.00572707797172
0.00590966085237
0.0063319735805
0.00723621847922
0.00897163225018
0.0119229112708
0.0170080097553
0.0287325842249
0.0714426694851
0.00566121640311
0.00574093504866
0.00591853381351
0.00633139215383
0.00722139557033
0.00894157020296
0.0118973246708
0.0170568423981
0.0288003775983
0.0657510090751
0.00567459033118
0.0057515897762
0.00592372940359
0.0063262759095
0.00720079271334
0.00890375573234
0.011862265251
0.0171137541122
0.0294437850414
0.0779117885371
0.00568744217281
0.00576157341327
0.00592789600363
0.00631936546921
0.00717702433834
0.00886055839583
0.0118204558561
0.0171717032287
0.0307872076087
0.117223438857
0.00570037174023
0.00577153467549
0.00593174123502
0.00631140534298
0.00715078610869
0.00881261046946
0.0117717551792
0.0172021838484
0.031265718736
0.122109798652
0.00571343160774
0.00578155508403
0.0059354085191
0.00630261126946
0.00712233819444
0.00876015803864
0.0117175952901
0.0172595362882
0.031962613211
0.109801688673
0.00572652179627
0.00579158086538
0.00593887924343
0.00629303752871
0.00709175898376
0.00870315060689
0.0116561024199
0.0173534092401
0.0335988021287
0.112964902699
0.00573950690247
0.00580153025164
0.00594223220479
0.00628296297865
0.00705939835021
0.00864137092794
0.0115766914664
0.0173774814969
0.034994947508
0.129719791125
0.0057522881904
0.00581136279208
0.005945605988
0.00627316882026
0.00702741294801
0.00857742689308
0.0114788846989
0.0173862203771
0.0369677626652
0.146378039295
0.00576482653192
0.00582115463224
0.00594947111168
0.00626531490774
0.00700059964466
0.00852271953761
0.0113788506668
0.0173377090032
0.0376756220014
0.111977178931
0.00577709953979
0.00583100959572
0.00595446953088
0.00626184176828
0.00698733966072
0.00850590453521
0.0113449761106
0.0168935724478
0.0317366342046
0.0762888394831
)
;
    }
    sides
    {
        lowReCorrection 0;
        blending        stepwise;
        n               2;
        type            epsilonWallFunction;
        value           nonuniform List<scalar> 
12
(
0.00473738804728
0.00477820420298
0.00482790461345
0.00490496135693
0.00506225092032
0.00542427561864
0.00621875511469
0.00782964318788
0.0108127217241
0.0163274303113
0.0282124749407
0.0962096022658
)
;
    }
    bottom
    {
        lowReCorrection 0;
        blending        stepwise;
        n               2;
        type            epsilonWallFunction;
        value           nonuniform List<scalar> 0();
    }
    front
    {
        lowReCorrection 0;
        blending        stepwise;
        n               2;
        type            epsilonWallFunction;
        value           nonuniform List<scalar> 
167
(
0.00473738804728
0.00477820420298
0.00482790461345
0.00490496135693
0.00506225092032
0.00542427561864
0.00621875511469
0.00782964318788
0.0108127217241
0.0163274303113
0.0282124749407
0.0962096022658
0.0048758734007
0.00490976129608
0.00495458923141
0.00503329264983
0.00520705583766
0.00561002142097
0.00647078875364
0.00810177878581
0.0108129433303
0.0154114501975
0.0273975223764
0.115877986222
0.00531177712619
0.00534654527034
0.00539364077575
0.00547826784739
0.00566631000934
0.00609983410606
0.00701827527013
0.00874883176055
0.0116037793567
0.0164128291845
0.0289603907208
0.115874024682
0.00550846592528
0.00555584435001
0.00564126445481
0.00583078585887
0.00626681821468
0.00719130054553
0.00894294638127
0.0118612884364
0.0168069816168
0.0292168495034
0.0917466489951
0.00561762804505
0.00570186629133
0.00588870472414
0.00631923768955
0.00723573216409
0.00898323729674
0.0119257958405
0.0169842614416
0.0305430753127
0.116212820112
0.0056448820712
0.00572707797172
0.00590966085237
0.0063319735805
0.00723621847922
0.00897163225018
0.0119229112708
0.0170080097553
0.0287325842249
0.0714426694851
0.00566121640311
0.00574093504866
0.00591853381351
0.00633139215383
0.00722139557033
0.00894157020296
0.0118973246708
0.0170568423981
0.0288003775983
0.0657510090751
0.00567459033118
0.0057515897762
0.00592372940359
0.0063262759095
0.00720079271334
0.00890375573234
0.011862265251
0.0171137541122
0.0294437850414
0.0779117885371
0.00568744217281
0.00576157341327
0.00592789600363
0.00631936546921
0.00717702433834
0.00886055839583
0.0118204558561
0.0171717032287
0.0307872076087
0.117223438857
0.00570037174023
0.00577153467549
0.00593174123502
0.00631140534298
0.00715078610869
0.00881261046946
0.0117717551792
0.0172021838484
0.031265718736
0.122109798652
0.00571343160774
0.00578155508403
0.0059354085191
0.00630261126946
0.00712233819444
0.00876015803864
0.0117175952901
0.0172595362882
0.031962613211
0.109801688673
0.00572652179627
0.00579158086538
0.00593887924343
0.00629303752871
0.00709175898376
0.00870315060689
0.0116561024199
0.0173534092401
0.0335988021287
0.112964902699
0.00573950690247
0.00580153025164
0.00594223220479
0.00628296297865
0.00705939835021
0.00864137092794
0.0115766914664
0.0173774814969
0.034994947508
0.129719791125
0.0057522881904
0.00581136279208
0.005945605988
0.00627316882026
0.00702741294801
0.00857742689308
0.0114788846989
0.0173862203771
0.0369677626652
0.146378039295
0.00576482653192
0.00582115463224
0.00594947111168
0.00626531490774
0.00700059964466
0.00852271953761
0.0113788506668
0.0173377090032
0.0376756220014
0.111977178931
0.00577709953979
0.00583100959572
0.00595446953088
0.00626184176828
0.00698733966072
0.00850590453521
0.0113449761106
0.0168935724478
0.0317366342046
0.0762888394831
)
;
    }
    atmosphere
    {
        type            inletOutlet;
        inletValue      uniform 0.1;
        value           nonuniform List<scalar> 
16
(
0.0962096022658
0.1
0.1
0.1
0.1
0.0714426694851
0.0657510090751
0.1
0.1
0.122109798652
0.109801688673
0.112964902699
0.1
0.1
0.111977178931
0.0762888394831
)
;
    }
    floatingObject
    {
        lowReCorrection 0;
        blending        stepwise;
        n               2;
        type            epsilonWallFunction;
        value           nonuniform List<scalar> 0();
    }
    procBoundary1to0
    {
        type            processor;
        value           nonuniform List<scalar> 10(0.00578907275862 0.00584089347927 0.00596050717332 0.00626232439993 0.00698721069378 0.00854369188655 0.0115488872558 0.0172764207697 0.0286715106304 0.0469529479289);
    }
    procBoundary1to2
    {
        type            processor;
        value           nonuniform List<scalar> 
18
(
0.00469990278019
0.00484557798929
0.00528110662744
0.00547374286486
0.00547374286486
0.00557091414503
0.00557091414503
0.00559935236922
0.0056171377665
0.00563209114645
0.00564657399089
0.00566114874886
0.00567585452887
0.00569055389198
0.00570510316949
0.0057194021352
0.00573336762715
0.005746930814
)
;
    }
}


// ************************************************************************* //
