/*--------------------------------*- C++ -*----------------------------------*\
| =========                 |                                                 |
| \\      /  F ield         | OpenFOAM: The Open Source CFD Toolbox           |
|  \\    /   O peration     | Version:  v2012                                 |
|   \\  /    A nd           | Website:  www.openfoam.com                      |
|    \\/     M anipulation  |                                                 |
\*---------------------------------------------------------------------------*/
FoamFile
{
    version     2.0;
    format      ascii;
    class       volScalarField;
    location    "5.8";
    object      k_0;
}
// * * * * * * * * * * * * * * * * * * * * * * * * * * * * * * * * * * * * * //

dimensions      [0 2 -2 0 0 0 0];


internalField   nonuniform List<scalar> 
167
(
0.00110152289615
0.00111347690724
0.00113127101752
0.00116489955459
0.00124723140464
0.00148886748771
0.00222059304199
0.00414669581041
0.00806828566117
0.0144028404997
0.0238520969875
0.0405223111911
0.001363438553
0.00137616482329
0.00139696656891
0.00144011215319
0.00155201366648
0.00188595220659
0.00287843004732
0.00532415976628
0.00980559152567
0.0163496408375
0.0266136475949
0.06403739001
0.00145538648825
0.00146872023973
0.00149101408075
0.00153804076937
0.00165971037585
0.00201855673633
0.00306849710351
0.00561576395516
0.0102379231558
0.0169888760135
0.0277589754487
0.0657916632308
0.00150722867775
0.00152996864476
0.00157779217951
0.00170009851593
0.00205515048254
0.00308317171991
0.00559369056251
0.0102735116965
0.0173443662216
0.027950441697
0.0572328111325
0.00154665834506
0.00159326127827
0.001709880117
0.00203970999588
0.00298831498018
0.00538001113217
0.01013260607
0.0177108971833
0.028596375876
0.0432577357935
0.00155435212046
0.00159859961766
0.00170627697902
0.00200118186183
0.00284497185071
0.0050916211687
0.00993397707734
0.0181516095234
0.0307728165294
0.0493065451206
0.00155867139599
0.00160065089325
0.00170114444722
0.00197134877886
0.00274410313085
0.00487448387375
0.00973140251686
0.0183486051487
0.0322066855956
0.0564937804292
0.00156189080612
0.00160220441139
0.00169957065652
0.00196488956896
0.00272867936311
0.00481636340503
0.00955557266439
0.0181886633119
0.0330082387257
0.0653288271799
0.00156480719615
0.00160371578577
0.00169915616529
0.00196524533889
0.00273757333053
0.00479890567883
0.00935182427482
0.017783337656
0.032743381008
0.0600865245794
0.0015676112603
0.00160486468465
0.00169690948805
0.00195641224317
0.00271305835932
0.00471406049315
0.00911059585689
0.0174311684981
0.0326981453504
0.0589202175558
0.00157036853814
0.00160567035281
0.00169247055916
0.00193631420753
0.00264813427235
0.00455725381063
0.00886506340163
0.0172966613366
0.0333841442054
0.0634937779204
0.00157306422223
0.00160623405024
0.00168665534743
0.00190918922645
0.00255810247299
0.00435591755608
0.00861957375261
0.0172772677689
0.0341698419028
0.0693115548322
0.00157565045738
0.00160663193131
0.00168060157299
0.00188203865764
0.00246959799154
0.00415654102916
0.00839207344255
0.0173169674943
0.034817404326
0.0737308559495
0.00157816320423
0.00160700436162
0.00167495983348
0.00185813604501
0.00239379004868
0.00398029924649
0.00817657042976
0.0173621065745
0.0353594234958
0.0741520193038
0.00158058864071
0.00160740924815
0.00166994225939
0.00183765965456
0.00233010066103
0.00381972195923
0.00791858758167
0.0172171979991
0.0355494389398
0.0743358052024
0.0015829214007
0.00160788491559
0.0016655061715
0.00181930061183
0.00227144679241
0.00365717365525
0.00759079150059
0.0167850399755
0.0351556326608
0.0742514172167
)
;

boundaryField
{
    back
    {
        type            kqRWallFunction;
        value           nonuniform List<scalar> 
167
(
0.00110152289615
0.00111347690724
0.00113127101752
0.00116489955459
0.00124723140464
0.00148886748771
0.00222059304199
0.00414669581041
0.00806828566117
0.0144028404997
0.0238520969875
0.0405223111911
0.001363438553
0.00137616482329
0.00139696656891
0.00144011215319
0.00155201366648
0.00188595220659
0.00287843004732
0.00532415976628
0.00980559152567
0.0163496408375
0.0266136475949
0.06403739001
0.00145538648825
0.00146872023973
0.00149101408075
0.00153804076937
0.00165971037585
0.00201855673633
0.00306849710351
0.00561576395516
0.0102379231558
0.0169888760135
0.0277589754487
0.0657916632308
0.00150722867775
0.00152996864476
0.00157779217951
0.00170009851593
0.00205515048254
0.00308317171991
0.00559369056251
0.0102735116965
0.0173443662216
0.027950441697
0.0572328111325
0.00154665834506
0.00159326127827
0.001709880117
0.00203970999588
0.00298831498018
0.00538001113217
0.01013260607
0.0177108971833
0.028596375876
0.0432577357935
0.00155435212046
0.00159859961766
0.00170627697902
0.00200118186183
0.00284497185071
0.0050916211687
0.00993397707734
0.0181516095234
0.0307728165294
0.0493065451206
0.00155867139599
0.00160065089325
0.00170114444722
0.00197134877886
0.00274410313085
0.00487448387375
0.00973140251686
0.0183486051487
0.0322066855956
0.0564937804292
0.00156189080612
0.00160220441139
0.00169957065652
0.00196488956896
0.00272867936311
0.00481636340503
0.00955557266439
0.0181886633119
0.0330082387257
0.0653288271799
0.00156480719615
0.00160371578577
0.00169915616529
0.00196524533889
0.00273757333053
0.00479890567883
0.00935182427482
0.017783337656
0.032743381008
0.0600865245794
0.0015676112603
0.00160486468465
0.00169690948805
0.00195641224317
0.00271305835932
0.00471406049315
0.00911059585689
0.0174311684981
0.0326981453504
0.0589202175558
0.00157036853814
0.00160567035281
0.00169247055916
0.00193631420753
0.00264813427235
0.00455725381063
0.00886506340163
0.0172966613366
0.0333841442054
0.0634937779204
0.00157306422223
0.00160623405024
0.00168665534743
0.00190918922645
0.00255810247299
0.00435591755608
0.00861957375261
0.0172772677689
0.0341698419028
0.0693115548322
0.00157565045738
0.00160663193131
0.00168060157299
0.00188203865764
0.00246959799154
0.00415654102916
0.00839207344255
0.0173169674943
0.034817404326
0.0737308559495
0.00157816320423
0.00160700436162
0.00167495983348
0.00185813604501
0.00239379004868
0.00398029924649
0.00817657042976
0.0173621065745
0.0353594234958
0.0741520193038
0.00158058864071
0.00160740924815
0.00166994225939
0.00183765965456
0.00233010066103
0.00381972195923
0.00791858758167
0.0172171979991
0.0355494389398
0.0743358052024
0.0015829214007
0.00160788491559
0.0016655061715
0.00181930061183
0.00227144679241
0.00365717365525
0.00759079150059
0.0167850399755
0.0351556326608
0.0742514172167
)
;
    }
    sides
    {
        type            kqRWallFunction;
        value           nonuniform List<scalar> 
12
(
0.00110152289615
0.00111347690724
0.00113127101752
0.00116489955459
0.00124723140464
0.00148886748771
0.00222059304199
0.00414669581041
0.00806828566117
0.0144028404997
0.0238520969875
0.0405223111911
)
;
    }
    bottom
    {
        type            kqRWallFunction;
        value           nonuniform List<scalar> 0();
    }
    front
    {
        type            kqRWallFunction;
        value           nonuniform List<scalar> 
167
(
0.00110152289615
0.00111347690724
0.00113127101752
0.00116489955459
0.00124723140464
0.00148886748771
0.00222059304199
0.00414669581041
0.00806828566117
0.0144028404997
0.0238520969875
0.0405223111911
0.001363438553
0.00137616482329
0.00139696656891
0.00144011215319
0.00155201366648
0.00188595220659
0.00287843004732
0.00532415976628
0.00980559152567
0.0163496408375
0.0266136475949
0.06403739001
0.00145538648825
0.00146872023973
0.00149101408075
0.00153804076937
0.00165971037585
0.00201855673633
0.00306849710351
0.00561576395516
0.0102379231558
0.0169888760135
0.0277589754487
0.0657916632308
0.00150722867775
0.00152996864476
0.00157779217951
0.00170009851593
0.00205515048254
0.00308317171991
0.00559369056251
0.0102735116965
0.0173443662216
0.027950441697
0.0572328111325
0.00154665834506
0.00159326127827
0.001709880117
0.00203970999588
0.00298831498018
0.00538001113217
0.01013260607
0.0177108971833
0.028596375876
0.0432577357935
0.00155435212046
0.00159859961766
0.00170627697902
0.00200118186183
0.00284497185071
0.0050916211687
0.00993397707734
0.0181516095234
0.0307728165294
0.0493065451206
0.00155867139599
0.00160065089325
0.00170114444722
0.00197134877886
0.00274410313085
0.00487448387375
0.00973140251686
0.0183486051487
0.0322066855956
0.0564937804292
0.00156189080612
0.00160220441139
0.00169957065652
0.00196488956896
0.00272867936311
0.00481636340503
0.00955557266439
0.0181886633119
0.0330082387257
0.0653288271799
0.00156480719615
0.00160371578577
0.00169915616529
0.00196524533889
0.00273757333053
0.00479890567883
0.00935182427482
0.017783337656
0.032743381008
0.0600865245794
0.0015676112603
0.00160486468465
0.00169690948805
0.00195641224317
0.00271305835932
0.00471406049315
0.00911059585689
0.0174311684981
0.0326981453504
0.0589202175558
0.00157036853814
0.00160567035281
0.00169247055916
0.00193631420753
0.00264813427235
0.00455725381063
0.00886506340163
0.0172966613366
0.0333841442054
0.0634937779204
0.00157306422223
0.00160623405024
0.00168665534743
0.00190918922645
0.00255810247299
0.00435591755608
0.00861957375261
0.0172772677689
0.0341698419028
0.0693115548322
0.00157565045738
0.00160663193131
0.00168060157299
0.00188203865764
0.00246959799154
0.00415654102916
0.00839207344255
0.0173169674943
0.034817404326
0.0737308559495
0.00157816320423
0.00160700436162
0.00167495983348
0.00185813604501
0.00239379004868
0.00398029924649
0.00817657042976
0.0173621065745
0.0353594234958
0.0741520193038
0.00158058864071
0.00160740924815
0.00166994225939
0.00183765965456
0.00233010066103
0.00381972195923
0.00791858758167
0.0172171979991
0.0355494389398
0.0743358052024
0.0015829214007
0.00160788491559
0.0016655061715
0.00181930061183
0.00227144679241
0.00365717365525
0.00759079150059
0.0167850399755
0.0351556326608
0.0742514172167
)
;
    }
    atmosphere
    {
        type            inletOutlet;
        inletValue      uniform 0.1;
        value           nonuniform List<scalar> 
16
(
0.0405223111911
0.1
0.1
0.1
0.0432577357935
0.0493065451206
0.1
0.1
0.1
0.0589202175558
0.0634937779204
0.0693115548322
0.1
0.1
0.1
0.1
)
;
    }
    floatingObject
    {
        type            kqRWallFunction;
        value           nonuniform List<scalar> 0();
    }
    procBoundary1to0
    {
        type            processor;
        value           nonuniform List<scalar> 10(0.00158510206889 0.00160835972012 0.00166147717915 0.00180231665574 0.0022154082445 0.00349019872249 0.00718408823306 0.0159500951359 0.0337123808453 0.0733830076342);
    }
    procBoundary1to2
    {
        type            processor;
        value           nonuniform List<scalar> 
18
(
0.0010918031412
0.00135379197095
0.00144549422586
0.0014936864362
0.0014936864362
0.00152424268078
0.00152424268078
0.00153272920399
0.00153794741996
0.0015420175099
0.00154574149776
0.00154937730755
0.00155299774714
0.00155657662226
0.00156006798495
0.00156345743059
0.00156672391647
0.00156982609613
)
;
    }
}


// ************************************************************************* //
