/*--------------------------------*- C++ -*----------------------------------*\
| =========                 |                                                 |
| \\      /  F ield         | OpenFOAM: The Open Source CFD Toolbox           |
|  \\    /   O peration     | Version:  v2012                                 |
|   \\  /    A nd           | Website:  www.openfoam.com                      |
|    \\/     M anipulation  |                                                 |
\*---------------------------------------------------------------------------*/
FoamFile
{
    version     2.0;
    format      ascii;
    class       surfaceScalarField;
    location    "5.8";
    object      phi;
}
// * * * * * * * * * * * * * * * * * * * * * * * * * * * * * * * * * * * * * //

dimensions      [0 3 -1 0 0 0 0];
oriented        oriented;


internalField   nonuniform List<scalar> 
306
(
9.15046244598e-05
-1.19082391253e-05
0.000104065864709
-1.25582140726e-05
0.000117633909082
-1.35643600102e-05
0.000132079638007
-1.44416251807e-05
0.000147546849489
-1.54631613684e-05
0.000163891087414
-1.63404462736e-05
0.000178249293989
-1.43551878189e-05
0.000187839957981
-9.58879436122e-06
0.000205298391675
-1.74578544075e-05
0.000249970127732
-4.46718763749e-05
0.000441485649809
-0.000191517751329
-0.000517824374729
8.77693206472e-05
-2.31471558157e-05
9.98677361865e-05
-2.46530036257e-05
0.000113005862961
-2.66983395023e-05
0.000127171461101
-2.86026194435e-05
0.000142522497483
-3.08094781313e-05
0.000158264722781
-3.20784570269e-05
0.000176568354907
-3.26553868095e-05
0.000201614201511
-3.46326193538e-05
0.000225326062253
-4.11690872549e-05
0.00024213928997
-6.14850712862e-05
0.000132090676204
-8.14726922175e-05
-0.000255528830658
8.41245594203e-05
9.61168241959e-05
-3.66391456514e-05
0.000108516114724
-3.90925442615e-05
0.000122031709979
-4.21127591724e-05
0.000136468389649
-4.52407615619e-05
0.00015214158418
-4.77466505761e-05
0.000169318702942
-4.98286279274e-05
0.000192885725082
-5.81973028717e-05
0.000217407945375
-6.56905858838e-05
0.000238291855423
-8.23698579408e-05
0.000199702920031
-4.28877305019e-05
0.000140625923096
9.18786916391e-05
0.000104150287205
-5.13567486658e-05
0.000117406076233
-5.53618041341e-05
0.000131317988918
-5.91461117178e-05
0.000145978999535
-6.24018375882e-05
0.000162857188784
-6.67022298096e-05
0.000186852376133
-8.21897737396e-05
0.000210740981868
-8.95783581625e-05
0.000226846823411
-9.84764457741e-05
0.000127074818049
5.68795710368e-05
0.000574610335054
9.99116239505e-05
-6.33663744773e-05
0.000112807706975
-6.82495178113e-05
0.000126972295475
-7.33028906143e-05
0.000142636626888
-7.80592704269e-05
0.000161054380984
-8.51146401241e-05
0.000181130866299
-0.000102263129929
0.000201281373316
-0.000109727929454
0.000222720255302
-0.00011991597862
0.00033784142694
-5.82479623839e-05
0.000109672611391
9.52396590961e-05
-7.51447739319e-05
0.000108107109452
-8.11069324345e-05
0.000122732830344
-8.79193993745e-05
0.000139875989908
-9.51944640121e-05
0.000159616195553
-0.00010484875712
0.000177270698304
-0.000119914113404
0.000193366697749
-0.000125822896869
0.000218382783682
-0.000144933337612
0.000461014676204
-0.000300886649321
-0.000978215955469
8.92161705417e-05
-8.61784007524e-05
0.000101785160933
-9.36642440161e-05
0.000116408723688
-0.00010253244972
0.000134107440115
-0.000112884237558
0.000155078581774
-0.000125813153694
0.00017139561826
-0.000136227307964
0.000186171905333
-0.000140598082005
0.000207799025982
-0.00016656093276
0.000147841219967
-0.000240935759338
-0.000582555902477
8.18045997022e-05
-9.61537867008e-05
9.32376178133e-05
-0.00010508422954
0.000105949357976
-0.000115232646286
0.000121623287628
-0.000128548486382
0.000139450014696
-0.000143632669665
0.000158749320013
-0.000155522563757
0.000178289351563
-0.0001601369716
0.000201198760084
-0.00018947041463
0.000139821847634
-0.000179565880666
-0.000254841357276
7.30870296944e-05
-0.000105058851261
8.2263119042e-05
-0.00011424641295
9.31129172388e-05
-0.000126070289521
0.000104750293854
-0.000140175802457
0.000118199731341
-0.000157074702883
0.000137159997482
-0.000174478731642
0.00016115030015
-0.000184126139098
0.000187931290697
-0.000216250776006
0.000188358582128
-0.000179999477405
-5.90612613537e-05
6.30125253289e-05
-0.00011212047028
7.07929241644e-05
-0.000122012732661
7.8786797991e-05
-0.000134051990099
8.72992564635e-05
-0.000148678299364
9.70705396192e-05
-0.000166838741745
0.000112394960381
-0.000189799202999
0.000135016003265
-0.00020674611193
0.000163832647498
-0.000245066338702
0.000202984770152
-0.000219156397043
-0.000145300341493
5.27153980589e-05
-0.000117866282078
5.8556003255e-05
-0.000127839842731
6.4719365073e-05
-0.000140203793155
7.04704893803e-05
-0.000154420077075
7.62622050258e-05
-0.000172623751814
8.82699515575e-05
-0.000201803348124
0.000104447549681
-0.000222922751114
0.000130162049463
-0.000270780751392
0.000151720265867
-0.000240718951939
-0.000106759753806
4.19858827616e-05
-0.000122129495072
4.65366273523e-05
-0.000132378513652
5.09538632334e-05
-0.000144610767855
5.53282648095e-05
-0.000158786264448
6.03416941277e-05
-0.000177631374318
6.47649219749e-05
-0.000206223501389
7.54351738621e-05
-0.000233592208612
9.04067466621e-05
-0.000285751876593
0.000101902442505
-0.000252218110256
-6.38122204388e-05
3.1530597012e-05
-0.00012498849786
3.4376907327e-05
-0.000135214786766
3.71455103255e-05
-0.000147370897899
3.99669830546e-05
-0.000161601033948
4.23297563171e-05
-0.000179989488885
4.51733785805e-05
-0.000209064702235
4.78612626663e-05
-0.000236279509363
5.6427215201e-05
-0.000294317964995
5.58416014664e-05
-0.000251633139637
-4.0684014877e-05
2.08746317049e-05
-0.000126442768548
2.22534665681e-05
-0.000136585842543
2.35045068574e-05
-0.000148615352966
2.49507466367e-05
-0.000163042022188
2.6565960909e-05
-0.000181601208214
2.4520639446e-05
-0.0002070175051
2.37096798012e-05
-0.000235468105003
1.70645755315e-05
-0.000287670306517
1.18939752839e-05
-0.000246462120442
-2.50599597703e-05
1.04052732862e-05
-0.000126547500217
1.02296271175e-05
-0.000136404413056
9.83102453191e-06
-0.00014821140137
9.2900319861e-06
-0.000162497381887
8.36266985325e-06
-0.000180670954713
6.86044918511e-06
-0.000205514068441
2.3658259255e-06
-0.000230973120849
-1.27767573461e-05
-0.000272526395945
-2.52374622568e-05
-0.000233994629991
-1.09027403902e-05
2.68041861832e-07
-1.42485501228e-06
-3.43995951078e-06
-5.62182819964e-06
-7.82505806995e-06
-1.01687876267e-05
-1.53261949783e-05
-3.68243837339e-05
-5.65416073476e-05
)
;

boundaryField
{
    back
    {
        type            calculated;
        value           uniform 0;
    }
    sides
    {
        type            calculated;
        value           uniform 0;
    }
    bottom
    {
        type            calculated;
        value           nonuniform List<scalar> 0();
    }
    front
    {
        type            calculated;
        value           uniform 0;
    }
    atmosphere
    {
        type            calculated;
        value           nonuniform List<scalar> 
16
(
0.000959307281312
-0.000130206496184
-0.000196454509511
-0.000306913285075
0.000802774642509
0.00154889929828
-0.000247820562187
-0.000187894565013
-7.42333082934e-06
0.000289218555599
0.000113178838953
5.89556066427e-05
3.27145055159e-05
-3.72685799e-06
-3.93898883252e-05
-7.15396810756e-05
)
;
    }
    floatingObject
    {
        type            calculated;
        value           nonuniform List<scalar> 0();
    }
    procBoundary1to0
    {
        type            processor;
        value           nonuniform List<scalar> 10(-0.000125196413404 -0.000134707003959 -0.000146192948042 -0.000160312412203 -0.000178466149745 -0.000203169298355 -0.000225815413385 -0.000251026412226 -0.000214268791829 4.10023955461e-06);
    }
    procBoundary1to2
    {
        type            processor;
        value           nonuniform List<scalar> 
18
(
-7.9592574001e-05
-7.6525070577e-05
-7.30134837436e-05
-3.42549210013e-05
-8.04617737459e-05
-4.80494286873e-05
-8.78898039642e-05
-8.3445594494e-05
-7.81637853222e-05
-7.18077252904e-05
-6.41584968704e-05
-5.59267773998e-05
-4.69460231652e-05
-3.770146676e-05
-2.86537097543e-05
-1.94070961311e-05
-1.02901822009e-05
-1.61354548572e-06
)
;
    }
}


// ************************************************************************* //
