/*--------------------------------*- C++ -*----------------------------------*\
| =========                 |                                                 |
| \\      /  F ield         | OpenFOAM: The Open Source CFD Toolbox           |
|  \\    /   O peration     | Version:  v2012                                 |
|   \\  /    A nd           | Website:  www.openfoam.com                      |
|    \\/     M anipulation  |                                                 |
\*---------------------------------------------------------------------------*/
FoamFile
{
    version     2.0;
    format      ascii;
    class       volVectorField;
    location    "5.8";
    object      U_0;
}
// * * * * * * * * * * * * * * * * * * * * * * * * * * * * * * * * * * * * * //

dimensions      [0 1 -1 0 0 0 0];


internalField   nonuniform List<vector> 
167
(
(-0.00113158811689 0.0156972604129 4.07863393656e-22)
(-0.00122863347063 0.0180656501722 4.09238107132e-22)
(-0.00133827736267 0.0206230474579 1.11298068906e-22)
(-0.00146202328623 0.0233812517105 -1.4875665265e-22)
(-0.00163384752028 0.0264447246533 -5.15338322349e-22)
(-0.00195062043619 0.0300475817205 -1.49878157108e-21)
(-0.00214603434045 0.0320249660477 -7.92694843175e-22)
(-0.0017663936718 0.0392262379331 4.34604123309e-21)
(-0.00232280789788 0.0323542684948 1.22997684402e-20)
(-0.00393006557251 0.0426240101759 3.3146474997e-20)
(-0.0561249231265 0.0400235518795 4.43145282789e-20)
(-0.147206934988 0.214410083046 1.21834319957e-20)
(-0.00339286152762 0.0149289623428 1.23646230787e-22)
(-0.00368474049615 0.0172035046875 9.82872720917e-23)
(-0.00405456987146 0.0196798267476 -9.6471059208e-23)
(-0.00444886013327 0.0223594707308 -2.68006142437e-22)
(-0.00491365294373 0.0252944748957 -6.29429131702e-22)
(-0.00531126711507 0.0288174093078 -2.13422584149e-21)
(-0.00526122830392 0.0311341958657 -5.72595126326e-21)
(-0.00477434060135 0.039580962649 -1.22180782722e-20)
(-0.00696053327177 0.0345337254604 -1.13980452097e-20)
(-0.0136157435376 0.0452647339969 -1.19903387354e-20)
(-0.024153996133 0.0497374137586 -1.2976183298e-20)
(-0.114469012891 -0.0218140336721 -3.28274019227e-21)
(-0.0054925032289 0.0141930914052 3.53688695244e-24)
(-0.00596716278985 0.0163325560807 -1.50376730561e-23)
(-0.00652787949856 0.0186947716761 -1.53547576514e-22)
(-0.00717200214701 0.0212749386503 -3.42629963003e-22)
(-0.00789002458829 0.0240546075227 -8.5675358156e-22)
(-0.00854384363035 0.0273311987631 -2.60036437556e-21)
(-0.00909248488683 0.0292767228476 -6.49532952447e-21)
(-0.0104841063589 0.0370763200883 -2.32279839986e-20)
(-0.0119988894241 0.0324027602189 -2.99079945443e-20)
(-0.0165588785517 0.0432194346986 -3.8753241295e-20)
(-0.0118071910924 0.0520789681336 -4.03932136023e-20)
(-0.033790600492 -0.0161321841441 -8.65827430628e-21)
(-0.00818185913771 0.0154968475205 -3.29553711728e-23)
(-0.00892356309489 0.0177516179661 -1.01969290877e-22)
(-0.00978608956107 0.0201766285817 -2.91848380026e-22)
(-0.0107082746575 0.0228166547647 -7.27785460925e-22)
(-0.0115641650302 0.0259290278209 -1.31951413109e-21)
(-0.0125476158017 0.0277622704499 -2.79933814305e-21)
(-0.0154571651163 0.0353606327702 -5.10124931545e-21)
(-0.0176036142963 0.0307144925887 -1.45776298306e-20)
(-0.0217870581757 0.0409947450334 -2.1716489641e-20)
(0.00148633109931 0.0465171275086 -2.18011852125e-20)
(0.0650200867877 -0.0323602146344 -1.11295439361e-21)
(-0.0112191195899 0.0167551983187 -9.48463724107e-23)
(-0.012290851242 0.019103664661 -3.08584137462e-22)
(-0.0134303688126 0.0216659988511 -7.97327899746e-22)
(-0.0145059721542 0.0247198848908 -1.62978411427e-21)
(-0.0159907264723 0.0267087470109 -1.96168111861e-21)
(-0.0199356716178 0.0340866303399 -2.8294240723e-21)
(-0.0225471806302 0.0289358265927 -6.43474394944e-21)
(-0.0266334634913 0.0379784992297 -6.61392122359e-21)
(-0.00481414824769 0.0435737959998 -4.49893723284e-21)
(0.0753962776942 0.13645527939 -2.79886391431e-21)
(-0.0134045824868 0.0156329858894 -9.42887637462e-23)
(-0.0147276572097 0.017887132425 -3.0154160217e-22)
(-0.0161736087656 0.0204345023134 -1.07361534273e-21)
(-0.0176959171848 0.023536843104 -2.17069694719e-21)
(-0.0197722626399 0.0261220562396 -2.66687819905e-21)
(-0.0237658126599 0.0333633221987 -1.2782235052e-21)
(-0.0262959460216 0.027369142517 2.09461584548e-21)
(-0.0314279155162 0.034815162933 8.56099752572e-21)
(-0.0370082332204 0.0440413795102 1.22665917209e-20)
(-0.0849357262051 0.192324634164 3.11540238211e-21)
(-0.0154736314082 0.0143025381708 -1.24712879171e-22)
(-0.0170782703533 0.0163935866291 -3.98527385553e-22)
(-0.0189572898025 0.0188304171924 -1.18271237421e-21)
(-0.021246139422 0.0218508902267 -2.77704712724e-21)
(-0.0240332946279 0.0246151567088 -5.51283192088e-21)
(-0.0273354506239 0.0315159617638 -1.19261647922e-20)
(-0.0290626473183 0.025274703547 1.86084960546e-21)
(-0.0353464854442 0.0316864885776 1.88925499222e-20)
(-0.053354677266 0.0391463100754 1.70765144603e-20)
(-0.148850594129 0.0036344110402 5.96132112006e-21)
(-0.017358234909 0.0127197647426 -1.49510288096e-22)
(-0.0191993328344 0.0145246126058 -4.46643217657e-22)
(-0.0215264952305 0.0165622075596 -1.00561825583e-21)
(-0.0244045621721 0.0190901457429 -1.98386909129e-21)
(-0.0278328528897 0.0213328265323 -3.7174911668e-21)
(-0.0308056575222 0.0274185036478 -1.00424106485e-20)
(-0.0320044291715 0.0218374245572 -5.56779308516e-21)
(-0.0388205186658 0.0284165710026 -9.4475256163e-21)
(-0.0477148181328 0.0372355300836 -1.08480713864e-20)
(-0.0717640027595 -0.0100988807353 -1.09646686462e-21)
(-0.0189079446754 0.010917023499 -1.25861958622e-22)
(-0.0209386405352 0.0123366250688 -3.74729793858e-22)
(-0.0234603580406 0.0139016296741 -7.58257904148e-22)
(-0.0265912140159 0.0157231326516 -1.32186075728e-21)
(-0.0303663931294 0.0169350404345 -2.38269604461e-21)
(-0.0339693271517 0.0216115517294 -2.52224806781e-21)
(-0.0357794453946 0.0168630211508 -6.14482627753e-21)
(-0.0428945406666 0.023635538289 -9.08335116811e-21)
(-0.0416343143777 0.0323605850965 -9.07316910024e-21)
(-0.0349393296607 0.0122233929092 -1.4296985094e-21)
(-0.0200578519094 0.00895433887154 -1.15652963392e-22)
(-0.0221640102312 0.010006149268 -3.21652231088e-22)
(-0.0247285693205 0.0110785756253 -6.07421880673e-22)
(-0.0278807507637 0.0121923664594 -1.06995108871e-21)
(-0.0317715967941 0.0125967091826 -2.10928631538e-21)
(-0.036195619834 0.0159492349749 -4.12153778396e-21)
(-0.0393633049838 0.0114235505238 -8.18474989775e-21)
(-0.047343241505 0.0176705168162 -1.16984885821e-20)
(-0.041456517158 0.0258658752558 -1.1346311988e-20)
(-0.0162874684192 0.024088560989 -2.20203280492e-21)
(-0.0209001235815 0.00694516433154 -1.16061171943e-22)
(-0.0229908653998 0.00762395024915 -3.18281779168e-22)
(-0.0255061280068 0.00827939932768 -5.82355676458e-22)
(-0.0284558980068 0.0088412330682 -9.88812653963e-22)
(-0.0322286442927 0.00891935857198 -1.45565586976e-21)
(-0.037504075003 0.0111558376655 -9.95489156618e-22)
(-0.0418927313841 0.00623706156974 -6.99097338e-21)
(-0.0513411707427 0.0115402859671 -1.32290977622e-20)
(-0.0439166575018 0.0184699240993 -1.326780718e-20)
(-0.0124423642611 0.0185847861396 -2.14844736013e-21)
(-0.0214460789982 0.00492361592011 -1.04856282654e-22)
(-0.0234942790688 0.00533645105593 -2.4985309747e-22)
(-0.0258807131684 0.00567690603236 -4.99635337279e-22)
(-0.0286488456968 0.00588032983059 -1.0502889952e-21)
(-0.0321865198067 0.00576224561228 -2.31580564529e-21)
(-0.0378072061868 0.00732760369854 -3.06075531891e-21)
(-0.0430441026807 0.0018360193585 -6.69938572216e-21)
(-0.0537919160307 0.00531976411235 -1.01858413655e-20)
(-0.0462958287992 0.0115815082633 -1.00378158652e-20)
(-0.00960176176863 0.00997713276421 -2.21012472992e-21)
(-0.021710935236 0.00301484919723 -8.70265100521e-23)
(-0.0236787709445 0.0031270285077 -1.7580876136e-22)
(-0.0259904491532 0.00315646740109 -4.12043732538e-22)
(-0.0286487756206 0.00309561984589 -9.08917135036e-22)
(-0.0320433855702 0.00303893856364 -2.63294218006e-21)
(-0.037370176512 0.00392134760503 -5.98613186839e-21)
(-0.0430546390029 -0.0021855855225 -3.13278048539e-21)
(-0.0543403739149 -0.000500161378323 -8.35532548796e-21)
(-0.0470508510916 0.00613527633697 -8.19097242991e-21)
(-0.00713063425022 0.000641661951947 -1.51139340475e-21)
(-0.0217160675312 0.00112650197056 -1.01010066745e-22)
(-0.023615509138 0.0009801073343 -1.82681813164e-22)
(-0.0258395707702 0.000742209809 -4.16381156005e-22)
(-0.0284463818312 0.000447717420003 -8.40990810712e-22)
(-0.0317729197648 0.000299006327809 -1.7097181213e-21)
(-0.0368650818608 0.000445140540287 -1.17825680279e-21)
(-0.0422458061452 -0.00601432481464 -5.11131792023e-21)
(-0.0527475706518 -0.00606034819504 -1.10043403401e-20)
(-0.0455034855727 0.000938448699172 -1.07936533925e-20)
(-0.00475036426136 -0.0084443303774 -3.3665105282e-21)
(-0.0214663419116 -0.000692508212745 -7.93969400602e-23)
(-0.023289404149 -0.00109028348017 -9.82225954005e-23)
(-0.0254400591512 -0.00159232716513 -1.73068208553e-22)
(-0.0280201823811 -0.00216133948153 -1.07409240454e-22)
(-0.0313367640406 -0.0026154716645 5.09043477604e-22)
(-0.03619814514 -0.00321462454238 3.26710553487e-21)
(-0.0409821334386 -0.00934912484408 8.77365496237e-22)
(-0.049222769509 -0.0102504323382 -8.56664235367e-21)
(-0.0425853918927 -0.00450174005163 -8.21715743854e-21)
(-0.00177568443329 -0.0164078441709 -4.41608749426e-21)
(-0.0209770091707 -0.00239835030156 -5.48160633016e-23)
(-0.022711814851 -0.00304892379691 -9.81186654939e-23)
(-0.0247772908957 -0.00381130763733 -1.60293531141e-22)
(-0.0273016472067 -0.00468578012029 -1.45512993718e-22)
(-0.0305673651487 -0.0055317139107 3.57876526631e-22)
(-0.0351679261019 -0.00662363278032 2.32703667324e-21)
(-0.0393475434957 -0.0120597383798 -2.56026078859e-21)
(-0.0446531171225 -0.0133933045036 -8.01091522764e-21)
(-0.0384105175728 -0.00954359221259 -7.9078258085e-21)
(0.00146820067692 -0.0229556435228 -9.21777347549e-22)
)
;

boundaryField
{
    back
    {
        type            noSlip;
    }
    sides
    {
        type            noSlip;
    }
    bottom
    {
        type            noSlip;
    }
    front
    {
        type            noSlip;
    }
    atmosphere
    {
        type            pressureInletOutletVelocity;
        value           nonuniform List<vector> 
16
(
(-0.147206934988 0.214410083046 1.21834319957e-20)
(0 -0.0218140336721 0)
(0 -0.0161321841441 0)
(0 -0.0323602146344 0)
(0.0753962776942 0.13645527939 -2.79886391431e-21)
(-0.0849357262051 0.192324634164 3.11540238211e-21)
(0 0.0036344110402 0)
(0 -0.0100988807353 0)
(0 0.0122233929092 0)
(-0.0162874684192 0.024088560989 -2.20203280492e-21)
(-0.0124423642611 0.0185847861396 -2.14844736013e-21)
(-0.00960176176863 0.00997713276421 -2.21012472992e-21)
(0 0.000641661951947 0)
(0 -0.0084443303774 0)
(0 -0.0164078441709 0)
(0 -0.0229556435228 0)
)
;
    }
    floatingObject
    {
        type            movingWallVelocity;
        value           nonuniform List<vector> 0();
    }
    procBoundary1to0
    {
        type            processor;
        value           nonuniform List<vector> 10((-0.0202666626954 -0.00395133601231 -3.55421175415e-23) (-0.0218817569342 -0.00483681686589 -1.01165292675e-22) (-0.0238311491104 -0.00584929270733 -2.81732463089e-22) (-0.0262675832041 -0.00702005050915 -8.43312395589e-22) (-0.0294424700977 -0.00829047384566 -1.46438752036e-21) (-0.0337784455976 -0.00975071381747 -4.25320013592e-22) (-0.0373843035519 -0.0143346396541 -5.25369229825e-21) (-0.039572264766 -0.0158624449365 -5.59085481247e-21) (-0.0335745253305 -0.0138764620391 -5.43128275223e-21) (0.00466557335698 -0.026938996263 1.28621445881e-23));
    }
    procBoundary1to2
    {
        type            processor;
        value           nonuniform List<vector> 
18
(
(-0.00104516856192 0.0135146110835 7.99515409318e-23)
(-0.00315690898495 0.0128420983146 -1.1810721322e-22)
(-0.00511454320584 0.0121868375848 -1.07963892284e-22)
(-0.00753144073569 0.0134248546401 -2.23439330617e-23)
(-0.00753144073569 0.0134248546401 -2.23439330617e-23)
(-0.010273648992 0.0145922411796 -1.73097749501e-23)
(-0.010273648992 0.0145922411796 -1.73097749501e-23)
(-0.0122680695628 0.0135958356074 -1.42778029381e-23)
(-0.0141303305997 0.0124407364832 -1.10280691618e-23)
(-0.0157960524909 0.0111062869856 -3.52304987104e-23)
(-0.0172059436928 0.00957605899074 -3.68127924001e-23)
(-0.0183221159218 0.00795406077707 -3.09185121572e-23)
(-0.0191483725252 0.00623940129833 -3.37136904178e-23)
(-0.0197181653185 0.00450748220874 -3.83313127661e-23)
(-0.0200196366905 0.00283669057374 -2.7658150787e-23)
(-0.0200666368138 0.00119813972366 -2.01568360858e-23)
(-0.0198990997085 -0.000381593478599 5.41632361053e-25)
(-0.0194966369253 -0.00184217715908 2.32122399336e-23)
)
;
    }
}


// ************************************************************************* //
