/*--------------------------------*- C++ -*----------------------------------*\
| =========                 |                                                 |
| \\      /  F ield         | OpenFOAM: The Open Source CFD Toolbox           |
|  \\    /   O peration     | Version:  v2012                                 |
|   \\  /    A nd           | Website:  www.openfoam.com                      |
|    \\/     M anipulation  |                                                 |
\*---------------------------------------------------------------------------*/
FoamFile
{
    version     2.0;
    format      ascii;
    class       volVectorField;
    location    "2.5";
    object      U_0;
}
// * * * * * * * * * * * * * * * * * * * * * * * * * * * * * * * * * * * * * //

dimensions      [0 1 -1 0 0 0 0];


internalField   nonuniform List<vector> 
166
(
(-0.0224455266346 0.0158789553829 1.33880426891e-23)
(-0.0224625675439 0.0184304742949 1.19415449774e-24)
(-0.0225093406181 0.0211787814905 1.92406133194e-23)
(-0.0225997569549 0.0241562312321 -9.59506091046e-24)
(-0.0227675485541 0.0274104188455 1.88958404074e-23)
(-0.0230767505235 0.0309879021978 4.81458878849e-23)
(-0.0236820991992 0.0349532463402 1.08894026307e-22)
(-0.0249789068535 0.0393793744545 -1.44040187947e-21)
(-0.0275867565007 0.0450428388823 -1.26346972303e-21)
(-0.0318836434376 0.0511912953262 -3.27863917763e-21)
(-0.038421103049 0.0585286789548 -6.1783526537e-21)
(-0.0485851617511 0.0687953061783 9.00361132786e-21)
(-0.500484142802 -0.061618144147 -3.36086997508e-20)
(-0.0246319773947 0.0111909177306 -6.93797666411e-24)
(-0.0247421843961 0.0134275570341 4.87594791716e-24)
(-0.0248894062313 0.0157909298129 2.73359162198e-23)
(-0.0250793363396 0.0183056632176 1.25957199294e-23)
(-0.0253294195741 0.0209999579903 1.58641420424e-23)
(-0.0256594856582 0.0239016141627 -1.27854101924e-23)
(-0.0260985391348 0.0270444693555 4.40742943014e-23)
(-0.0267201290596 0.0304655013112 2.48950602455e-23)
(-0.0276741649207 0.0342170233158 -1.50564695375e-22)
(-0.0294172526341 0.0382602376021 -1.01569836553e-21)
(-0.0329562283454 0.0436035997475 -5.04298010464e-21)
(-0.0392884337568 0.0485445063595 -2.13550385525e-20)
(-0.0493358629644 0.0557217417855 -1.47389592784e-20)
(-0.0441674405902 0.0654136269251 -1.22977284265e-19)
(-0.115179066218 -0.0406388556623 -6.59551953372e-20)
(-0.0289517751827 0.00108577850638 8.38708519131e-23)
(-0.027798367429 0.00306907923362 8.73913772867e-22)
(-0.0266312751671 0.00894798180555 1.09075123833e-23)
(-0.0267904125627 0.011042066704 -7.22676237416e-24)
(-0.0270113969322 0.0132368523959 -8.71938679684e-24)
(-0.0272918413889 0.0155494877865 -1.23172130041e-23)
(-0.0276394100778 0.0180003620205 1.99086560591e-23)
(-0.0280725580485 0.0206103028792 -9.39265134583e-24)
(-0.0286124759591 0.0234055162572 1.25234451501e-24)
(-0.0292920364694 0.0264053199813 2.84109001455e-23)
(-0.0301823092603 0.0296347352129 -7.23238130938e-23)
(-0.0314428245283 0.0331445498183 -4.04115129832e-22)
(-0.0335555533199 0.0367806195195 -3.43964129661e-21)
(-0.037582103847 0.0417996031366 -6.19731797808e-21)
(-0.0450513499486 0.0452701826011 -2.26636653932e-20)
(-0.0574082670348 0.0517670246039 -2.03595470704e-20)
(-0.0371164855263 0.0541716647232 -5.77808858058e-20)
(-0.0729485467381 0.00531529964575 -1.17252463066e-19)
(-0.0309369466728 0.00104351477666 -4.51513610954e-23)
(-0.0297379918543 0.00300755031755 6.78081421487e-22)
(-0.0287765200784 0.0048059533484 4.39580332958e-23)
(-0.0285492181601 0.00678995724458 8.54899177543e-23)
(-0.0286575406303 0.0087456295339 -9.49414828611e-24)
(-0.0289023525122 0.0107913120628 8.31375356858e-25)
(-0.0292288914384 0.0129285803578 1.64043680736e-23)
(-0.0296321738483 0.0151700832852 -3.12427676526e-23)
(-0.0301226405271 0.017533809439 -4.18200127317e-24)
(-0.0307159649743 0.0200376462262 2.14693562911e-23)
(-0.0314347159802 0.0226997917457 -8.00637318002e-23)
(-0.0323172964351 0.0255288159576 4.6664536226e-23)
(-0.0334321075578 0.0285321797632 -1.48887376824e-22)
(-0.0349416680583 0.031749769552 -5.65988062536e-22)
(-0.0373309684766 0.0349098463747 -3.89586204441e-21)
(-0.0414219838099 0.039494793985 -1.92976596731e-21)
(-0.0487469342932 0.0413389935422 -1.85305111229e-20)
(-0.0608421859074 0.0471555000142 -1.5703566281e-20)
(-0.0242505684318 0.0432533139097 -2.68408986433e-20)
(-0.0542804366179 0.00654322593334 -2.54912058186e-20)
(-0.0328840533693 0.000998469843651 -8.26338476668e-22)
(-0.0316316974099 0.00291960570049 -3.85625750242e-22)
(-0.0306609420025 0.00465949546209 -2.49512807532e-22)
(-0.0304668095765 0.00658016885067 4.26161108524e-24)
(-0.0306301832497 0.00847445112837 -2.95618623831e-23)
(-0.030952017248 0.0104497419969 -2.73372288492e-23)
(-0.0313761804622 0.0125089101394 -2.83596413477e-24)
(-0.0318912139796 0.0146632918571 -7.56387199013e-24)
(-0.0325101685878 0.0169266169274 1.51922446451e-23)
(-0.0332381984202 0.0193104410576 1.09117650034e-23)
(-0.0341049158003 0.0218235191092 -2.76030888109e-23)
(-0.035145196829 0.0244652330029 2.46637858568e-24)
(-0.0364321661561 0.0272261920172 -1.22285216005e-22)
(-0.0381015126596 0.0301391754362 -2.10675844043e-22)
(-0.0406228449419 0.0328542848037 -2.17838462633e-21)
(-0.0444731226426 0.0369174233035 -8.97589549131e-22)
(-0.0508750007659 0.0378749440462 -1.2558209177e-21)
(-0.0611529919756 0.0428233098508 -7.2429643512e-21)
(-0.00766833532602 0.0376102221946 -9.62609690019e-21)
(-0.0417939164378 0.00191392512219 -1.22971397423e-20)
(-0.0347615164126 0.000946790954621 -1.01807261175e-21)
(-0.0334549878541 0.00280212475624 -3.21296311519e-22)
(-0.0324696358549 0.0044666302783 -6.24146065864e-23)
(-0.0323046946914 0.00631505897902 8.88187911085e-23)
(-0.0325266415485 0.00813613118143 -3.31538826695e-25)
(-0.0329251099218 0.010024969291 7.89875386404e-24)
(-0.0334387680207 0.011992915116 3.95977407829e-24)
(-0.034048950295 0.0140451717615 -9.69852828896e-25)
(-0.0347747218757 0.0161981001906 5.46154383693e-23)
(-0.0356199265597 0.0184560209987 1.31086187553e-23)
(-0.0366057470763 0.0208140679418 -7.76062474288e-24)
(-0.0377634110273 0.0232601471544 3.26819876346e-23)
(-0.0391644727081 0.0257907644343 -1.49178931278e-22)
(-0.0409134714389 0.0284155457304 -3.56272217176e-22)
(-0.0434332918698 0.0307730003075 -1.93326276135e-21)
(-0.0468630016773 0.0341680229091 -6.46779060292e-22)
(-0.0520008874826 0.0344286487574 -1.63123160703e-21)
(-0.059212798292 0.0377243053264 -4.80054378967e-21)
(0.0121839127517 0.031101965144 -1.36784935725e-21)
(-0.019623661704 -0.0116772418774 -6.07076885243e-22)
(-0.03655802506 0.0008888236432 -8.75082962579e-22)
(-0.0351999724064 0.00266516094003 -7.62616182991e-23)
(-0.034194819136 0.00424002418875 1.9464014315e-22)
(-0.0340562689061 0.00599360551634 7.70231167359e-23)
(-0.0343340958265 0.00772422145464 2.34915243235e-23)
(-0.0348030733108 0.00951728413687 1.55862797605e-23)
(-0.03539573118 0.0113899700267 1.86020289289e-23)
(-0.0360969909932 0.0133372545559 8.8711897441e-24)
(-0.0369158243083 0.015367811232 1.38020480076e-23)
(-0.0378605427201 0.0174942705721 2.07307941453e-23)
(-0.0389387298524 0.0197037100894 1.49536363487e-23)
(-0.0401793465655 0.0219631693267 1.53968829625e-23)
(-0.0416271028207 0.0242879278936 1.81673228158e-23)
(-0.0433992360312 0.0266554543998 -1.45194705989e-22)
(-0.0458157760213 0.028782094595 -3.12894898426e-22)
(-0.0487442594374 0.0314925239417 -2.24106417202e-21)
(-0.0523945903975 0.0314317462537 -6.24990537469e-21)
(-0.0548975272582 0.0328631026987 -2.71691805836e-21)
(0.0369574958027 0.0260033598036 -3.72362875105e-21)
(-0.00653261245167 -0.0190361443865 -3.12545890913e-21)
(-0.0382583692533 0.000820963612474 -6.32514376966e-22)
(-0.0368518362063 0.00250671406143 -1.35853580742e-23)
(-0.035829944496 0.00398086782352 5.09629532599e-23)
(-0.0357168522191 0.00562653382824 1.63914470239e-22)
(-0.0360452311923 0.00725649879905 4.03674860259e-23)
(-0.0365790753774 0.00894502259911 -3.05976718969e-24)
(-0.0372453220161 0.0107065832741 -9.91922442652e-24)
(-0.0380348345571 0.0125387760087 -1.74480730174e-23)
(-0.038937934211 0.0144498049688 -4.87654939599e-25)
(-0.0399614561063 0.0164514165419 -4.23921494863e-24)
(-0.0411167328528 0.0185199448437 -3.11234686235e-24)
(-0.0424167370153 0.0206283358309 5.47544402074e-24)
(-0.0438758122508 0.0227770176922 7.83898162818e-23)
(-0.045628161552 0.0249218098716 3.36476648893e-22)
(-0.047888681108 0.0269297595314 -4.67419352648e-22)
(-0.0503741644229 0.0290124111623 -6.87852200446e-22)
(-0.0525546226804 0.0288839131681 -3.97389202991e-21)
(-0.0489393568423 0.0282659227168 -3.13501753542e-21)
(0.0623297951671 0.0227778596085 -3.00407024022e-21)
(0.00558752824967 -0.0189381604424 5.44004245117e-21)
(-0.0398359364872 0.000745783397344 -4.37171578482e-22)
(-0.0383809176191 0.00233223902319 2.00197252389e-22)
(-0.0373549153309 0.00369753334154 -5.85742804856e-24)
(-0.0372660293342 0.00521711276846 8.09135126053e-23)
(-0.0376448402651 0.00673157677728 1.90798851029e-23)
(-0.0382426577481 0.00830437954721 -7.59332135809e-24)
(-0.0389823687048 0.00994682881363 -8.01539511829e-24)
(-0.0398505332055 0.0116617391907 -2.8418664657e-23)
(-0.0408356271622 0.0134597215269 -1.61446425875e-23)
(-0.0419315846959 0.0153365645572 -1.41929110701e-23)
(-0.0431557112599 0.017276833888 -1.29496135976e-23)
(-0.0444913570801 0.0192650370464 6.87814113555e-24)
(-0.0459558883669 0.0212740927394 1.2471623838e-22)
(-0.0476552909079 0.0232516228945 4.12578713023e-22)
(-0.0497301827802 0.0251687113338 -7.42684113652e-23)
(-0.0518122562672 0.0266647434338 -2.06313658438e-21)
(-0.0525048043096 0.0263710606316 -7.07009271e-21)
(-0.0422085808791 0.0234497681221 -1.13556586664e-20)
(0.0847594156124 0.0220030256577 -1.19130078023e-20)
(0.0179057373079 -0.0100451251819 -8.01442497363e-21)
)
;

boundaryField
{
    back
    {
        type            noSlip;
    }
    sides
    {
        type            noSlip;
    }
    bottom
    {
        type            noSlip;
    }
    front
    {
        type            noSlip;
    }
    atmosphere
    {
        type            pressureInletOutletVelocity;
        value           nonuniform List<vector> 9((0 -0.061618144147 0) (0 -0.0406388556623 0) (0 0.00531529964575 0) (-0.0542804366179 0.00654322593334 -2.54912058186e-20) (-0.0417939164378 0.00191392512219 -1.22971397423e-20) (0 -0.0116772418774 0) (0 -0.0190361443865 0) (0 -0.0189381604424 0) (0 -0.0100451251819 0));
    }
    floatingObject
    {
        type            movingWallVelocity;
        value           nonuniform List<vector> 0();
    }
    procBoundary0to1
    {
        type            processor;
        value           nonuniform List<vector> 10((-0.0194699209843 0.0241423938269 -3.81797716862e-23) (-0.0193280803074 0.0274658615219 -1.87690887547e-23) (-0.0192669297987 0.031159738382 -8.50427039833e-23) (-0.0194329301897 0.0353137551281 -9.12441145785e-23) (-0.0201249752084 0.0400716808704 -1.10148205519e-21) (-0.0214912560954 0.0460617845275 -9.30530989585e-23) (-0.0237889094225 0.0531126641039 1.42787202388e-21) (-0.0267838452435 0.0588769296082 -2.88231972205e-21) (-0.0294126953134 0.0710775868086 -5.26098984e-20) (-0.576312753838 0.139338082526 3.33060087867e-20));
    }
    procBoundary0to2
    {
        type            processor;
        value           nonuniform List<vector> 
14
(
(-0.0199860481034 0.0158039127996 2.92231755522e-25)
(-0.0198202288039 0.018360934889 2.72497398955e-23)
(-0.0196445239356 0.0211268105229 3.99362084338e-23)
(-0.0224501426076 0.0112376186998 2.02085852642e-23)
(-0.0224429956332 0.0134916944128 3.41111081443e-23)
(-0.0224429956332 0.0134916944128 3.41111081443e-23)
(-0.02692993496 0.00109983181116 -5.5241578013e-22)
(-0.0258219048313 0.00310177849109 2.10435688877e-22)
(-0.0245649524074 0.00906258031789 -3.48423736951e-23)
(-0.0245649524074 0.00906258031789 -3.48423736951e-23)
(-0.0268526767308 0.00491008276055 2.61648652807e-22)
(-0.0268526767308 0.00491008276055 2.61648652807e-22)
(-0.0265870981658 0.00694536340611 1.94673875716e-22)
(-0.0265870981658 0.00694536340611 1.94673875716e-22)
)
;
    }
    procBoundary0to4
    {
        type            processor;
        value           nonuniform List<vector> 8((-0.0412900044378 0.000676430006593 -3.40487520396e-22) (-0.0397823544073 0.00213523000243 -7.2297832466e-23) (-0.0387556744367 0.00337782419671 -1.23042699373e-22) (-0.0386936588568 0.00476500939781 4.68800402364e-23) (-0.0391232657077 0.00615194757303 -6.26561661078e-24) (-0.0397856400198 0.00759956368378 -1.17909626739e-23) (-0.0405997438504 0.0091157549703 -9.2961359992e-24) (-0.041547385468 0.0107056406984 -7.45488614832e-24));
    }
    procBoundary0to5
    {
        type            processor;
        value           nonuniform List<vector> 
12
(
(-0.042612345735 0.0123897157137 1.8196460766e-24)
(-0.0437906735993 0.0141540361919 -6.8332986985e-24)
(-0.0450740437282 0.0159922805032 -9.94148531275e-24)
(-0.0464431832062 0.0178917297378 6.10522062672e-24)
(-0.0479015324078 0.019808741138 1.32895495752e-22)
(-0.049495858671 0.0216781846254 2.1372359948e-22)
(-0.0513080722385 0.0235448977671 -6.53104386819e-23)
(-0.0528349302532 0.0245510259691 -1.46663246459e-21)
(-0.0518438553351 0.0238855892061 -5.01328707299e-21)
(-0.0371460935264 0.0177095911985 -8.76571355774e-21)
(0.0926854813143 0.0241835513273 -1.36962070591e-20)
(0.0381063077245 0.0317496976709 -9.72505997467e-21)
)
;
    }
}


// ************************************************************************* //
