/*--------------------------------*- C++ -*----------------------------------*\
| =========                 |                                                 |
| \\      /  F ield         | OpenFOAM: The Open Source CFD Toolbox           |
|  \\    /   O peration     | Version:  v2012                                 |
|   \\  /    A nd           | Website:  www.openfoam.com                      |
|    \\/     M anipulation  |                                                 |
\*---------------------------------------------------------------------------*/
FoamFile
{
    version     2.0;
    format      ascii;
    class       volScalarField;
    location    "4.6";
    object      ddt0(k);
}
// * * * * * * * * * * * * * * * * * * * * * * * * * * * * * * * * * * * * * //

dimensions      [0 2 -3 0 0 0 0];


internalField   nonuniform List<scalar> 
167
(
-0.000872772002398
-0.000883348792631
-0.000895965468897
-0.000905523022525
-0.000963184034641
-0.000750002690488
0.00665825347042
0.0426107747782
0.0290438465267
-0.000882603825833
-0.000900851472428
-0.000925467617313
-0.00103007098964
-0.00117731414728
0.0036392885298
0.0452808586711
0.0509680847799
-0.000883207482417
-0.00090987283336
-0.000951452441746
-0.00106909518662
-0.00131761384182
0.00236755192847
0.0456446875092
0.0491007270675
-0.000864226609503
-0.00088208232371
-0.000918074301186
-0.00100023386321
-0.00117543589783
-0.00148241544773
0.00139447039257
0.0366369512354
0.0408302889708
-0.000861590514451
-0.000881391438298
-0.000923521689588
-0.0010246736395
-0.00131340820618
-0.00203237163607
-0.00145637187436
0.0310087253912
0.0579103643158
-0.00085923231686
-0.00088087902968
-0.000928312875647
-0.00104606682952
-0.00137661293089
-0.00219812599301
-0.00264592563027
0.0286525854047
0.11481078346
-0.000846381705651
-0.000857492828938
-0.000880608359054
-0.000932404212434
-0.00106382087455
-0.0014311816664
-0.00228718214484
-0.00292412476234
0.0268799489721
-0.1369278215
-0.000838598172769
-0.000844675688401
-0.000856032802392
-0.000880951433546
-0.000937270814379
-0.00108332970513
-0.00150081151064
-0.00244665607757
-0.00305593743148
0.0144782079355
-0.155342251058
-0.000836782160899
-0.000842846015136
-0.000855171412178
-0.000882408313447
-0.000945051686364
-0.00111252769212
-0.00160504813992
-0.00274333064948
-0.00393176184201
-0.00741011999391
0.0125830218542
-0.000841032041536
-0.000854899239041
-0.000884910021437
-0.000955571122825
-0.00114976200712
-0.00172903578945
-0.0030930863246
-0.00496743026378
-0.0189340845019
-0.15243014992
-0.000840051334579
-0.000854895297017
-0.000887784814141
-0.000966666163297
-0.00118635517616
-0.00183943209434
-0.00337850613955
-0.00560134655542
-0.0171836606497
-0.194597530554
-0.000838691954364
-0.000854386794438
-0.000890019408888
-0.000976323599888
-0.00121562978128
-0.00191762631152
-0.00355829941751
-0.00568045976642
0.000409957769778
0.156178789586
-0.000835302549045
-0.000851617598223
-0.000889516794093
-0.000981761881934
-0.00123417511427
-0.00196663667815
-0.00368372248637
-0.00536283141251
0.0128052214009
0.287723955591
-0.000826323075968
-0.000842590114168
-0.000881641058077
-0.000977365030008
-0.00123832903038
-0.00200011936652
-0.00383747763761
-0.00583242227537
0.00652417835415
0.262636415353
-0.000797213850438
-0.000803387267142
-0.000818649269199
-0.000856639030659
-0.000951325211212
-0.00121272812401
-0.00198980332397
-0.00391265575838
-0.0065248072268
-0.00125819174486
0.0710790297357
-0.000742697266986
-0.000747181739685
-0.000759856619536
-0.000793260692452
-0.000878779576963
-0.0011223987025
-0.00187598014258
-0.0037748364988
-0.00674653886245
-0.0127217255323
0.142708081727
-0.000589986108234
-0.000591622008765
-0.000598942396245
-0.000620708161239
-0.000678286052378
-0.000847354516931
-0.00142783039284
-0.00307343883084
-0.00589035935402
-0.0100739671575
0.0883087654181
)
;

boundaryField
{
    back
    {
        type            calculated;
        value           nonuniform List<scalar> 
167
(
-0.000872772002398
-0.000883348792631
-0.000895965468897
-0.000905523022525
-0.00096318403464
-0.000750002690488
0.00665825347042
0.0426107747782
0.0290438465267
-0.000882603825833
-0.000900851472428
-0.000925467617313
-0.00103007098964
-0.00117731414728
0.0036392885298
0.0452808586711
0.0509680847799
-0.000883207482417
-0.00090987283336
-0.000951452441746
-0.00106909518662
-0.00131761384182
0.00236755192847
0.0456446875092
0.0491007270675
-0.000864226609503
-0.00088208232371
-0.000918074301186
-0.00100023386321
-0.00117543589783
-0.00148241544773
0.00139447039257
0.0366369512354
0.0408302889708
-0.000861590514451
-0.000881391438298
-0.000923521689588
-0.0010246736395
-0.00131340820618
-0.00203237163607
-0.00145637187436
0.0310087253912
0.0579103643158
-0.00085923231686
-0.00088087902968
-0.000928312875647
-0.00104606682952
-0.00137661293089
-0.00219812599301
-0.00264592563027
0.0286525854047
0.11481078346
-0.000846381705651
-0.000857492828938
-0.000880608359054
-0.000932404212434
-0.00106382087455
-0.0014311816664
-0.00228718214484
-0.00292412476234
0.0268799489721
-0.1369278215
-0.000838598172769
-0.000844675688401
-0.000856032802392
-0.000880951433546
-0.000937270814379
-0.00108332970513
-0.00150081151064
-0.00244665607757
-0.00305593743148
0.0144782079355
-0.155342251058
-0.000836782160899
-0.000842846015136
-0.000855171412178
-0.000882408313447
-0.000945051686364
-0.00111252769212
-0.00160504813992
-0.00274333064948
-0.00393176184201
-0.00741011999391
0.0125830218542
-0.000841032041535
-0.000854899239041
-0.000884910021437
-0.000955571122825
-0.00114976200712
-0.00172903578945
-0.0030930863246
-0.00496743026378
-0.0189340845019
-0.15243014992
-0.000840051334579
-0.000854895297017
-0.000887784814141
-0.000966666163297
-0.00118635517616
-0.00183943209434
-0.00337850613955
-0.00560134655542
-0.0171836606497
-0.194597530554
-0.000838691954364
-0.000854386794438
-0.000890019408888
-0.000976323599888
-0.00121562978128
-0.00191762631152
-0.00355829941751
-0.00568045976642
0.000409957769778
0.156178789586
-0.000835302549045
-0.000851617598223
-0.000889516794093
-0.000981761881934
-0.00123417511427
-0.00196663667815
-0.00368372248637
-0.00536283141251
0.0128052214009
0.287723955591
-0.000826323075968
-0.000842590114168
-0.000881641058077
-0.000977365030008
-0.00123832903038
-0.00200011936652
-0.00383747763761
-0.00583242227537
0.00652417835415
0.262636415353
-0.000797213850438
-0.000803387267142
-0.000818649269199
-0.000856639030659
-0.000951325211212
-0.00121272812401
-0.00198980332397
-0.00391265575838
-0.0065248072268
-0.00125819174486
0.0710790297357
-0.000742697266986
-0.000747181739685
-0.000759856619536
-0.000793260692452
-0.000878779576963
-0.0011223987025
-0.00187598014258
-0.0037748364988
-0.00674653886245
-0.0127217255323
0.142708081727
-0.000589986108234
-0.000591622008765
-0.000598942396245
-0.00062070816124
-0.000678286052378
-0.000847354516931
-0.00142783039284
-0.00307343883084
-0.00589035935402
-0.0100739671575
0.0883087654181
)
;
    }
    sides
    {
        type            calculated;
        value           nonuniform List<scalar> 
11
(
-0.000589986108234
-0.000591622008765
-0.000598942396245
-0.00062070816124
-0.000678286052378
-0.000847354516931
-0.00142783039284
-0.00307343883084
-0.00589035935402
-0.0100739671575
0.0883087654181
)
;
    }
    bottom
    {
        type            calculated;
        value           nonuniform List<scalar> 0();
    }
    front
    {
        type            calculated;
        value           nonuniform List<scalar> 
167
(
-0.000872772002398
-0.000883348792631
-0.000895965468897
-0.000905523022525
-0.00096318403464
-0.000750002690488
0.00665825347042
0.0426107747782
0.0290438465267
-0.000882603825833
-0.000900851472428
-0.000925467617313
-0.00103007098964
-0.00117731414728
0.0036392885298
0.0452808586711
0.0509680847799
-0.000883207482417
-0.00090987283336
-0.000951452441746
-0.00106909518662
-0.00131761384182
0.00236755192847
0.0456446875092
0.0491007270675
-0.000864226609503
-0.00088208232371
-0.000918074301186
-0.00100023386321
-0.00117543589783
-0.00148241544773
0.00139447039257
0.0366369512354
0.0408302889708
-0.000861590514451
-0.000881391438298
-0.000923521689588
-0.0010246736395
-0.00131340820618
-0.00203237163607
-0.00145637187436
0.0310087253912
0.0579103643158
-0.00085923231686
-0.00088087902968
-0.000928312875647
-0.00104606682952
-0.00137661293089
-0.00219812599301
-0.00264592563027
0.0286525854047
0.11481078346
-0.000846381705651
-0.000857492828938
-0.000880608359054
-0.000932404212434
-0.00106382087455
-0.0014311816664
-0.00228718214484
-0.00292412476234
0.0268799489721
-0.1369278215
-0.000838598172769
-0.000844675688401
-0.000856032802392
-0.000880951433546
-0.000937270814379
-0.00108332970513
-0.00150081151064
-0.00244665607757
-0.00305593743148
0.0144782079355
-0.155342251058
-0.000836782160899
-0.000842846015136
-0.000855171412178
-0.000882408313447
-0.000945051686364
-0.00111252769212
-0.00160504813992
-0.00274333064948
-0.00393176184201
-0.00741011999391
0.0125830218542
-0.000841032041535
-0.000854899239041
-0.000884910021437
-0.000955571122825
-0.00114976200712
-0.00172903578945
-0.0030930863246
-0.00496743026378
-0.0189340845019
-0.15243014992
-0.000840051334579
-0.000854895297017
-0.000887784814141
-0.000966666163297
-0.00118635517616
-0.00183943209434
-0.00337850613955
-0.00560134655542
-0.0171836606497
-0.194597530554
-0.000838691954364
-0.000854386794438
-0.000890019408888
-0.000976323599888
-0.00121562978128
-0.00191762631152
-0.00355829941751
-0.00568045976642
0.000409957769778
0.156178789586
-0.000835302549045
-0.000851617598223
-0.000889516794093
-0.000981761881934
-0.00123417511427
-0.00196663667815
-0.00368372248637
-0.00536283141251
0.0128052214009
0.287723955591
-0.000826323075968
-0.000842590114168
-0.000881641058077
-0.000977365030008
-0.00123832903038
-0.00200011936652
-0.00383747763761
-0.00583242227537
0.00652417835415
0.262636415353
-0.000797213850438
-0.000803387267142
-0.000818649269199
-0.000856639030659
-0.000951325211212
-0.00121272812401
-0.00198980332397
-0.00391265575838
-0.0065248072268
-0.00125819174486
0.0710790297357
-0.000742697266986
-0.000747181739685
-0.000759856619536
-0.000793260692452
-0.000878779576963
-0.0011223987025
-0.00187598014258
-0.0037748364988
-0.00674653886245
-0.0127217255323
0.142708081727
-0.000589986108234
-0.000591622008765
-0.000598942396245
-0.00062070816124
-0.000678286052378
-0.000847354516931
-0.00142783039284
-0.00307343883084
-0.00589035935402
-0.0100739671575
0.0883087654181
)
;
    }
    atmosphere
    {
        type            calculated;
        value           nonuniform List<scalar> 
17
(
0.0237710524674
-0.0975251142059
-0.105486855076
-0.125597908737
0.229544971658
0.879621612087
-0.92444247734
-1.12433468855
1.66198747655
0.00697998399546
-0.646819429181
-0.63559598279
0.949362587555
0.14183603831
-1.50988891579
-0.46516434392
0.0883089261366
)
;
    }
    floatingObject
    {
        type            calculated;
        value           nonuniform List<scalar> 0();
    }
    procBoundary11to9
    {
        type            processor;
        value           nonuniform List<scalar> 9(-0.000875604278438 -0.000884579210723 -0.000892099634831 -0.000885892397456 -0.00087153283258 -0.000156541236062 0.00867096649619 0.0323218457412 0.00825547000943);
    }
    procBoundary11to10
    {
        type            processor;
        value           nonuniform List<scalar> 
23
(
-0.000866094384835
-0.000870090091284
-0.000870090091284
-0.000867315667538
-0.000867315667538
-0.000855805072834
-0.000852606859587
-0.000849478562305
-0.000849478562305
-0.000841764861244
-0.000841764861244
-0.00083653842927
-0.000834247633504
-0.000834907423019
-0.000834907423019
-0.000833945101771
-0.000832052040751
-0.000828420159538
-0.000819338450577
-0.000819338450577
-0.000794341401423
-0.000740901507481
-0.000589651711524
)
;
    }
}


// ************************************************************************* //
