/*--------------------------------*- C++ -*----------------------------------*\
| =========                 |                                                 |
| \\      /  F ield         | OpenFOAM: The Open Source CFD Toolbox           |
|  \\    /   O peration     | Version:  v2012                                 |
|   \\  /    A nd           | Website:  www.openfoam.com                      |
|    \\/     M anipulation  |                                                 |
\*---------------------------------------------------------------------------*/
FoamFile
{
    version     2.0;
    format      ascii;
    class       volScalarField;
    location    "4.6";
    object      epsilon;
}
// * * * * * * * * * * * * * * * * * * * * * * * * * * * * * * * * * * * * * //

dimensions      [0 2 -3 0 0 0 0];


internalField   nonuniform List<scalar> 
167
(
0.000924649744391
0.000951901430588
0.00101659668533
0.00119297331921
0.00170961660515
0.00318425033349
0.00813770542826
0.0358301226387
0.15763981034
0.000949373793099
0.00101350440463
0.00118646418455
0.00169168988376
0.00312094040763
0.00748804648708
0.0297742793678
0.151203148482
0.000946864316219
0.00101084905836
0.0011816155936
0.00168065690727
0.00310286769009
0.00732599213975
0.0281247146336
0.150465674806
0.000916362917775
0.000944696785918
0.00100953161204
0.00118087635259
0.00167878838026
0.00309660940563
0.00725751063615
0.0273134176596
0.150739861331
0.000913620654952
0.000942776766352
0.00100931927233
0.00118380292394
0.00168241334174
0.00307740094781
0.00698953709234
0.0235205849609
0.144127153218
0.000910863080031
0.000940807483279
0.00100891228547
0.00118613797595
0.00168443020086
0.00305244395115
0.00679871631725
0.0209040077559
0.129195695859
0.000892676630307
0.000908060603223
0.000938593214533
0.00100752951609
0.00118546670089
0.00167988166546
0.00302198911599
0.00676702012861
0.0213838240267
0.11571749865
0.000880340526121
0.000889495798531
0.000905238404121
0.00093620507653
0.00100542550523
0.00118271428714
0.00167227894419
0.00298898928326
0.00670711803213
0.0219863663148
0.115509207206
0.000876936560619
0.000886351155465
0.000902466552397
0.000933912461559
0.00100361862114
0.00118129491344
0.00167038798143
0.00297584433704
0.00669599683697
0.0224635363143
0.102730419898
0.000883215297506
0.000899762946
0.000931869296562
0.00100273047505
0.00118288796061
0.00167710654334
0.00298756409213
0.00677037626383
0.0234742955214
0.0928736832509
0.000879985248106
0.000896990705264
0.000929903429235
0.00100236969741
0.00118599483431
0.00168693493435
0.00300758685572
0.00685362467385
0.0242628199259
0.104313839695
0.000876137945891
0.00089360972695
0.000927379508126
0.00100147055478
0.00118776700192
0.00169165963831
0.00301081101625
0.00685172857479
0.0251853147861
0.154273499372
0.000870172285755
0.000888046059884
0.00092254892003
0.000997856983581
0.00118512962257
0.0016866286834
0.00298708818857
0.00667138146666
0.0251098650023
0.183638647625
0.00085810186638
0.000876070663705
0.000910769495581
0.000986219847659
0.00117256566542
0.00167092701207
0.00296199149477
0.00651284154776
0.0237136053112
0.166703037679
0.000818824980863
0.000829220201239
0.000846616840263
0.00088018326475
0.000953087853653
0.00113358995388
0.00162137237945
0.00290111651524
0.00641825384703
0.0225407285553
0.142645877631
0.000746336637621
0.000755847685677
0.000771454184096
0.000801210899676
0.000865552554844
0.0010264117957
0.00147208914633
0.00266716863603
0.0059748388288
0.020268782864
0.10583333484
0.000718321808451
0.000728152914735
0.000743111410006
0.00076983047831
0.000824777221805
0.000959265425524
0.00135107061238
0.00248487831688
0.00555646435355
0.0185169334574
0.0926712039504
)
;

boundaryField
{
    back
    {
        lowReCorrection 0;
        blending        stepwise;
        n               2;
        type            epsilonWallFunction;
        value           nonuniform List<scalar> 
167
(
0.000924649744391
0.000951901430588
0.00101659668533
0.00119297331921
0.00170961660515
0.00318425033349
0.00813770542826
0.0358301226387
0.15763981034
0.000949373793099
0.00101350440463
0.00118646418455
0.00169168988376
0.00312094040763
0.00748804648708
0.0297742793678
0.151203148482
0.000946864316219
0.00101084905836
0.0011816155936
0.00168065690727
0.00310286769009
0.00732599213975
0.0281247146336
0.150465674806
0.000916362917775
0.000944696785918
0.00100953161204
0.00118087635259
0.00167878838026
0.00309660940563
0.00725751063615
0.0273134176596
0.150739861331
0.000913620654952
0.000942776766352
0.00100931927233
0.00118380292394
0.00168241334174
0.00307740094781
0.00698953709234
0.0235205849609
0.144127153218
0.000910863080031
0.000940807483279
0.00100891228547
0.00118613797595
0.00168443020086
0.00305244395115
0.00679871631725
0.0209040077559
0.129195695859
0.000892676630307
0.000908060603223
0.000938593214533
0.00100752951609
0.00118546670089
0.00167988166546
0.00302198911599
0.00676702012861
0.0213838240267
0.11571749865
0.000880340526121
0.000889495798531
0.000905238404121
0.00093620507653
0.00100542550523
0.00118271428714
0.00167227894419
0.00298898928326
0.00670711803213
0.0219863663148
0.115509207206
0.000876936560619
0.000886351155465
0.000902466552397
0.000933912461559
0.00100361862114
0.00118129491344
0.00167038798143
0.00297584433704
0.00669599683697
0.0224635363143
0.102730419898
0.000883215297506
0.000899762946
0.000931869296562
0.00100273047505
0.00118288796061
0.00167710654334
0.00298756409213
0.00677037626383
0.0234742955214
0.0928736832509
0.000879985248106
0.000896990705264
0.000929903429235
0.00100236969741
0.00118599483431
0.00168693493435
0.00300758685572
0.00685362467385
0.0242628199259
0.104313839695
0.000876137945891
0.00089360972695
0.000927379508126
0.00100147055478
0.00118776700192
0.00169165963831
0.00301081101625
0.00685172857479
0.0251853147861
0.154273499372
0.000870172285755
0.000888046059884
0.00092254892003
0.000997856983581
0.00118512962257
0.0016866286834
0.00298708818857
0.00667138146666
0.0251098650023
0.183638647625
0.00085810186638
0.000876070663705
0.000910769495581
0.000986219847659
0.00117256566542
0.00167092701207
0.00296199149477
0.00651284154776
0.0237136053112
0.166703037679
0.000818824980863
0.000829220201239
0.000846616840263
0.00088018326475
0.000953087853653
0.00113358995388
0.00162137237945
0.00290111651524
0.00641825384703
0.0225407285553
0.142645877631
0.000746336637621
0.000755847685677
0.000771454184096
0.000801210899676
0.000865552554844
0.0010264117957
0.00147208914633
0.00266716863603
0.0059748388288
0.020268782864
0.10583333484
0.000718321808451
0.000728152914735
0.000743111410006
0.00076983047831
0.000824777221805
0.000959265425524
0.00135107061238
0.00248487831688
0.00555646435355
0.0185169334574
0.0926712039504
)
;
    }
    sides
    {
        lowReCorrection 0;
        blending        stepwise;
        n               2;
        type            epsilonWallFunction;
        value           nonuniform List<scalar> 
11
(
0.000718321808451
0.000728152914735
0.000743111410006
0.00076983047831
0.000824777221805
0.000959265425524
0.00135107061238
0.00248487831688
0.00555646435355
0.0185169334574
0.0926712039504
)
;
    }
    bottom
    {
        lowReCorrection 0;
        blending        stepwise;
        n               2;
        type            epsilonWallFunction;
        value           nonuniform List<scalar> 0();
    }
    front
    {
        lowReCorrection 0;
        blending        stepwise;
        n               2;
        type            epsilonWallFunction;
        value           nonuniform List<scalar> 
167
(
0.000924649744391
0.000951901430588
0.00101659668533
0.00119297331921
0.00170961660515
0.00318425033349
0.00813770542826
0.0358301226387
0.15763981034
0.000949373793099
0.00101350440463
0.00118646418455
0.00169168988376
0.00312094040763
0.00748804648708
0.0297742793678
0.151203148482
0.000946864316219
0.00101084905836
0.0011816155936
0.00168065690727
0.00310286769009
0.00732599213975
0.0281247146336
0.150465674806
0.000916362917775
0.000944696785918
0.00100953161204
0.00118087635259
0.00167878838026
0.00309660940563
0.00725751063615
0.0273134176596
0.150739861331
0.000913620654952
0.000942776766352
0.00100931927233
0.00118380292394
0.00168241334174
0.00307740094781
0.00698953709234
0.0235205849609
0.144127153218
0.000910863080031
0.000940807483279
0.00100891228547
0.00118613797595
0.00168443020086
0.00305244395115
0.00679871631725
0.0209040077559
0.129195695859
0.000892676630307
0.000908060603223
0.000938593214533
0.00100752951609
0.00118546670089
0.00167988166546
0.00302198911599
0.00676702012861
0.0213838240267
0.11571749865
0.000880340526121
0.000889495798531
0.000905238404121
0.00093620507653
0.00100542550523
0.00118271428714
0.00167227894419
0.00298898928326
0.00670711803213
0.0219863663148
0.115509207206
0.000876936560619
0.000886351155465
0.000902466552397
0.000933912461559
0.00100361862114
0.00118129491344
0.00167038798143
0.00297584433704
0.00669599683697
0.0224635363143
0.102730419898
0.000883215297506
0.000899762946
0.000931869296562
0.00100273047505
0.00118288796061
0.00167710654334
0.00298756409213
0.00677037626383
0.0234742955214
0.0928736832509
0.000879985248106
0.000896990705264
0.000929903429235
0.00100236969741
0.00118599483431
0.00168693493435
0.00300758685572
0.00685362467385
0.0242628199259
0.104313839695
0.000876137945891
0.00089360972695
0.000927379508126
0.00100147055478
0.00118776700192
0.00169165963831
0.00301081101625
0.00685172857479
0.0251853147861
0.154273499372
0.000870172285755
0.000888046059884
0.00092254892003
0.000997856983581
0.00118512962257
0.0016866286834
0.00298708818857
0.00667138146666
0.0251098650023
0.183638647625
0.00085810186638
0.000876070663705
0.000910769495581
0.000986219847659
0.00117256566542
0.00167092701207
0.00296199149477
0.00651284154776
0.0237136053112
0.166703037679
0.000818824980863
0.000829220201239
0.000846616840263
0.00088018326475
0.000953087853653
0.00113358995388
0.00162137237945
0.00290111651524
0.00641825384703
0.0225407285553
0.142645877631
0.000746336637621
0.000755847685677
0.000771454184096
0.000801210899676
0.000865552554844
0.0010264117957
0.00147208914633
0.00266716863603
0.0059748388288
0.020268782864
0.10583333484
0.000718321808451
0.000728152914735
0.000743111410006
0.00076983047831
0.000824777221805
0.000959265425524
0.00135107061238
0.00248487831688
0.00555646435355
0.0185169334574
0.0926712039504
)
;
    }
    atmosphere
    {
        type            inletOutlet;
        inletValue      uniform 0.1;
        value           nonuniform List<scalar> 
17
(
0.1
0.1
0.1
0.1
0.1
0.1
0.1
0.1
0.102730419898
0.0928736832509
0.1
0.1
0.1
0.1
0.142645877631
0.10583333484
0.0926712039504
)
;
    }
    floatingObject
    {
        lowReCorrection 0;
        blending        stepwise;
        n               2;
        type            epsilonWallFunction;
        value           nonuniform List<scalar> 0();
    }
    procBoundary11to9
    {
        type            processor;
        value           nonuniform List<scalar> 9(0.000927205000802 0.000954192944786 0.00101927001845 0.00119932852432 0.00173496138641 0.00331966870908 0.00927023567339 0.0426775181292 0.163291892307);
    }
    procBoundary11to10
    {
        type            processor;
        value           nonuniform List<scalar> 
23
(
0.000911336721221
0.000921922852427
0.000921922852427
0.000919134857015
0.000919134857015
0.000902231143289
0.000899077548243
0.000895881876668
0.000895881876668
0.000883790368033
0.000883790368033
0.000874126851218
0.000870515177255
0.000873530218463
0.000873530218463
0.000870038804451
0.000865911855514
0.000859762805718
0.000847575513861
0.000847575513861
0.000811623352752
0.00073953873698
0.000710708890579
)
;
    }
}


// ************************************************************************* //
