/*--------------------------------*- C++ -*----------------------------------*\
| =========                 |                                                 |
| \\      /  F ield         | OpenFOAM: The Open Source CFD Toolbox           |
|  \\    /   O peration     | Version:  v2012                                 |
|   \\  /    A nd           | Website:  www.openfoam.com                      |
|    \\/     M anipulation  |                                                 |
\*---------------------------------------------------------------------------*/
FoamFile
{
    version     2.0;
    format      ascii;
    class       volScalarField;
    location    "3.6";
    object      nut;
}
// * * * * * * * * * * * * * * * * * * * * * * * * * * * * * * * * * * * * * //

dimensions      [0 2 -1 0 0 0 0];


internalField   nonuniform List<scalar> 
167
(
0.000319670516961
0.000388710775136
0.000397656001996
0.000401052273336
0.000402723126583
0.000403884397269
0.000404916999051
0.000405945069122
0.000389253594527
0.000575617687072
0.000591731894107
0.000597642690703
0.000600267237721
0.000601869524039
0.000603184395059
0.000604463489765
0.000398870044663
0.000593176340412
0.000610867477212
0.000617300516816
0.000620047458749
0.000621647909502
0.000622941413679
0.000624202321817
0.000402655597972
0.000599974542457
0.000618306159759
0.00062494342736
0.000627710355057
0.000629277899653
0.000630534206601
0.00063177070522
0.000633136959373
0.000404451365616
0.00060300071149
0.000621572939309
0.000628265498379
0.000631003464846
0.000632519430068
0.000633726134283
0.000634923503533
0.000636264403367
0.000637998696427
0.000405563792711
0.000604689555236
0.00062333912051
0.000630023419739
0.000632711723222
0.000634167288249
0.000635317599139
0.000636466532112
0.000637764403168
0.000639453005578
0.000406438138742
0.000605915856549
0.000624578549038
0.000631231099435
0.00063386430529
0.000635258440606
0.000636350760475
0.000637446292059
0.000638693090939
0.000640322153188
0.000407231943825
0.000606976218857
0.000625635347075
0.000632252878422
0.000634833919053
0.00063617070029
0.00063720617751
0.00063824836699
0.000639442077754
0.000641006784501
0.000407985626978
0.000607974379711
0.000626627356921
0.000633213119988
0.000635747542561
0.000637033296238
0.000638016917951
0.000639008024911
0.000640148405471
0.000641647944009
0.000408713305313
0.000608942794233
0.000627590995123
0.00063415019659
0.000636644217696
0.000637884231432
0.000638821826711
0.000639766096976
0.000640856685881
0.000642293002136
0.000409419867236
0.000609883610423
0.000628533521398
0.000635072165154
0.000637532293979
0.000638732553295
0.000639628766013
0.000640530949966
0.000641575205748
0.000642952172829
0.000410103106071
0.000610799122069
0.000629454971282
0.000635977965618
0.000638409852399
0.000639576225792
0.000640436042078
0.000641300247417
0.000642302448013
0.000643623556003
0.000410753399965
0.000611685854749
0.000630352811754
0.000636864560162
0.000639272730079
0.000640410192716
0.000641238812122
0.0006420693903
0.000643033029618
0.000644301879996
0.000411376656762
0.00061254284815
0.000631223867335
0.000637727884146
0.000640116510931
0.000641229265056
0.000642030937973
0.000642832439767
0.000643761359574
0.000644981724269
0.000411971012626
0.000613362295103
0.000632063408907
0.000638564297065
0.000640937129939
0.000642028748
0.000642806651083
0.000643583226978
0.000644482013706
0.000645658733555
0.000412529349087
0.00061414378292
0.000632867953579
0.000639369707268
0.000641729839954
0.000642804060648
0.000643563211592
0.00064431779094
0.00064519163536
0.000646328051932
0.000413050984859
0.000614884738144
0.000633634634333
0.000640139004554
0.000642491689499
0.000643552744064
0.000644295490148
0.000413539389469
0.000615580015226
0.000634359554089
0.000640872196616
0.000643218750145
0.000635039507897
0.000641563717108
)
;

boundaryField
{
    back
    {
        type            nutkWallFunction;
        blending        stepwise;
        Cmu             0.09;
        kappa           0.41;
        E               9.8;
        value           nonuniform List<scalar> 
167
(
5.1120091366e-05
5.48632339646e-05
5.60088892242e-05
5.64427365045e-05
5.66556171613e-05
5.680330039e-05
5.69344592692e-05
5.70648172792e-05
5.49328515897e-05
6.03567577918e-05
6.1891236712e-05
6.24525336757e-05
6.27010681113e-05
6.28525287653e-05
6.29766936719e-05
6.3097258369e-05
5.61601305081e-05
6.20227541882e-05
6.37023623291e-05
6.43113514198e-05
6.45706059905e-05
6.47212537644e-05
6.48428066381e-05
6.49610872638e-05
5.66410024844e-05
6.26640508696e-05
6.44021319221e-05
6.50295155356e-05
6.52901985683e-05
6.54374116387e-05
6.55551610924e-05
6.56707519624e-05
6.57979176632e-05
5.68689413224e-05
6.29487250622e-05
6.47084178848e-05
6.53405143463e-05
6.5598213558e-05
6.57403958763e-05
6.58533119388e-05
6.5965091388e-05
6.60896293593e-05
6.62493044133e-05
5.70106787918e-05
6.31078056494e-05
6.48740753184e-05
6.55050621943e-05
6.57579322123e-05
6.58943435766e-05
6.60018837912e-05
6.61090548668e-05
6.62295253583e-05
6.63849100461e-05
5.71226115105e-05
6.32238192028e-05
6.49907464431e-05
6.56184833446e-05
6.58660609796e-05
6.59966515465e-05
6.60987223764e-05
6.6200869985e-05
6.63165817397e-05
6.646652786e-05
5.72246447644e-05
6.33245173886e-05
6.5090598224e-05
6.57148042776e-05
6.59573876693e-05
6.60825652683e-05
6.61792971838e-05
6.62764570358e-05
6.63872599013e-05
6.6531359955e-05
5.73217522138e-05
6.34195641468e-05
6.51845686534e-05
6.58055515222e-05
6.60436653503e-05
6.61640343814e-05
6.62559121446e-05
6.63483135452e-05
6.64541944768e-05
6.65923942363e-05
5.74157001885e-05
6.35119541111e-05
6.52760026795e-05
6.58942446554e-05
6.61284710065e-05
6.62445254681e-05
6.63321021299e-05
6.64201491674e-05
6.652145553e-05
6.66539400406e-05
5.75071292539e-05
6.36018442124e-05
6.53655481512e-05
6.59816022093e-05
6.62125478262e-05
6.63248503875e-05
6.64085578671e-05
6.64927014524e-05
6.65897487105e-05
6.67168845221e-05
5.75957372344e-05
6.3689454807e-05
6.54532006254e-05
6.60675141338e-05
6.62957012537e-05
6.64047996401e-05
6.64851060631e-05
6.65657251787e-05
6.66589203393e-05
6.67810142053e-05
5.76802639365e-05
6.37744584069e-05
6.5538720786e-05
6.61516964888e-05
6.63775404622e-05
6.6483896251e-05
6.65612866577e-05
6.66387892349e-05
6.67284461133e-05
6.68458414524e-05
5.77615336666e-05
6.38567705622e-05
6.56218115722e-05
6.62337677285e-05
6.64576549632e-05
6.6561656614e-05
6.66365249482e-05
6.67113366028e-05
6.67978228897e-05
6.69108623317e-05
5.78392921377e-05
6.39356394249e-05
6.57020265087e-05
6.63133903926e-05
6.65356663454e-05
6.66376516993e-05
6.67103056705e-05
6.6782799122e-05
6.68665408988e-05
6.69756520745e-05
5.79125887315e-05
6.40110370611e-05
6.57790461248e-05
6.63901853628e-05
6.66111570081e-05
6.67114716605e-05
6.67823354022e-05
6.68528099058e-05
6.69342426331e-05
6.70398006072e-05
5.79813428872e-05
6.40827224478e-05
6.58526098211e-05
6.64637141959e-05
6.66838150018e-05
6.67828464162e-05
6.68521912356e-05
5.804607179e-05
6.41501965327e-05
6.59223613605e-05
6.6533889852e-05
6.67533205624e-05
6.59880818733e-05
6.66003333491e-05
)
;
    }
    sides
    {
        type            nutkWallFunction;
        blending        stepwise;
        Cmu             0.09;
        kappa           0.41;
        E               9.8;
        value           nonuniform List<scalar> 8(2.71431748044e-05 2.91445455085e-05 2.97569115091e-05 2.99887856594e-05 3.01025575081e-05 3.01814835737e-05 3.02515774012e-05 3.03212421487e-05);
    }
    bottom
    {
        type            nutkWallFunction;
        blending        stepwise;
        Cmu             0.09;
        kappa           0.41;
        E               9.8;
        value           nonuniform List<scalar> 
18
(
2.71431748044e-05
2.91817593932e-05
2.98377453466e-05
3.00947469388e-05
3.02165634868e-05
3.02923100792e-05
3.03521276755e-05
3.04066542427e-05
3.04585478515e-05
3.0508752493e-05
3.0557610529e-05
3.0604960529e-05
3.06501291337e-05
3.06935568874e-05
3.07351079599e-05
3.07742744363e-05
3.08110133305e-05
3.08456010564e-05
)
;
    }
    front
    {
        type            nutkWallFunction;
        blending        stepwise;
        Cmu             0.09;
        kappa           0.41;
        E               9.8;
        value           nonuniform List<scalar> 
167
(
5.1120091366e-05
5.48632339646e-05
5.60088892242e-05
5.64427365045e-05
5.66556171613e-05
5.680330039e-05
5.69344592692e-05
5.70648172792e-05
5.49328515897e-05
6.03567577918e-05
6.1891236712e-05
6.24525336757e-05
6.27010681113e-05
6.28525287653e-05
6.29766936719e-05
6.3097258369e-05
5.61601305081e-05
6.20227541882e-05
6.37023623291e-05
6.43113514198e-05
6.45706059905e-05
6.47212537644e-05
6.48428066381e-05
6.49610872638e-05
5.66410024844e-05
6.26640508696e-05
6.44021319221e-05
6.50295155356e-05
6.52901985683e-05
6.54374116387e-05
6.55551610924e-05
6.56707519624e-05
6.57979176632e-05
5.68689413224e-05
6.29487250622e-05
6.47084178848e-05
6.53405143463e-05
6.5598213558e-05
6.57403958763e-05
6.58533119388e-05
6.5965091388e-05
6.60896293593e-05
6.62493044133e-05
5.70106787918e-05
6.31078056494e-05
6.48740753184e-05
6.55050621943e-05
6.57579322123e-05
6.58943435766e-05
6.60018837912e-05
6.61090548668e-05
6.62295253583e-05
6.63849100461e-05
5.71226115105e-05
6.32238192028e-05
6.49907464431e-05
6.56184833446e-05
6.58660609796e-05
6.59966515465e-05
6.60987223764e-05
6.6200869985e-05
6.63165817397e-05
6.646652786e-05
5.72246447644e-05
6.33245173886e-05
6.5090598224e-05
6.57148042776e-05
6.59573876693e-05
6.60825652683e-05
6.61792971838e-05
6.62764570358e-05
6.63872599013e-05
6.6531359955e-05
5.73217522138e-05
6.34195641468e-05
6.51845686534e-05
6.58055515222e-05
6.60436653503e-05
6.61640343814e-05
6.62559121446e-05
6.63483135452e-05
6.64541944768e-05
6.65923942363e-05
5.74157001885e-05
6.35119541111e-05
6.52760026795e-05
6.58942446554e-05
6.61284710065e-05
6.62445254681e-05
6.63321021299e-05
6.64201491674e-05
6.652145553e-05
6.66539400406e-05
5.75071292539e-05
6.36018442124e-05
6.53655481512e-05
6.59816022093e-05
6.62125478262e-05
6.63248503875e-05
6.64085578671e-05
6.64927014524e-05
6.65897487105e-05
6.67168845221e-05
5.75957372344e-05
6.3689454807e-05
6.54532006254e-05
6.60675141338e-05
6.62957012537e-05
6.64047996401e-05
6.64851060631e-05
6.65657251787e-05
6.66589203393e-05
6.67810142053e-05
5.76802639365e-05
6.37744584069e-05
6.5538720786e-05
6.61516964888e-05
6.63775404622e-05
6.6483896251e-05
6.65612866577e-05
6.66387892349e-05
6.67284461133e-05
6.68458414524e-05
5.77615336666e-05
6.38567705622e-05
6.56218115722e-05
6.62337677285e-05
6.64576549632e-05
6.6561656614e-05
6.66365249482e-05
6.67113366028e-05
6.67978228897e-05
6.69108623317e-05
5.78392921377e-05
6.39356394249e-05
6.57020265087e-05
6.63133903926e-05
6.65356663454e-05
6.66376516993e-05
6.67103056705e-05
6.6782799122e-05
6.68665408988e-05
6.69756520745e-05
5.79125887315e-05
6.40110370611e-05
6.57790461248e-05
6.63901853628e-05
6.66111570081e-05
6.67114716605e-05
6.67823354022e-05
6.68528099058e-05
6.69342426331e-05
6.70398006072e-05
5.79813428872e-05
6.40827224478e-05
6.58526098211e-05
6.64637141959e-05
6.66838150018e-05
6.67828464162e-05
6.68521912356e-05
5.804607179e-05
6.41501965327e-05
6.59223613605e-05
6.6533889852e-05
6.67533205624e-05
6.59880818733e-05
6.66003333491e-05
)
;
    }
    atmosphere
    {
        type            calculated;
        value           nonuniform List<scalar> 0();
    }
    floatingObject
    {
        type            nutkWallFunction;
        blending        stepwise;
        Cmu             0.09;
        kappa           0.41;
        E               9.8;
        value           nonuniform List<scalar> 0();
    }
    procBoundary2to0
    {
        type            processor;
        value           nonuniform List<scalar> 
14
(
0.000645032555876
0.00064588406272
0.000646987304261
0.00064426918581
0.000645032555876
0.000645001119407
0.000413989291832
0.000616223112232
0.00064426918581
0.000643909342192
0.000616223112232
0.000635671016023
0.000643909342192
0.000642211535665
)
;
    }
    procBoundary2to1
    {
        type            processor;
        value           nonuniform List<scalar> 
18
(
0.000407035060141
0.000605835123557
0.000625579971134
0.000625579971134
0.000634897680671
0.000634897680671
0.000640751018702
0.000642125013103
0.000642900016065
0.000643483090475
0.000644024341656
0.000644569802058
0.00064513472093
0.00064571738205
0.000646310021277
0.000646906030884
0.000647501378958
0.000648098914721
)
;
    }
}


// ************************************************************************* //
