/*--------------------------------*- C++ -*----------------------------------*\
| =========                 |                                                 |
| \\      /  F ield         | OpenFOAM: The Open Source CFD Toolbox           |
|  \\    /   O peration     | Version:  v2012                                 |
|   \\  /    A nd           | Website:  www.openfoam.com                      |
|    \\/     M anipulation  |                                                 |
\*---------------------------------------------------------------------------*/
FoamFile
{
    version     2.0;
    format      ascii;
    class       volVectorField;
    location    "3.6";
    object      U;
}
// * * * * * * * * * * * * * * * * * * * * * * * * * * * * * * * * * * * * * //

dimensions      [0 1 -1 0 0 0 0];


internalField   nonuniform List<vector> 
167
(
(0.000547164313689 -0.000555088342801 6.06629661995e-22)
(0.000891779082245 -0.00185575627531 9.45540756265e-22)
(0.00100885685507 -0.00352819326282 3.1981245517e-22)
(0.00102169552733 -0.00524750420973 -3.63440636459e-22)
(0.00100967557404 -0.00699093834221 -8.55699028001e-22)
(0.00101866781598 -0.00875998741878 -8.01263220256e-22)
(0.00104374805715 -0.0105674707232 -4.8691607771e-22)
(0.00107929263475 -0.0124439542616 3.64634240642e-22)
(0.00187008628016 -0.000900177681232 8.9271949837e-22)
(0.0023079319429 -0.00229879453298 1.14945119688e-21)
(0.0025117946519 -0.00394568065881 4.71567605256e-22)
(0.00259106026052 -0.00567096608105 -3.79512280091e-22)
(0.00263873971384 -0.00745467385062 -1.02283564136e-21)
(0.00270493709697 -0.00929624069614 -9.69493630065e-22)
(0.00280118804129 -0.0111981672251 -7.06804540811e-22)
(0.00291722342792 -0.0131749598071 -1.27788210287e-22)
(0.00352209164104 -0.00100583066609 1.44989401781e-21)
(0.00393724154305 -0.00246681633729 1.77194358152e-21)
(0.0041949745719 -0.0041435545764 9.1672542919e-22)
(0.00434275215263 -0.00588027707696 -3.54128428732e-24)
(0.00445443699759 -0.00767850912088 -5.20736641781e-22)
(0.00458175158536 -0.00954223279091 -5.58377775139e-22)
(0.00474469855209 -0.0114763920087 -3.73975635377e-22)
(0.00494194081296 -0.013491831629 -6.28615536713e-23)
(0.00519937442088 -0.00099664171129 1.45673361557e-21)
(0.00560880003444 -0.00246965337747 1.72697571664e-21)
(0.00590557811137 -0.00415731260755 1.08401916747e-21)
(0.00612057539891 -0.00589605952347 3.07668259159e-22)
(0.0062993973505 -0.00768949795221 -1.22927031024e-22)
(0.00649837988752 -0.00954700873943 -2.17103013445e-22)
(0.00673547043355 -0.0114725162163 -1.65378460716e-22)
(0.00702256555166 -0.0134793023663 1.66561502198e-23)
(0.00735699947679 -0.0155745453994 3.0728396328e-23)
(0.00683686087945 -0.000945046361818 1.05428102537e-21)
(0.00727183061691 -0.00239147631006 1.66094126856e-21)
(0.00760479716611 -0.00405300586162 1.12989865174e-21)
(0.00787208885967 -0.00577306868168 4.67872185539e-22)
(0.00811148108544 -0.00754079150496 8.92626919751e-23)
(0.00837839946326 -0.00936424163221 -2.27219244144e-23)
(0.00869237373148 -0.0112516190926 -2.83431061935e-23)
(0.00906763106817 -0.0132164989849 1.98157020076e-23)
(0.00950006231069 -0.0152747435938 2.38924319574e-23)
(0.00999262589953 -0.0174398810039 -2.37806166513e-23)
(0.00839735893125 -0.000892249513445 8.24191103257e-22)
(0.00889397340815 -0.00228429910794 1.35163000335e-21)
(0.00926922384396 -0.00389926982953 9.89072448601e-22)
(0.00958147535663 -0.00557403415835 4.45241769773e-22)
(0.00987695976184 -0.00729106729309 1.40569787719e-22)
(0.0102063936936 -0.00906032778817 2.47830476133e-23)
(0.0105953857231 -0.0108891780661 3.14119605907e-24)
(0.0110506766368 -0.0127990459968 2.93799840551e-24)
(0.0115778451972 -0.0147990741198 -3.11539913254e-24)
(0.0121886812872 -0.0168938753165 -7.00304185443e-25)
(0.00987362884869 -0.000841226870964 7.36289712764e-22)
(0.0104474507082 -0.00216507959196 1.15176067096e-21)
(0.0108745513184 -0.00371714492867 8.25115517025e-22)
(0.0112364787889 -0.00532585793927 3.62659187393e-22)
(0.011582705095 -0.00697559183766 1.02437913769e-22)
(0.0119696968701 -0.00867593293288 2.49777723986e-23)
(0.012427768865 -0.0104365131036 -1.01289909817e-23)
(0.0129616533043 -0.0122723219833 -1.53372608864e-23)
(0.0135866886832 -0.014189268413 -2.23576553756e-23)
(0.0143026997464 -0.0162018611511 -5.59792274015e-24)
(0.0112648251557 -0.00079204532221 8.92398779326e-22)
(0.0119200178433 -0.00203683741936 1.31402235502e-21)
(0.012406834949 -0.00350921200871 9.20860564732e-22)
(0.0128191607614 -0.00503779593455 4.18041117584e-22)
(0.013214021522 -0.00660912613405 1.28153709496e-22)
(0.0136574118184 -0.00822743540163 3.23153842757e-23)
(0.0141777468989 -0.00990204262781 2.87416917666e-24)
(0.0147916890335 -0.0116494964901 -7.57315382148e-24)
(0.0155069492419 -0.0134796923493 -5.87935235965e-24)
(0.0163230738269 -0.0154006586693 -1.10278980449e-23)
(0.0125665124584 -0.000741902842747 9.17714021689e-22)
(0.0133061354739 -0.00189585246743 1.25632985853e-21)
(0.013855450149 -0.00327781895905 9.21626662139e-22)
(0.0143164243672 -0.00471390540293 4.42899254927e-22)
(0.0147574328202 -0.00619233473474 1.45314860381e-22)
(0.0152551471725 -0.00772127541609 6.98592090305e-23)
(0.0158390645196 -0.00930171269998 2.00522992357e-23)
(0.0165267717806 -0.0109481207757 -4.46329779621e-24)
(0.0173253759539 -0.0126724261248 6.99302578197e-24)
(0.0182374291559 -0.0144844692488 3.10248002238e-24)
(0.0137720035932 -0.000689517372855 6.92785302517e-22)
(0.014597181629 -0.00174132783298 1.05661658905e-21)
(0.0152061663595 -0.00302348953818 7.7118668631e-22)
(0.0157171971056 -0.00435878029244 3.80156025932e-22)
(0.0162018978861 -0.00573296173697 1.17777025002e-22)
(0.0167483994869 -0.00715557850203 2.70772999816e-23)
(0.0173954400893 -0.00863030457813 8.8048615645e-24)
(0.0181542237717 -0.0101685210185 3.66256571435e-24)
(0.0190342936888 -0.0117827726979 8.45904836561e-24)
(0.0200379359522 -0.0134773921114 5.56909781501e-24)
(0.0148740778104 -0.000629848997792 1.18090547864e-22)
(0.0157830145012 -0.0015756210545 5.36415420011e-22)
(0.0164495236129 -0.00274713261258 4.65243421044e-22)
(0.0170096842551 -0.0039698131998 2.75515631405e-22)
(0.0175387698564 -0.00523281155097 8.33777653592e-23)
(0.0181326074754 -0.00653914496017 1.0819123846e-23)
(0.0188359913429 -0.0078959270477 1.27132463845e-24)
(0.019663018556 -0.00931509453237 -2.17152232322e-24)
(0.0206207551948 -0.0108050148807 -1.38338739753e-24)
(0.0217124672698 -0.0123760373093 -8.59731935068e-24)
(0.0158596324361 -0.000568316662 -3.3782034202e-23)
(0.0168515333304 -0.0013987906028 5.79807847028e-22)
(0.0175776189077 -0.00245059087946 4.78387794822e-22)
(0.0181843299552 -0.0035491949591 2.72723822234e-22)
(0.018756735483 -0.00468985442059 7.24944813597e-23)
(0.0193978907208 -0.00587214821673 7.94250339752e-24)
(0.020154953774 -0.00710066752711 -8.71177162372e-25)
(0.0210449786288 -0.00838870167874 -1.69366687877e-23)
(0.0220772755712 -0.00974786094877 -3.29451027801e-23)
(0.0232513290219 -0.0111842466249 -2.15641979651e-23)
(0.0167187591125 -0.000501372065514 3.3546119605e-23)
(0.0177936764175 -0.0012073911215 6.85938174878e-22)
(0.0185803451638 -0.00213206926577 5.66963125579e-22)
(0.0192332934576 -0.00309916222049 2.91516060046e-22)
(0.0198461705727 -0.00410804466825 5.55129601246e-23)
(0.0205325153914 -0.00515668924094 2.29015113713e-24)
(0.0213429770335 -0.00624966722164 -2.6538647706e-24)
(0.0222936146682 -0.00739671623642 -1.17513120793e-23)
(0.023394066484 -0.0086101186652 -3.2794810153e-23)
(0.0246501072032 -0.00989840098823 -2.699215996e-23)
(0.0174494082562 -0.000428611015967 -1.91651242826e-22)
(0.0186057481139 -0.00100372007527 3.79254370165e-22)
(0.0194511186243 -0.00179225055025 3.76392647703e-22)
(0.0201474532108 -0.00262004785932 2.38536001442e-22)
(0.0207990457061 -0.00348953653871 5.53257140239e-23)
(0.0215270137771 -0.00439423384511 -4.1827726594e-24)
(0.0223872972665 -0.00534017431263 -1.24508673244e-23)
(0.0233963533107 -0.00633812353494 -1.6692500438e-23)
(0.0245630850511 -0.00739631597373 -2.89537984031e-23)
(0.025897435651 -0.00852316100266 -2.49486738675e-23)
(0.0180461772354 -0.000351436523796 -3.79799477712e-22)
(0.0192814767901 -0.000788467596948 4.07578580472e-24)
(0.0201828636869 -0.00143688614939 1.96147159507e-23)
(0.0209219099184 -0.00211791867123 5.59277206454e-23)
(0.0216083799532 -0.00283725755226 9.14250326772e-24)
(0.0223733202899 -0.00358750071133 -9.2509300379e-24)
(0.02327709447 -0.00437598613503 -1.19531227641e-23)
(0.0243397346301 -0.00521449253717 -5.7738574789e-24)
(0.0255705682874 -0.00610750122654 -1.76709684463e-23)
(0.0269783405699 -0.00706391865046 -1.6419128088e-23)
(0.0184991118039 -0.000271657707189 -8.50386132512e-22)
(0.0198098782723 -0.000564764758721 -5.09178051646e-22)
(0.0207649515841 -0.00106338848249 -2.96083384871e-22)
(0.0215447669903 -0.00159120067728 -1.10716155574e-22)
(0.0222639352757 -0.00215453667249 -4.35054575711e-23)
(0.0230630428681 -0.00274214627308 -1.05395468037e-23)
(0.0240050885489 -0.00336424004488 -2.36153144503e-24)
(0.0251171225467 -0.00403072104914 2.53025543888e-24)
(0.0264076856598 -0.00474700431527 1.37388280234e-23)
(0.0278840168394 -0.00552246227524 2.55966355816e-23)
(0.0188002586218 -0.000192883933321 -1.02828412679e-21)
(0.0201832515956 -0.000334576014243 -5.41080284264e-22)
(0.0211885491144 -0.00067654576456 -3.09715257072e-22)
(0.0220033836893 -0.00104050024326 -1.22025905908e-22)
(0.022752838125 -0.00143829416922 -2.02571641956e-23)
(0.0235835957442 -0.00185614204181 -7.29256118883e-24)
(0.0245626175051 -0.00230130167631 1.37756706929e-23)
(0.0189432945896 -0.000109084841323 -6.18124021056e-22)
(0.0203993887897 -9.9556863726e-05 -2.00134719129e-22)
(0.0214505422773 -0.000282057478345 -1.09260126399e-22)
(0.0222963413164 -0.000478323193154 -5.02981740229e-23)
(0.0230688580815 -0.000702201618007 -4.2765040578e-23)
(0.0215514059207 0.00011609484792 1.50148212073e-22)
(0.022422463389 9.04674020179e-05 9.99992751218e-23)
)
;

boundaryField
{
    back
    {
        type            noSlip;
    }
    sides
    {
        type            noSlip;
    }
    bottom
    {
        type            noSlip;
    }
    front
    {
        type            noSlip;
    }
    atmosphere
    {
        type            pressureInletOutletVelocity;
        value           nonuniform List<vector> 0();
    }
    floatingObject
    {
        type            movingWallVelocity;
        value           nonuniform List<vector> 0();
    }
    procBoundary2to0
    {
        type            processor;
        value           nonuniform List<vector> 
14
(
(0.0257204292462 -0.00278673618639 9.17965091477e-24)
(0.0270684236515 -0.00332182655163 8.99930274058e-24)
(0.0286116923446 -0.00391406774513 1.23302637396e-23)
(0.0239242766516 -0.000940619181563 -1.66038097493e-23)
(0.0257204292462 -0.00278673618639 9.17965091477e-24)
(0.0249373029547 -0.00120333057125 1.87909615762e-24)
(0.0189333478918 -1.53309743811e-05 -5.74659043054e-23)
(0.0204587075612 0.000141565610164 2.6498672819e-22)
(0.0239242766516 -0.000940619181563 -1.66038097493e-23)
(0.0232097176775 4.05775721649e-05 -6.53221233715e-25)
(0.0204587075612 0.000141565610164 2.6498672819e-22)
(0.0214879077794 0.000514117965159 1.58054275565e-22)
(0.0232097176775 4.05775721649e-05 -6.53221233715e-25)
(0.0223773852714 0.0006561961567 1.0821463028e-22)
)
;
    }
    procBoundary2to1
    {
        type            processor;
        value           nonuniform List<vector> 
18
(
(0.00112847348383 -0.014400365771 7.89593300798e-22)
(0.00305363655915 -0.0152364836431 2.02959820548e-22)
(0.00517069934417 -0.0155946424708 5.45542243124e-23)
(0.00517069934417 -0.0155946424708 5.45542243124e-23)
(0.00773137403817 -0.0177769821142 -7.44841263415e-23)
(0.00773137403817 -0.0177769821142 -7.44841263415e-23)
(0.0105463059515 -0.019729717001 -3.60367217941e-23)
(0.012876548163 -0.0191068392245 -4.70543706911e-23)
(0.0151104446799 -0.0183316755463 -6.11101172559e-23)
(0.0172437615496 -0.0174238329684 -7.34734279426e-23)
(0.0192667247027 -0.0164010732104 -5.53724901956e-23)
(0.0211633222222 -0.0152675703114 -6.13139058932e-23)
(0.0229329980298 -0.0140386757911 -6.65071357116e-23)
(0.0245687332703 -0.0127084052687 -5.9801099273e-23)
(0.0260622992012 -0.0112711214186 -6.67764451335e-23)
(0.0274006687151 -0.00973026967545 -5.32083336029e-23)
(0.0285663480773 -0.00809407095901 -3.64325761211e-23)
(0.0295471996811 -0.00636974601087 -2.72726575068e-23)
)
;
    }
}


// ************************************************************************* //
