/*--------------------------------*- C++ -*----------------------------------*\
| =========                 |                                                 |
| \\      /  F ield         | OpenFOAM: The Open Source CFD Toolbox           |
|  \\    /   O peration     | Version:  v2012                                 |
|   \\  /    A nd           | Website:  www.openfoam.com                      |
|    \\/     M anipulation  |                                                 |
\*---------------------------------------------------------------------------*/
FoamFile
{
    version     2.0;
    format      ascii;
    class       volScalarField;
    location    "4";
    object      k;
}
// * * * * * * * * * * * * * * * * * * * * * * * * * * * * * * * * * * * * * //

dimensions      [0 2 -2 0 0 0 0];


internalField   nonuniform List<scalar> 
167
(
0.00292537664692
0.00298501445575
0.00312574164893
0.0034972235085
0.00455435460061
0.00731182595656
0.0132736550666
0.0244658244242
0.042030564518
0.00298220750412
0.00312550296764
0.00350166743269
0.00458242884328
0.00745261730364
0.0138384000426
0.0268060106387
0.0507145681039
0.00298041370252
0.00312847314105
0.00351547748625
0.00462927512573
0.00761420910672
0.0143736050392
0.0288881336252
0.0664393693249
0.00291258910386
0.00298009385848
0.0031368059475
0.0035462758854
0.0047086804098
0.00777450404768
0.0147356844972
0.0297197918115
0.0646524182462
0.00290895570048
0.00298018383429
0.0031464216257
0.0035809392758
0.00479361465492
0.00789994795604
0.0148821711087
0.0299373080704
0.0671932568385
0.00290534716135
0.0029797377306
0.00315267453092
0.00360430414838
0.00484832694881
0.00796804394053
0.0149050520306
0.0296407810761
0.0624073444653
0.00286533239442
0.00290171473017
0.00297853711181
0.0031554755807
0.00361489442522
0.00487691836445
0.00801892687308
0.0149339742311
0.0294505092673
0.056053946474
0.0028404387302
0.00286038190584
0.0028981520384
0.00297706137004
0.00315667483222
0.00362021824847
0.00489979998112
0.00808923224584
0.0150345411352
0.029444967834
0.0535050412974
0.00283481011038
0.00285560140454
0.00289481604069
0.00297615637645
0.00316006235412
0.00363432655596
0.00494800590871
0.00821163347691
0.0152086370958
0.0294823644115
0.0528061346871
0.00285087013654
0.00289161899097
0.002975857284
0.00316595011044
0.00365641769552
0.00501271248401
0.00835344997993
0.0153930326
0.0294649356351
0.0531435972627
0.00284574880226
0.00288806908435
0.00297539485576
0.00317212231117
0.00367834642961
0.00506703889966
0.00845243823399
0.0154657780712
0.0291591465028
0.0594417757479
0.00283891362705
0.00288275556279
0.00297320810668
0.00317624716483
0.00369291180706
0.00509084948481
0.00847664973948
0.0154510447636
0.028862786513
0.0582873733632
0.00282677167894
0.00287186977967
0.00296506044077
0.0031731085134
0.00369373326081
0.00508159583376
0.00845068196762
0.0153875237016
0.028503292841
0.0569953496284
0.00279980247487
0.00284539799544
0.00293986145247
0.00315002363375
0.0036708654863
0.00505604807162
0.00845136645532
0.0154137144161
0.0285537887802
0.0651179133797
0.00270996511523
0.00273350215126
0.00277796930308
0.00287030176959
0.00307592932574
0.00358729088206
0.00496735827221
0.00839580640437
0.0152936869308
0.0278574394823
0.065819347343
0.00254208283073
0.00256381627385
0.00260433247531
0.0026882221016
0.0028750208153
0.00334726754101
0.00467210993947
0.00804236767729
0.0147087690286
0.0257547300384
0.0542451256631
0.00203656793031
0.00205411670685
0.00208488324833
0.00214606047126
0.00227839574727
0.0026124445418
0.00362197758231
0.00650015583809
0.0126849919476
0.0234543217811
0.0401857342729
)
;

boundaryField
{
    back
    {
        type            kqRWallFunction;
        value           nonuniform List<scalar> 
167
(
0.00292537664692
0.00298501445575
0.00312574164893
0.0034972235085
0.00455435460061
0.00731182595656
0.0132736550666
0.0244658244242
0.042030564518
0.00298220750412
0.00312550296764
0.00350166743269
0.00458242884328
0.00745261730364
0.0138384000426
0.0268060106387
0.0507145681039
0.00298041370252
0.00312847314105
0.00351547748625
0.00462927512573
0.00761420910672
0.0143736050392
0.0288881336252
0.0664393693249
0.00291258910386
0.00298009385848
0.0031368059475
0.0035462758854
0.0047086804098
0.00777450404768
0.0147356844972
0.0297197918115
0.0646524182462
0.00290895570048
0.00298018383429
0.0031464216257
0.0035809392758
0.00479361465492
0.00789994795604
0.0148821711087
0.0299373080704
0.0671932568385
0.00290534716135
0.0029797377306
0.00315267453092
0.00360430414838
0.00484832694881
0.00796804394053
0.0149050520306
0.0296407810761
0.0624073444653
0.00286533239442
0.00290171473017
0.00297853711181
0.0031554755807
0.00361489442522
0.00487691836445
0.00801892687308
0.0149339742311
0.0294505092673
0.056053946474
0.0028404387302
0.00286038190584
0.0028981520384
0.00297706137004
0.00315667483222
0.00362021824847
0.00489979998112
0.00808923224584
0.0150345411352
0.029444967834
0.0535050412974
0.00283481011038
0.00285560140454
0.00289481604069
0.00297615637645
0.00316006235412
0.00363432655596
0.00494800590871
0.00821163347691
0.0152086370958
0.0294823644115
0.0528061346871
0.00285087013654
0.00289161899097
0.002975857284
0.00316595011044
0.00365641769552
0.00501271248401
0.00835344997993
0.0153930326
0.0294649356351
0.0531435972627
0.00284574880226
0.00288806908435
0.00297539485576
0.00317212231117
0.00367834642961
0.00506703889966
0.00845243823399
0.0154657780712
0.0291591465028
0.0594417757479
0.00283891362705
0.00288275556279
0.00297320810668
0.00317624716483
0.00369291180706
0.00509084948481
0.00847664973948
0.0154510447636
0.028862786513
0.0582873733632
0.00282677167894
0.00287186977967
0.00296506044077
0.0031731085134
0.00369373326081
0.00508159583376
0.00845068196762
0.0153875237016
0.028503292841
0.0569953496284
0.00279980247487
0.00284539799544
0.00293986145247
0.00315002363375
0.0036708654863
0.00505604807162
0.00845136645532
0.0154137144161
0.0285537887802
0.0651179133797
0.00270996511523
0.00273350215126
0.00277796930308
0.00287030176959
0.00307592932574
0.00358729088206
0.00496735827221
0.00839580640437
0.0152936869308
0.0278574394823
0.065819347343
0.00254208283073
0.00256381627385
0.00260433247531
0.0026882221016
0.0028750208153
0.00334726754101
0.00467210993947
0.00804236767729
0.0147087690286
0.0257547300384
0.0542451256631
0.00203656793031
0.00205411670685
0.00208488324833
0.00214606047126
0.00227839574727
0.0026124445418
0.00362197758231
0.00650015583809
0.0126849919476
0.0234543217811
0.0401857342729
)
;
    }
    sides
    {
        type            kqRWallFunction;
        value           nonuniform List<scalar> 
11
(
0.00203656793031
0.00205411670685
0.00208488324833
0.00214606047126
0.00227839574727
0.0026124445418
0.00362197758231
0.00650015583809
0.0126849919476
0.0234543217811
0.0401857342729
)
;
    }
    bottom
    {
        type            kqRWallFunction;
        value           nonuniform List<scalar> 0();
    }
    front
    {
        type            kqRWallFunction;
        value           nonuniform List<scalar> 
167
(
0.00292537664692
0.00298501445575
0.00312574164893
0.0034972235085
0.00455435460061
0.00731182595656
0.0132736550666
0.0244658244242
0.042030564518
0.00298220750412
0.00312550296764
0.00350166743269
0.00458242884328
0.00745261730364
0.0138384000426
0.0268060106387
0.0507145681039
0.00298041370252
0.00312847314105
0.00351547748625
0.00462927512573
0.00761420910672
0.0143736050392
0.0288881336252
0.0664393693249
0.00291258910386
0.00298009385848
0.0031368059475
0.0035462758854
0.0047086804098
0.00777450404768
0.0147356844972
0.0297197918115
0.0646524182462
0.00290895570048
0.00298018383429
0.0031464216257
0.0035809392758
0.00479361465492
0.00789994795604
0.0148821711087
0.0299373080704
0.0671932568385
0.00290534716135
0.0029797377306
0.00315267453092
0.00360430414838
0.00484832694881
0.00796804394053
0.0149050520306
0.0296407810761
0.0624073444653
0.00286533239442
0.00290171473017
0.00297853711181
0.0031554755807
0.00361489442522
0.00487691836445
0.00801892687308
0.0149339742311
0.0294505092673
0.056053946474
0.0028404387302
0.00286038190584
0.0028981520384
0.00297706137004
0.00315667483222
0.00362021824847
0.00489979998112
0.00808923224584
0.0150345411352
0.029444967834
0.0535050412974
0.00283481011038
0.00285560140454
0.00289481604069
0.00297615637645
0.00316006235412
0.00363432655596
0.00494800590871
0.00821163347691
0.0152086370958
0.0294823644115
0.0528061346871
0.00285087013654
0.00289161899097
0.002975857284
0.00316595011044
0.00365641769552
0.00501271248401
0.00835344997993
0.0153930326
0.0294649356351
0.0531435972627
0.00284574880226
0.00288806908435
0.00297539485576
0.00317212231117
0.00367834642961
0.00506703889966
0.00845243823399
0.0154657780712
0.0291591465028
0.0594417757479
0.00283891362705
0.00288275556279
0.00297320810668
0.00317624716483
0.00369291180706
0.00509084948481
0.00847664973948
0.0154510447636
0.028862786513
0.0582873733632
0.00282677167894
0.00287186977967
0.00296506044077
0.0031731085134
0.00369373326081
0.00508159583376
0.00845068196762
0.0153875237016
0.028503292841
0.0569953496284
0.00279980247487
0.00284539799544
0.00293986145247
0.00315002363375
0.0036708654863
0.00505604807162
0.00845136645532
0.0154137144161
0.0285537887802
0.0651179133797
0.00270996511523
0.00273350215126
0.00277796930308
0.00287030176959
0.00307592932574
0.00358729088206
0.00496735827221
0.00839580640437
0.0152936869308
0.0278574394823
0.065819347343
0.00254208283073
0.00256381627385
0.00260433247531
0.0026882221016
0.0028750208153
0.00334726754101
0.00467210993947
0.00804236767729
0.0147087690286
0.0257547300384
0.0542451256631
0.00203656793031
0.00205411670685
0.00208488324833
0.00214606047126
0.00227839574727
0.0026124445418
0.00362197758231
0.00650015583809
0.0126849919476
0.0234543217811
0.0401857342729
)
;
    }
    atmosphere
    {
        type            inletOutlet;
        inletValue      uniform 0.1;
        value           nonuniform List<scalar> 
17
(
0.042030564518
0.0507145681039
0.1
0.1
0.1
0.1
0.1
0.0535050412974
0.0528061346871
0.0531435972627
0.1
0.1
0.0569953496284
0.1
0.1
0.1
0.0401857342729
)
;
    }
    floatingObject
    {
        type            kqRWallFunction;
        value           nonuniform List<scalar> 0();
    }
    procBoundary11to9
    {
        type            processor;
        value           nonuniform List<scalar> 9(0.00293004014355 0.00298766180697 0.00312498373525 0.00348934308366 0.00452172240371 0.00718218746883 0.0127713679486 0.0226810436431 0.0382625908074);
    }
    procBoundary11to10
    {
        type            processor;
        value           nonuniform List<scalar> 
23
(
0.00289758414548
0.00292075167319
0.00292075167319
0.00291646657574
0.00291646657574
0.00288092837018
0.00287562737415
0.00287041962227
0.00287041962227
0.00284620978587
0.00284620978587
0.00282798106795
0.00282180797503
0.00282921752767
0.00282921752767
0.00282324313768
0.00281562290171
0.00280287013046
0.00277570657271
0.00277570657271
0.00269508360951
0.00252800084094
0.00202418656336
)
;
    }
}


// ************************************************************************* //
