/*--------------------------------*- C++ -*----------------------------------*\
| =========                 |                                                 |
| \\      /  F ield         | OpenFOAM: The Open Source CFD Toolbox           |
|  \\    /   O peration     | Version:  v2012                                 |
|   \\  /    A nd           | Website:  www.openfoam.com                      |
|    \\/     M anipulation  |                                                 |
\*---------------------------------------------------------------------------*/
FoamFile
{
    version     2.0;
    format      ascii;
    class       surfaceVectorField;
    location    "4";
    object      Uf;
}
// * * * * * * * * * * * * * * * * * * * * * * * * * * * * * * * * * * * * * //

dimensions      [0 1 -1 0 0 0 0];


internalField   nonuniform List<vector> 
304
(
(0.0347906507929 0.0246473008789 -1.65617806851e-22)
(0.0351149649545 0.027419165455 -6.87387082928e-22)
(0.0335752478891 0.0260553677149 -2.61936932544e-22)
(0.0356434316452 0.0303701426106 -2.58129327846e-21)
(0.0338791143049 0.0288882440873 -9.53275987737e-22)
(0.0362537443071 0.0336853910589 -4.69056083116e-21)
(0.034336240838 0.0318554598923 -3.59370604602e-21)
(0.0356218688452 0.0375057860466 -8.61265839774e-21)
(0.0346715369668 0.0364335605606 -4.37916371189e-21)
(0.036682925838 0.0420153965128 -1.39026072373e-20)
(0.0326995316324 0.0350845193045 -1.44905893094e-20)
(0.0809208938012 0.046670084677 -1.5324992168e-20)
(0.0367074560897 0.0350777824031 -2.36036484307e-20)
(0.0447905605485 0.100363934075 -8.13895922776e-21)
(0.0951266112287 0.0507533572831 -2.27576528065e-20)
(-0.199221588153 0.192568835099 8.68470793154e-21)
(0.0322983972025 0.0273898955588 -5.27825837353e-22)
(0.0309102048457 0.0259781212502 -2.80514645997e-22)
(0.0325418314072 0.0302971892266 -1.96568875529e-21)
(0.0309716860106 0.0286938252864 -8.85427984558e-22)
(0.0327713517622 0.0335415650659 -3.28230892675e-21)
(0.0310917378533 0.0316252635189 -2.96275569478e-21)
(0.031681433974 0.0370048810295 -1.02570946236e-20)
(0.0312081382625 0.035965733397 -3.12039995048e-21)
(0.0326389240201 0.0408378157538 -2.41916305028e-20)
(0.0288665915363 0.0332917956138 -1.23616068362e-20)
(0.0548412491276 0.0440235980727 -3.10363090691e-20)
(0.033520137832 0.0331041784018 -2.52248495269e-20)
(-0.0544647003359 0.0876040099283 -5.93398564716e-21)
(0.0515477769946 0.0510401829386 -2.5026313312e-20)
(-0.142333769456 0.0413814457276 1.14404451573e-20)
(0.0295761875761 0.0271639958474 -6.38116793202e-22)
(0.0283799866766 0.0257520045439 -2.6360460992e-22)
(0.0295413406659 0.0298806436557 -1.88249492405e-21)
(0.0282549382505 0.0282659284328 -7.75978334749e-22)
(0.0295404108881 0.0328441242483 -2.80084671851e-21)
(0.0281281596284 0.0309746169083 -2.5440680815e-21)
(0.0283313092928 0.0359142478379 -5.22491216311e-21)
(0.0281379509043 0.0349381025003 -2.68921475049e-21)
(0.0297104684039 0.0391199360618 -1.33948258604e-20)
(0.025660881019 0.0310628207381 -7.00479776765e-21)
(0.0387404743515 0.0412881913801 -1.92148537698e-20)
(0.0313517387593 0.0311100419891 -1.68200826694e-20)
(-0.0241245342989 0.0557907259288 -7.65188250751e-21)
(0.0370475881157 0.0484967615409 -1.66751846366e-20)
(-0.0511330425878 0.0118197663994 4.3493375835e-21)
(0.0272246153426 0.0244181407917 -1.572865506e-22)
(0.0261790792775 0.0232345836961 -1.07205176793e-22)
(0.0270789856707 0.0267483994735 -4.01466151466e-22)
(0.0260496611999 0.0254443075386 -3.46381095427e-22)
(0.0268810731308 0.029143607708 -1.4375514922e-21)
(0.0258596432487 0.0277287224301 -9.79985102786e-22)
(0.0267511286791 0.0316811173586 -2.43243611348e-21)
(0.025590565672 0.030076046533 -3.03579907679e-21)
(0.0255796619776 0.0343300435741 -4.46910035503e-21)
(0.0254889702977 0.0336447410108 -5.74715361578e-21)
(0.0275836137876 0.0368341131884 -1.04300545767e-20)
(0.0231568228997 0.028823524168 -7.70110834987e-21)
(0.0325585244848 0.03812125059 -1.42804135362e-20)
(0.0300614833691 0.0293586139019 -1.20299931176e-20)
(0.00558986174965 0.0434017119116 -4.67396454557e-21)
(0.0317703236779 0.0439209475858 -1.2222737048e-20)
(-0.00123571164064 0.0131955824991 1.7677478199e-21)
(0.025020302944 0.0241840274056 -2.96299721621e-22)
(0.0240367926951 0.0230638530888 -1.56758832003e-22)
(0.0248562272002 0.0263169318691 -9.24900046747e-22)
(0.0239166775809 0.0251449309477 -6.31474859217e-22)
(0.0246094118008 0.0284158089441 -2.57823268737e-21)
(0.0237606764027 0.0272516841014 -1.62486465407e-21)
(0.0243722916402 0.0305590101928 -6.35051657909e-21)
(0.0234472821493 0.029283605648 -4.06154582412e-21)
(0.0232894805867 0.0328495859408 -8.97916161062e-21)
(0.0231983435889 0.0326339886547 -8.36817168588e-21)
(0.0262629213946 0.0346830508885 -9.30104689075e-21)
(0.0213233597691 0.0270510701365 -1.26027990882e-20)
(0.0316227185702 0.0349242777855 -9.97231662938e-21)
(0.0298176516033 0.0282134612372 -1.49619399466e-20)
(0.0248780885571 0.0323228908633 -5.78102468253e-21)
(0.034375174229 0.0404687292738 -1.58809962174e-20)
(0.0349253539077 0.00293846303673 -1.1274597478e-21)
(0.0229476228955 0.0239696813055 -4.919339696e-22)
(0.0219810464698 0.0229166458042 -3.06274320601e-22)
(0.0228364844441 0.0259760386533 -1.33143946654e-21)
(0.0219102231358 0.0249149555769 -9.54386010203e-22)
(0.0226329824465 0.0278944626903 -3.10817779081e-21)
(0.0218421532737 0.0269169951391 -1.99186594891e-21)
(0.0223461693069 0.0297336329835 -6.07920093091e-21)
(0.0216080257134 0.0287689280652 -4.490378603e-21)
(0.0213354917773 0.0316440136007 -1.19918091635e-20)
(0.0212879111431 0.032017100946 -7.48885200185e-21)
(0.0250745481302 0.0333518604669 -1.8263692144e-20)
(0.01961551067 0.0257764267171 -1.8743602101e-20)
(0.0340473666264 0.0340671922011 -2.08706195345e-20)
(0.0291004458378 0.0276528343819 -2.71156058734e-20)
(0.0480094279801 0.0260987516612 -1.12274312826e-20)
(0.0423460198184 0.0380813022824 -2.86503747871e-20)
(0.082927291945 0.000236844483325 3.88530548345e-22)
(0.0210003376346 0.0218249670473 -2.24616543377e-22)
(0.0200240197557 0.020827982784 -5.69625966226e-23)
(0.0209512906213 0.0238228292766 -7.68726361205e-22)
(0.0199830776783 0.0228046519718 -4.01808408326e-22)
(0.0209271920432 0.0257717970711 -1.61481249257e-21)
(0.0199611432734 0.0247681448835 -1.04057023566e-21)
(0.0208393709904 0.0276046077857 -3.3740667611e-21)
(0.0200092341192 0.0267246741174 -2.1824694876e-21)
(0.0205974747595 0.0293005101053 -5.90002967395e-21)
(0.0199120332492 0.0285177154788 -4.94185202608e-21)
(0.019653367879 0.0309669015261 -1.42406449393e-20)
(0.0196214673846 0.0317133230102 -8.68201324005e-21)
(0.0235706183013 0.0324664232394 -2.75955158303e-20)
(0.0181159852192 0.0248943996464 -2.00240943819e-20)
(0.0367999434283 0.0343391948331 -3.4895361126e-20)
(0.0272257277882 0.0275326365984 -2.86488349315e-20)
(0.078371868823 0.0291097328861 -1.70344129562e-20)
(0.0475783464497 0.0373232735812 -2.8946784707e-20)
(0.133409617356 0.0248906512407 -1.15387599407e-21)
(0.0190411005186 0.0197850064705 -5.30536570202e-23)
(0.0180691313399 0.0187978389323 -2.26329851277e-23)
(0.0190124417 0.0217613566984 -2.34154461571e-22)
(0.0180475524997 0.020776988915 -8.61194431227e-23)
(0.019003000865 0.0237144783329 -6.73652282779e-22)
(0.0180298348292 0.0227301016564 -3.26555977491e-22)
(0.0190456295723 0.0256128989677 -1.60822723069e-21)
(0.018062600548 0.0246734484398 -8.92437170019e-22)
(0.0190846320142 0.0274700824136 -3.75025475258e-21)
(0.0181519371456 0.0266135256386 -2.36480583067e-21)
(0.018987844348 0.0291443000961 -7.72383559217e-21)
(0.0182377241251 0.0284103692783 -5.92710028057e-21)
(0.018140445621 0.0306352043753 -1.44654626826e-20)
(0.0181305112244 0.0316957006852 -1.37127984183e-20)
(0.0216460991871 0.0321207577768 -2.10774134831e-20)
(0.0166304387076 0.0244341402563 -1.70692757023e-20)
(0.0363351696496 0.0349948570764 -2.27002585126e-20)
(0.0243483171768 0.0278091441963 -1.90035571313e-20)
(0.0971023185672 0.0382042779828 -1.30662477449e-20)
(0.0443758287573 0.0405223353248 -1.64844257888e-20)
(0.134313861201 0.143272200159 -1.2009016107e-21)
(0.0170651798541 0.0197568589863 -5.56987712302e-23)
(0.0170544125415 0.0217156175935 -1.78520959042e-22)
(0.0160886614703 0.0207423172375 -7.81944812266e-23)
(0.0170751113055 0.0236543103331 -5.45340864731e-22)
(0.0160910137442 0.0226845257707 -2.55322205065e-22)
(0.0171654920917 0.0255759390358 -1.64901577e-21)
(0.0161408473631 0.0246132916644 -7.74266852702e-22)
(0.0173284816 0.0274248024532 -4.54165135866e-21)
(0.0163029610127 0.0265430067216 -2.11526105565e-21)
(0.0174393069706 0.0291151296171 -1.19160631067e-20)
(0.0165473075397 0.0283463321448 -5.39329772456e-21)
(0.0166627253862 0.0305911028759 -1.6316611438e-20)
(0.0166544876766 0.0318401035289 -1.50581866851e-20)
(0.0192131920291 0.0322263990871 -1.49954193504e-20)
(0.0149951428414 0.0243452755849 -1.46262682292e-20)
(0.0222415704741 0.0360705449451 -1.27877244075e-20)
(0.0205023946181 0.0285017825341 -1.71850436748e-20)
(0.0151982067865 0.0815565033918 -4.61907965463e-21)
(-0.00110951799769 0.0416128685751 -1.45124342129e-20)
(-0.120296016 0.156066664 -1.1292873249e-21)
(0.0151101927685 0.0216852581107 -1.54995727249e-22)
(0.014139523769 0.0207281632347 -6.52782779488e-23)
(0.0151503720665 0.0236212156607 -4.84248193036e-22)
(0.0141549339141 0.0226649538035 -2.24547292583e-22)
(0.0152842673927 0.0255304933557 -1.24051213835e-21)
(0.0142314515871 0.0245951016852 -7.24705517792e-22)
(0.0155512974242 0.0273922182226 -2.96690742155e-21)
(0.0144411295093 0.0265226185402 -1.56447398192e-21)
(0.0158141817184 0.0291462921057 -8.53542130287e-21)
(0.0147931494358 0.0283000575691 -3.18150575802e-21)
(0.0150354215042 0.030798278203 -1.33678434762e-20)
(0.0150024549191 0.0320557257316 -8.22742160707e-21)
(0.0164399263758 0.0326870251318 -1.68158925536e-20)
(0.0131063961814 0.0245681025599 -1.09195799358e-20)
(0.00529030973145 0.0364473096399 -1.89097534802e-20)
(0.0167400856033 0.0295823971095 -1.64676973374e-20)
(-0.0774166518182 0.0472650128435 -1.10226418832e-20)
(-0.0119236091851 0.0401311239605 -1.71649003446e-20)
(-0.140258366876 0.0248122022332 -1.76162911522e-21)
(0.013175782285 0.0216812742393 -1.34829843282e-22)
(0.0122020338071 0.0207383463176 -3.41054933246e-23)
(0.0132360867801 0.0236165294418 -4.65004617339e-22)
(0.0122195719097 0.0226809318622 -1.8292844846e-22)
(0.013404737628 0.0255403097974 -1.04866736136e-21)
(0.0123075654382 0.0246251909115 -7.59493596317e-22)
(0.0137305993403 0.0274381023511 -1.77907231839e-21)
(0.0125432398898 0.0265507854166 -1.62501131655e-21)
(0.0139933513704 0.0292770061131 -2.87350606221e-21)
(0.0129541682932 0.0282246159794 -1.95391748385e-21)
(0.0131364536015 0.0313500050022 -5.77915806659e-21)
(0.0129294140735 0.0323278551672 -2.82724125088e-21)
(0.0136522151416 0.0333649446476 -1.05713847195e-20)
(0.0110914517661 0.0250459139074 -6.86915678831e-21)
(0.00372183719608 0.0369095662688 -1.47228442018e-20)
(0.0131936915921 0.0308687976903 -1.22718282598e-20)
(-0.0548724298661 0.0267564219265 -7.90388757666e-21)
(-0.00176860595582 0.0413025961684 -1.48113724486e-20)
(-0.0612782617427 -0.00942292239097 -1.11854435286e-21)
(0.0112543877362 0.0217035406379 -8.22040985026e-23)
(0.01026206997 0.0207889731318 2.71544273262e-23)
(0.0113223885724 0.0236598776754 -4.77417427439e-22)
(0.010263145575 0.0227373183259 -1.16839620155e-22)
(0.0114819630543 0.0255858278907 -1.33583755151e-21)
(0.0103815229368 0.0246863179951 -8.6803686515e-22)
(0.0118133266097 0.0275584947881 -1.79985648201e-21)
(0.0105704859529 0.0266238004934 -2.2304821291e-21)
(0.0119833857338 0.029514997063 -1.90765267252e-21)
(0.0109975953781 0.0281556002907 -2.51569891454e-21)
(0.010987800444 0.0317646708834 -3.9172399726e-21)
(0.0106797011372 0.0326992927262 -3.27042428763e-21)
(0.0107986236518 0.0342531353578 -8.56960032856e-21)
(0.00860298493988 0.0256726596471 -6.65492894102e-21)
(0.00620782741662 0.0377826805416 -1.23603565066e-20)
(0.0096625744155 0.0321298304958 -1.16107146581e-20)
(-0.0172208831134 0.0325207517211 -8.02602922483e-21)
(0.0034952572803 0.0425344697617 -1.27147929715e-20)
(-0.0123702226496 0.00992908910563 -3.29002976609e-21)
(0.00932264862875 0.0217907045213 -7.48109432637e-24)
(0.00830594120096 0.0209182716483 1.29152223437e-22)
(0.00939122074738 0.0237092789017 -5.07459057866e-22)
(0.00834449790107 0.0228802504212 2.45137482903e-23)
(0.00953415838554 0.0256604923455 -1.76268144274e-21)
(0.00843022891551 0.0248387596469 -7.67006146506e-22)
(0.0098187523025 0.0276223097261 -2.94632456163e-21)
(0.00860858990828 0.0268018843844 -2.56087039383e-21)
(0.00980278071731 0.0298467589323 -3.87847052965e-21)
(0.00877308104203 0.0282336821958 -4.85010752517e-21)
(0.00854247948138 0.032292799371 -6.00811325605e-21)
(0.00823362479886 0.0331396434201 -1.15121566705e-20)
(0.00781649928881 0.0349133063818 -9.69604327057e-21)
(0.00598248388255 0.0262330522927 -9.32050429865e-21)
(0.00593917498689 0.0382381331316 -1.1965151123e-20)
(0.00633490988281 0.0331656121052 -9.69533024587e-21)
(0.00440169920064 0.0375569410382 -7.97879351276e-21)
(0.00418076482919 0.0434188180867 -1.06077389168e-20)
(0.0197055003309 0.0138233872874 -9.56608099339e-21)
(0.00736507759979 0.0219748696575 1.61147066053e-22)
(0.00633369061073 0.0212080258317 2.96014972248e-22)
(0.00744203338746 0.0239398693579 -2.3503334035e-22)
(0.0063794368112 0.0232147332326 2.86719271613e-22)
(0.00758451620751 0.0259039785477 -1.5651950976e-21)
(0.00646604783174 0.0252180088768 -3.68512262629e-22)
(0.007776514354 0.0279019404494 -4.46465335737e-21)
(0.00661055563119 0.0272163288045 -2.00152984115e-21)
(0.00746451892392 0.029977761941 -1.2483793666e-20)
(0.00669719866659 0.0285900610939 -4.6552572726e-21)
(0.00592875429868 0.032679038341 -1.48245477131e-20)
(0.00553231437283 0.0337454985172 -1.53135165391e-20)
(0.00497407276079 0.0351980141151 -9.31979127395e-21)
(0.00346350700807 0.026760491434 -9.43037918803e-21)
(0.00499973200381 0.03783654989 -8.33791803971e-21)
(0.00369469115095 0.0337919410352 -1.10910838307e-20)
(0.0207349802924 0.0360056387472 -1.21950263975e-20)
(0.00601412359699 0.0441700230323 -1.33122220909e-20)
(0.05984941079 -0.0115793595104 -9.50893170177e-21)
(0.0053440603197 0.0203813015721 3.49431000795e-22)
(0.00428939693845 0.019699874449 3.6175323705e-22)
(0.00538701541051 0.0224078565435 4.21587177807e-22)
(0.00430709971414 0.021761052424 5.23350413481e-22)
(0.0054638406928 0.024438556597 1.53240349334e-22)
(0.00434868129686 0.0238335899496 6.02543080181e-22)
(0.00557966272683 0.026476961722 -8.0484700618e-22)
(0.00442757577457 0.0259137169183 8.55729096824e-23)
(0.00565876481129 0.0285734678147 -2.19213375637e-21)
(0.00451398142347 0.0280131715962 -8.37476895262e-22)
(0.00509048031465 0.0308930595447 -7.48498014568e-21)
(0.00437754969942 0.0294451902329 -1.20185098249e-21)
(0.00338973544835 0.0332234744885 -9.91934801404e-21)
(0.0032018685534 0.0348829599399 -4.59929133521e-21)
(0.00236706730999 0.0351753515577 -1.12016717448e-20)
(0.00151162619466 0.0275160369769 -2.8372939322e-21)
(0.00859020815503 0.0363812747928 -1.6065387882e-20)
(0.00248733875398 0.0341193462113 -5.61601337478e-21)
(0.0499559442089 0.0166848773176 -1.06261273953e-20)
(0.0257119443187 0.0401614173093 -7.57793379426e-21)
(0.130797160095 -0.0399972266377 -1.67677044972e-23)
(0.00332793682049 0.0210524013194 5.35672649736e-22)
(0.00219969586189 0.0204975489963 5.94905282954e-22)
(0.00336157019893 0.023161469464 7.04306315854e-22)
(0.00219799758508 0.0226430221387 7.25500732197e-22)
(0.00341720124818 0.025272897356 5.34875640529e-22)
(0.00223720043651 0.0247992930773 8.83816651785e-22)
(0.00347840170204 0.0274200072888 5.29430206002e-23)
(0.0022804021964 0.0269858833593 2.82602687598e-22)
(0.00339004349593 0.0296049581694 1.5280587862e-22)
(0.00232896662263 0.0292248395604 -8.20901577871e-22)
(0.00248675218604 0.0319388498373 1.68383782798e-21)
(0.00204360549046 0.0306093161124 1.02698673884e-21)
(0.0014850861296 0.0344888077996 2.48276274663e-21)
(0.000651883432887 0.0358965870894 1.92220365785e-22)
(0.00252531277572 0.0355729872353 2.74836443785e-21)
(0.000427442078664 0.0274244289313 8.13025547626e-21)
(0.0174933498522 0.0359987785389 2.87144071293e-21)
(0.00206051832329 0.0337917508093 1.70239874673e-20)
(0.108292534683 0.00925332944419 3.03142589649e-21)
(0.0524581665157 0.0331005918052 3.15442696408e-20)
(0.210887241402 0.0970159664229 7.5359726822e-21)
(0.00108317565729 0.0220608337932 7.84733365414e-22)
(0.00110833741307 0.0242588091917 9.05011068127e-22)
(0.00116502568179 0.0264959800649 6.31543698853e-22)
(0.00126362586297 0.0287763500818 -5.91241910874e-22)
(0.00127899635724 0.0311052873664 5.32792823448e-23)
(0.000769348122512 0.0331488720541 -4.64630723358e-22)
(7.9415931577e-05 0.0338007494096 5.83971309542e-21)
(-0.000339211100341 0.0342281942125 2.24058785057e-20)
(0.0259092097432 0.0362878394487 4.56968163952e-20)
(0.104799742266 0.088747112612 3.60488164265e-20)
)
;

boundaryField
{
    back
    {
        type            calculated;
        value           uniform (0 0 0);
    }
    sides
    {
        type            calculated;
        value           uniform (0 0 0);
    }
    bottom
    {
        type            calculated;
        value           nonuniform List<vector> 0();
    }
    front
    {
        type            calculated;
        value           uniform (0 0 0);
    }
    atmosphere
    {
        type            calculated;
        value           nonuniform List<vector> 
17
(
(-0.0336159729811 0.431016367167 -1.53543316487e-21)
(-0.183853246719 0.0307211860569 1.8904849028e-20)
(0 -0.0354101266889 0)
(0 -0.00649645242108 0)
(0 -0.00383880528956 0)
(0 -0.0219051469353 0)
(0 -0.0213773525713 0)
(0.147436195629 0.0373014888403 -4.15259433988e-21)
(0.00846795916312 0.336164732359 1.75079111848e-21)
(-0.146695931861 0.0672270758043 -4.00936576829e-21)
(0 -0.0522259874053 0)
(0 -0.0163888810775 0)
(0.0050742183679 0.0054826826289 -3.85686328861e-21)
(0 -0.00414040604232 0)
(0 -0.0542631950299 0)
(0 -0.0708367324506 0)
(0.157243734118 0.299634110782 1.1362916068e-20)
)
;
    }
    floatingObject
    {
        type            calculated;
        value           nonuniform List<vector> 0();
    }
    procBoundary11to9
    {
        type            processor;
        value           nonuniform List<vector> 9((0.0360029116716 0.023236132301 -7.16619085414e-23) (0.0363473872559 0.0259793955247 -2.55747707559e-22) (0.0368303885069 0.0289200808123 -1.03852605788e-21) (0.0376517681061 0.0319379778219 -3.3567255023e-21) (0.0384921330739 0.0367354385192 -6.83544384285e-21) (0.0372092178415 0.0365275603685 -1.17549764625e-20) (0.0413624644759 0.0371299094039 -1.34915273812e-20) (0.148812597235 0.0476836225096 -7.51311181119e-21) (0.131473806172 0.168143074555 -2.87527153083e-22));
    }
    procBoundary11to10
    {
        type            processor;
        value           nonuniform List<vector> 
23
(
(0.034502820733 0.0220252206658 -3.83784382964e-23)
(0.0333805664974 0.0234307940572 -7.15545096986e-23)
(0.0321517526891 0.0247250192175 -1.67873635391e-22)
(0.0296110445358 0.0246338680765 -1.87736608962e-22)
(0.0284405543164 0.0233925655188 -8.14185496418e-23)
(0.0273047027155 0.0221566937391 -5.28145394069e-23)
(0.0251196416612 0.0220418055159 -6.80152544859e-23)
(0.0230299021536 0.0219140498156 -1.05646734606e-22)
(0.0220571681319 0.0208929292409 -2.39889573819e-23)
(0.0210413082511 0.0197919788427 -2.28236660122e-23)
(0.0200708090057 0.0188205138845 -1.89147264098e-23)
(0.0190558861446 0.0177834803937 -1.49458956965e-23)
(0.0170747590634 0.0177854401258 -1.52028585935e-23)
(0.0160975710134 0.0187812795384 -2.30164307405e-23)
(0.0151070637094 0.0197363077171 -4.55121407369e-23)
(0.0131615420872 0.0197439338143 -3.40666147311e-23)
(0.0112236610471 0.0197636876053 8.69335837969e-24)
(0.00928533524955 0.0198346476331 6.94842586497e-23)
(0.00732743385543 0.0200026688517 1.85319506676e-22)
(0.00631007763819 0.019207647416 2.38735535222e-22)
(0.0053205409879 0.0183606223512 3.69192910564e-22)
(0.00330732678223 0.0189626914339 5.65406462191e-22)
(0.00106913777868 0.0198611356473 8.72033519051e-22)
)
;
    }
}


// ************************************************************************* //
