/*--------------------------------*- C++ -*----------------------------------*\
| =========                 |                                                 |
| \\      /  F ield         | OpenFOAM: The Open Source CFD Toolbox           |
|  \\    /   O peration     | Version:  v2012                                 |
|   \\  /    A nd           | Website:  www.openfoam.com                      |
|    \\/     M anipulation  |                                                 |
\*---------------------------------------------------------------------------*/
FoamFile
{
    version     2.0;
    format      ascii;
    class       surfaceScalarField;
    location    "1";
    object      alphaPhi0.water;
}
// * * * * * * * * * * * * * * * * * * * * * * * * * * * * * * * * * * * * * //

dimensions      [0 3 -1 0 0 0 0];
oriented        oriented;


internalField   nonuniform List<scalar> 
304
(
-0.000351987180928
-0.000389073698836
-0.00073894580686
-0.000428261959993
-0.00076370049194
-0.000469810372555
-0.000790112417937
-0.000513993177247
-0.000816688368702
-0.000561025078324
-0.000839054859012
-0.00040383758604
-0.000796468020462
-5.8753478639e-10
-0.000207779118532
5.01346141844e-11
-0.000413908189616
-0.000699920753381
-0.000455011926806
-0.000722596344481
-0.000498440215897
-0.000746684127864
-0.000544438501593
-0.000770690039271
-0.000593113464458
-0.000790379301393
-0.000435141055455
-0.000753183238647
9.64126202506e-10
-0.000203136067318
-4.25997933583e-11
-0.000436672544056
-0.000659193545748
-0.000479429095563
-0.000679839301757
-0.000524446855081
-0.00070166636719
-0.000571940548415
-0.000723196316271
-0.000621917545242
-0.000740401538371
-0.000465320557346
-0.000708400356895
-4.97034045184e-10
-0.000197690083384
-1.08309664081e-10
-0.000415205661389
-0.000599466996811
-0.000457412503068
-0.000616986835136
-0.000501578109123
-0.000635673124137
-0.000547914721712
-0.000655329753504
-0.000596604454782
-0.000674506558435
-0.0006475962512
-0.000689408831876
-0.000494168968773
-0.000662225334677
-3.99174142046e-09
-0.000191255222691
5.87163703238e-10
-0.000432712949792
-0.000557673407133
-0.000476197415191
-0.000573502474342
-0.000521549395745
-0.000590320495393
-0.000568949821565
-0.000607929326792
-0.000618526859059
-0.000624929514154
-0.000670139485706
-0.000637795143934
-0.000521327467013
-0.000614904954063
1.84739017e-08
-0.000183641134224
-1.00404498717e-09
-0.000448532405971
-0.0005147075032
-0.000493115871922
-0.000528919081198
-0.000539468595897
-0.000543967054607
-0.000587740331905
-0.000559657590116
-0.000637991238461
-0.000574678599575
-0.000689957159597
-0.000585828035765
-0.00054661284527
-0.000566926848245
-1.8562610353e-08
-0.000174789512183
3.2403562735e-10
-0.000418750172551
-0.000458911080167
-0.000462736608047
-0.000470721292051
-0.000508264421971
-0.000483391307038
-0.000555463413853
-0.000496767285542
-0.000604464146499
-0.000510656857006
-0.00065530187967
-0.000523840860904
-0.000707701983006
-0.000533426636421
-0.000570649820383
-0.000518001752837
-8.0736469097e-09
-0.000164660189399
1.31555112276e-09
-0.000387006255634
-0.000405757184712
-0.000430529528667
-0.000415388081453
-0.000475402219475
-0.000425848793836
-0.000521739561508
-0.000437053972519
-0.000569648811616
-0.000448857208347
-0.000619223909355
-0.000461081758973
-0.000670458767963
-0.000472605999543
-0.000723081899992
-0.000480802122926
-0.000592857046091
-0.000468185386503
6.38618705433e-08
-0.000153167122525
-1.32942786672e-09
-0.000396618202593
-0.000440965567617
-0.000371040979875
-0.000486605598484
-0.000380208926627
-0.000533639770105
-0.000390019779436
-0.00058215719169
-0.000400338920469
-0.00063223180084
-0.000411007149673
-0.000683808877088
-0.000421028922868
-0.000736553299334
-0.000428056250143
-0.000612704068765
-0.000418134661327
-1.62945933057e-09
-0.000140650603505
-1.55602501857e-09
-0.000450113315441
-0.000325980824086
-0.000496416793253
-0.000333905586339
-0.000544052502285
-0.00034238401934
-0.000593091551507
-0.000351299125455
-0.000643581729852
-0.000360516966405
-0.000695442954003
-0.000369167664126
-0.000748345524247
-0.00037515212805
-0.000631372067907
-0.000367245708274
-1.20467511889e-07
-0.000126567247672
7.69514842486e-10
-0.000458021653757
-0.000280306286401
-0.000504897937034
-0.000287029419299
-0.000553057046598
-0.000294224834678
-0.000602558669587
-0.000301796985186
-0.000653425666274
-0.000309649964584
-0.000705513296226
-0.000317079931146
-0.00075842266226
-0.000322241039398
-0.00064738070731
-0.000316211920092
-7.96078949853e-08
-0.000111609257421
1.81382430168e-09
-0.000464731567456
-0.000234111795334
-0.000512097547003
-0.00023966354013
-0.000560714099612
-0.000245608191328
-0.000610637407323
-0.000251873075236
-0.000661882543351
-0.000258404823772
-0.000714270609767
-0.00026469177793
-0.000767302390815
-0.000269207513169
-0.000661474686967
-0.000265115019963
9.86419829674e-08
-9.59413581653e-05
9.03644405282e-10
-0.000470268502643
-0.000187488089383
-0.000518042367296
-0.000191889765113
-0.000567053179211
-0.00019659727585
-0.000617369751993
-0.000201555691587
-0.00066901431198
-0.000206760259324
-0.000721786183115
-0.000211919866559
-0.000775085709516
-0.000215906292053
-0.000674164127596
-0.000213442897041
2.55744571642e-07
-7.99351326408e-05
1.80106019465e-10
-0.000474615465704
-0.000140530931704
-0.000522705103509
-0.000143800209632
-0.000572024243174
-0.000147278026524
-0.00062267072706
-0.000150908212961
-0.000674696943235
-0.000154734043155
-0.000727885755883
-0.000158731049273
-0.000781595481681
-0.000162194931086
-0.000684522405422
-0.000161343670593
3.23009257197e-07
-6.45017875724e-05
-1.14881908924e-09
-0.00043037053344
-9.13508106919e-05
-0.000477545548873
-9.33560500186e-05
-0.00052582765638
-9.55181770257e-05
-0.00057530909017
-9.77964725041e-05
-0.000626148889032
-0.000100067403206
-0.000678600047402
-0.000102282884785
-0.00073252320322
-0.000104807890908
-0.00078700282475
-0.000107713676504
-0.000690607767046
-0.000111918074076
1.37749590599e-07
-4.8179403838e-05
-7.34574247808e-10
-0.000430627236934
-4.51711397223e-05
-0.000477809860932
-4.61735454817e-05
-0.000526069807635
-4.72582913819e-05
-0.00057548768364
-4.83784644714e-05
-0.000626394730709
-4.91593288361e-05
-0.000679830840647
-4.88467748482e-05
-0.000736577998191
-4.8060732645e-05
-0.000796037308182
-4.82527029761e-05
-0.000710782129532
-5.21068648624e-05
-7.34971234673e-08
-4.50321553873e-05
1.42963669207e-09
-0.000420706322762
-0.000466879925991
-0.000514138241506
-0.00056251661721
-0.0006116758612
-0.000660522634831
-0.000708583390856
-0.000756834724323
-0.000667564501295
2.34303911363e-07
)
;

boundaryField
{
    back
    {
        type            calculated;
        value           uniform 0;
    }
    sides
    {
        type            calculated;
        value           uniform 0;
    }
    bottom
    {
        type            calculated;
        value           nonuniform List<scalar> 0();
    }
    front
    {
        type            calculated;
        value           uniform 0;
    }
    atmosphere
    {
        type            calculated;
        value           uniform 0;
    }
    floatingObject
    {
        type            calculated;
        value           nonuniform List<scalar> 0();
    }
    procBoundary11to9
    {
        type            processor;
        value           nonuniform List<scalar> 9(0.000751264466963 0.000776032087877 0.000802889087622 0.000831660831 0.000860871227458 0.000886087155167 0.000838099836278 0.000211854058934 2.6066852587e-11);
    }
    procBoundary11to10
    {
        type            processor;
        value           nonuniform List<scalar> 
23
(
0.000316747477739
-0.000716025294651
0.000374882880283
0.000395945122344
0.000639917279498
0.000374754897332
0.000390918993339
0.000405566198779
0.000501489104144
0.000376171754998
0.000448053331651
0.000344709664621
0.000353453463696
-0.000362592816075
0.000405052904976
0.000412346898922
0.000418536880671
0.000423644621222
0.000427658159493
0.000137506936574
0.000384214198165
0.000384447381764
0.000375535087793
)
;
    }
}


// ************************************************************************* //
