/*--------------------------------*- C++ -*----------------------------------*\
| =========                 |                                                 |
| \\      /  F ield         | OpenFOAM: The Open Source CFD Toolbox           |
|  \\    /   O peration     | Version:  v2012                                 |
|   \\  /    A nd           | Website:  www.openfoam.com                      |
|    \\/     M anipulation  |                                                 |
\*---------------------------------------------------------------------------*/
FoamFile
{
    version     2.0;
    format      ascii;
    class       volVectorField;
    location    "1";
    object      ddtCorrDdt0(U);
}
// * * * * * * * * * * * * * * * * * * * * * * * * * * * * * * * * * * * * * //

dimensions      [0 1 -2 0 0 0 0];


internalField   nonuniform List<vector> 
167
(
(-0.0128137387464 0.0754049677178 1.26193975104e-22)
(-0.0223487193848 0.0847206475529 1.74918216163e-22)
(-0.0336899379823 0.0948375340935 1.23975643523e-21)
(-0.046943275333 0.10541523593 1.18156566603e-21)
(-0.0612883555553 0.117019392431 -3.64772630513e-21)
(-0.0746699247616 0.126026491786 -2.39140195693e-20)
(-0.078026465847 0.104625695696 -1.83462596784e-20)
(-0.130024766375 0.11765336079 1.27071982418e-20)
(-0.0273366952334 0.182325127517 2.35989969044e-20)
(-0.0310180300736 0.0738948357207 1.24324473117e-22)
(-0.0427825725902 0.0820538436372 2.22241355883e-22)
(-0.0564620679778 0.0901989200689 1.22321337433e-21)
(-0.071180907145 0.0983416497071 2.67203614382e-21)
(-0.0847311843379 0.104922376877 -2.07627771726e-20)
(-0.0871589737618 0.086026509385 -2.15215590605e-22)
(-0.1395850888 0.0854975297408 2.7788508428e-20)
(-0.0400808983829 0.147176634838 2.91814267853e-20)
(-0.0378428212829 0.0627627151545 7.79949641225e-23)
(-0.0497290853238 0.0690328421651 4.14690700089e-22)
(-0.0634686711493 0.0748606016803 1.22697681687e-21)
(-0.0781255201718 0.0797226475282 -3.87742444776e-21)
(-0.0913692279286 0.0842635152982 -4.21890532632e-21)
(-0.0928376883704 0.0680872581741 6.9587632863e-21)
(-0.143693175293 0.0565462762866 3.39998931702e-21)
(-0.0484470224377 0.113849822449 1.59813576118e-22)
(-0.0327075511832 0.0473388046348 -2.16932057608e-22)
(-0.042890876458 0.0515839787515 3.43051037318e-22)
(-0.0546436487444 0.0560833335878 2.54413273023e-22)
(-0.0681371182132 0.0597831786579 3.40782474089e-22)
(-0.0823901818896 0.0616808405588 -5.9486057274e-21)
(-0.095052160166 0.0646190049224 -6.16645427974e-21)
(-0.0957884035055 0.0510943137867 -8.84260830272e-21)
(-0.143269489982 0.030503211621 -2.59462301968e-20)
(-0.0540468480398 0.0841381403291 -2.1735020398e-20)
(-0.0363011494652 0.0378758430992 2.11472896929e-23)
(-0.0462681431933 0.0405897240396 1.20846188257e-22)
(-0.0576821164793 0.0434511219373 6.92963455369e-22)
(-0.070702236796 0.0452484306028 -4.38373756158e-21)
(-0.0843323670547 0.0445453584724 -8.81400051584e-22)
(-0.0963260750394 0.04622043278 -1.0734954673e-20)
(-0.096701335619 0.0352784292082 -2.19291785682e-20)
(-0.139578966922 0.00750221568813 -4.15614400629e-20)
(-0.0627138259457 0.0579512480238 -3.25675224215e-20)
(-0.0385018753392 0.0286632570502 2.94000213384e-22)
(-0.0480973344986 0.0299553884217 3.32917052294e-22)
(-0.0590080278848 0.0313167071028 1.93721453107e-21)
(-0.0713881593415 0.0314091471158 1.73576070264e-21)
(-0.0842651669808 0.0283454441068 -4.35302491502e-21)
(-0.0955132422706 0.028836458225 -1.40410107534e-20)
(-0.0956466744696 0.0200946163503 -3.53457220604e-20)
(-0.133419691052 -0.0136962410414 -6.00859880928e-20)
(-0.0528629415585 0.0329960653667 -4.41258658623e-20)
(-0.0314425676746 0.0193922016693 1.27780884059e-22)
(-0.0394117131399 0.0198433575538 -7.01789961973e-23)
(-0.0485036842183 0.019830807223 3.52590567862e-22)
(-0.0587759700077 0.0198296744658 1.81934449477e-21)
(-0.0703756393527 0.0184031617023 1.33994392222e-21)
(-0.0823938698891 0.0131990342273 -1.07220336654e-20)
(-0.0928409776804 0.0125645280758 -1.5875719321e-20)
(-0.0928258197854 0.00576872964532 -2.94456658304e-20)
(-0.125378202595 -0.0326827212743 -1.14092586972e-19)
(-0.0573584635825 0.0118072539259 -8.58781959542e-20)
(-0.0251971022167 0.0122119336107 -6.14056557411e-24)
(-0.031674669294 0.0121689324955 -2.72974070063e-23)
(-0.0391362027927 0.0115389104196 6.69213363919e-24)
(-0.0476173506369 0.0103391064019 2.980185339e-22)
(-0.0571476616308 0.00911428110975 9.18297264693e-22)
(-0.0678635084652 0.00635858886641 -1.04094825436e-21)
(-0.0789125348522 -0.000628396297873 3.47844696636e-22)
(-0.088529224997 -0.00226789320166 1.06245063723e-20)
(-0.0886605663629 -0.0074686107175 -9.54626558185e-21)
(-0.116305223156 -0.0487955644021 -1.7318707932e-19)
(-0.0728596361458 -0.00744014958942 -1.28738493052e-19)
(-0.0249383490738 0.00639037597953 -7.90937072846e-23)
(-0.0309164426557 0.00545332749086 3.02903496023e-23)
(-0.037787036803 0.00384120090651 -1.90207904875e-22)
(-0.0455685307251 0.0015732593359 3.3556916492e-23)
(-0.0542742435732 -0.000746703338594 -7.26216814988e-22)
(-0.0640354705509 -0.00467699868898 -4.02708143449e-21)
(-0.0740742856311 -0.0133270079612 -8.25863482152e-21)
(-0.0828353641591 -0.0159320275294 2.22044984102e-21)
(-0.0831440034763 -0.0198028238816 -1.58889395879e-20)
(-0.106124849489 -0.0633162638192 -1.26644773105e-19)
(-0.0501738490943 -0.025275887454 -9.62732896073e-20)
(-0.0292718994893 -0.000680734888392 -1.20607294681e-22)
(-0.0354753731085 -0.00316776081916 -7.27630442505e-23)
(-0.0424823449861 -0.00638344341263 1.86664068659e-22)
(-0.0502948989211 -0.00967397068294 1.17689817573e-22)
(-0.0590359871916 -0.0146193586651 -4.77095328036e-21)
(-0.0680036545954 -0.0246619363005 -1.13165082984e-20)
(-0.0758299206536 -0.0282380571248 3.05411846858e-22)
(-0.0762121054567 -0.0310839345727 1.7337403221e-22)
(-0.0947931434137 -0.076101128583 -1.13868083641e-19)
(-0.0221430670064 -0.0416198710467 -8.99331700383e-20)
(-0.0268383362565 -0.00616222954948 -5.53637520407e-23)
(-0.0323110197957 -0.00941742739249 1.70889236709e-22)
(-0.0384805216786 -0.0134646417343 1.49387536256e-22)
(-0.045345471211 -0.0176075622741 5.73141629558e-22)
(-0.0530289188105 -0.0234321934563 8.1636399979e-22)
(-0.0609042936346 -0.0346743020602 2.78228291771e-21)
(-0.0677714922612 -0.0389959242568 -3.8497985888e-21)
(-0.0683022486093 -0.0408442524102 -1.06882959272e-20)
(-0.0832305012029 -0.0862480732258 -5.72597675572e-20)
(-0.0327154511258 -0.0532683945011 -8.68150384707e-20)
(-0.02372604112 -0.0109366819488 -1.23384076737e-23)
(-0.0284149464572 -0.0148485340534 -7.26661808695e-23)
(-0.0336906978563 -0.0196117385633 3.99719605496e-22)
(-0.039554054757 -0.0244989184274 7.19648818135e-22)
(-0.0461382200295 -0.0310908165844 -4.01741929168e-23)
(-0.0529307818731 -0.0434549469815 2.10726505438e-22)
(-0.0588623071211 -0.0485899303049 4.65909078054e-21)
(-0.0596361673018 -0.0496018274075 -1.50176514839e-20)
(-0.0729707360271 -0.0950993835511 -9.71913759314e-20)
(-0.0645706534599 -0.0611122420073 -1.20256177124e-19)
(-0.0200588155391 -0.0149507142442 4.33731326364e-23)
(-0.0239163962656 -0.0194044903092 -2.77972526084e-23)
(-0.0282425052219 -0.0247615572417 5.81805736713e-22)
(-0.0330408360053 -0.0302850003074 1.57866509582e-21)
(-0.0384593908323 -0.0375553836996 -3.23440174114e-22)
(-0.0441005952764 -0.0508426466552 1.30971397014e-21)
(-0.0489463008059 -0.0567068489185 1.26249468241e-20)
(-0.049786778211 -0.0573937674464 -9.56873768651e-21)
(-0.0636865632932 -0.102678918991 -1.48286841927e-19)
(-0.0770056370022 -0.0668758088092 -8.53316752331e-20)
(-0.0158705217122 -0.0181440094854 1.98826988034e-22)
(-0.0188533883978 -0.0230117698367 1.98199471732e-23)
(-0.0221732882776 -0.0288228685631 7.57034628786e-23)
(-0.0258290839938 -0.0348462452669 -1.95030230935e-22)
(-0.0300000503702 -0.0426536429312 -3.69380710432e-21)
(-0.0345053783516 -0.0566734324335 -3.24371426454e-21)
(-0.0386673299877 -0.063108045371 5.63568144311e-21)
(-0.0408963955418 -0.0634628320005 -1.11659642199e-20)
(-0.0608763552951 -0.107363409616 -1.02588921651e-19)
(-0.0712232342723 -0.0686654805268 -8.35892311296e-20)
(-0.00927001251517 -0.0161449100114 -3.33178008363e-22)
(-0.0111258331022 -0.0203478625492 8.64680226581e-22)
(-0.0132081638685 -0.0254784901655 4.05899948666e-22)
(-0.0154905889057 -0.0315563860872 5.9568160732e-22)
(-0.0179135997997 -0.0378689191546 1.27890538768e-21)
(-0.0206982460666 -0.0460678780907 -3.12380159815e-21)
(-0.0243928574936 -0.0613118605174 -7.89657177799e-21)
(-0.0287994204017 -0.0697725156996 1.64042318192e-21)
(-0.0333358351038 -0.0694208715674 -3.68415276423e-20)
(-0.0625292953739 -0.106590818038 3.84611759119e-21)
(-0.0506279482573 -0.0782551096602 1.41619593069e-20)
(-0.00532851053919 -0.0167573398579 4.86343059816e-22)
(-0.00645614201557 -0.0210524842074 4.48145009484e-21)
(-0.00771399345714 -0.0262531325948 -4.58158142196e-22)
(-0.00903126135841 -0.0323288265818 3.61222305973e-21)
(-0.0100877189745 -0.0386945730174 2.13435847586e-21)
(-0.0107435698204 -0.0476038143277 4.10655998258e-21)
(-0.0117943506134 -0.0656368368547 -3.75179249078e-21)
(-0.0112303872562 -0.0789364321907 -7.50046562346e-21)
(-0.00820419509679 -0.0793179842329 -1.9672855653e-20)
(-0.0177426428417 -0.125375120562 -1.69801458325e-19)
(0.00873018198461 -0.0345191930474 -2.43441698495e-19)
(-0.00263856794884 -0.0142677171462 2.60539048231e-21)
(-0.00304241984348 -0.0182605701495 1.07026692635e-21)
(-0.00347598651495 -0.0231217305317 3.2110673763e-22)
(-0.0038024000875 -0.0286649744541 1.78928773249e-21)
(-0.00340652587346 -0.0342460477498 3.84293648945e-21)
(-0.00144194528692 -0.0409176687667 1.95705182631e-21)
(0.000568366938364 -0.0478401878782 8.25932621022e-21)
(-0.00135531623316 -0.0478699591479 1.11565928805e-20)
(-0.0396946268087 -0.0568902170133 -5.99554225545e-20)
(-0.204076109996 -0.0933211423102 -3.67519350689e-19)
(0.0735727822302 -0.199400548932 -3.71463974929e-19)
)
;

boundaryField
{
    back
    {
        type            calculated;
        value           uniform (0 0 0);
    }
    sides
    {
        type            calculated;
        value           uniform (0 0 0);
    }
    bottom
    {
        type            calculated;
        value           nonuniform List<vector> 0();
    }
    front
    {
        type            calculated;
        value           uniform (0 0 0);
    }
    atmosphere
    {
        type            calculated;
        value           nonuniform List<vector> 
17
(
(0 0.182325127517 0)
(0 0.147176634838 0)
(0 0.113849822449 0)
(0 0.0841381403291 0)
(0 0.0579512480238 0)
(0 0.0329960653667 0)
(0 0.0118072539259 0)
(0 -0.00744014958942 0)
(0 -0.025275887454 0)
(0 -0.0416198710467 0)
(0 -0.0532683945011 0)
(0 -0.0611122420073 0)
(0 -0.0668758088092 0)
(0 -0.0686654805268 0)
(0 -0.0782551096602 0)
(0 -0.0345191930474 0)
(0 -0.199400548932 0)
)
;
    }
    floatingObject
    {
        type            calculated;
        value           nonuniform List<vector> 0();
    }
    procBoundary11to9
    {
        type            processor;
        value           nonuniform List<vector> 9((-0.00302017967769 0.0839001552505 -1.32304434755e-22) (-0.0118169178935 0.0949454070332 1.51041945031e-22) (-0.0224044109012 0.1070340096 6.30377698575e-22) (-0.0348455215981 0.120076272449 -1.39717536294e-21) (-0.0483651557143 0.135159555279 -3.29887486376e-21) (-0.0610709439485 0.146964849424 -1.87636640649e-20) (-0.0652870102795 0.123904166848 -1.74035703634e-20) (-0.113704858655 0.154531299418 3.75034734134e-21) (-0.0111973560313 0.217037292363 3.88300408345e-21));
    }
    procBoundary11to10
    {
        type            processor;
        value           nonuniform List<vector> 
23
(
(-0.00483072769709 0.0667198552226 3.36597943854e-23)
(-0.0210233111153 0.0663195437433 -3.93998339041e-22)
(-0.0210233111153 0.0663195437433 -3.93998339041e-22)
(-0.0276385248813 0.0568881307889 9.60771671626e-23)
(-0.0276385248813 0.0568881307889 9.60771671626e-23)
(-0.0239490222235 0.0430590433937 -4.22256096897e-23)
(-0.0276617653407 0.0349588139322 1.0823646543e-23)
(-0.0301315467565 0.0270271482237 5.43028234697e-23)
(-0.0301315467565 0.0270271482237 5.43028234697e-23)
(-0.0245526327052 0.0184508488726 -6.17722759207e-23)
(-0.0245526327052 0.0184508488726 -6.17722759207e-23)
(-0.0196232684963 0.011845832415 -8.91506674029e-23)
(-0.0197746976817 0.00684568619462 -8.37680462907e-24)
(-0.0238605275216 0.00106034279442 -6.17919888987e-23)
(-0.0238605275216 0.00106034279442 -6.17919888987e-23)
(-0.0220533861624 -0.00371630101825 -8.49424372263e-23)
(-0.019617289439 -0.00788528210786 3.55318044462e-23)
(-0.0166673558725 -0.0113983194716 7.69828242174e-23)
(-0.0132322059805 -0.0142016823695 -1.97783544784e-22)
(-0.0132322059805 -0.0142016823695 -1.97783544784e-22)
(-0.00763846658762 -0.0126480529639 5.40265861844e-22)
(-0.00433046509312 -0.0131674793243 4.05833165381e-21)
(-0.00227913932112 -0.0109736973637 -5.50648871451e-22)
)
;
    }
}


// ************************************************************************* //
