/*--------------------------------*- C++ -*----------------------------------*\
| =========                 |                                                 |
| \\      /  F ield         | OpenFOAM: The Open Source CFD Toolbox           |
|  \\    /   O peration     | Version:  v2012                                 |
|   \\  /    A nd           | Website:  www.openfoam.com                      |
|    \\/     M anipulation  |                                                 |
\*---------------------------------------------------------------------------*/
FoamFile
{
    version     2.0;
    format      ascii;
    class       volScalarField;
    location    "1";
    object      epsilon_0;
}
// * * * * * * * * * * * * * * * * * * * * * * * * * * * * * * * * * * * * * //

dimensions      [0 2 -3 0 0 0 0];


internalField   nonuniform List<scalar> 
167
(
0.0239255261322
0.0240261229234
0.0242937959078
0.0251813377279
0.0280157607026
0.0359891756359
0.0554504850818
0.0973661402931
0.182069867095
0.0239669616185
0.0242344631705
0.0251231238065
0.0279666399952
0.0359830423285
0.0555900020193
0.0977965657244
0.182413756645
0.0239095959855
0.0241764949557
0.0250638618604
0.0279091706782
0.0359509031253
0.0556684283969
0.0981183333133
0.182689967412
0.0237537587953
0.0238542295375
0.0241201773509
0.0250043858473
0.0278456748443
0.0358982385711
0.0556961758958
0.0983463706692
0.182902532343
0.0237004028483
0.023801178086
0.0240658896687
0.0249455537623
0.0277782652144
0.0358296685594
0.0556833381217
0.0985032866876
0.183065740812
0.0236494669625
0.0237506386998
0.0240140022807
0.02488820201
0.0277091423963
0.0357507440027
0.0556415908114
0.0986123787414
0.183207953577
0.0235368026571
0.0236011224399
0.0237028633668
0.0239648759772
0.024833094627
0.0276402487252
0.0356662077151
0.0555790311141
0.0986714073384
0.183314741822
0.0234330743744
0.0234899164935
0.0235557062638
0.023658118281
0.0239188589142
0.0247809088783
0.0275730483629
0.035578824073
0.055501041421
0.0986845724083
0.183378588584
0.0233873328948
0.0234461326435
0.0235134335888
0.0236166499476
0.0238762729034
0.0247323015016
0.0275091938424
0.0354922370157
0.0554139997323
0.0986828548151
0.183447944897
0.0234055443007
0.0234744445643
0.0235785857636
0.0238372954971
0.0246876983577
0.0274497991772
0.0354090852035
0.0553223797576
0.0986478114065
0.183462777081
0.0233676640241
0.0234382720122
0.0235434342807
0.023801486656
0.0246469734003
0.0273957919236
0.0353331116131
0.0552364319749
0.0986079088326
0.183483043802
0.0233292621639
0.0234015609803
0.0235077931885
0.0237654682476
0.0246069851696
0.0273448182969
0.0352634389525
0.0551556874384
0.098568719705
0.183493943936
0.0232745448328
0.023348415739
0.0234556770805
0.0237132103487
0.0245518563845
0.0272819302515
0.0351882541441
0.0550727092968
0.098479215663
0.183401458278
0.0231383565958
0.0232134218639
0.0233213783159
0.0235785372189
0.0244145126317
0.0271387542979
0.0350395168936
0.054927061367
0.0983210251681
0.183219842962
0.0226124829759
0.0226813257285
0.0227564507414
0.0228636661486
0.0231179060835
0.0239456877219
0.0266533057308
0.0345338867989
0.0544074923864
0.0978222689911
0.182667734015
0.021062437051
0.0211289997178
0.0212010459285
0.0213024667226
0.0215415557374
0.0223270134315
0.02493088365
0.0326168209751
0.0522591895513
0.0952301186774
0.180659621226
0.0210210428885
0.0211054190773
0.0211937848822
0.0213052414192
0.0215340891343
0.0222677676249
0.0248194162055
0.0329115506572
0.0555771218278
0.111931054221
0.235842902201
)
;

boundaryField
{
    back
    {
        lowReCorrection 0;
        blending        stepwise;
        n               2;
        type            epsilonWallFunction;
        value           nonuniform List<scalar> 
167
(
0.0239255261322
0.0240261229234
0.0242937959078
0.0251813377279
0.0280157607026
0.0359891756359
0.0554504850818
0.0973661402931
0.182069867095
0.0239669616185
0.0242344631705
0.0251231238065
0.0279666399952
0.0359830423285
0.0555900020193
0.0977965657244
0.182413756645
0.0239095959855
0.0241764949557
0.0250638618604
0.0279091706782
0.0359509031253
0.0556684283969
0.0981183333133
0.182689967412
0.0237537587953
0.0238542295375
0.0241201773509
0.0250043858473
0.0278456748443
0.0358982385711
0.0556961758958
0.0983463706692
0.182902532343
0.0237004028483
0.023801178086
0.0240658896687
0.0249455537623
0.0277782652144
0.0358296685594
0.0556833381217
0.0985032866876
0.183065740812
0.0236494669625
0.0237506386998
0.0240140022807
0.02488820201
0.0277091423963
0.0357507440027
0.0556415908114
0.0986123787414
0.183207953577
0.0235368026571
0.0236011224399
0.0237028633668
0.0239648759772
0.024833094627
0.0276402487252
0.0356662077151
0.0555790311141
0.0986714073384
0.183314741822
0.0234330743744
0.0234899164935
0.0235557062638
0.023658118281
0.0239188589142
0.0247809088783
0.0275730483629
0.035578824073
0.055501041421
0.0986845724083
0.183378588584
0.0233873328948
0.0234461326435
0.0235134335888
0.0236166499476
0.0238762729034
0.0247323015016
0.0275091938424
0.0354922370157
0.0554139997323
0.0986828548151
0.183447944897
0.0234055443007
0.0234744445643
0.0235785857636
0.0238372954971
0.0246876983577
0.0274497991772
0.0354090852035
0.0553223797576
0.0986478114065
0.183462777081
0.0233676640241
0.0234382720122
0.0235434342807
0.023801486656
0.0246469734003
0.0273957919236
0.0353331116131
0.0552364319749
0.0986079088326
0.183483043802
0.0233292621639
0.0234015609803
0.0235077931885
0.0237654682476
0.0246069851696
0.0273448182969
0.0352634389525
0.0551556874384
0.098568719705
0.183493943936
0.0232745448328
0.023348415739
0.0234556770805
0.0237132103487
0.0245518563845
0.0272819302515
0.0351882541441
0.0550727092968
0.098479215663
0.183401458278
0.0231383565958
0.0232134218639
0.0233213783159
0.0235785372189
0.0244145126317
0.0271387542979
0.0350395168936
0.054927061367
0.0983210251681
0.183219842962
0.0226124829759
0.0226813257285
0.0227564507414
0.0228636661486
0.0231179060835
0.0239456877219
0.0266533057308
0.0345338867989
0.0544074923864
0.0978222689911
0.182667734015
0.021062437051
0.0211289997178
0.0212010459285
0.0213024667226
0.0215415557374
0.0223270134315
0.02493088365
0.0326168209751
0.0522591895513
0.0952301186774
0.180659621226
0.0210210428885
0.0211054190773
0.0211937848822
0.0213052414192
0.0215340891343
0.0222677676249
0.0248194162055
0.0329115506572
0.0555771218278
0.111931054221
0.235842902201
)
;
    }
    sides
    {
        lowReCorrection 0;
        blending        stepwise;
        n               2;
        type            epsilonWallFunction;
        value           nonuniform List<scalar> 
11
(
0.0210210428885
0.0211054190773
0.0211937848822
0.0213052414192
0.0215340891343
0.0222677676249
0.0248194162055
0.0329115506572
0.0555771218278
0.111931054221
0.235842902201
)
;
    }
    bottom
    {
        lowReCorrection 0;
        blending        stepwise;
        n               2;
        type            epsilonWallFunction;
        value           nonuniform List<scalar> 0();
    }
    front
    {
        lowReCorrection 0;
        blending        stepwise;
        n               2;
        type            epsilonWallFunction;
        value           nonuniform List<scalar> 
167
(
0.0239255261322
0.0240261229234
0.0242937959078
0.0251813377279
0.0280157607026
0.0359891756359
0.0554504850818
0.0973661402931
0.182069867095
0.0239669616185
0.0242344631705
0.0251231238065
0.0279666399952
0.0359830423285
0.0555900020193
0.0977965657244
0.182413756645
0.0239095959855
0.0241764949557
0.0250638618604
0.0279091706782
0.0359509031253
0.0556684283969
0.0981183333133
0.182689967412
0.0237537587953
0.0238542295375
0.0241201773509
0.0250043858473
0.0278456748443
0.0358982385711
0.0556961758958
0.0983463706692
0.182902532343
0.0237004028483
0.023801178086
0.0240658896687
0.0249455537623
0.0277782652144
0.0358296685594
0.0556833381217
0.0985032866876
0.183065740812
0.0236494669625
0.0237506386998
0.0240140022807
0.02488820201
0.0277091423963
0.0357507440027
0.0556415908114
0.0986123787414
0.183207953577
0.0235368026571
0.0236011224399
0.0237028633668
0.0239648759772
0.024833094627
0.0276402487252
0.0356662077151
0.0555790311141
0.0986714073384
0.183314741822
0.0234330743744
0.0234899164935
0.0235557062638
0.023658118281
0.0239188589142
0.0247809088783
0.0275730483629
0.035578824073
0.055501041421
0.0986845724083
0.183378588584
0.0233873328948
0.0234461326435
0.0235134335888
0.0236166499476
0.0238762729034
0.0247323015016
0.0275091938424
0.0354922370157
0.0554139997323
0.0986828548151
0.183447944897
0.0234055443007
0.0234744445643
0.0235785857636
0.0238372954971
0.0246876983577
0.0274497991772
0.0354090852035
0.0553223797576
0.0986478114065
0.183462777081
0.0233676640241
0.0234382720122
0.0235434342807
0.023801486656
0.0246469734003
0.0273957919236
0.0353331116131
0.0552364319749
0.0986079088326
0.183483043802
0.0233292621639
0.0234015609803
0.0235077931885
0.0237654682476
0.0246069851696
0.0273448182969
0.0352634389525
0.0551556874384
0.098568719705
0.183493943936
0.0232745448328
0.023348415739
0.0234556770805
0.0237132103487
0.0245518563845
0.0272819302515
0.0351882541441
0.0550727092968
0.098479215663
0.183401458278
0.0231383565958
0.0232134218639
0.0233213783159
0.0235785372189
0.0244145126317
0.0271387542979
0.0350395168936
0.054927061367
0.0983210251681
0.183219842962
0.0226124829759
0.0226813257285
0.0227564507414
0.0228636661486
0.0231179060835
0.0239456877219
0.0266533057308
0.0345338867989
0.0544074923864
0.0978222689911
0.182667734015
0.021062437051
0.0211289997178
0.0212010459285
0.0213024667226
0.0215415557374
0.0223270134315
0.02493088365
0.0326168209751
0.0522591895513
0.0952301186774
0.180659621226
0.0210210428885
0.0211054190773
0.0211937848822
0.0213052414192
0.0215340891343
0.0222677676249
0.0248194162055
0.0329115506572
0.0555771218278
0.111931054221
0.235842902201
)
;
    }
    atmosphere
    {
        type            inletOutlet;
        inletValue      uniform 0.1;
        value           uniform 0.1;
    }
    floatingObject
    {
        lowReCorrection 0;
        blending        stepwise;
        n               2;
        type            epsilonWallFunction;
        value           nonuniform List<scalar> 0();
    }
    procBoundary11to9
    {
        type            processor;
        value           nonuniform List<scalar> 9(0.0239858213337 0.0240866298219 0.024353827063 0.0252373253914 0.0280539152235 0.0359632045628 0.0552372400069 0.0968084139929 0.181647629688);
    }
    procBoundary11to10
    {
        type            processor;
        value           nonuniform List<scalar> 
23
(
0.0238648967831
0.0238664694127
0.0238664694127
0.0238091125667
0.0238091125667
0.023692225218
0.0236381715834
0.0235862716555
0.0235862716555
0.0234815787913
0.0234815787913
0.0233798515623
0.0233319501821
0.0233446865504
0.0233446865504
0.0233046700042
0.0232641859627
0.023207539149
0.0230698392223
0.0230698392223
0.0225449288593
0.0209968718312
0.0209374011679
)
;
    }
}


// ************************************************************************* //
