/*--------------------------------*- C++ -*----------------------------------*\
| =========                 |                                                 |
| \\      /  F ield         | OpenFOAM: The Open Source CFD Toolbox           |
|  \\    /   O peration     | Version:  v2012                                 |
|   \\  /    A nd           | Website:  www.openfoam.com                      |
|    \\/     M anipulation  |                                                 |
\*---------------------------------------------------------------------------*/
FoamFile
{
    version     2.0;
    format      ascii;
    class       surfaceScalarField;
    location    "1";
    object      phi;
}
// * * * * * * * * * * * * * * * * * * * * * * * * * * * * * * * * * * * * * //

dimensions      [0 3 -1 0 0 0 0];
oriented        oriented;


internalField   nonuniform List<scalar> 
304
(
-0.000352016137781
-0.00038910426605
-0.000738960861998
-0.000428294422806
-0.000763713485774
-0.000469844159715
-0.000790123001392
-0.00051402782299
-0.0008166976561
-0.0005610915444
-0.000839626216086
-0.000610001756016
-0.000849382576625
-0.000661084321994
-0.000856888120787
-0.0007565039283
-0.000413936292753
-0.000699934150684
-0.00045504188117
-0.000722607914906
-0.000498471328377
-0.000746693580363
-0.000544470499364
-0.000770698507879
-0.000593186396664
-0.000790910330735
-0.000643504283025
-0.000799064694183
-0.000696056245285
-0.000804336317968
-0.000713158693236
-0.000436698452153
-0.000659205483488
-0.000479456818893
-0.000679849559088
-0.000524475641278
-0.000701674774547
-0.000571970173208
-0.000723203992199
-0.000621993847545
-0.000740886665332
-0.000673363124186
-0.000747695420728
-0.00072682416585
-0.000750875403997
-0.000668584414749
-0.000415228396928
-0.000599479036004
-0.000457436462379
-0.000616997418559
-0.000501603834461
-0.000635682195949
-0.000547941410002
-0.000655337212863
-0.000596631920108
-0.000674513495545
-0.000647673539427
-0.000689845054011
-0.000699821357892
-0.000695547605053
-0.000753771100274
-0.000696925760702
-0.000623072288972
-0.000432733992933
-0.000557684109589
-0.000476219604233
-0.000573511811076
-0.000521573322143
-0.000590328488709
-0.000568974621345
-0.000607935927432
-0.000618552377244
-0.000624935752967
-0.000670215710762
-0.000638181728334
-0.000722896462145
-0.000642866856345
-0.000777317934014
-0.000642504357232
-0.000576796775062
-0.000448551934525
-0.000514716971327
-0.000493136476585
-0.000528927276718
-0.000539490911461
-0.000543974066677
-0.000587763443376
-0.00055966341096
-0.00063801499197
-0.000574684218046
-0.000690029901541
-0.000586166826989
-0.000742751588602
-0.000590145171874
-0.000797150942886
-0.00058810504962
-0.000529757012899
-0.000418767436309
-0.000458920464512
-0.000462754815005
-0.000470729597147
-0.000508283626129
-0.000483398476271
-0.000555484294985
-0.000496773413275
-0.000604485750084
-0.000510661972446
-0.00065532408803
-0.000523845894556
-0.00070777138952
-0.000533719534051
-0.00076075632776
-0.000537160236171
-0.000814990953012
-0.000533870448839
-0.00048244201753
-0.000387021503545
-0.000405766230954
-0.000430545696973
-0.000415396272339
-0.000475419258887
-0.000425856042708
-0.000521757533512
-0.000437060215117
-0.000569668425449
-0.000448862538328
-0.000619244183325
-0.000461086232143
-0.000670479598785
-0.000472610493878
-0.000723146719243
-0.00048105242224
-0.000776508676197
-0.000483798281724
-0.000830665179504
-0.000479713946127
-0.00043511867501
-0.000396632532285
-0.000440980756427
-0.000371048051686
-0.00048662160849
-0.000380215200985
-0.000533656663207
-0.000390025175744
-0.000582175690997
-0.000400343528626
-0.000632250903859
-0.000411011037144
-0.000683828493213
-0.000421032919142
-0.000736613475722
-0.000428267448255
-0.000789623879591
-0.000430787880212
-0.000842701623884
-0.000426636185452
-0.000387409405147
-0.000450127636979
-0.000325986827528
-0.000496431909578
-0.000333910941625
-0.000544068466961
-0.000342388635186
-0.000593108938206
-0.000351303075891
-0.000643599686859
-0.000360520306114
-0.000695461469487
-0.000369171150676
-0.000748401053199
-0.000375327872781
-0.000801816781472
-0.000377372154152
-0.000855419137609
-0.000373033797542
-0.000340571836665
-0.000458035274314
-0.00028031134114
-0.000504912302195
-0.00028703392932
-0.000553072223822
-0.000294228731014
-0.000602574982834
-0.000301800335231
-0.000653442506064
-0.000309652799831
-0.00070553077939
-0.000317082890878
-0.000758473829341
-0.000322384830619
-0.000811656365294
-0.000324189620335
-0.00086399205919
-0.000320698052864
-0.00029424770024
-0.000464744598941
-0.000234115949472
-0.000512111288644
-0.00023966725669
-0.000560728621085
-0.000245611416307
-0.000610653097686
-0.000251875876346
-0.000661898668985
-0.0002584072447
-0.0007142872484
-0.000264694324123
-0.000767349548597
-0.00026932253779
-0.000820218442297
-0.000271320728609
-0.0008713544255
-0.000269562007722
-0.000249970760941
-0.000470281037108
-0.000187491369848
-0.000518055603411
-0.000191892707655
-0.000567067180884
-0.000196599856185
-0.000617385091552
-0.000201557982842
-0.000669030016443
-0.00020676233498
-0.000721802188092
-0.000211922164439
-0.000775129096052
-0.000215995636668
-0.000828303085039
-0.000218146741459
-0.000877271687851
-0.000220593332931
-0.000210475054579
-0.000474627627708
-0.000140533366715
-0.000522717959002
-0.000143802392849
-0.000572037861123
-0.000147279970953
-0.000622685851434
-0.000150910008725
-0.000674712390076
-0.000154735810737
-0.000727901334394
-0.000158733231167
-0.000781636248305
-0.000162260729096
-0.000835074933309
-0.000164708058256
-0.000880093497784
-0.000175574679358
-0.000177967100816
-0.000430381688226
-9.13525593553e-05
-0.000477557430872
-9.33576415056e-05
-0.000525840231643
-9.55196089453e-05
-0.000575322459207
-9.77977598446e-05
-0.000626163858769
-0.000100068624769
-0.00067861546493
-0.000102284217988
-0.000732538498552
-0.000104810207757
-0.000787040987446
-0.000107758245929
-0.000837618641501
-0.000114130406092
-0.000884811456686
-0.000128381762085
-0.000181046512223
-0.000430638185089
-4.51719748046e-05
-0.000477821534076
-4.61743105308e-05
-0.000526082177668
-4.72589824073e-05
-0.000575500890607
-4.83790633072e-05
-0.000626409695822
-4.91598344599e-05
-0.000679846426712
-4.88474997107e-05
-0.000736595093427
-4.80615505524e-05
-0.000796079718206
-4.82736262938e-05
-0.000857073301255
-5.31368244287e-05
-0.000864466488479
-0.000120988543799
-0.000255307179592
-0.000420717352955
-0.000466891672289
-0.000514150663141
-0.000562529734206
-0.000611689575547
-0.000660537080662
-0.000708598634844
-0.000756872262661
-0.000810009087644
-0.000930997522385
)
;

boundaryField
{
    back
    {
        type            calculated;
        value           uniform 0;
    }
    sides
    {
        type            calculated;
        value           uniform 0;
    }
    bottom
    {
        type            calculated;
        value           nonuniform List<scalar> 0();
    }
    front
    {
        type            calculated;
        value           uniform 0;
    }
    atmosphere
    {
        type            calculated;
        value           nonuniform List<scalar> 
17
(
-0.000702815263708
-0.000739401322274
-0.000771398318901
-0.00079928312962
-0.000823593382294
-0.000844190661593
-0.000862305927118
-0.00087798852428
-0.000890410912819
-0.000902256740174
-0.000910316248045
-0.000915631428534
-0.000916767467337
-0.000912601540848
-0.000881732156512
-0.000790205849481
-0.00118630480598
)
;
    }
    floatingObject
    {
        type            calculated;
        value           nonuniform List<scalar> 0();
    }
    procBoundary11to9
    {
        type            processor;
        value           nonuniform List<scalar> 9(0.000751283738922 0.000776048967891 0.000802903592366 0.000831672658677 0.000860881258521 0.000886689896638 0.000898292776168 0.000907970479513 0.000798235080132);
    }
    procBoundary11to10
    {
        type            processor;
        value           nonuniform List<scalar> 
23
(
0.000316774881482
-0.000716042420982
0.0003749095888
0.000395969804796
0.000639930895508
0.000374776584001
0.000390939077003
0.000405584802721
0.000501499812991
0.000376188099556
0.000448063753083
0.000344723993807
0.00035346693074
-0.000362600630651
0.000405066402092
0.000412359768533
0.00041854918159
0.000423656432956
0.000427669595611
0.000137509647736
0.000384224557596
0.000384457573819
0.000375545356632
)
;
    }
}


// ************************************************************************* //
