/*--------------------------------*- C++ -*----------------------------------*\
| =========                 |                                                 |
| \\      /  F ield         | OpenFOAM: The Open Source CFD Toolbox           |
|  \\    /   O peration     | Version:  v2012                                 |
|   \\  /    A nd           | Website:  www.openfoam.com                      |
|    \\/     M anipulation  |                                                 |
\*---------------------------------------------------------------------------*/
FoamFile
{
    version     2.0;
    format      ascii;
    class       surfaceVectorField;
    location    "1";
    object      Uf;
}
// * * * * * * * * * * * * * * * * * * * * * * * * * * * * * * * * * * * * * //

dimensions      [0 1 -1 0 0 0 0];


internalField   nonuniform List<vector> 
304
(
(-0.149126594042 -0.0704032275562 1.43695903438e-23)
(-0.154083557646 -0.0778208532101 1.26789285575e-22)
(-0.1477921724 -0.0764724279677 4.59603843837e-23)
(-0.15941468661 -0.0856588845612 3.17331329803e-22)
(-0.152742697155 -0.0842150762015 1.93530335346e-22)
(-0.164954799445 -0.0939688319429 1.0281827353e-22)
(-0.158024600278 -0.0923134822842 3.18467028992e-22)
(-0.170170840237 -0.102805564598 -2.52961439694e-21)
(-0.16333953122 -0.101484283562 -3.47594712122e-22)
(-0.173664001282 -0.11221830888 -6.92315775408e-21)
(-0.167925243217 -0.11194720789 -5.98944719115e-21)
(-0.17559237659 -0.122000351203 -7.88366405077e-21)
(-0.169876515325 -0.122500180378 -1.21779127637e-20)
(-0.16602209177 -0.132216864399 -6.43481033226e-21)
(-0.171377624157 -0.130485400538 -5.32826571898e-21)
(-0.15130078566 -0.142565890994 -4.88883285706e-21)
(-0.146259930961 -0.0827872585505 1.12701434155e-22)
(-0.139986830137 -0.0810589762917 3.17421367203e-23)
(-0.151148364454 -0.0910083762341 1.94666034535e-22)
(-0.144521582981 -0.0891556105351 1.20608437249e-22)
(-0.156194733748 -0.0996942656754 -1.3194595666e-22)
(-0.149338716073 -0.0975972397163 2.81937975155e-22)
(-0.160871863831 -0.108894099873 -3.80742750633e-21)
(-0.154139701576 -0.10718274353 -6.7640333086e-23)
(-0.163913123289 -0.118637279333 -1.12442022008e-20)
(-0.158182066147 -0.117937330871 -5.30400218564e-21)
(-0.165434077038 -0.128700856605 -9.62251443194e-21)
(-0.159812938837 -0.127819637364 -1.12298397283e-20)
(-0.156556867309 -0.139211249057 -3.78228824378e-21)
(-0.160867263594 -0.13565976278 -2.6539849582e-21)
(-0.142631738647 -0.149837511174 -2.55357063252e-21)
(-0.138076602398 -0.0873396904307 3.96491398141e-23)
(-0.131841096698 -0.0852585694959 4.69405032702e-23)
(-0.142530865329 -0.0958913637785 2.07880377868e-22)
(-0.135969911818 -0.093661698824 1.85663740361e-22)
(-0.147096226152 -0.104895128256 3.46243598729e-22)
(-0.140334954909 -0.102391783846 1.87357352114e-22)
(-0.151259402156 -0.114394034642 -1.56421501239e-21)
(-0.14464079844 -0.112320358056 2.0537876036e-22)
(-0.153890699022 -0.124398769509 -5.28963971318e-21)
(-0.148177333066 -0.123314479312 -3.05391769999e-21)
(-0.155038040528 -0.134672624837 -4.2613102546e-21)
(-0.149539084146 -0.132622730155 -6.94319185e-21)
(-0.146830807756 -0.14536483317 -1.42526734695e-21)
(-0.150175080799 -0.140155961251 -3.12803229319e-21)
(-0.13371688295 -0.156222193666 -2.99575389429e-21)
(-0.125781861468 -0.0830456793856 1.44193449436e-23)
(-0.119895807201 -0.0806620143612 -2.38193691909e-23)
(-0.129581753488 -0.0914872924759 1.92955103817e-22)
(-0.123399483712 -0.0890809223788 5.39511344018e-23)
(-0.133615479679 -0.100320766892 1.65140714606e-22)
(-0.12713643919 -0.097746890225 2.15085380922e-22)
(-0.137718153102 -0.109588282 4.64925137451e-23)
(-0.131067442573 -0.106715148049 -2.99901597041e-22)
(-0.141396390863 -0.119326384022 -1.28432392724e-21)
(-0.134902699109 -0.11691848854 -8.64182298094e-22)
(-0.143661787166 -0.129534707885 -4.70746983681e-21)
(-0.137969010802 -0.128100091024 -1.97212568059e-21)
(-0.144498493314 -0.139964271578 -5.80991388858e-21)
(-0.139109521011 -0.136917391133 -6.07707683428e-21)
(-0.1369547234 -0.150754220055 -4.69851884053e-21)
(-0.13938515214 -0.144045109518 -1.15671127162e-20)
(-0.124614457794 -0.161815719912 -1.06559081846e-20)
(-0.117383175815 -0.0865467985866 1.57124202673e-23)
(-0.111536821918 -0.0838737846432 1.19715280857e-23)
(-0.120819872853 -0.0952439208466 7.60814115066e-23)
(-0.114702362215 -0.0925395687412 4.21658402756e-23)
(-0.124451827495 -0.104314664429 -2.49956930725e-22)
(-0.118065697742 -0.101429708496 1.89224421879e-22)
(-0.128117328337 -0.113794924269 -1.21057640888e-21)
(-0.121587185486 -0.110592788458 -1.17951603806e-22)
(-0.131348078481 -0.123710475449 -1.55198405145e-21)
(-0.124987150593 -0.121012865535 -9.9388674062e-22)
(-0.133289643104 -0.134043142152 -3.34173267806e-21)
(-0.127636345667 -0.132337669262 -2.47677286456e-21)
(-0.133852432954 -0.144579292429 -1.18342756619e-20)
(-0.128573371269 -0.140712867529 -7.07826252649e-21)
(-0.126976332834 -0.155463586803 -1.75245020603e-20)
(-0.128500871446 -0.147326484782 -1.55525157816e-20)
(-0.115359355012 -0.166659551941 -1.43245545475e-20)
(-0.108740412181 -0.089710386905 3.8424948094e-23)
(-0.102943394265 -0.0867709149018 3.5041113777e-24)
(-0.111830317979 -0.098627295317 1.55308850648e-22)
(-0.105785455344 -0.0956505921592 6.85948303262e-23)
(-0.115082642388 -0.107898182292 3.21229748798e-22)
(-0.108794813335 -0.104731844446 3.67054155961e-22)
(-0.118342687356 -0.117552688675 9.8738064454e-23)
(-0.111932682192 -0.114055535139 2.28273716839e-22)
(-0.12117355345 -0.127602998394 -1.91867555373e-21)
(-0.114936843609 -0.124652632597 -5.36673901625e-22)
(-0.1228358216 -0.138005980308 -6.21330271298e-21)
(-0.117233365398 -0.13610777975 -5.50912367272e-21)
(-0.123125148019 -0.14855031772 -1.07965026462e-20)
(-0.118029034375 -0.144106550287 -1.56092807731e-20)
(-0.116838290717 -0.159430188577 -1.23525682688e-20)
(-0.117621009924 -0.150148643338 -1.95437788568e-20)
(-0.10595140258 -0.170864611498 -1.79496554002e-20)
(-0.0972951378547 -0.0837534872618 2.10029552076e-24)
(-0.0917840929025 -0.0806084830649 1.18797311923e-23)
(-0.0998862706564 -0.0925509630009 3.36739936099e-23)
(-0.0941459194294 -0.0893665048409 -1.67836427156e-23)
(-0.102646658851 -0.101656725226 2.80340135639e-22)
(-0.0966796952542 -0.0984310152437 7.76362068243e-23)
(-0.105541510701 -0.111096858997 2.74098124002e-22)
(-0.099354682655 -0.107675040254 3.85251073652e-22)
(-0.108425718245 -0.120897150017 -4.07138249239e-22)
(-0.102132394489 -0.117131664586 -2.27001610345e-23)
(-0.110898848285 -0.131064817606 -4.12712202061e-21)
(-0.104769178911 -0.127870000105 -5.01121429933e-22)
(-0.112327958363 -0.141554277904 -1.49051017329e-20)
(-0.10674390681 -0.139432950153 -3.02740037585e-21)
(-0.112406971259 -0.152151265552 -2.43565569837e-20)
(-0.107432047234 -0.147135902141 -1.2775641711e-20)
(-0.106661885513 -0.162998190602 -2.51408659881e-20)
(-0.106774089768 -0.152661204844 -2.83982387464e-20)
(-0.096488403506 -0.174560590583 -2.59103244414e-20)
(-0.086411631776 -0.0774043007091 2.38185458613e-24)
(-0.0811532461909 -0.0740806360203 -4.70233027289e-24)
(-0.08854607674 -0.0861091393946 -7.00420704402e-24)
(-0.0830792544679 -0.0827444433705 -1.70481432475e-24)
(-0.0908495153173 -0.0950838517774 2.71785704988e-23)
(-0.0851712085416 -0.0916741651659 -1.57974448608e-23)
(-0.093297903925 -0.104351506702 1.82547144837e-22)
(-0.0874120430234 -0.100898192798 3.47883708821e-23)
(-0.0958577447588 -0.11393368509 8.84527886151e-23)
(-0.0897725076656 -0.110281401611 1.11517752379e-22)
(-0.098393786083 -0.123848836665 -1.16683341728e-22)
(-0.0922172464287 -0.119848920973 -3.85617139143e-22)
(-0.100539569635 -0.134095919757 5.98600214824e-22)
(-0.0945220987757 -0.130699325176 -1.13752390422e-21)
(-0.101758584504 -0.144629343849 -8.97940354003e-22)
(-0.096210484448 -0.142343963671 1.73682473353e-21)
(-0.101680608753 -0.155301735239 -1.68173234737e-20)
(-0.0967596563448 -0.149773991806 6.97259212956e-22)
(-0.096538050516 -0.166133035901 -2.91676971996e-20)
(-0.0959427892254 -0.154761045367 -2.51307683651e-20)
(-0.0870237350019 -0.177639775443 -2.29271539754e-20)
(-0.077743952978 -0.0793265064569 -8.78899918376e-24)
(-0.079626284142 -0.0881961512854 -1.04980521415e-23)
(-0.0742096103373 -0.0846284412986 -4.84394954218e-24)
(-0.0816551730568 -0.097324321698 -8.18764447755e-24)
(-0.076043040197 -0.0937069946004 -1.82807708774e-23)
(-0.0838083346508 -0.106731332641 -3.62410215757e-23)
(-0.0780050351489 -0.103068686719 2.04668827496e-23)
(-0.0860548363875 -0.116435138199 -3.62552175378e-22)
(-0.0800687057252 -0.112572043398 3.04492596551e-23)
(-0.0882720644252 -0.126450180772 -1.40645770163e-21)
(-0.0822022074288 -0.12223429216 -6.40338794841e-22)
(-0.0901275757044 -0.136765698643 7.00614482563e-25)
(-0.0842065838283 -0.133176620976 -2.15235290272e-21)
(-0.0911683702164 -0.147322695144 3.33202430049e-21)
(-0.085653489651 -0.144897423841 -8.03335514899e-23)
(-0.0909981252441 -0.157924775918 -7.61618567844e-21)
(-0.0861575760423 -0.152106436995 -1.83296803922e-21)
(-0.0864119738172 -0.168540324777 -1.88902251408e-20)
(-0.0853272370905 -0.156592497732 -1.81076063753e-20)
(-0.0774818810293 -0.180345207901 -1.65420139897e-20)
(-0.0705581991099 -0.0900255273957 -1.26266682781e-23)
(-0.0651973655056 -0.0862697607848 -4.73519789399e-24)
(-0.0723245015824 -0.0992863819156 1.03737563497e-23)
(-0.066782188325 -0.0954767901211 3.68514723864e-24)
(-0.0741975421028 -0.108813693392 8.71571639803e-23)
(-0.0684777270371 -0.104957334838 3.31402373622e-23)
(-0.0761499107256 -0.118621787641 -2.47337359808e-22)
(-0.0702606151782 -0.114565441545 1.51400664318e-22)
(-0.0780734960103 -0.128719937372 -1.38623399593e-21)
(-0.0721040612227 -0.12431133919 -2.44381798595e-22)
(-0.0796713807968 -0.139092293897 -2.23338706869e-21)
(-0.0738342301352 -0.135329875639 -7.80718099528e-22)
(-0.0805611166769 -0.14968021064 -5.2453258912e-21)
(-0.0750655745562 -0.147110549582 -1.66753740247e-21)
(-0.0803465380771 -0.160363356294 -1.2324388736e-20)
(-0.0754744308305 -0.15413794537 -5.49142373917e-21)
(-0.0763447973559 -0.171083827522 -1.57593952241e-20)
(-0.0746067595084 -0.158187054805 -1.4685048529e-20)
(-0.068114367333 -0.182597567915 -1.34524506485e-20)
(-0.0613614510626 -0.0916070548629 1.15766176227e-23)
(-0.0560622682279 -0.0876765627331 3.16948816134e-25)
(-0.0628753548689 -0.100982460439 2.64516282511e-23)
(-0.0574067858641 -0.0969935489408 4.58240089318e-24)
(-0.0644810473743 -0.110614444764 9.73837377001e-23)
(-0.0588457462028 -0.106576545346 4.62608032853e-23)
(-0.0661562428786 -0.120514996567 1.54356225531e-22)
(-0.0603600670462 -0.116277518053 2.16629669154e-22)
(-0.0678104231197 -0.130688501213 3.61134097803e-22)
(-0.0619305599661 -0.126101616911 8.90942600178e-23)
(-0.0691824405557 -0.141106155878 -2.14868433305e-22)
(-0.0634165781756 -0.137193041051 3.41473876727e-22)
(-0.0699431888248 -0.151694765868 -1.91363525044e-21)
(-0.0644769661239 -0.149033212026 -4.11590685475e-22)
(-0.0697235835189 -0.162331273059 -7.85208353213e-21)
(-0.0648379240671 -0.155884981999 -3.19368367238e-21)
(-0.0664024313142 -0.172798411838 -1.23781039534e-20)
(-0.0641396105728 -0.159483161003 -1.74927639586e-20)
(-0.0588495400479 -0.184155449486 -1.60638070378e-20)
(-0.0520567187367 -0.0929489197882 -6.6772679134e-24)
(-0.0468231898944 -0.08885512454 1.081067824e-23)
(-0.0533259238447 -0.102422257729 2.43915759273e-23)
(-0.047933451338 -0.0982643877631 -8.01410566976e-24)
(-0.0546733116571 -0.112145724217 1.65506734739e-22)
(-0.0491222832614 -0.107934496869 8.01488858401e-23)
(-0.0560830224114 -0.122130619537 1.5136770364e-22)
(-0.0503751752693 -0.117718405752 3.5145861998e-22)
(-0.0574866655864 -0.132379733797 6.94340389427e-23)
(-0.05168144894 -0.127620405596 2.85124672517e-23)
(-0.0586656422639 -0.14285744968 1.44751624558e-22)
(-0.0529388648247 -0.138791138394 1.38481873677e-22)
(-0.0593423317426 -0.153469909719 -1.69163910741e-21)
(-0.053864507558 -0.150706731613 8.10929710611e-22)
(-0.0592268888618 -0.164043688459 -1.28343640989e-20)
(-0.0542641457217 -0.157449399082 -3.25399209329e-21)
(-0.0566528402275 -0.1742708851 -2.1178467043e-20)
(-0.0539124015444 -0.160692141769 -2.48174530179e-20)
(-0.0499941521883 -0.185078430867 -2.26801435969e-20)
(-0.0426682979595 -0.0940562074216 9.47384048361e-24)
(-0.0374982739696 -0.0898064340488 5.81294768885e-23)
(-0.0436974478305 -0.103611120682 4.7743204243e-23)
(-0.0383785415311 -0.0992898247573 7.79286379592e-23)
(-0.0447903323997 -0.113413436177 2.66100771081e-22)
(-0.0393199712371 -0.109030412086 7.69058352113e-23)
(-0.0459377419077 -0.12347701831 2.28603383591e-22)
(-0.0403115965685 -0.118884922948 2.41615851356e-22)
(-0.047094668067 -0.133806003289 9.75603019858e-23)
(-0.041352466996 -0.128861177849 -1.48318980253e-22)
(-0.0480886671703 -0.144360437618 8.04659959729e-22)
(-0.0423844328877 -0.14011453491 -6.71843619106e-22)
(-0.0486924118374 -0.15502581921 -7.5142327527e-22)
(-0.0431991273337 -0.152119233792 2.05576104175e-21)
(-0.0488115626566 -0.165660617008 -1.52370810123e-20)
(-0.0436293482918 -0.158822938629 1.55465524533e-21)
(-0.0472244971617 -0.17545433757 -2.63191295718e-20)
(-0.0441186665863 -0.161782536112 -2.1779078501e-20)
(-0.0420950109159 -0.185074290157 -1.99087498125e-20)
(-0.0331832739057 -0.0949255255416 1.26584274364e-22)
(-0.0281066733431 -0.0905074651285 1.82832349723e-22)
(-0.03397435021 -0.1045435918 1.07091268928e-22)
(-0.0287604785697 -0.100043722735 2.66840539664e-22)
(-0.0348117147562 -0.114407572225 5.24209154866e-23)
(-0.0294559941906 -0.109832565195 1.26352281328e-22)
(-0.0356914365894 -0.124537170287 -1.35306512488e-22)
(-0.0301820017451 -0.119734771593 2.25453240487e-22)
(-0.0365959282203 -0.134942478015 -9.17722901345e-22)
(-0.0309471621473 -0.129765637901 -2.25385353333e-22)
(-0.0374201654485 -0.145580266879 5.79257462909e-22)
(-0.0317466462334 -0.141110517992 -1.49960871057e-21)
(-0.038035352504 -0.156327249661 4.36183956235e-21)
(-0.0324521458192 -0.153313273996 6.23056475183e-22)
(-0.0389307157789 -0.167014986662 -4.98734224338e-21)
(-0.0329416116511 -0.160042909224 -1.28562506399e-21)
(-0.0391390420042 -0.176018699557 -1.53686987417e-20)
(-0.0351149358715 -0.162265513662 -9.82761396272e-21)
(-0.0355934201632 -0.182892044673 -9.20059536835e-21)
(-0.0229712609729 -0.0860763376453 3.40194477815e-23)
(-0.0182705118711 -0.0814849897515 -5.91499218974e-22)
(-0.0234910237668 -0.0955114861743 3.23088615023e-22)
(-0.0186715283011 -0.0908179996114 6.6928035399e-22)
(-0.0240478422005 -0.105168046329 2.86101552065e-22)
(-0.0191039217891 -0.100374634481 5.94366441279e-22)
(-0.0246305226264 -0.115064491841 2.99384606328e-22)
(-0.0195595519689 -0.110174790165 4.32066709001e-22)
(-0.0252349229548 -0.125232771754 1.35374399642e-22)
(-0.0200137249539 -0.120085270362 2.03179594582e-22)
(-0.0259072403902 -0.135723092986 -8.07271162554e-22)
(-0.0204568435976 -0.130174562503 2.94434142715e-22)
(-0.0267283397931 -0.14650769971 -1.45580969829e-21)
(-0.0209620415514 -0.141779140171 6.03104962619e-22)
(-0.027765198637 -0.157408197489 -5.02440815115e-21)
(-0.0215516491857 -0.154654797671 -1.36689136501e-21)
(-0.03039955062 -0.1675237283 -6.12589678332e-21)
(-0.0228260812184 -0.161862460498 -6.56891825528e-21)
(-0.0357118942185 -0.176962291337 -3.65951058934e-21)
(-0.0256763524171 -0.163722150232 -1.2293662811e-20)
(-0.0362093024446 -0.172829035126 -1.23137431674e-20)
(-0.013583791612 -0.0861276370177 4.37616872341e-23)
(-0.00903439496092 -0.0805830976714 -2.44566974965e-22)
(-0.0139063022998 -0.0955643068151 9.40558180246e-22)
(-0.00923486210616 -0.0898188307522 7.25826338367e-22)
(-0.0142499742718 -0.105216435534 7.40331598215e-22)
(-0.00945179648147 -0.0992762577442 9.52144950446e-22)
(-0.014589589141 -0.115100178121 3.35861697254e-22)
(-0.00967581266144 -0.108961876755 6.32133580614e-22)
(-0.0148758116896 -0.125281939164 3.62239337655e-22)
(-0.00983196689198 -0.118743354089 1.01864041765e-21)
(-0.01514308075 -0.135969285342 1.70481026789e-21)
(-0.00976949994214 -0.128718859759 9.33382382281e-22)
(-0.0153884120375 -0.147319018685 6.92023295901e-22)
(-0.00961231011048 -0.139841276856 2.53210167335e-21)
(-0.015116810665 -0.159215943641 -2.91140146914e-21)
(-0.00965472525877 -0.151303838263 2.22646742635e-21)
(-0.0141222134549 -0.171414660251 -1.27366842829e-20)
(-0.0106273648857 -0.158629188606 -4.94910136781e-21)
(-0.00780645631875 -0.172893297696 -2.0947895389e-20)
(-0.0241977087599 -0.161386479641 -5.02171684118e-20)
(-0.0510614359183 -0.1984009848 -4.57504718837e-20)
(-0.00544535460424 -0.0841434705911 4.37497676168e-22)
(-0.00554471901921 -0.0933783344578 7.37413108567e-22)
(-0.00564415857934 -0.102830132628 8.43946932845e-22)
(-0.00569468044797 -0.112505946841 1.31491230101e-21)
(-0.00555301725488 -0.122337915109 1.58978346228e-21)
(-0.00511174265322 -0.132107416132 1.76067378774e-21)
(-0.00472323330585 -0.141719726969 4.0665458038e-21)
(-0.00694777715888 -0.151374452532 1.8876752768e-22)
(-0.0253198880509 -0.162001817529 -4.24295854966e-20)
(-0.0945763132944 -0.186199504477 -7.50197449065e-20)
)
;

boundaryField
{
    back
    {
        type            calculated;
        value           uniform (0 0 0);
    }
    sides
    {
        type            calculated;
        value           uniform (0 0 0);
    }
    bottom
    {
        type            calculated;
        value           nonuniform List<vector> 0();
    }
    front
    {
        type            calculated;
        value           uniform (0 0 0);
    }
    atmosphere
    {
        type            calculated;
        value           nonuniform List<vector> 
17
(
(0 -0.140563052742 0)
(0 -0.147880264455 0)
(0 -0.15427966378 0)
(0 -0.159856625924 0)
(0 -0.164718676459 0)
(0 -0.168838132319 0)
(0 -0.172461185424 0)
(0 -0.175597704856 0)
(0 -0.178082182564 0)
(0 -0.180451348035 0)
(0 -0.182063249609 0)
(0 -0.183126285707 0)
(0 -0.183353493467 0)
(0 -0.18252030817 0)
(0 -0.176346431302 0)
(0 -0.158041169896 0)
(0 -0.237260961196 0)
)
;
    }
    floatingObject
    {
        type            calculated;
        value           nonuniform List<vector> 0();
    }
    procBoundary11to9
    {
        type            processor;
        value           nonuniform List<vector> 9((-0.150256747784 -0.0644662470152 -5.11236156951e-23) (-0.155209793578 -0.0714933293454 4.37366131803e-23) (-0.160580718473 -0.0788313442275 1.54413867326e-22) (-0.166334531735 -0.0865278613627 -1.32600034073e-23) (-0.172176251704 -0.0952073555044 -1.02815482064e-21) (-0.177337979328 -0.105314195782 -3.80452074058e-21) (-0.179658555234 -0.116621077634 -7.00214748918e-21) (-0.181594095903 -0.124477408433 -7.22790580164e-21) (-0.159647016026 -0.134347638409 -6.63531790901e-21));
    }
    procBoundary11to10
    {
        type            processor;
        value           nonuniform List<vector> 
23
(
(-0.144568082959 -0.0633549762965 2.45291340629e-24)
(-0.143208484196 -0.0690306091969 -2.73183973704e-23)
(-0.141695761546 -0.0749819177601 4.27239666956e-24)
(-0.133899596529 -0.0791939609592 6.40916391944e-24)
(-0.127986179102 -0.0771235456755 -2.61119944071e-23)
(-0.122248748723 -0.0749553168001 -2.57866406835e-23)
(-0.114176465212 -0.0781878154005 -1.36553603213e-24)
(-0.105848068325 -0.0811169605443 1.77993087272e-23)
(-0.100299962598 -0.0782101065747 1.63954928703e-23)
(-0.0948983114947 -0.0752376199112 6.79789480565e-24)
(-0.0896127506167 -0.0721262760977 -2.69998180056e-24)
(-0.0844593272154 -0.0689447987614 -1.1175517395e-24)
(-0.0760202096808 -0.070693386148 -1.28581494569e-23)
(-0.0725201261302 -0.0758064606667 -9.87502700765e-24)
(-0.0689183960433 -0.0810132804184 -5.92997736607e-24)
(-0.0599558466722 -0.0824719537066 -6.22687638756e-24)
(-0.0508786222372 -0.0837098363179 1.89460839721e-24)
(-0.0417127777117 -0.0847312865911 2.43892571683e-23)
(-0.0324472699339 -0.0855339191222 1.24806407198e-22)
(-0.0275019295472 -0.0811991899503 -2.40064947433e-23)
(-0.0224936485173 -0.0768449115193 2.40370791193e-23)
(-0.0132867918734 -0.0768915147637 -9.77918606424e-23)
(-0.00535406231838 -0.0751090713264 6.18032990767e-22)
)
;
    }
}


// ************************************************************************* //
