/*--------------------------------*- C++ -*----------------------------------*\
| =========                 |                                                 |
| \\      /  F ield         | OpenFOAM: The Open Source CFD Toolbox           |
|  \\    /   O peration     | Version:  v2012                                 |
|   \\  /    A nd           | Website:  www.openfoam.com                      |
|    \\/     M anipulation  |                                                 |
\*---------------------------------------------------------------------------*/
FoamFile
{
    version     2.0;
    format      ascii;
    class       volScalarField;
    location    "5.9";
    object      epsilon_0;
}
// * * * * * * * * * * * * * * * * * * * * * * * * * * * * * * * * * * * * * //

dimensions      [0 2 -3 0 0 0 0];


internalField   nonuniform List<scalar> 
167
(
0.000464044633914
0.000470576115506
0.000473887478646
0.000476311225734
0.000478724043484
0.000481543504076
0.000485262066547
0.000491020912389
0.000406256076131
0.000446454564227
0.000462276773547
0.000468832514605
0.000472188397351
0.000474667213025
0.000477146871417
0.000480058135116
0.000483928113257
0.00048999184267
0.000501665485437
0.000404527508876
0.000444568430007
0.00046036689613
0.000466954860362
0.000470364359034
0.000472906325802
0.000475460882163
0.000478474072911
0.000482509255289
0.000488902557648
0.00050133072231
0.000402656844714
0.000442542253631
0.000458323592483
0.000464952136999
0.000468424147574
0.000471039846529
0.000473680506609
0.000476805714383
0.000481021071248
0.000487763714485
0.000384478186089
0.000400654301738
0.000440383204957
0.000456155080898
0.00046283463094
0.000466380415825
0.00046908040169
0.000471816993896
0.000475065093222
0.000479471494466
0.000486588163735
0.000382379787088
0.000398525794763
0.000438104474459
0.000453874781524
0.000460616063963
0.0004642468861
0.000467041882633
0.000469884493001
0.000473262110793
0.000477881779504
0.000485382781658
0.000380127439776
0.000396282144842
0.000435716695173
0.000451494618465
0.000458308955076
0.000462037167361
0.000464939355334
0.000467895987068
0.000471423933554
0.000476252140321
0.000377736919676
0.000393930762748
0.000433227021024
0.000449024336365
0.000455925769448
0.000459765574068
0.000462785901355
0.000465872700839
0.000469552584985
0.000375212413776
0.000391465107611
0.000430635760329
0.000446467074587
0.000453471034576
0.000457436192633
0.000460590416897
0.000463819596728
0.000467659536896
0.000372539477514
0.000388896247339
0.00042792826893
0.000443800728116
0.00045092015548
0.000455027654909
0.000458330264936
0.000461708875088
0.000465716468302
0.000471221060701
0.00036967959192
0.000386123540984
0.000425014071103
0.000440928227863
0.000448175638828
0.000452437926042
0.000455897919469
0.000459430181736
0.000463606664709
0.000469345104496
0.000366473903593
0.000382955059443
0.000421622943871
0.000437556914094
0.000444931643685
0.000449352358298
0.000452968763426
0.000456648661704
0.000460978374916
0.000466924260155
0.000362461971016
0.000378760130089
0.000417008498036
0.000432880989087
0.00044035294207
0.000444917398636
0.00044867267284
0.000452473602189
0.000456916548688
0.000463020841775
0.000356375425218
0.000371870559417
0.000409202995088
0.00042480143046
0.000432279998294
0.000436935064405
0.000440784312167
0.000444650773162
0.000449139290616
0.000455270357086
0.000344818130636
0.000357939993652
0.000393188704272
0.000408014331836
0.000415279372367
0.000419906284457
0.000423755184545
0.000427593490886
0.000431991248949
0.000318807560002
0.000325938889811
0.000356382326801
0.000369333164454
0.000375915475348
0.000380280933437
0.000383971307544
0.000387646655831
0.000391812709448
0.0002825084102
0.000317913646128
0.000343061148657
0.00035433462526
0.000360730392187
0.000365535104257
0.000369917528512
0.000374413506413
0.000379452588348
)
;

boundaryField
{
    back
    {
        lowReCorrection 0;
        blending        stepwise;
        n               2;
        type            epsilonWallFunction;
        value           nonuniform List<scalar> 
167
(
0.000464044633914
0.000470576115506
0.000473887478646
0.000476311225734
0.000478724043484
0.000481543504076
0.000485262066547
0.000491020912389
0.000406256076131
0.000446454564227
0.000462276773547
0.000468832514605
0.000472188397351
0.000474667213025
0.000477146871417
0.000480058135116
0.000483928113257
0.00048999184267
0.000501665485437
0.000404527508876
0.000444568430007
0.00046036689613
0.000466954860362
0.000470364359034
0.000472906325802
0.000475460882163
0.000478474072911
0.000482509255289
0.000488902557648
0.00050133072231
0.000402656844714
0.000442542253631
0.000458323592483
0.000464952136999
0.000468424147574
0.000471039846529
0.000473680506609
0.000476805714383
0.000481021071248
0.000487763714485
0.000384478186089
0.000400654301738
0.000440383204957
0.000456155080898
0.00046283463094
0.000466380415825
0.00046908040169
0.000471816993896
0.000475065093222
0.000479471494466
0.000486588163735
0.000382379787088
0.000398525794763
0.000438104474459
0.000453874781524
0.000460616063963
0.0004642468861
0.000467041882633
0.000469884493001
0.000473262110793
0.000477881779504
0.000485382781658
0.000380127439776
0.000396282144842
0.000435716695173
0.000451494618465
0.000458308955076
0.000462037167361
0.000464939355334
0.000467895987068
0.000471423933554
0.000476252140321
0.000377736919676
0.000393930762748
0.000433227021024
0.000449024336365
0.000455925769448
0.000459765574068
0.000462785901355
0.000465872700839
0.000469552584985
0.000375212413776
0.000391465107611
0.000430635760329
0.000446467074587
0.000453471034576
0.000457436192633
0.000460590416897
0.000463819596728
0.000467659536896
0.000372539477514
0.000388896247339
0.00042792826893
0.000443800728116
0.00045092015548
0.000455027654909
0.000458330264936
0.000461708875088
0.000465716468302
0.000471221060701
0.00036967959192
0.000386123540984
0.000425014071103
0.000440928227863
0.000448175638828
0.000452437926042
0.000455897919469
0.000459430181736
0.000463606664709
0.000469345104496
0.000366473903593
0.000382955059443
0.000421622943871
0.000437556914094
0.000444931643685
0.000449352358298
0.000452968763426
0.000456648661704
0.000460978374916
0.000466924260155
0.000362461971016
0.000378760130089
0.000417008498036
0.000432880989087
0.00044035294207
0.000444917398636
0.00044867267284
0.000452473602189
0.000456916548688
0.000463020841775
0.000356375425218
0.000371870559417
0.000409202995088
0.00042480143046
0.000432279998294
0.000436935064405
0.000440784312167
0.000444650773162
0.000449139290616
0.000455270357086
0.000344818130636
0.000357939993652
0.000393188704272
0.000408014331836
0.000415279372367
0.000419906284457
0.000423755184545
0.000427593490886
0.000431991248949
0.000318807560002
0.000325938889811
0.000356382326801
0.000369333164454
0.000375915475348
0.000380280933437
0.000383971307544
0.000387646655831
0.000391812709448
0.0002825084102
0.000317913646128
0.000343061148657
0.00035433462526
0.000360730392187
0.000365535104257
0.000369917528512
0.000374413506413
0.000379452588348
)
;
    }
    sides
    {
        lowReCorrection 0;
        blending        stepwise;
        n               2;
        type            epsilonWallFunction;
        value           nonuniform List<scalar> 9(0.0002825084102 0.000317913646128 0.000343061148657 0.00035433462526 0.000360730392187 0.000365535104257 0.000369917528512 0.000374413506413 0.000379452588348);
    }
    bottom
    {
        lowReCorrection 0;
        blending        stepwise;
        n               2;
        type            epsilonWallFunction;
        value           nonuniform List<scalar> 
13
(
0.000384478186089
0.000382379787088
0.000380127439776
0.000377736919676
0.000375212413776
0.000372539477514
0.00036967959192
0.000366473903593
0.000362461971016
0.000356375425218
0.000344818130636
0.000318807560002
0.0002825084102
)
;
    }
    front
    {
        lowReCorrection 0;
        blending        stepwise;
        n               2;
        type            epsilonWallFunction;
        value           nonuniform List<scalar> 
167
(
0.000464044633914
0.000470576115506
0.000473887478646
0.000476311225734
0.000478724043484
0.000481543504076
0.000485262066547
0.000491020912389
0.000406256076131
0.000446454564227
0.000462276773547
0.000468832514605
0.000472188397351
0.000474667213025
0.000477146871417
0.000480058135116
0.000483928113257
0.00048999184267
0.000501665485437
0.000404527508876
0.000444568430007
0.00046036689613
0.000466954860362
0.000470364359034
0.000472906325802
0.000475460882163
0.000478474072911
0.000482509255289
0.000488902557648
0.00050133072231
0.000402656844714
0.000442542253631
0.000458323592483
0.000464952136999
0.000468424147574
0.000471039846529
0.000473680506609
0.000476805714383
0.000481021071248
0.000487763714485
0.000384478186089
0.000400654301738
0.000440383204957
0.000456155080898
0.00046283463094
0.000466380415825
0.00046908040169
0.000471816993896
0.000475065093222
0.000479471494466
0.000486588163735
0.000382379787088
0.000398525794763
0.000438104474459
0.000453874781524
0.000460616063963
0.0004642468861
0.000467041882633
0.000469884493001
0.000473262110793
0.000477881779504
0.000485382781658
0.000380127439776
0.000396282144842
0.000435716695173
0.000451494618465
0.000458308955076
0.000462037167361
0.000464939355334
0.000467895987068
0.000471423933554
0.000476252140321
0.000377736919676
0.000393930762748
0.000433227021024
0.000449024336365
0.000455925769448
0.000459765574068
0.000462785901355
0.000465872700839
0.000469552584985
0.000375212413776
0.000391465107611
0.000430635760329
0.000446467074587
0.000453471034576
0.000457436192633
0.000460590416897
0.000463819596728
0.000467659536896
0.000372539477514
0.000388896247339
0.00042792826893
0.000443800728116
0.00045092015548
0.000455027654909
0.000458330264936
0.000461708875088
0.000465716468302
0.000471221060701
0.00036967959192
0.000386123540984
0.000425014071103
0.000440928227863
0.000448175638828
0.000452437926042
0.000455897919469
0.000459430181736
0.000463606664709
0.000469345104496
0.000366473903593
0.000382955059443
0.000421622943871
0.000437556914094
0.000444931643685
0.000449352358298
0.000452968763426
0.000456648661704
0.000460978374916
0.000466924260155
0.000362461971016
0.000378760130089
0.000417008498036
0.000432880989087
0.00044035294207
0.000444917398636
0.00044867267284
0.000452473602189
0.000456916548688
0.000463020841775
0.000356375425218
0.000371870559417
0.000409202995088
0.00042480143046
0.000432279998294
0.000436935064405
0.000440784312167
0.000444650773162
0.000449139290616
0.000455270357086
0.000344818130636
0.000357939993652
0.000393188704272
0.000408014331836
0.000415279372367
0.000419906284457
0.000423755184545
0.000427593490886
0.000431991248949
0.000318807560002
0.000325938889811
0.000356382326801
0.000369333164454
0.000375915475348
0.000380280933437
0.000383971307544
0.000387646655831
0.000391812709448
0.0002825084102
0.000317913646128
0.000343061148657
0.00035433462526
0.000360730392187
0.000365535104257
0.000369917528512
0.000374413506413
0.000379452588348
)
;
    }
    atmosphere
    {
        type            inletOutlet;
        inletValue      nonuniform List<scalar> 0();
        value           nonuniform List<scalar> 0();
    }
    floatingObject
    {
        lowReCorrection 0;
        blending        stepwise;
        n               2;
        type            epsilonWallFunction;
        value           nonuniform List<scalar> 0();
    }
    procBoundary10to9
    {
        type            processor;
        value           nonuniform List<scalar> 
15
(
0.000465661950139
0.000472176953563
0.0004754515446
0.0004778293076
0.000480184732174
0.000482923979064
0.000486500004877
0.000491978370956
0.000407837401877
0.000448191554886
0.000448191554886
0.000389806489004
0.000388188733432
0.000386414660888
0.000386414660888
)
;
    }
    procBoundary10to11
    {
        type            processor;
        value           nonuniform List<scalar> 
23
(
0.000501998402039
0.000501998402039
0.000529261490011
0.000530932128872
0.000500984860365
0.000500984860365
0.000500630253881
0.000500283857515
0.000484149458019
0.000484149458019
0.000474600250027
0.000474600250027
0.000472938232113
0.000472938232113
0.000480340321507
0.000478876011939
0.000476856409353
0.00047327548391
0.000465635958423
0.000437945984829
0.000437945984829
0.000397320372735
0.000385678433986
)
;
    }
}


// ************************************************************************* //
