/*--------------------------------*- C++ -*----------------------------------*\
| =========                 |                                                 |
| \\      /  F ield         | OpenFOAM: The Open Source CFD Toolbox           |
|  \\    /   O peration     | Version:  v2012                                 |
|   \\  /    A nd           | Website:  www.openfoam.com                      |
|    \\/     M anipulation  |                                                 |
\*---------------------------------------------------------------------------*/
FoamFile
{
    version     2.0;
    format      ascii;
    class       surfaceScalarField;
    location    "5.9";
    object      phi;
}
// * * * * * * * * * * * * * * * * * * * * * * * * * * * * * * * * * * * * * //

dimensions      [0 3 -1 0 0 0 0];
oriented        oriented;


internalField   nonuniform List<scalar> 
304
(
1.33139700763e-05
0.000134094970427
1.63917204234e-05
0.000136472360061
1.94567709407e-05
0.000140240163659
2.25167033601e-05
0.000145168441335
2.55803089764e-05
0.000151205044789
2.85655320135e-05
0.000158457944388
3.15135116633e-05
0.000167020870946
0.000177174308491
8.48938491649e-06
0.00013040596188
1.25048099879e-05
0.000129443604392
1.64610458994e-05
0.000130138344672
2.04203234493e-05
0.000132512529506
2.44291953474e-05
0.00013623067002
2.85132009664e-05
0.000141083831875
3.26922453641e-05
0.000147025542976
3.69955576247e-05
0.000154154387936
4.14165437605e-05
0.000162599961158
4.59722894608e-05
0.000172619214517
0.000184661686036
9.97881882192e-06
0.000125519076496
1.47765593049e-05
0.000124645546956
1.95594916766e-05
0.000125354949204
2.43775254413e-05
0.000127693920154
2.93347655797e-05
0.000131272815798
3.44382880921e-05
0.000135979759039
3.97361239342e-05
0.00014172731328
4.53062498497e-05
0.000148584093635
5.12008909811e-05
0.000156705587743
5.75101373538e-05
0.000166310585319
1.14455462793e-05
0.000119874005035
1.70272258428e-05
0.000119063447054
2.25755562886e-05
0.000119806090849
2.82351806109e-05
0.000122033689651
3.40522178527e-05
0.000125455181012
4.01239044714e-05
0.000129907564862
4.65250707182e-05
0.000135325818718
5.33420285557e-05
0.000141767079083
6.06653487158e-05
0.000149382624262
0.000158277560118
6.50241632953e-06
0.00011547157743
1.28417620915e-05
0.000113534270704
1.90989011503e-05
0.000112805831068
2.54054173535e-05
0.00011349901192
3.18656237233e-05
0.000115572883123
3.8545371447e-05
0.000118774865531
4.55403057269e-05
0.00012291217862
5.29382243264e-05
0.000127927628282
6.08726946741e-05
0.000133832629196
6.95613744399e-05
0.000140694346494
0.000148742464019
7.15275098019e-06
0.000108318479328
1.41525599841e-05
0.000106534049431
2.10975080801e-05
0.000105860394541
2.81097498745e-05
0.000106486223467
3.52814643358e-05
0.000108400604775
4.27294605318e-05
0.000111326355704
5.05527564995e-05
0.000115088486822
5.88801100706e-05
0.000119600053433
6.782744028e-05
0.000124885316043
7.75518684425e-05
0.000130970346228
7.76146189153e-06
0.000100556676468
1.53570372578e-05
9.89380795785e-05
2.29074439509e-05
9.83095362181e-05
3.05626714755e-05
9.88305017988e-05
3.84144138774e-05
0.000100548363096
4.65705382951e-05
0.000103169781917
5.51615483175e-05
0.000106497137544
6.42176571524e-05
0.000110543681457
7.39428388565e-05
0.000115160173632
8.3016396125e-06
9.2254735732e-05
1.64732708404e-05
9.07661072591e-05
2.46375234403e-05
9.01448987829e-05
3.28276599539e-05
9.06399465586e-05
4.1259213317e-05
9.21163863299e-05
5.00617648053e-05
9.43668466753e-05
5.92270780592e-05
9.73314968149e-05
6.89809205791e-05
0.000100789560377
0.000104717803649
8.82981829323e-06
8.3424676951e-05
1.74601147984e-05
8.2135537917e-05
2.60611319667e-05
8.1543572181e-05
3.47872540724e-05
8.19134841922e-05
4.38030167161e-05
8.31002733196e-05
5.30270176047e-05
8.51425178891e-05
6.2743945048e-05
8.76142447314e-05
7.30482923835e-05
9.04850014003e-05
9.37536438414e-05
9.16209808056e-06
7.42623971066e-05
1.83157645686e-05
7.29816575328e-05
2.73751692136e-05
7.24839198169e-05
3.65856069668e-05
7.27027690996e-05
4.58966136877e-05
7.37889732434e-05
5.56018732608e-05
7.54369755507e-05
6.57276086505e-05
7.74882461997e-05
7.64677137603e-05
7.9744682335e-05
8.77826899303e-05
8.24386547536e-05
8.51912418626e-05
9.59975536257e-06
6.46624947242e-05
1.90131488345e-05
6.35680793241e-05
2.84710971744e-05
6.3025753824e-05
3.79882376118e-05
6.31853841404e-05
4.77321526238e-05
6.40447977051e-05
5.77876003662e-05
6.53812762663e-05
6.8259641373e-05
6.70159901359e-05
7.91127292095e-05
6.88914546729e-05
9.06625634275e-05
7.0888871399e-05
7.28301967205e-05
9.87568790184e-06
5.47866558308e-05
1.96178209367e-05
5.38257493272e-05
2.93838097105e-05
5.32595368174e-05
3.92401871499e-05
5.33287580038e-05
4.92952576717e-05
5.39894707613e-05
5.96329209416e-05
5.50433722772e-05
7.02929308738e-05
5.63557921335e-05
8.1368472945e-05
5.78158319548e-05
9.30856824366e-05
5.91717626723e-05
6.05628903511e-05
1.00791808501e-05
4.47072773466e-05
2.01197974342e-05
4.37848820751e-05
3.01923172749e-05
4.31867396142e-05
4.03442737736e-05
4.31765146723e-05
5.06704291405e-05
4.36630365449e-05
6.12678732022e-05
4.44456820874e-05
7.21240268629e-05
4.54994651256e-05
8.34149767328e-05
4.65248386133e-05
9.50726942481e-05
4.75141813428e-05
4.84733411363e-05
1.02443569239e-05
3.44626417027e-05
2.06757624317e-05
3.33531427217e-05
3.11132365302e-05
3.27489134132e-05
4.15851229306e-05
3.27042830285e-05
5.21314993353e-05
3.31163433467e-05
6.28552816064e-05
3.37216412871e-05
7.38906342719e-05
3.44639507464e-05
8.52264968848e-05
3.51889665787e-05
9.68981683219e-05
3.584276384e-05
1.06616402083e-05
2.3800597502e-05
2.1395158268e-05
2.26191970782e-05
3.21116006468e-05
2.20320460147e-05
4.28323979978e-05
2.19830869941e-05
5.36702217112e-05
2.22781745434e-05
6.46533448635e-05
2.27382569426e-05
7.59038128426e-05
2.32133486735e-05
8.74966645982e-05
2.35962141183e-05
2.40244428447e-05
1.12810492136e-05
1.25190669208e-05
2.24843541196e-05
1.14154117914e-05
3.34467528354e-05
1.1069185654e-05
4.44029703599e-05
1.10264530297e-05
5.54811591234e-05
1.11996402317e-05
6.67115757287e-05
1.15075987277e-05
7.8240735366e-05
1.16841119566e-05
9.00139218469e-05
1.18231796923e-05
1.2204412529e-05
1.25188176255e-05
2.39339869958e-05
3.50029495447e-05
4.60292107158e-05
5.72287053978e-05
6.87362217635e-05
8.0420370068e-05
9.22437310863e-05
)
;

boundaryField
{
    back
    {
        type            calculated;
        value           uniform 0;
    }
    sides
    {
        type            calculated;
        value           uniform 0;
    }
    bottom
    {
        type            calculated;
        value           uniform 0;
    }
    front
    {
        type            calculated;
        value           uniform 0;
    }
    atmosphere
    {
        type            calculated;
        value           nonuniform List<scalar> 0();
    }
    floatingObject
    {
        type            calculated;
        value           nonuniform List<scalar> 0();
    }
    procBoundary10to9
    {
        type            processor;
        value           nonuniform List<scalar> 
15
(
-0.000137215416025
-0.000139550942602
-0.000143306182531
-0.000148229435324
-0.00015426948825
-0.000161443696393
-0.000169968790383
-0.000179993486467
-0.000134593721234
-1.0193995162e-05
-0.000133459229232
-4.30156791947e-06
-5.0922349926e-06
-5.80079939739e-06
-0.000121974325111
)
;
    }
    procBoundary10to11
    {
        type            processor;
        value           nonuniform List<scalar> 
23
(
3.43331162556e-05
-0.000189379178868
5.06907109671e-05
6.43979082289e-05
0.000177774641367
6.86990196202e-05
7.90971106201e-05
8.83362417867e-05
0.000137958650039
8.46127709709e-05
0.000120300648451
7.94232327982e-05
8.40122575346e-05
-9.73410979984e-05
9.99326040303e-05
0.000103023817042
0.000105353256714
0.000107162592221
0.000108948208215
3.64236205305e-05
9.93152371634e-05
0.000101834348833
0.000104448368444
)
;
    }
}


// ************************************************************************* //
