/*--------------------------------*- C++ -*----------------------------------*\
| =========                 |                                                 |
| \\      /  F ield         | OpenFOAM: The Open Source CFD Toolbox           |
|  \\    /   O peration     | Version:  v2012                                 |
|   \\  /    A nd           | Website:  www.openfoam.com                      |
|    \\/     M anipulation  |                                                 |
\*---------------------------------------------------------------------------*/
FoamFile
{
    version     2.0;
    format      ascii;
    class       volScalarField;
    location    "4.8";
    object      k;
}
// * * * * * * * * * * * * * * * * * * * * * * * * * * * * * * * * * * * * * //

dimensions      [0 2 -2 0 0 0 0];


internalField   nonuniform List<scalar> 
164
(
0.00216009822279
0.00216822677644
0.00217931757778
0.00219805523871
0.00223951809879
0.0023546634245
0.00271878157281
0.00388199057208
0.00715531094644
0.0145529306966
0.0286541173977
0.0629568294367
0.00216143215434
0.00216965752385
0.00218078930663
0.00219946359479
0.00224082695775
0.00235661798036
0.00272659394339
0.00391940877431
0.00727373410525
0.0148331720128
0.0291789752949
0.051474832348
0.00218193717739
0.00220066632945
0.00224218172968
0.00235906142651
0.00273493607409
0.00395543851678
0.0073960652121
0.0151522092595
0.0300905005954
0.0541826354469
0.00218284968928
0.00220182895453
0.00224401879708
0.00236327504816
0.00274784723839
0.00399999491266
0.00753003836287
0.0154874250354
0.0310764063705
0.0581927296703
0.00218357930835
0.00220318402547
0.00224690244975
0.00236954976011
0.00275985275254
0.00402933997887
0.0076497475257
0.0159124952426
0.0322697343872
0.0633050370552
0.00218422571579
0.00220510677825
0.00225203620118
0.00238127746112
0.00278013800672
0.00406329209086
0.0077814885082
0.0163823523686
0.0333164505289
0.0689904572269
0.00218488595267
0.00220801419891
0.00226095559294
0.00240359459379
0.00282392082384
0.00413099610655
0.00789246694811
0.016572799727
0.0335714500131
0.0690688980277
0.00218557250213
0.0022120282436
0.00227417210365
0.00243847613722
0.00289847562803
0.00425272696881
0.00801818218228
0.0165855505312
0.0332380176177
0.0640253077814
0.00218613090256
0.00221659182906
0.00228979590905
0.00248002137091
0.0029879749494
0.00439949508135
0.00815897893991
0.0165614189138
0.0329937060649
0.063612606753
0.00218622886653
0.00222051349986
0.00230394652314
0.00251741466066
0.00306814945376
0.00453314393585
0.00828403733415
0.0165086224865
0.0326902491924
0.0631398096589
0.00218552518298
0.00222247016998
0.0023124131292
0.00253988863463
0.00311605580951
0.00461418816184
0.00834682231032
0.0163735017375
0.0319844973089
0.0590096602116
0.00218397714939
0.0022222429873
0.00231457385924
0.00254623290495
0.00313192374781
0.00465110414013
0.00839117780684
0.0163057236164
0.0316845541553
0.0584650388349
0.00218192509043
0.00222092980874
0.00231352668797
0.0025439520225
0.00312863424514
0.00466043024582
0.00842876487296
0.0163036202413
0.0315369825673
0.0583565575115
0.00217948172008
0.00221884268439
0.002310757726
0.00253840190208
0.00312025411453
0.00466411666225
0.00846320098174
0.0163212226372
0.0314495137864
0.0583309463152
0.00217632411577
0.00221484345956
0.00230344128156
0.0025251919148
0.00310517581172
0.00466835429276
0.00849231194269
0.0162641996829
0.0312270539233
0.0582407700538
0.0021725904415
0.00220900895453
0.00229157610509
0.00250450083241
0.00308613428831
0.00468158363251
0.00850554691399
0.0160972492634
0.0307883894134
0.0577594696382
)
;

boundaryField
{
    back
    {
        type            kqRWallFunction;
        value           nonuniform List<scalar> 
164
(
0.00216009822279
0.00216822677644
0.00217931757778
0.00219805523871
0.00223951809879
0.0023546634245
0.00271878157281
0.00388199057208
0.00715531094644
0.0145529306966
0.0286541173977
0.0629568294367
0.00216143215434
0.00216965752385
0.00218078930663
0.00219946359479
0.00224082695775
0.00235661798036
0.00272659394339
0.00391940877431
0.00727373410525
0.0148331720128
0.0291789752949
0.051474832348
0.00218193717739
0.00220066632945
0.00224218172968
0.00235906142651
0.00273493607409
0.00395543851678
0.0073960652121
0.0151522092595
0.0300905005954
0.0541826354469
0.00218284968928
0.00220182895453
0.00224401879708
0.00236327504816
0.00274784723839
0.00399999491266
0.00753003836287
0.0154874250354
0.0310764063705
0.0581927296703
0.00218357930835
0.00220318402547
0.00224690244975
0.00236954976011
0.00275985275254
0.00402933997887
0.0076497475257
0.0159124952426
0.0322697343872
0.0633050370552
0.00218422571579
0.00220510677825
0.00225203620118
0.00238127746112
0.00278013800672
0.00406329209086
0.0077814885082
0.0163823523686
0.0333164505289
0.0689904572269
0.00218488595267
0.00220801419891
0.00226095559294
0.00240359459379
0.00282392082384
0.00413099610655
0.00789246694811
0.016572799727
0.0335714500131
0.0690688980277
0.00218557250213
0.0022120282436
0.00227417210365
0.00243847613722
0.00289847562803
0.00425272696881
0.00801818218228
0.0165855505312
0.0332380176177
0.0640253077814
0.00218613090256
0.00221659182906
0.00228979590905
0.00248002137091
0.0029879749494
0.00439949508135
0.00815897893991
0.0165614189138
0.0329937060649
0.063612606753
0.00218622886653
0.00222051349986
0.00230394652314
0.00251741466066
0.00306814945376
0.00453314393585
0.00828403733415
0.0165086224865
0.0326902491924
0.0631398096589
0.00218552518298
0.00222247016998
0.0023124131292
0.00253988863463
0.00311605580951
0.00461418816184
0.00834682231032
0.0163735017375
0.0319844973089
0.0590096602116
0.00218397714939
0.0022222429873
0.00231457385924
0.00254623290495
0.00313192374781
0.00465110414013
0.00839117780684
0.0163057236164
0.0316845541553
0.0584650388349
0.00218192509043
0.00222092980874
0.00231352668797
0.0025439520225
0.00312863424514
0.00466043024582
0.00842876487296
0.0163036202413
0.0315369825673
0.0583565575115
0.00217948172008
0.00221884268439
0.002310757726
0.00253840190208
0.00312025411453
0.00466411666225
0.00846320098174
0.0163212226372
0.0314495137864
0.0583309463152
0.00217632411577
0.00221484345956
0.00230344128156
0.0025251919148
0.00310517581172
0.00466835429276
0.00849231194269
0.0162641996829
0.0312270539233
0.0582407700538
0.0021725904415
0.00220900895453
0.00229157610509
0.00250450083241
0.00308613428831
0.00468158363251
0.00850554691399
0.0160972492634
0.0307883894134
0.0577594696382
)
;
    }
    sides
    {
        type            kqRWallFunction;
        value           nonuniform List<scalar> 0();
    }
    bottom
    {
        type            kqRWallFunction;
        value           nonuniform List<scalar> 0();
    }
    front
    {
        type            kqRWallFunction;
        value           nonuniform List<scalar> 
164
(
0.00216009822279
0.00216822677644
0.00217931757778
0.00219805523871
0.00223951809879
0.0023546634245
0.00271878157281
0.00388199057208
0.00715531094644
0.0145529306966
0.0286541173977
0.0629568294367
0.00216143215434
0.00216965752385
0.00218078930663
0.00219946359479
0.00224082695775
0.00235661798036
0.00272659394339
0.00391940877431
0.00727373410525
0.0148331720128
0.0291789752949
0.051474832348
0.00218193717739
0.00220066632945
0.00224218172968
0.00235906142651
0.00273493607409
0.00395543851678
0.0073960652121
0.0151522092595
0.0300905005954
0.0541826354469
0.00218284968928
0.00220182895453
0.00224401879708
0.00236327504816
0.00274784723839
0.00399999491266
0.00753003836287
0.0154874250354
0.0310764063705
0.0581927296703
0.00218357930835
0.00220318402547
0.00224690244975
0.00236954976011
0.00275985275254
0.00402933997887
0.0076497475257
0.0159124952426
0.0322697343872
0.0633050370552
0.00218422571579
0.00220510677825
0.00225203620118
0.00238127746112
0.00278013800672
0.00406329209086
0.0077814885082
0.0163823523686
0.0333164505289
0.0689904572269
0.00218488595267
0.00220801419891
0.00226095559294
0.00240359459379
0.00282392082384
0.00413099610655
0.00789246694811
0.016572799727
0.0335714500131
0.0690688980277
0.00218557250213
0.0022120282436
0.00227417210365
0.00243847613722
0.00289847562803
0.00425272696881
0.00801818218228
0.0165855505312
0.0332380176177
0.0640253077814
0.00218613090256
0.00221659182906
0.00228979590905
0.00248002137091
0.0029879749494
0.00439949508135
0.00815897893991
0.0165614189138
0.0329937060649
0.063612606753
0.00218622886653
0.00222051349986
0.00230394652314
0.00251741466066
0.00306814945376
0.00453314393585
0.00828403733415
0.0165086224865
0.0326902491924
0.0631398096589
0.00218552518298
0.00222247016998
0.0023124131292
0.00253988863463
0.00311605580951
0.00461418816184
0.00834682231032
0.0163735017375
0.0319844973089
0.0590096602116
0.00218397714939
0.0022222429873
0.00231457385924
0.00254623290495
0.00313192374781
0.00465110414013
0.00839117780684
0.0163057236164
0.0316845541553
0.0584650388349
0.00218192509043
0.00222092980874
0.00231352668797
0.0025439520225
0.00312863424514
0.00466043024582
0.00842876487296
0.0163036202413
0.0315369825673
0.0583565575115
0.00217948172008
0.00221884268439
0.002310757726
0.00253840190208
0.00312025411453
0.00466411666225
0.00846320098174
0.0163212226372
0.0314495137864
0.0583309463152
0.00217632411577
0.00221484345956
0.00230344128156
0.0025251919148
0.00310517581172
0.00466835429276
0.00849231194269
0.0162641996829
0.0312270539233
0.0582407700538
0.0021725904415
0.00220900895453
0.00229157610509
0.00250450083241
0.00308613428831
0.00468158363251
0.00850554691399
0.0160972492634
0.0307883894134
0.0577594696382
)
;
    }
    atmosphere
    {
        type            inletOutlet;
        inletValue      uniform 0.1;
        value           nonuniform List<scalar> 
16
(
0.1
0.051474832348
0.0541826354469
0.0581927296703
0.0633050370552
0.0689904572269
0.0690688980277
0.0640253077814
0.063612606753
0.0631398096589
0.0590096602116
0.0584650388349
0.0583565575115
0.0583309463152
0.0582407700538
0.0577594696382
)
;
    }
    floatingObject
    {
        type            kqRWallFunction;
        value           nonuniform List<scalar> 0();
    }
    procBoundary5to0
    {
        type            processor;
        value           nonuniform List<scalar> 
12
(
0.00215838631863
0.00216644511499
0.00217753356847
0.0021963922107
0.00223795633576
0.0023520811814
0.00270800001849
0.00383401861343
0.00701822886446
0.01417965542
0.0266175960348
0.0533652381795
)
;
    }
    procBoundary5to3
    {
        type            processor;
        value           nonuniform List<scalar> 10(0.00216913294617 0.00220381236161 0.00228125613736 0.00248864121455 0.00308314979308 0.00472950360903 0.00855812324976 0.0159570791396 0.0300565272961 0.0544801424544);
    }
    procBoundary5to4
    {
        type            processor;
        value           nonuniform List<scalar> 
18
(
0.00215341619326
0.00215463518171
0.00216235997211
0.00217071459735
0.00217071459735
0.00217145049397
0.00217184237635
0.00217192246892
0.00217170913299
0.00217118889992
0.00217031068004
0.00216899008774
0.00216715657265
0.00216482334106
0.00216208206261
0.00215901008554
0.00215558879908
0.00215190365995
)
;
    }
}


// ************************************************************************* //
