/*--------------------------------*- C++ -*----------------------------------*\
| =========                 |                                                 |
| \\      /  F ield         | OpenFOAM: The Open Source CFD Toolbox           |
|  \\    /   O peration     | Version:  v2012                                 |
|   \\  /    A nd           | Website:  www.openfoam.com                      |
|    \\/     M anipulation  |                                                 |
\*---------------------------------------------------------------------------*/
FoamFile
{
    version     2.0;
    format      ascii;
    class       volScalarField;
    location    "4.8";
    object      k_0;
}
// * * * * * * * * * * * * * * * * * * * * * * * * * * * * * * * * * * * * * //

dimensions      [0 2 -2 0 0 0 0];


internalField   nonuniform List<scalar> 
164
(
0.00218656080226
0.00219481277619
0.00220606351613
0.00222505162489
0.00226702859236
0.00238350535861
0.00275179583937
0.00393102004238
0.00727556121924
0.0149366797854
0.0295335544902
0.0598559941635
0.00218795175496
0.00219630594728
0.00220760278099
0.00222653122116
0.00226840730881
0.00238551853659
0.00275959602352
0.00396847202105
0.00739420734535
0.0152123258732
0.030376916534
0.0554781470892
0.00220881438265
0.00222780154544
0.00226983365323
0.0023880264484
0.002767929278
0.00400426955312
0.00751618235817
0.0155246757434
0.0312791215175
0.0589669641381
0.00220978593953
0.00222902973716
0.00227174698003
0.0023923420986
0.00278099147269
0.00404900989118
0.00764998281975
0.0158506488489
0.0321924041491
0.0633934438316
0.00221057051045
0.00223045297163
0.00227472666853
0.00239876346976
0.0027930658908
0.00407762197716
0.00776730035276
0.0162762959571
0.0332924428104
0.0691680064681
0.00221126890313
0.00223245271961
0.00227999996591
0.00241076029808
0.00281361120628
0.00411046858387
0.00789825301402
0.0167658297699
0.0342344045618
0.07356286828
0.00221197761743
0.00223544956196
0.00228912339346
0.00243355043831
0.00285820957343
0.0041785205861
0.00800796899984
0.0169560145855
0.0345009301497
0.0736324871156
0.00221270521549
0.00223956071785
0.00230260205369
0.00246910741581
0.00293425416819
0.00430310983751
0.00813684589094
0.0169667540961
0.0343213540248
0.0697574623937
0.00221329109642
0.00224421198377
0.002318497586
0.00251137805749
0.00302537288583
0.0044530827889
0.00828309329398
0.016941818698
0.0340742308082
0.0695179439408
0.00221339608389
0.00224819010612
0.00233286004318
0.00254935706375
0.00310692354292
0.00459020511702
0.00841524596417
0.0168906997836
0.0337661602
0.0691606284237
0.00221267702637
0.00225015374004
0.00234140895401
0.00257210049764
0.00315552989406
0.00467343813589
0.00848282691232
0.0167583286764
0.0331467927948
0.0640693889007
0.002211097076
0.00224989739394
0.00234354874551
0.00257844853045
0.00317160831313
0.00471176674347
0.00853253277432
0.0166943325255
0.0328400773392
0.0636531834695
0.00220901273479
0.0022485626033
0.00234248425546
0.00257613572343
0.00316835778519
0.00472231741395
0.00857524923052
0.0166996914711
0.0326832381406
0.0635581071084
0.00220653802345
0.00224645927704
0.00233971682909
0.00257059458024
0.00315999108338
0.00472672655544
0.00861462131764
0.016725729298
0.0325898468818
0.063507643738
0.00220333861658
0.00224240386089
0.00233227979371
0.00255716985454
0.00314482729571
0.00473240697473
0.00864855634355
0.0166697484702
0.0323355154791
0.0633932595235
0.00219955745703
0.00223647257561
0.00232015689114
0.00253597351023
0.00312542045135
0.00474741119099
0.00866590949592
0.0164924220484
0.0318529617891
0.0629325388767
)
;

boundaryField
{
    back
    {
        type            kqRWallFunction;
        value           nonuniform List<scalar> 
164
(
0.00218656080226
0.00219481277619
0.00220606351613
0.00222505162489
0.00226702859236
0.00238350535861
0.00275179583937
0.00393102004238
0.00727556121924
0.0149366797854
0.0295335544902
0.0598559941635
0.00218795175496
0.00219630594728
0.00220760278099
0.00222653122116
0.00226840730881
0.00238551853659
0.00275959602352
0.00396847202105
0.00739420734535
0.0152123258732
0.030376916534
0.0554781470892
0.00220881438265
0.00222780154544
0.00226983365323
0.0023880264484
0.002767929278
0.00400426955312
0.00751618235817
0.0155246757434
0.0312791215175
0.0589669641381
0.00220978593953
0.00222902973716
0.00227174698003
0.0023923420986
0.00278099147269
0.00404900989118
0.00764998281975
0.0158506488489
0.0321924041491
0.0633934438316
0.00221057051045
0.00223045297163
0.00227472666853
0.00239876346976
0.0027930658908
0.00407762197716
0.00776730035276
0.0162762959571
0.0332924428104
0.0691680064681
0.00221126890313
0.00223245271961
0.00227999996591
0.00241076029808
0.00281361120628
0.00411046858387
0.00789825301402
0.0167658297699
0.0342344045618
0.07356286828
0.00221197761743
0.00223544956196
0.00228912339346
0.00243355043831
0.00285820957343
0.0041785205861
0.00800796899984
0.0169560145855
0.0345009301497
0.0736324871156
0.00221270521549
0.00223956071785
0.00230260205369
0.00246910741581
0.00293425416819
0.00430310983751
0.00813684589094
0.0169667540961
0.0343213540248
0.0697574623937
0.00221329109642
0.00224421198377
0.002318497586
0.00251137805749
0.00302537288583
0.0044530827889
0.00828309329398
0.016941818698
0.0340742308082
0.0695179439408
0.00221339608389
0.00224819010612
0.00233286004318
0.00254935706375
0.00310692354292
0.00459020511702
0.00841524596417
0.0168906997836
0.0337661602
0.0691606284237
0.00221267702637
0.00225015374004
0.00234140895401
0.00257210049764
0.00315552989406
0.00467343813589
0.00848282691232
0.0167583286764
0.0331467927948
0.0640693889007
0.002211097076
0.00224989739394
0.00234354874551
0.00257844853045
0.00317160831313
0.00471176674347
0.00853253277432
0.0166943325255
0.0328400773392
0.0636531834695
0.00220901273479
0.0022485626033
0.00234248425546
0.00257613572343
0.00316835778519
0.00472231741395
0.00857524923052
0.0166996914711
0.0326832381406
0.0635581071084
0.00220653802345
0.00224645927704
0.00233971682909
0.00257059458024
0.00315999108338
0.00472672655544
0.00861462131764
0.016725729298
0.0325898468818
0.063507643738
0.00220333861658
0.00224240386089
0.00233227979371
0.00255716985454
0.00314482729571
0.00473240697473
0.00864855634355
0.0166697484702
0.0323355154791
0.0633932595235
0.00219955745703
0.00223647257561
0.00232015689114
0.00253597351023
0.00312542045135
0.00474741119099
0.00866590949592
0.0164924220484
0.0318529617891
0.0629325388767
)
;
    }
    sides
    {
        type            kqRWallFunction;
        value           nonuniform List<scalar> 0();
    }
    bottom
    {
        type            kqRWallFunction;
        value           nonuniform List<scalar> 0();
    }
    front
    {
        type            kqRWallFunction;
        value           nonuniform List<scalar> 
164
(
0.00218656080226
0.00219481277619
0.00220606351613
0.00222505162489
0.00226702859236
0.00238350535861
0.00275179583937
0.00393102004238
0.00727556121924
0.0149366797854
0.0295335544902
0.0598559941635
0.00218795175496
0.00219630594728
0.00220760278099
0.00222653122116
0.00226840730881
0.00238551853659
0.00275959602352
0.00396847202105
0.00739420734535
0.0152123258732
0.030376916534
0.0554781470892
0.00220881438265
0.00222780154544
0.00226983365323
0.0023880264484
0.002767929278
0.00400426955312
0.00751618235817
0.0155246757434
0.0312791215175
0.0589669641381
0.00220978593953
0.00222902973716
0.00227174698003
0.0023923420986
0.00278099147269
0.00404900989118
0.00764998281975
0.0158506488489
0.0321924041491
0.0633934438316
0.00221057051045
0.00223045297163
0.00227472666853
0.00239876346976
0.0027930658908
0.00407762197716
0.00776730035276
0.0162762959571
0.0332924428104
0.0691680064681
0.00221126890313
0.00223245271961
0.00227999996591
0.00241076029808
0.00281361120628
0.00411046858387
0.00789825301402
0.0167658297699
0.0342344045618
0.07356286828
0.00221197761743
0.00223544956196
0.00228912339346
0.00243355043831
0.00285820957343
0.0041785205861
0.00800796899984
0.0169560145855
0.0345009301497
0.0736324871156
0.00221270521549
0.00223956071785
0.00230260205369
0.00246910741581
0.00293425416819
0.00430310983751
0.00813684589094
0.0169667540961
0.0343213540248
0.0697574623937
0.00221329109642
0.00224421198377
0.002318497586
0.00251137805749
0.00302537288583
0.0044530827889
0.00828309329398
0.016941818698
0.0340742308082
0.0695179439408
0.00221339608389
0.00224819010612
0.00233286004318
0.00254935706375
0.00310692354292
0.00459020511702
0.00841524596417
0.0168906997836
0.0337661602
0.0691606284237
0.00221267702637
0.00225015374004
0.00234140895401
0.00257210049764
0.00315552989406
0.00467343813589
0.00848282691232
0.0167583286764
0.0331467927948
0.0640693889007
0.002211097076
0.00224989739394
0.00234354874551
0.00257844853045
0.00317160831313
0.00471176674347
0.00853253277432
0.0166943325255
0.0328400773392
0.0636531834695
0.00220901273479
0.0022485626033
0.00234248425546
0.00257613572343
0.00316835778519
0.00472231741395
0.00857524923052
0.0166996914711
0.0326832381406
0.0635581071084
0.00220653802345
0.00224645927704
0.00233971682909
0.00257059458024
0.00315999108338
0.00472672655544
0.00861462131764
0.016725729298
0.0325898468818
0.063507643738
0.00220333861658
0.00224240386089
0.00233227979371
0.00255716985454
0.00314482729571
0.00473240697473
0.00864855634355
0.0166697484702
0.0323355154791
0.0633932595235
0.00219955745703
0.00223647257561
0.00232015689114
0.00253597351023
0.00312542045135
0.00474741119099
0.00866590949592
0.0164924220484
0.0318529617891
0.0629325388767
)
;
    }
    atmosphere
    {
        type            inletOutlet;
        inletValue      uniform 0.1;
        value           nonuniform List<scalar> 
16
(
0.1
0.0554781470892
0.0589669641381
0.0633934438316
0.0691680064681
0.1
0.1
0.0697574623937
0.0695179439408
0.0691606284237
0.0640693889007
0.0636531834695
0.0635581071084
0.063507643738
0.0633932595235
0.0629325388767
)
;
    }
    floatingObject
    {
        type            kqRWallFunction;
        value           nonuniform List<scalar> 0();
    }
    procBoundary5to0
    {
        type            processor;
        value           nonuniform List<scalar> 
12
(
0.00218478730374
0.00219296267004
0.00220420457436
0.00222330908596
0.00226538498432
0.00238084755243
0.0027409379916
0.0038825043353
0.00713727609515
0.0145827863216
0.0275983854376
0.0479381767404
)
;
    }
    procBoundary5to3
    {
        type            processor;
        value           nonuniform List<scalar> 10(0.00219607559587 0.00223121571463 0.00230963470173 0.00251972393067 0.00312254242564 0.00479848805807 0.00872467321911 0.0163539965446 0.0311327639026 0.0590052970721);
    }
    procBoundary5to4
    {
        type            processor;
        value           nonuniform List<scalar> 
18
(
0.0021797771521
0.00218104742714
0.00218893050308
0.00219742058769
0.00219742058769
0.00219820772078
0.00219864450731
0.00219876268907
0.0021985802383
0.00219808024317
0.00219720852437
0.00219587902406
0.00219402259472
0.00219165575874
0.00218887425951
0.00218575944302
0.00218229139398
0.00217856005667
)
;
    }
}


// ************************************************************************* //
