/*--------------------------------*- C++ -*----------------------------------*\
| =========                 |                                                 |
| \\      /  F ield         | OpenFOAM: The Open Source CFD Toolbox           |
|  \\    /   O peration     | Version:  v2012                                 |
|   \\  /    A nd           | Website:  www.openfoam.com                      |
|    \\/     M anipulation  |                                                 |
\*---------------------------------------------------------------------------*/
FoamFile
{
    version     2.0;
    format      ascii;
    class       volScalarField;
    location    "4.8";
    object      p_rgh;
}
// * * * * * * * * * * * * * * * * * * * * * * * * * * * * * * * * * * * * * //

dimensions      [1 -1 -2 0 0 0 0];


internalField   nonuniform List<scalar> 
164
(
8613.91310973
8611.6470008
8609.09567425
8606.24893023
8603.12661017
8599.73576414
8596.12691975
8592.37514902
8588.48861799
4825.97608566
28.5822650458
-0.01234635795
8605.93074654
8603.3927566
8600.54310056
8597.35066374
8593.81277477
8589.91924664
8585.7136217
8581.19986349
8576.30289216
4603.70078301
13.7053527525
-0.016664250043
8592.28882585
8588.79729906
8584.83607402
8580.41703313
8575.57468807
8570.2601991
8556.60602487
4388.30516681
4.22361676949
0.000982861257669
8584.48473598
8580.64606243
8576.29184233
8571.37880755
8565.9291533
8559.84656297
8527.36357011
4195.0877795
0.63761795548
0.0166375520998
8577.13222725
8572.96811694
8568.27712036
8562.9263587
8556.96232007
8550.24197397
8502.55564217
4018.91385583
0.0343637333329
0.00919296498877
8570.28138994
8565.86032802
8560.85169621
8555.11467798
8548.75079167
8541.62210511
8479.1716495
3864.72963203
0.0219629232199
0.0070446533265
8563.97401674
8559.37491757
8554.10387301
8548.09978156
8541.31220489
8533.97856088
8453.32680647
3732.43484039
0.0198403622455
0.00592868520985
8558.25947505
8553.53255163
8548.09970386
8541.9942494
8535.06912854
8527.43324681
8428.27389867
3623.91067448
0.0201087472526
0.00414711026554
8553.14081886
8548.34237177
8542.84817343
8536.66364759
8529.5993796
8522.16822263
8406.52613535
3539.88297064
0.0274713570978
-0.00017708282052
8548.59996571
8543.83625788
8538.42135465
8532.23322678
8525.18782285
8518.08798328
8389.54944405
3482.62145896
0.0466652836505
-0.00347811985618
8544.68779182
8540.03316162
8534.73467413
8528.70583863
8521.85745387
8514.99596417
8379.46364617
3451.28718071
0.0684651707587
0.00143945992811
8541.34194336
8536.84925308
8531.7652829
8526.03069271
8519.5769363
8512.89851559
8376.53747467
3441.2232978
0.0881823631375
0.0151060357142
8538.5083962
8534.23041048
8529.43277583
8524.0902717
8518.17325538
8511.7861689
8381.02323945
3447.56720212
0.104883862236
0.0293785940512
8536.14435466
8532.11232805
8527.63486965
8522.70553492
8517.3284009
8511.59004738
8389.05101937
3467.61168052
0.0765996434711
0.00858703899835
8534.19511457
8530.41307328
8526.25283322
8521.74533044
8516.9616221
8511.85236001
8395.68972794
3496.58139023
0.0513504033387
0.00169606903764
8532.61594373
8529.0609245
8525.21225459
8521.12926147
8516.8805322
8512.41857443
8402.05460788
3529.86533623
0.0343636896272
-0.00169332448716
)
;

boundaryField
{
    back
    {
        type            fixedFluxPressure;
        gradient        uniform 0;
        value           nonuniform List<scalar> 
164
(
8613.91310973
8611.6470008
8609.09567425
8606.24893023
8603.12661017
8599.73576414
8596.12691975
8592.37514902
8588.48861799
4825.97608566
28.5822650458
-0.01234635795
8605.93074654
8603.3927566
8600.54310056
8597.35066374
8593.81277477
8589.91924664
8585.7136217
8581.19986349
8576.30289216
4603.70078301
13.7053527525
-0.016664250043
8592.28882585
8588.79729906
8584.83607402
8580.41703313
8575.57468807
8570.2601991
8556.60602487
4388.30516681
4.22361676949
0.000982861257669
8584.48473598
8580.64606243
8576.29184233
8571.37880755
8565.9291533
8559.84656297
8527.36357011
4195.0877795
0.63761795548
0.0166375520998
8577.13222725
8572.96811694
8568.27712036
8562.9263587
8556.96232007
8550.24197397
8502.55564217
4018.91385583
0.0343637333329
0.00919296498877
8570.28138994
8565.86032802
8560.85169621
8555.11467798
8548.75079167
8541.62210511
8479.1716495
3864.72963203
0.0219629232199
0.0070446533265
8563.97401674
8559.37491757
8554.10387301
8548.09978156
8541.31220489
8533.97856088
8453.32680647
3732.43484039
0.0198403622455
0.00592868520985
8558.25947505
8553.53255163
8548.09970386
8541.9942494
8535.06912854
8527.43324681
8428.27389867
3623.91067448
0.0201087472526
0.00414711026554
8553.14081886
8548.34237177
8542.84817343
8536.66364759
8529.5993796
8522.16822263
8406.52613535
3539.88297064
0.0274713570978
-0.00017708282052
8548.59996571
8543.83625788
8538.42135465
8532.23322678
8525.18782285
8518.08798328
8389.54944405
3482.62145896
0.0466652836505
-0.00347811985618
8544.68779182
8540.03316162
8534.73467413
8528.70583863
8521.85745387
8514.99596417
8379.46364617
3451.28718071
0.0684651707587
0.00143945992811
8541.34194336
8536.84925308
8531.7652829
8526.03069271
8519.5769363
8512.89851559
8376.53747467
3441.2232978
0.0881823631375
0.0151060357142
8538.5083962
8534.23041048
8529.43277583
8524.0902717
8518.17325538
8511.7861689
8381.02323945
3447.56720212
0.104883862236
0.0293785940512
8536.14435466
8532.11232805
8527.63486965
8522.70553492
8517.3284009
8511.59004738
8389.05101937
3467.61168052
0.0765996434711
0.00858703899835
8534.19511457
8530.41307328
8526.25283322
8521.74533044
8516.9616221
8511.85236001
8395.68972794
3496.58139023
0.0513504033387
0.00169606903764
8532.61594373
8529.0609245
8525.21225459
8521.12926147
8516.8805322
8512.41857443
8402.05460788
3529.86533623
0.0343636896272
-0.00169332448716
)
;
    }
    sides
    {
        type            fixedFluxPressure;
        gradient        nonuniform List<scalar> 0();
        value           nonuniform List<scalar> 0();
    }
    bottom
    {
        type            fixedFluxPressure;
        gradient        nonuniform List<scalar> 0();
        value           nonuniform List<scalar> 0();
    }
    front
    {
        type            fixedFluxPressure;
        gradient        uniform 0;
        value           nonuniform List<scalar> 
164
(
8613.91310973
8611.6470008
8609.09567425
8606.24893023
8603.12661017
8599.73576414
8596.12691975
8592.37514902
8588.48861799
4825.97608566
28.5822650458
-0.01234635795
8605.93074654
8603.3927566
8600.54310056
8597.35066374
8593.81277477
8589.91924664
8585.7136217
8581.19986349
8576.30289216
4603.70078301
13.7053527525
-0.016664250043
8592.28882585
8588.79729906
8584.83607402
8580.41703313
8575.57468807
8570.2601991
8556.60602487
4388.30516681
4.22361676949
0.000982861257669
8584.48473598
8580.64606243
8576.29184233
8571.37880755
8565.9291533
8559.84656297
8527.36357011
4195.0877795
0.63761795548
0.0166375520998
8577.13222725
8572.96811694
8568.27712036
8562.9263587
8556.96232007
8550.24197397
8502.55564217
4018.91385583
0.0343637333329
0.00919296498877
8570.28138994
8565.86032802
8560.85169621
8555.11467798
8548.75079167
8541.62210511
8479.1716495
3864.72963203
0.0219629232199
0.0070446533265
8563.97401674
8559.37491757
8554.10387301
8548.09978156
8541.31220489
8533.97856088
8453.32680647
3732.43484039
0.0198403622455
0.00592868520985
8558.25947505
8553.53255163
8548.09970386
8541.9942494
8535.06912854
8527.43324681
8428.27389867
3623.91067448
0.0201087472526
0.00414711026554
8553.14081886
8548.34237177
8542.84817343
8536.66364759
8529.5993796
8522.16822263
8406.52613535
3539.88297064
0.0274713570978
-0.00017708282052
8548.59996571
8543.83625788
8538.42135465
8532.23322678
8525.18782285
8518.08798328
8389.54944405
3482.62145896
0.0466652836505
-0.00347811985618
8544.68779182
8540.03316162
8534.73467413
8528.70583863
8521.85745387
8514.99596417
8379.46364617
3451.28718071
0.0684651707587
0.00143945992811
8541.34194336
8536.84925308
8531.7652829
8526.03069271
8519.5769363
8512.89851559
8376.53747467
3441.2232978
0.0881823631375
0.0151060357142
8538.5083962
8534.23041048
8529.43277583
8524.0902717
8518.17325538
8511.7861689
8381.02323945
3447.56720212
0.104883862236
0.0293785940512
8536.14435466
8532.11232805
8527.63486965
8522.70553492
8517.3284009
8511.59004738
8389.05101937
3467.61168052
0.0765996434711
0.00858703899835
8534.19511457
8530.41307328
8526.25283322
8521.74533044
8516.9616221
8511.85236001
8395.68972794
3496.58139023
0.0513504033387
0.00169606903764
8532.61594373
8529.0609245
8525.21225459
8521.12926147
8516.8805322
8512.41857443
8402.05460788
3529.86533623
0.0343636896272
-0.00169332448716
)
;
    }
    atmosphere
    {
        type            totalPressure;
        rho             rho;
        psi             none;
        gamma           1;
        p0              uniform 0;
        value           nonuniform List<scalar> 
16
(
-5.32924304335e-07
0
0
0
0
0
0
0
0
0
0
0
0
0
0
0
)
;
    }
    floatingObject
    {
        type            fixedFluxPressure;
        gradient        nonuniform List<scalar> 0();
        value           nonuniform List<scalar> 0();
    }
    procBoundary5to0
    {
        type            processor;
        value           nonuniform List<scalar> 
12
(
8622.18026594
8620.18852871
8617.93927205
8615.44444555
8612.70919387
8609.77368603
8606.69727529
8603.58716484
8600.54222299
5040.283071
45.7322657503
-0.0167388989687
)
;
    }
    procBoundary5to3
    {
        type            processor;
        value           nonuniform List<scalar> 10(8531.33970689 8528.04527535 8524.50626374 8520.78803482 8516.98317517 8513.07108101 8405.38628247 3561.16467183 0.0171067396063 -0.00125441810217);
    }
    procBoundary5to4
    {
        type            processor;
        value           nonuniform List<scalar> 
18
(
8615.91292938
8608.1645973
8598.27669874
8595.45388644
8595.45388644
8587.95168457
8580.83637036
8574.18064769
8568.04214098
8562.42781451
8557.34605539
8552.80092433
8548.80198375
8545.32741211
8542.33266933
8539.78036451
8537.63283536
8535.8443577
)
;
    }
}


// ************************************************************************* //
