/*--------------------------------*- C++ -*----------------------------------*\
| =========                 |                                                 |
| \\      /  F ield         | OpenFOAM: The Open Source CFD Toolbox           |
|  \\    /   O peration     | Version:  v2012                                 |
|   \\  /    A nd           | Website:  www.openfoam.com                      |
|    \\/     M anipulation  |                                                 |
\*---------------------------------------------------------------------------*/
FoamFile
{
    version     2.0;
    format      ascii;
    class       volScalarField;
    location    "1.1";
    object      epsilon;
}
// * * * * * * * * * * * * * * * * * * * * * * * * * * * * * * * * * * * * * //

dimensions      [0 2 -3 0 0 0 0];


internalField   nonuniform List<scalar> 
167
(
0.0201021449274
0.0202378410647
0.0206205655296
0.0218220058034
0.0253213418456
0.0342842964083
0.0544484775144
0.0957905159813
0.180523267556
0.0201888536231
0.0205825045165
0.0218179915111
0.0254082346251
0.0345804637123
0.0551496276038
0.0970304956139
0.181299792562
0.0201407025698
0.0205440090787
0.0218088720621
0.0254775477148
0.0348313714746
0.0557531343675
0.0980986594718
0.18197565331
0.0199490693129
0.0200936178467
0.0205053279632
0.0217951995071
0.0255306048352
0.035039993733
0.0562658813863
0.0990116240542
0.182560526406
0.0199006645796
0.0200479349321
0.0204668491105
0.0217777226823
0.0255690239766
0.0352096480225
0.0566962562685
0.0997912438443
0.183066787244
0.0198540951951
0.0200039107497
0.0204290242499
0.0217574782998
0.0255956119189
0.0353473585297
0.0570568860145
0.100455176695
0.183502743525
0.0197307564117
0.0198095891319
0.0199618531805
0.0203923107281
0.0217354459765
0.0256129407765
0.0354598308031
0.0573613286393
0.101010735625
0.18387055857
0.0196245150346
0.019686769493
0.0197675088969
0.0199220823729
0.0203571397529
0.0217123500203
0.0256220283215
0.0355476813107
0.0576124793148
0.101477964995
0.184182068792
0.0195811191085
0.0196454647408
0.0197280939546
0.0198848864254
0.0203239568768
0.0216892365392
0.0256255989081
0.0356168900495
0.0578173254646
0.101866916993
0.184443137655
0.0196068822786
0.0196914295757
0.0198503584786
0.0202929602441
0.0216666576069
0.0256251584481
0.0356716756195
0.0579901770707
0.102194114311
0.184656333882
0.01957027376
0.0196567791623
0.0198177540398
0.0202635349231
0.0216445206892
0.0256217526217
0.0357136915256
0.0581242635634
0.102439994501
0.184811230442
0.0195316343058
0.0196199858644
0.0197828505431
0.0202315175563
0.0216191233353
0.0256133533391
0.0357453594923
0.0582308882657
0.102618503688
0.184899366906
0.0194738185272
0.019563706546
0.0197281065224
0.0201792058747
0.0215727870695
0.0255828296713
0.035750756815
0.058294548941
0.102692810351
0.184884703425
0.0193332442342
0.0194238792742
0.0195888296842
0.0200408396688
0.0214377714786
0.0254593491441
0.0356561956776
0.0582393740136
0.102595757264
0.184729258805
0.0188239922829
0.0188969695132
0.018986459718
0.0191490732526
0.0195962507519
0.0209843572252
0.0249947543736
0.0351843258674
0.0577451840704
0.102080972682
0.184060514427
0.0174552943999
0.0175247542631
0.0176089848206
0.0177608355229
0.0181813284984
0.0195046928248
0.0233823077376
0.0333633259208
0.055581552665
0.0988610366744
0.181829958108
0.0173826166339
0.01747100373
0.017571205436
0.017727730108
0.0181230492034
0.0193777770818
0.0232468896271
0.0339688566719
0.0605806800821
0.120711436052
0.240386400887
)
;

boundaryField
{
    back
    {
        lowReCorrection 0;
        blending        stepwise;
        n               2;
        type            epsilonWallFunction;
        value           nonuniform List<scalar> 
167
(
0.0201021449274
0.0202378410647
0.0206205655296
0.0218220058034
0.0253213418456
0.0342842964083
0.0544484775144
0.0957905159813
0.180523267556
0.0201888536231
0.0205825045165
0.0218179915111
0.0254082346251
0.0345804637123
0.0551496276038
0.0970304956139
0.181299792562
0.0201407025698
0.0205440090787
0.0218088720621
0.0254775477148
0.0348313714746
0.0557531343675
0.0980986594718
0.18197565331
0.0199490693129
0.0200936178467
0.0205053279632
0.0217951995071
0.0255306048352
0.035039993733
0.0562658813863
0.0990116240542
0.182560526406
0.0199006645796
0.0200479349321
0.0204668491105
0.0217777226823
0.0255690239766
0.0352096480225
0.0566962562685
0.0997912438443
0.183066787244
0.0198540951951
0.0200039107497
0.0204290242499
0.0217574782998
0.0255956119189
0.0353473585297
0.0570568860145
0.100455176695
0.183502743525
0.0197307564117
0.0198095891319
0.0199618531805
0.0203923107281
0.0217354459765
0.0256129407765
0.0354598308031
0.0573613286393
0.101010735625
0.18387055857
0.0196245150346
0.019686769493
0.0197675088969
0.0199220823729
0.0203571397529
0.0217123500203
0.0256220283215
0.0355476813107
0.0576124793148
0.101477964995
0.184182068792
0.0195811191085
0.0196454647408
0.0197280939546
0.0198848864254
0.0203239568768
0.0216892365392
0.0256255989081
0.0356168900495
0.0578173254646
0.101866916993
0.184443137655
0.0196068822786
0.0196914295757
0.0198503584786
0.0202929602441
0.0216666576069
0.0256251584481
0.0356716756195
0.0579901770707
0.102194114311
0.184656333882
0.01957027376
0.0196567791623
0.0198177540398
0.0202635349231
0.0216445206892
0.0256217526217
0.0357136915256
0.0581242635634
0.102439994501
0.184811230442
0.0195316343058
0.0196199858644
0.0197828505431
0.0202315175563
0.0216191233353
0.0256133533391
0.0357453594923
0.0582308882657
0.102618503688
0.184899366906
0.0194738185272
0.019563706546
0.0197281065224
0.0201792058747
0.0215727870695
0.0255828296713
0.035750756815
0.058294548941
0.102692810351
0.184884703425
0.0193332442342
0.0194238792742
0.0195888296842
0.0200408396688
0.0214377714786
0.0254593491441
0.0356561956776
0.0582393740136
0.102595757264
0.184729258805
0.0188239922829
0.0188969695132
0.018986459718
0.0191490732526
0.0195962507519
0.0209843572252
0.0249947543736
0.0351843258674
0.0577451840704
0.102080972682
0.184060514427
0.0174552943999
0.0175247542631
0.0176089848206
0.0177608355229
0.0181813284984
0.0195046928248
0.0233823077376
0.0333633259208
0.055581552665
0.0988610366744
0.181829958108
0.0173826166339
0.01747100373
0.017571205436
0.017727730108
0.0181230492034
0.0193777770818
0.0232468896271
0.0339688566719
0.0605806800821
0.120711436052
0.240386400887
)
;
    }
    sides
    {
        lowReCorrection 0;
        blending        stepwise;
        n               2;
        type            epsilonWallFunction;
        value           nonuniform List<scalar> 
11
(
0.0173826166339
0.01747100373
0.017571205436
0.017727730108
0.0181230492034
0.0193777770818
0.0232468896271
0.0339688566719
0.0605806800821
0.120711436052
0.240386400887
)
;
    }
    bottom
    {
        lowReCorrection 0;
        blending        stepwise;
        n               2;
        type            epsilonWallFunction;
        value           nonuniform List<scalar> 0();
    }
    front
    {
        lowReCorrection 0;
        blending        stepwise;
        n               2;
        type            epsilonWallFunction;
        value           nonuniform List<scalar> 
167
(
0.0201021449274
0.0202378410647
0.0206205655296
0.0218220058034
0.0253213418456
0.0342842964083
0.0544484775144
0.0957905159813
0.180523267556
0.0201888536231
0.0205825045165
0.0218179915111
0.0254082346251
0.0345804637123
0.0551496276038
0.0970304956139
0.181299792562
0.0201407025698
0.0205440090787
0.0218088720621
0.0254775477148
0.0348313714746
0.0557531343675
0.0980986594718
0.18197565331
0.0199490693129
0.0200936178467
0.0205053279632
0.0217951995071
0.0255306048352
0.035039993733
0.0562658813863
0.0990116240542
0.182560526406
0.0199006645796
0.0200479349321
0.0204668491105
0.0217777226823
0.0255690239766
0.0352096480225
0.0566962562685
0.0997912438443
0.183066787244
0.0198540951951
0.0200039107497
0.0204290242499
0.0217574782998
0.0255956119189
0.0353473585297
0.0570568860145
0.100455176695
0.183502743525
0.0197307564117
0.0198095891319
0.0199618531805
0.0203923107281
0.0217354459765
0.0256129407765
0.0354598308031
0.0573613286393
0.101010735625
0.18387055857
0.0196245150346
0.019686769493
0.0197675088969
0.0199220823729
0.0203571397529
0.0217123500203
0.0256220283215
0.0355476813107
0.0576124793148
0.101477964995
0.184182068792
0.0195811191085
0.0196454647408
0.0197280939546
0.0198848864254
0.0203239568768
0.0216892365392
0.0256255989081
0.0356168900495
0.0578173254646
0.101866916993
0.184443137655
0.0196068822786
0.0196914295757
0.0198503584786
0.0202929602441
0.0216666576069
0.0256251584481
0.0356716756195
0.0579901770707
0.102194114311
0.184656333882
0.01957027376
0.0196567791623
0.0198177540398
0.0202635349231
0.0216445206892
0.0256217526217
0.0357136915256
0.0581242635634
0.102439994501
0.184811230442
0.0195316343058
0.0196199858644
0.0197828505431
0.0202315175563
0.0216191233353
0.0256133533391
0.0357453594923
0.0582308882657
0.102618503688
0.184899366906
0.0194738185272
0.019563706546
0.0197281065224
0.0201792058747
0.0215727870695
0.0255828296713
0.035750756815
0.058294548941
0.102692810351
0.184884703425
0.0193332442342
0.0194238792742
0.0195888296842
0.0200408396688
0.0214377714786
0.0254593491441
0.0356561956776
0.0582393740136
0.102595757264
0.184729258805
0.0188239922829
0.0188969695132
0.018986459718
0.0191490732526
0.0195962507519
0.0209843572252
0.0249947543736
0.0351843258674
0.0577451840704
0.102080972682
0.184060514427
0.0174552943999
0.0175247542631
0.0176089848206
0.0177608355229
0.0181813284984
0.0195046928248
0.0233823077376
0.0333633259208
0.055581552665
0.0988610366744
0.181829958108
0.0173826166339
0.01747100373
0.017571205436
0.017727730108
0.0181230492034
0.0193777770818
0.0232468896271
0.0339688566719
0.0605806800821
0.120711436052
0.240386400887
)
;
    }
    atmosphere
    {
        type            inletOutlet;
        inletValue      uniform 0.1;
        value           uniform 0.1;
    }
    floatingObject
    {
        lowReCorrection 0;
        blending        stepwise;
        n               2;
        type            epsilonWallFunction;
        value           nonuniform List<scalar> 0();
    }
    procBoundary11to9
    {
        type            processor;
        value           nonuniform List<scalar> 9(0.0201548334674 0.0202872225811 0.0206576607898 0.021820175405 0.0252154044797 0.0339392633932 0.0536411286229 0.0943607420751 0.179636766962);
    }
    procBoundary11to10
    {
        type            processor;
        value           nonuniform List<scalar> 
23
(
0.0200314307213
0.0200500025768
0.0200500025768
0.0199988737346
0.0199988737346
0.0198748452644
0.0198250521237
0.0197769222187
0.0197769222187
0.0196702984514
0.0196702984514
0.0195682047538
0.0195225607048
0.0195403717733
0.0195403717733
0.0195015559822
0.019460830547
0.0194012323303
0.0192596175642
0.0192596175642
0.018754648475
0.0173888733962
0.0172968892914
)
;
    }
}


// ************************************************************************* //
