/*--------------------------------*- C++ -*----------------------------------*\
| =========                 |                                                 |
| \\      /  F ield         | OpenFOAM: The Open Source CFD Toolbox           |
|  \\    /   O peration     | Version:  v2012                                 |
|   \\  /    A nd           | Website:  www.openfoam.com                      |
|    \\/     M anipulation  |                                                 |
\*---------------------------------------------------------------------------*/
FoamFile
{
    version     2.0;
    format      ascii;
    class       volScalarField;
    location    "3.9";
    object      ddt0(k);
}
// * * * * * * * * * * * * * * * * * * * * * * * * * * * * * * * * * * * * * //

dimensions      [0 2 -3 0 0 0 0];


internalField   nonuniform List<scalar> 
164
(
-0.000970798213853
-0.00121767354062
-0.00128628616891
-0.00130655815122
-0.00131181350639
-0.00131355467443
-0.00131507387234
-0.00131695588893
-0.000969242951162
-0.00121534820464
-0.00128481740367
-0.00130570079398
-0.00131127908056
-0.00131316094724
-0.00131464835057
-0.00131647740487
-0.000967553155538
-0.00121263782494
-0.00128303764302
-0.00130460793749
-0.00131057417549
-0.00131259208285
-0.00131409257367
-0.00131605421139
-0.00131884799909
-0.0013215149795
-0.00096593690408
-0.00120962574927
-0.0012810142028
-0.0013033702668
-0.00130980905059
-0.00131204162819
-0.00131360926191
-0.00131564353026
-0.00131817926514
-0.00132051639529
-0.000964429991534
-0.00120626558213
-0.00127876309386
-0.00130200526541
-0.00130898681608
-0.00131147960643
-0.00131314765514
-0.00131523506985
-0.00131772678379
-0.00131996984358
-0.000963118188618
-0.0012025542636
-0.00127622925387
-0.00130049295427
-0.00130809976493
-0.00131089536641
-0.00131268885246
-0.0013147829106
-0.001317165575
-0.00131927519035
-0.000962140243298
-0.00119856232613
-0.00127342036472
-0.00129878095543
-0.0013071046139
-0.00131026019368
-0.00131220505969
-0.00131428191799
-0.00131652022639
-0.00131849922483
-0.000959993429717
-0.00119481955608
-0.00127072552227
-0.00129709648994
-0.00130607842199
-0.00130957580658
-0.00131167026628
-0.00131374051645
-0.00131585482413
-0.00131775831738
-0.000956329182997
-0.00119129746912
-0.00126822765592
-0.00129548882727
-0.00130501521882
-0.00130878384083
-0.00131099445022
-0.00131306322265
-0.00131509643302
-0.00131689093131
-0.000952598423283
-0.00118751826064
-0.00126541258441
-0.00129359602299
-0.00130371785234
-0.00130780903455
-0.00131022157708
-0.00131236325008
-0.00131442384451
-0.00131621480133
-0.000948781034525
-0.0011833941638
-0.00126220906847
-0.00129133074838
-0.00130211010175
-0.00130661000982
-0.00130927243116
-0.0013115489768
-0.00131374914644
-0.00131566223342
-0.000944857581155
-0.00117879317503
-0.00125853270075
-0.00128863496329
-0.0013001210148
-0.00130507261125
-0.00130801506838
-0.00131050159926
-0.00131292273586
-0.00131504197385
-0.000940828860406
-0.00117379780801
-0.00125435647608
-0.00128541275137
-0.00129762774813
-0.00130306040237
-0.00130632985818
-0.00130907848635
-0.00131176355756
-0.00131416970839
-0.00093661655976
-0.00116838159514
-0.00124962735933
-0.00128157623264
-0.00129452507943
-0.00130046709789
-0.00130410241742
-0.00130716804285
-0.00131020212938
-0.00131290443942
-0.000932017275972
-0.0011624071883
-0.00124425948732
-0.00127709279389
-0.0012907532937
-0.0012972322162
-0.00130129328173
-0.00130464569255
-0.00130811862689
-0.00131109233673
-0.00092726854382
-0.00115597828282
-0.00123835093468
-0.00127184184493
-0.0012863497715
-0.00129328826144
-0.00129762787109
-0.00130150340693
-0.00130519084623
-0.00130887781615
-0.00092200427691
-0.00114912056718
-0.00123172018015
-0.00126619112562
-0.00128089497451
-0.00128853689291
-0.00129340044444
-0.00127530310815
)
;

boundaryField
{
    back
    {
        type            calculated;
        value           nonuniform List<scalar> 
164
(
-0.000970798213853
-0.00121767354062
-0.00128628616891
-0.00130655815122
-0.00131181350639
-0.00131355467443
-0.00131507387234
-0.00131695588893
-0.000969242951162
-0.00121534820464
-0.00128481740367
-0.00130570079398
-0.00131127908056
-0.00131316094724
-0.00131464835057
-0.00131647740487
-0.000967553155538
-0.00121263782494
-0.00128303764302
-0.00130460793749
-0.00131057417549
-0.00131259208285
-0.00131409257367
-0.00131605421139
-0.00131884799909
-0.0013215149795
-0.00096593690408
-0.00120962574927
-0.0012810142028
-0.0013033702668
-0.00130980905059
-0.00131204162819
-0.00131360926191
-0.00131564353026
-0.00131817926514
-0.00132051639529
-0.000964429991534
-0.00120626558213
-0.00127876309386
-0.00130200526541
-0.00130898681608
-0.00131147960643
-0.00131314765514
-0.00131523506985
-0.00131772678379
-0.00131996984358
-0.000963118188618
-0.0012025542636
-0.00127622925387
-0.00130049295427
-0.00130809976493
-0.00131089536641
-0.00131268885246
-0.0013147829106
-0.001317165575
-0.00131927519035
-0.000962140243298
-0.00119856232613
-0.00127342036472
-0.00129878095543
-0.0013071046139
-0.00131026019368
-0.00131220505969
-0.00131428191799
-0.00131652022639
-0.00131849922483
-0.000959993429717
-0.00119481955608
-0.00127072552227
-0.00129709648994
-0.00130607842199
-0.00130957580658
-0.00131167026628
-0.00131374051645
-0.00131585482413
-0.00131775831738
-0.000956329182997
-0.00119129746912
-0.00126822765592
-0.00129548882727
-0.00130501521882
-0.00130878384083
-0.00131099445022
-0.00131306322265
-0.00131509643302
-0.00131689093131
-0.000952598423283
-0.00118751826064
-0.00126541258441
-0.00129359602299
-0.00130371785234
-0.00130780903455
-0.00131022157708
-0.00131236325008
-0.00131442384451
-0.00131621480133
-0.000948781034525
-0.0011833941638
-0.00126220906847
-0.00129133074838
-0.00130211010175
-0.00130661000982
-0.00130927243116
-0.0013115489768
-0.00131374914644
-0.00131566223342
-0.000944857581155
-0.00117879317503
-0.00125853270075
-0.00128863496329
-0.0013001210148
-0.00130507261125
-0.00130801506838
-0.00131050159926
-0.00131292273586
-0.00131504197385
-0.000940828860406
-0.00117379780801
-0.00125435647608
-0.00128541275137
-0.00129762774813
-0.00130306040237
-0.00130632985818
-0.00130907848635
-0.00131176355756
-0.00131416970839
-0.00093661655976
-0.00116838159514
-0.00124962735933
-0.00128157623264
-0.00129452507943
-0.00130046709789
-0.00130410241742
-0.00130716804285
-0.00131020212938
-0.00131290443942
-0.000932017275972
-0.0011624071883
-0.00124425948732
-0.00127709279389
-0.0012907532937
-0.0012972322162
-0.00130129328173
-0.00130464569255
-0.00130811862689
-0.00131109233673
-0.00092726854382
-0.00115597828282
-0.00123835093468
-0.00127184184493
-0.0012863497715
-0.00129328826144
-0.00129762787109
-0.00130150340693
-0.00130519084623
-0.00130887781615
-0.00092200427691
-0.00114912056718
-0.00123172018015
-0.00126619112562
-0.00128089497451
-0.00128853689291
-0.00129340044444
-0.00127530310815
)
;
    }
    sides
    {
        type            calculated;
        value           nonuniform List<scalar> 0();
    }
    bottom
    {
        type            calculated;
        value           nonuniform List<scalar> 
17
(
-0.000970798213853
-0.000969242951162
-0.000967553155538
-0.00096593690408
-0.000964429991534
-0.000963118188618
-0.000962140243298
-0.000959993429717
-0.000956329182997
-0.000952598423283
-0.000948781034525
-0.000944857581155
-0.000940828860406
-0.00093661655976
-0.000932017275972
-0.00092726854382
-0.00092200427691
)
;
    }
    front
    {
        type            calculated;
        value           nonuniform List<scalar> 
164
(
-0.000970798213853
-0.00121767354062
-0.00128628616891
-0.00130655815122
-0.00131181350639
-0.00131355467443
-0.00131507387234
-0.00131695588893
-0.000969242951162
-0.00121534820464
-0.00128481740367
-0.00130570079398
-0.00131127908056
-0.00131316094724
-0.00131464835057
-0.00131647740487
-0.000967553155538
-0.00121263782494
-0.00128303764302
-0.00130460793749
-0.00131057417549
-0.00131259208285
-0.00131409257367
-0.00131605421139
-0.00131884799909
-0.0013215149795
-0.00096593690408
-0.00120962574927
-0.0012810142028
-0.0013033702668
-0.00130980905059
-0.00131204162819
-0.00131360926191
-0.00131564353026
-0.00131817926514
-0.00132051639529
-0.000964429991534
-0.00120626558213
-0.00127876309386
-0.00130200526541
-0.00130898681608
-0.00131147960643
-0.00131314765514
-0.00131523506985
-0.00131772678379
-0.00131996984358
-0.000963118188618
-0.0012025542636
-0.00127622925387
-0.00130049295427
-0.00130809976493
-0.00131089536641
-0.00131268885246
-0.0013147829106
-0.001317165575
-0.00131927519035
-0.000962140243298
-0.00119856232613
-0.00127342036472
-0.00129878095543
-0.0013071046139
-0.00131026019368
-0.00131220505969
-0.00131428191799
-0.00131652022639
-0.00131849922483
-0.000959993429717
-0.00119481955608
-0.00127072552227
-0.00129709648994
-0.00130607842199
-0.00130957580658
-0.00131167026628
-0.00131374051645
-0.00131585482413
-0.00131775831738
-0.000956329182997
-0.00119129746912
-0.00126822765592
-0.00129548882727
-0.00130501521882
-0.00130878384083
-0.00131099445022
-0.00131306322265
-0.00131509643302
-0.00131689093131
-0.000952598423283
-0.00118751826064
-0.00126541258441
-0.00129359602299
-0.00130371785234
-0.00130780903455
-0.00131022157708
-0.00131236325008
-0.00131442384451
-0.00131621480133
-0.000948781034525
-0.0011833941638
-0.00126220906847
-0.00129133074838
-0.00130211010175
-0.00130661000982
-0.00130927243116
-0.0013115489768
-0.00131374914644
-0.00131566223342
-0.000944857581155
-0.00117879317503
-0.00125853270075
-0.00128863496329
-0.0013001210148
-0.00130507261125
-0.00130801506838
-0.00131050159926
-0.00131292273586
-0.00131504197385
-0.000940828860406
-0.00117379780801
-0.00125435647608
-0.00128541275137
-0.00129762774813
-0.00130306040237
-0.00130632985818
-0.00130907848635
-0.00131176355756
-0.00131416970839
-0.00093661655976
-0.00116838159514
-0.00124962735933
-0.00128157623264
-0.00129452507943
-0.00130046709789
-0.00130410241742
-0.00130716804285
-0.00131020212938
-0.00131290443942
-0.000932017275972
-0.0011624071883
-0.00124425948732
-0.00127709279389
-0.0012907532937
-0.0012972322162
-0.00130129328173
-0.00130464569255
-0.00130811862689
-0.00131109233673
-0.00092726854382
-0.00115597828282
-0.00123835093468
-0.00127184184493
-0.0012863497715
-0.00129328826144
-0.00129762787109
-0.00130150340693
-0.00130519084623
-0.00130887781615
-0.00092200427691
-0.00114912056718
-0.00123172018015
-0.00126619112562
-0.00128089497451
-0.00128853689291
-0.00129340044444
-0.00127530310815
)
;
    }
    atmosphere
    {
        type            calculated;
        value           nonuniform List<scalar> 0();
    }
    floatingObject
    {
        type            calculated;
        value           nonuniform List<scalar> 0();
    }
    procBoundary4to0
    {
        type            processor;
        value           nonuniform List<scalar> 8(-0.000972165066268 -0.00121960744906 -0.00128750351769 -0.00130735289496 -0.00131244245807 -0.00131418484133 -0.00131572194973 -0.00131764461422);
    }
    procBoundary4to3
    {
        type            processor;
        value           nonuniform List<scalar> 
13
(
-0.00129756042462
-0.0013018377272
-0.00130574180007
-0.000916567804991
-0.00114208894667
-0.00122499504168
-0.00125943986268
-0.00128304440844
-0.00129756042462
-0.00128843633785
-0.00125943986268
-0.00128304440844
-0.00126861979025
)
;
    }
    procBoundary4to5
    {
        type            processor;
        value           nonuniform List<scalar> 
18
(
-0.00131930950161
-0.00131892123321
-0.00131892123321
-0.00132133998684
-0.00132464770179
-0.00132409838698
-0.00132337534534
-0.001322360117
-0.0013211584452
-0.00131993742639
-0.00131828803859
-0.00131701122971
-0.0013161202755
-0.0013153591837
-0.0013143008398
-0.00131301574188
-0.0013118555634
-0.00131012706183
)
;
    }
}


// ************************************************************************* //
