/*--------------------------------*- C++ -*----------------------------------*\
| =========                 |                                                 |
| \\      /  F ield         | OpenFOAM: The Open Source CFD Toolbox           |
|  \\    /   O peration     | Version:  v2012                                 |
|   \\  /    A nd           | Website:  www.openfoam.com                      |
|    \\/     M anipulation  |                                                 |
\*---------------------------------------------------------------------------*/
FoamFile
{
    version     2.0;
    format      ascii;
    class       volVectorField;
    location    "3.9";
    object      ddtCorrDdt0(U);
}
// * * * * * * * * * * * * * * * * * * * * * * * * * * * * * * * * * * * * * //

dimensions      [0 1 -2 0 0 0 0];


internalField   nonuniform List<vector> 
164
(
(-0.149509032632 -0.0016585780323 8.71551316365e-23)
(-0.151375975375 -0.00560262684498 1.02973315401e-23)
(-0.153015008455 -0.0093756283969 1.91552006306e-23)
(-0.155475143717 -0.0133722831109 6.1182854959e-23)
(-0.15884654064 -0.0176581505833 -6.00933976028e-25)
(-0.163231508407 -0.0223234044068 1.67821375119e-23)
(-0.168703258813 -0.0274606488455 5.03714943854e-24)
(-0.175349263157 -0.0331648481196 3.39369733431e-24)
(-0.145486508241 -0.00208176697691 1.54944548134e-22)
(-0.147302265245 -0.00678218002824 -6.33144265417e-23)
(-0.148776283376 -0.0113719835203 1.26256577151e-22)
(-0.150976340799 -0.0162219504058 -1.9742730812e-23)
(-0.153980802552 -0.0214114573052 3.47840340194e-23)
(-0.157877909479 -0.0270444071035 8.0672833796e-23)
(-0.162722530573 -0.0332341106787 7.85901609427e-23)
(-0.168591635463 -0.0400909589631 8.6631268232e-24)
(-0.140743412185 -0.00246240171546 1.22512528028e-22)
(-0.14249439347 -0.00782926809192 -2.44630115869e-23)
(-0.143780036412 -0.0131354689485 2.75246189602e-23)
(-0.145676014582 -0.0187246546301 3.74456355972e-23)
(-0.148249530958 -0.0246867521579 2.45815426823e-23)
(-0.151570495018 -0.0311397630084 -5.53182290593e-24)
(-0.155675137921 -0.0382199430572 8.68819512471e-24)
(-0.160606827768 -0.0460385355118 2.70933861712e-24)
(-0.166387047488 -0.0546267076796 2.55695045827e-23)
(-0.173081641934 -0.0641874803271 5.09602013776e-23)
(-0.135376951882 -0.0027927293418 3.19935352829e-22)
(-0.137052286735 -0.00872012062325 3.36981892769e-23)
(-0.138133818284 -0.0146299850681 5.77936750093e-23)
(-0.139699230992 -0.0208359858976 8.69216977516e-23)
(-0.141800778087 -0.0274290359508 7.10131774077e-23)
(-0.144494844924 -0.0345349836718 2.57286905733e-23)
(-0.147783997958 -0.0423004842228 7.80399705688e-24)
(-0.151668325625 -0.0508218401876 -2.30168798715e-24)
(-0.15613113749 -0.0601612182624 5.03413974558e-23)
(-0.161231466632 -0.0705747789731 3.888402417e-23)
(-0.129510552502 -0.00309048616944 1.57739144958e-22)
(-0.131091616837 -0.00945473120749 -2.91817481018e-22)
(-0.131953644798 -0.0158362492076 2.00607401613e-23)
(-0.133175749353 -0.0225259986946 6.01995273232e-23)
(-0.134788106569 -0.0296005708961 3.20558692102e-23)
(-0.136829354042 -0.0371819976979 2.5764420778e-23)
(-0.139269612525 -0.0454162814056 1.76040398049e-23)
(-0.142079442171 -0.0543978916883 -6.85743973181e-24)
(-0.145208911374 -0.0642018820113 -7.63443456352e-24)
(-0.148662789765 -0.0751123095411 4.92770366926e-23)
(-0.123220865651 -0.00335027111911 2.39548863573e-22)
(-0.124719666741 -0.0100217821667 -3.68897279246e-23)
(-0.125371044986 -0.0167470522874 2.95395341108e-24)
(-0.126248660766 -0.0237915881253 3.63079887641e-23)
(-0.127380175501 -0.0311906742814 2.71520445855e-23)
(-0.128784771541 -0.0390690157377 2.27116311714e-23)
(-0.130400184788 -0.0475687115264 6.10416873459e-23)
(-0.132154785003 -0.0567645133776 3.37687185604e-23)
(-0.133974211019 -0.0667385518492 1.97207126251e-23)
(-0.135804266334 -0.0777846880588 3.53593643149e-24)
(-0.11655105649 -0.00351246756074 1.09007083994e-23)
(-0.118044437275 -0.010410785208 -3.11630624141e-22)
(-0.118490233402 -0.0173625739687 -2.60629534217e-23)
(-0.119050075293 -0.0246453610058 -1.34062183911e-23)
(-0.119744001553 -0.0322363200477 4.48858729948e-23)
(-0.120564602937 -0.0402483263648 3.45460924007e-23)
(-0.121426363226 -0.0488048281582 7.12547920169e-23)
(-0.122217994644 -0.057978013113 1.65524712602e-23)
(-0.122841745129 -0.0678506018475 1.46349173709e-23)
(-0.123175854289 -0.0786713449378 4.7615926751e-23)
(-0.109853507334 -0.00368756585664 4.97203168457e-23)
(-0.111105725348 -0.0106861724258 -1.22657317979e-22)
(-0.111396597247 -0.0177211941642 -1.92638825862e-23)
(-0.111696254461 -0.0251400735049 -1.38357902172e-25)
(-0.112020028571 -0.0327952439261 1.93807373663e-23)
(-0.112338059999 -0.0407956983111 -4.04937282527e-24)
(-0.112559556401 -0.0492403194248 -3.42698509201e-23)
(-0.112537899698 -0.0581871175939 4.66644672618e-23)
(-0.112154095861 -0.0676968505985 -9.44365407319e-24)
(-0.111246446747 -0.0779940288827 -2.963311526e-23)
(-0.102934374396 -0.00373187370806 7.50226082151e-23)
(-0.10401039043 -0.0107732091502 -3.40300543214e-22)
(-0.104209314671 -0.0179298547182 -3.20542545824e-23)
(-0.104297844911 -0.0253562975237 1.6808330237e-23)
(-0.104324522161 -0.0329597246104 -1.3975767091e-23)
(-0.104247134419 -0.040833892557 -3.46843643882e-23)
(-0.103956239058 -0.0490217844235 2.02185628335e-23)
(-0.103326413406 -0.0575746255869 -3.50164843244e-23)
(-0.102184641792 -0.0665601931678 -1.88251775582e-23)
(-0.100341149825 -0.0760906657645 -1.19458367485e-23)
(-0.0958628239787 -0.00372057046272 -1.58584961539e-24)
(-0.0969247570766 -0.0107517291028 -8.30661840002e-24)
(-0.097010389716 -0.017968180016 -6.09727518317e-23)
(-0.09693693564 -0.0253331375901 -3.50876721702e-23)
(-0.0967391332111 -0.0328222803213 -2.6339511686e-23)
(-0.0963784753812 -0.0404687386386 -4.02096365995e-23)
(-0.0957544755408 -0.04833316508 -1.61926955749e-23)
(-0.09472614555 -0.0564232241907 8.01661493611e-25)
(-0.0931059827191 -0.064721107172 -1.10908039327e-22)
(-0.0906611232285 -0.0732969056794 -9.95405143358e-23)
(-0.0887566063934 -0.00372134071092 -1.16174515649e-22)
(-0.0898279999931 -0.0106803186141 -1.52280421016e-22)
(-0.0898257885862 -0.0178729013183 -1.02071045243e-22)
(-0.089645871252 -0.0251422498963 -9.21699661833e-23)
(-0.0893203638295 -0.0324621946724 -1.10733238267e-23)
(-0.0888005858075 -0.0398831682034 2.61011185168e-24)
(-0.0880149490265 -0.0473890266142 -6.4448915659e-24)
(-0.0867951812788 -0.0549392001581 1.23375141006e-23)
(-0.084979187079 -0.062500330705 -1.25921517376e-24)
(-0.0823424365581 -0.0700477094983 -5.21787275292e-23)
(-0.0816858976743 -0.00372526361549 -1.33578864341e-22)
(-0.0827320868109 -0.0105766069646 -2.37448166018e-22)
(-0.0826942537276 -0.017688974827 -1.26760716429e-22)
(-0.0824639637619 -0.0248581230203 -5.71346892346e-23)
(-0.0820853268103 -0.0320263268999 -1.15138920189e-23)
(-0.0815293514494 -0.039196393469 -1.09426300488e-23)
(-0.0807053729142 -0.0463417897709 1.10475170542e-23)
(-0.0794984602667 -0.0533948096824 -1.52787431264e-24)
(-0.0777636416442 -0.0602853578966 -1.50394796316e-23)
(-0.0752746222199 -0.0668226519459 1.15975088952e-22)
(-0.0746732759607 -0.00371854864221 -7.91648797331e-23)
(-0.0756671039452 -0.0104537673509 -1.55526275242e-22)
(-0.0756281639574 -0.0174870335225 -2.93917391539e-23)
(-0.0754017968553 -0.0245445080011 -8.74004162981e-24)
(-0.0750240521325 -0.0315614938698 -2.91291001769e-23)
(-0.0744992915008 -0.0385213924189 -2.55003644162e-24)
(-0.0737691795677 -0.0453660861491 2.19206362039e-23)
(-0.0727508816638 -0.0520072724573 1.1679146421e-22)
(-0.0713284002087 -0.0582862954176 4.90431331718e-23)
(-0.069309732265 -0.0640649633799 1.7019347902e-22)
(-0.0676999739476 -0.00370180296769 -1.34871496293e-22)
(-0.0686671013597 -0.0103222196107 2.2360670448e-22)
(-0.0686270313588 -0.0172843488921 9.88056838576e-23)
(-0.0684205776523 -0.024244376203 2.15111359541e-23)
(-0.0680919049226 -0.0311431035792 -3.460106738e-23)
(-0.0676647303705 -0.0379510129177 -8.54517644587e-24)
(-0.0671193149285 -0.0445923210888 -3.66333155535e-23)
(-0.0664200040978 -0.0509462524384 -3.04093503798e-23)
(-0.0654587554745 -0.0568441339671 2.02238259148e-23)
(-0.0642108914626 -0.0620729981563 -5.08190127968e-24)
(-0.060798238795 -0.00369438179347 1.81420287498e-22)
(-0.0617174453841 -0.0102029843504 4.27224377759e-22)
(-0.0616873966043 -0.0170827488488 2.63454596604e-22)
(-0.0615046732036 -0.0239803250002 9.69294462119e-23)
(-0.0612441007114 -0.030810280608 1.3893863669e-24)
(-0.0609389971747 -0.0375471876126 3.40266249502e-24)
(-0.0606228160854 -0.0441119620907 3.21601942667e-23)
(-0.0602718415337 -0.0503381559931 1.11544665984e-22)
(-0.059925376422 -0.0560646054063 1.22416294685e-22)
(-0.0595498446017 -0.0610667168207 1.82092689577e-22)
(-0.0539835489566 -0.00367604307926 -1.53519067633e-22)
(-0.0548248558591 -0.0100742327859 2.52619991821e-22)
(-0.0547884704166 -0.0168956266524 2.12261383646e-22)
(-0.0546275959666 -0.0237532822667 9.68563878377e-23)
(-0.0544005733929 -0.0305669044683 2.30456638833e-23)
(-0.0542088500295 -0.0373197024777 8.25061532885e-23)
(-0.0540885642631 -0.0439121710536 3.34209024822e-22)
(-0.0541336598064 -0.0502359882341 7.7939438716e-22)
(-0.0544227912596 -0.0561107314565 1.13377679791e-21)
(-0.0549773850036 -0.0612044855083 1.38154701322e-21)
(-0.0472465526118 -0.0036507031592 -4.89813798338e-22)
(-0.0480051207679 -0.00993240290396 6.48222561641e-23)
(-0.0479479133814 -0.0167002466372 1.19413133549e-22)
(-0.047746245669 -0.0235289666919 8.76140349523e-23)
(-0.0475328813602 -0.0303682068381 1.68012663873e-22)
(-0.0473697347811 -0.0372154689065 7.76306753699e-22)
(-0.0474038891731 -0.0440187417128 2.24978898913e-21)
(-0.0405697005527 -0.0301501804637 1.32665370042e-21)
)
;

boundaryField
{
    back
    {
        type            calculated;
        value           uniform (0 0 0);
    }
    sides
    {
        type            calculated;
        value           nonuniform List<vector> 0();
    }
    bottom
    {
        type            calculated;
        value           uniform (0 0 0);
    }
    front
    {
        type            calculated;
        value           uniform (0 0 0);
    }
    atmosphere
    {
        type            calculated;
        value           nonuniform List<vector> 0();
    }
    floatingObject
    {
        type            calculated;
        value           nonuniform List<vector> 0();
    }
    procBoundary4to0
    {
        type            processor;
        value           nonuniform List<vector> 8((-0.152729974462 -0.00120718398065 1.8956650331e-22) (-0.154628206752 -0.00430811883719 -7.50333297456e-23) (-0.15640238894 -0.00718419809017 -2.27696348057e-23) (-0.159071611156 -0.0102459793063 -2.06979827475e-23) (-0.162733308624 -0.0135360309317 2.99361200696e-23) (-0.167497495646 -0.0171231673035 5.73474089416e-24) (-0.173456071559 -0.0210830907171 2.63744003534e-23) (-0.180709023191 -0.0254944983046 -9.47897439e-23));
    }
    procBoundary4to3
    {
        type            processor;
        value           nonuniform List<vector> 
13
(
(-0.047794155134 -0.0506629650211 4.99385433088e-21)
(-0.0486388079737 -0.0569101238823 7.83881325539e-21)
(-0.0500906007945 -0.0625231231693 9.01068465515e-21)
(-0.0406355162798 -0.00360613743743 -2.09444202938e-22)
(-0.0412668166534 -0.00976735125145 1.75675567068e-22)
(-0.0411563829792 -0.016443199235 2.03959261137e-22)
(-0.0408757701637 -0.0232600866394 3.87494674755e-22)
(-0.0403571977001 -0.0371595237899 4.68148232473e-21)
(-0.047794155134 -0.0506629650211 4.99385433088e-21)
(-0.0404480490152 -0.0443227169363 1.32837289938e-20)
(-0.0408757701637 -0.0232600866394 3.87494674755e-22)
(-0.0403571977001 -0.0371595237899 4.68148232473e-21)
(-0.0334864170215 -0.0298100364 6.38928484872e-21)
)
;
    }
    procBoundary4to5
    {
        type            processor;
        value           nonuniform List<vector> 
18
(
(-0.183280079081 -0.0395290047714 3.85920349235e-24)
(-0.175559012277 -0.0476688630416 5.79827782173e-23)
(-0.175559012277 -0.0476688630416 5.79827782173e-23)
(-0.183655893002 -0.056169626841 1.0294540683e-22)
(-0.180785558219 -0.075048020109 1.14930220937e-23)
(-0.167049689651 -0.0822995250764 -5.50738694918e-23)
(-0.152430974474 -0.0873549111763 -7.66812169318e-24)
(-0.137541614842 -0.0901020511735 2.325405864e-23)
(-0.123050834733 -0.0906070764856 -1.00489079979e-22)
(-0.109566391482 -0.0892029000239 2.98169592814e-23)
(-0.0974771513 -0.0862477611746 -7.20589619526e-23)
(-0.0870593942133 -0.0821502207425 2.69109581926e-22)
(-0.0784805122986 -0.0774618969317 2.91506708303e-22)
(-0.0717540301055 -0.0728718959355 -8.20776391651e-23)
(-0.0665618195105 -0.0690610884942 1.57822177431e-23)
(-0.0624778219127 -0.0663075049437 6.04656866802e-24)
(-0.0590691245294 -0.0649318795291 2.03381534261e-22)
(-0.0558582290981 -0.0651900564115 1.36299816055e-21)
)
;
    }
}


// ************************************************************************* //
