/*--------------------------------*- C++ -*----------------------------------*\
| =========                 |                                                 |
| \\      /  F ield         | OpenFOAM: The Open Source CFD Toolbox           |
|  \\    /   O peration     | Version:  v2012                                 |
|   \\  /    A nd           | Website:  www.openfoam.com                      |
|    \\/     M anipulation  |                                                 |
\*---------------------------------------------------------------------------*/
FoamFile
{
    version     2.0;
    format      ascii;
    class       volVectorField;
    location    "3.9";
    object      U_0;
}
// * * * * * * * * * * * * * * * * * * * * * * * * * * * * * * * * * * * * * //

dimensions      [0 1 -1 0 0 0 0];


internalField   nonuniform List<vector> 
164
(
(-0.0292502922687 0.000718694490999 -2.58766288937e-22)
(-0.0277992643419 0.00202696149195 -7.31222263577e-23)
(-0.0270012580699 0.00335660345437 -2.49964649971e-23)
(-0.026819322582 0.00476025694941 7.39269434884e-23)
(-0.0270995770657 0.00624792982819 2.68333507797e-23)
(-0.0276555492642 0.0078760483252 -4.24861734677e-24)
(-0.0283932356376 0.0096914168809 -7.08058683618e-24)
(-0.0292872029744 0.0117429469848 -7.08543887494e-24)
(-0.030533677901 0.000662789524963 -1.91185142418e-22)
(-0.0290718658876 0.00182452165641 -4.64176930348e-23)
(-0.0282976204633 0.00302133213475 -5.28440993029e-23)
(-0.0281850565735 0.00428755628619 1.31002034633e-23)
(-0.0285798556746 0.00563017386272 1.02628433118e-23)
(-0.0292934317331 0.00710576835997 8.47109837862e-24)
(-0.0302338548829 0.00875772945973 8.13214501431e-25)
(-0.0313797513334 0.0106323417636 -4.46167803061e-24)
(-0.0316718319119 0.000583413961704 -1.8575332376e-22)
(-0.0301982369708 0.00157535532562 -8.29901434676e-24)
(-0.0294429706872 0.00261102930182 3.61816278127e-24)
(-0.0293937202878 0.00370886204229 1.3861929522e-23)
(-0.0298938907909 0.00487378935242 1.30436124393e-24)
(-0.0307528310552 0.00615961831597 1.10314811058e-23)
(-0.0318801130403 0.00760546164147 -4.82577905717e-24)
(-0.0332585656021 0.00925345728517 1.97509851082e-24)
(-0.0349044344512 0.0111560416889 3.60663531447e-23)
(-0.0368487872425 0.0133683103974 3.56183818572e-23)
(-0.0326294028915 0.000491126693565 -1.36201825645e-22)
(-0.0311496151675 0.00128498171018 5.45123949819e-23)
(-0.0304116791244 0.00213224672806 7.51199039589e-23)
(-0.0304170004629 0.00303373311612 9.10533693537e-23)
(-0.0310094615237 0.00399057368897 3.58175534726e-23)
(-0.0319967045003 0.00505278796595 1.19780736968e-23)
(-0.0332897818994 0.00625338701678 -2.69635043057e-25)
(-0.0348737667879 0.0076289201619 7.78220042683e-25)
(-0.0367725704018 0.00922471523714 5.33874040087e-23)
(-0.0390245119046 0.0110870321054 3.33403340523e-23)
(-0.0333771377695 0.000394911676624 6.5769789945e-23)
(-0.0318963245417 0.000962252856548 1.70212914123e-22)
(-0.0311759108421 0.00159559904311 1.76935267268e-22)
(-0.0312282274733 0.00227473955426 1.30975821458e-22)
(-0.0318988148296 0.00299657036754 6.97925628078e-23)
(-0.0329960363374 0.003805143808 4.89942802706e-23)
(-0.034429712697 0.00472707349522 5.62600121904e-24)
(-0.0361834099854 0.00579113211224 -1.69220021192e-23)
(-0.0382913944557 0.00703296644236 3.8930972839e-23)
(-0.0407987106263 0.00849087101735 4.58222893248e-23)
(-0.0339048924702 0.000277601178747 1.7549637006e-22)
(-0.0324182052424 0.000603917067157 2.45315620209e-22)
(-0.0317081157116 0.00100672395745 2.10099982909e-22)
(-0.0317999896559 0.00144459014448 1.95271217218e-22)
(-0.0325324230282 0.00190845913784 9.17812965771e-23)
(-0.0337146930109 0.00243935247936 5.05145101117e-23)
(-0.035256120152 0.00306044609938 2.16240530657e-23)
(-0.0371452913206 0.00378577567268 1.04443017197e-23)
(-0.0394132833916 0.00463720520751 1.58013846951e-23)
(-0.0421176016792 0.0056450307984 2.68269313838e-23)
(-0.0341810901371 0.000142173193435 1.94191476717e-22)
(-0.0326982493827 0.000218406611634 2.29326529397e-22)
(-0.0319943664436 0.000374631372263 2.13231353338e-22)
(-0.0321129237485 0.000556282233749 1.81519087415e-22)
(-0.0328892363058 0.000752176430514 1.08565703581e-22)
(-0.0341306635049 0.000990468946818 1.05706773744e-22)
(-0.0357455103698 0.00128644659325 6.78068992152e-23)
(-0.0377291866337 0.00164964750296 5.34077258896e-23)
(-0.0401074673648 0.00208674235608 3.06051565277e-23)
(-0.0429463138848 0.00261148082071 3.55225100259e-23)
(-0.0342044182414 1.00608537268e-05 2.19051137782e-22)
(-0.0327253605347 -0.000180441579295 1.77447893951e-22)
(-0.0320267810987 -0.000280844896978 1.83640628736e-22)
(-0.0321584290149 -0.000367726599331 1.84840025457e-22)
(-0.03296017834 -0.000450604315489 1.58338826997e-22)
(-0.0342369908977 -0.000513469793031 1.2953263604e-22)
(-0.0358942503343 -0.000552799165165 1.04037899869e-22)
(-0.0379269809032 -0.000564736000283 6.51600398485e-23)
(-0.0403570094206 -0.000556764455525 5.97970303961e-23)
(-0.0432391110416 -0.000526531133498 9.22951206036e-23)
(-0.0339650068254 -0.000123807671843 1.84030291899e-22)
(-0.0324900862584 -0.000585413503109 3.97376826568e-23)
(-0.0317932833147 -0.000946655966583 1.632815092e-22)
(-0.0319289053384 -0.00130702649819 1.81614187813e-22)
(-0.0327400678666 -0.00167358807983 1.47023339193e-22)
(-0.034029956067 -0.00204215997072 1.22316538798e-22)
(-0.0357046637733 -0.0024189161623 1.05958644143e-22)
(-0.0377309663313 -0.00280285396455 1.26957099851e-22)
(-0.0401445355825 -0.00320683622764 1.48249014452e-22)
(-0.0429882522405 -0.00366303464987 9.24502150697e-23)
(-0.0334551086899 -0.000266891221907 2.82591151134e-22)
(-0.0319853731677 -0.000995875063219 1.28560098747e-22)
(-0.0312919709027 -0.00161439557538 1.60047363178e-22)
(-0.031423686681 -0.00224944648559 1.60564547749e-22)
(-0.0322328240211 -0.00290036052933 1.40166196609e-22)
(-0.0335163972779 -0.00357557628634 1.12599704367e-22)
(-0.035160502739 -0.00426756972203 1.28241099438e-22)
(-0.0371414974329 -0.00499435195498 9.27297489477e-23)
(-0.0394844427387 -0.00579683821692 1.44185983e-22)
(-0.0422232000827 -0.00670722359657 9.64994371933e-23)
(-0.0326760483071 -0.000409581802939 2.64638656524e-22)
(-0.0312121297614 -0.00140610989193 2.29534733457e-23)
(-0.0305254312675 -0.0022813492995 6.64537462563e-23)
(-0.030651631279 -0.00318548638396 1.16367201644e-22)
(-0.0314375491455 -0.00411614041823 1.30067579739e-22)
(-0.032684171228 -0.00506800650244 1.00395953737e-22)
(-0.0342750962521 -0.00605871490101 9.099112053e-23)
(-0.0361950599638 -0.00711666924919 7.98834170388e-23)
(-0.0384348209705 -0.00826778974263 7.82458631232e-23)
(-0.0410077459935 -0.00956476241512 6.56217636859e-23)
(-0.0316204339411 -0.000543683892467 1.21978951711e-22)
(-0.0301774051409 -0.00180838035069 -3.60009137379e-22)
(-0.0294918124946 -0.00294408924736 -1.67852393843e-22)
(-0.0296018834839 -0.00410012499555 1.79926986067e-23)
(-0.0303558341331 -0.00528485151866 1.35034886924e-22)
(-0.031554724006 -0.00651286417902 1.54194795591e-22)
(-0.0330968852722 -0.0077914939574 1.16787388245e-22)
(-0.0349371176366 -0.00913989608894 1.04583623806e-22)
(-0.037063731131 -0.0105867924636 9.96850827332e-23)
(-0.0394793561858 -0.0121943359612 1.33199724892e-22)
(-0.0302971592561 -0.000684473355797 1.25753416757e-22)
(-0.0288889038028 -0.00219992084284 -5.21881258266e-22)
(-0.0282032873506 -0.00357846580713 -4.0526821938e-22)
(-0.0282895184914 -0.0049850024007 -9.34104413594e-23)
(-0.0290119877347 -0.0064218276517 1.26040173438e-22)
(-0.0301669399502 -0.00790687867026 1.48587740086e-22)
(-0.0316457485133 -0.00944953990054 1.36102067063e-22)
(-0.0334017212815 -0.0110660037664 1.06712083372e-22)
(-0.0354211727765 -0.0127862727516 1.4067539156e-22)
(-0.0376756175468 -0.0146031428345 1.92436995466e-22)
(-0.028727776967 -0.000822619916505 2.49363799802e-22)
(-0.0273514666296 -0.00257813058413 -7.05496303708e-22)
(-0.026677236826 -0.00418921309642 -5.79933953637e-22)
(-0.0267446658842 -0.00583494234045 -2.13419955682e-22)
(-0.0274249995986 -0.00751176116891 8.97332221754e-23)
(-0.0285270406762 -0.00923966113403 1.69272604597e-22)
(-0.0299401910397 -0.0110262928174 1.94467069287e-22)
(-0.0316162098683 -0.0128853042612 1.71525385994e-22)
(-0.0335347175024 -0.0148214140392 2.30692884887e-22)
(-0.0356395453461 -0.0168347657644 1.61863859565e-22)
(-0.0269064366798 -0.000940654070943 4.90447772749e-22)
(-0.0255846057297 -0.00293023115627 -5.67660827052e-22)
(-0.0249233198815 -0.0047728183589 -5.26562554958e-22)
(-0.0249697934397 -0.00664112567412 -2.09624585457e-22)
(-0.025603051672 -0.00854580829347 8.2267994325e-23)
(-0.0266485005539 -0.0105057939206 1.59725793916e-22)
(-0.0280021276145 -0.0125262967169 1.77338399553e-22)
(-0.0296295870499 -0.0146153163607 1.89025801956e-22)
(-0.0314528224097 -0.016746880153 2.26577333356e-22)
(-0.0334721437008 -0.0189229855849 2.23559048006e-22)
(-0.0248485410824 -0.00105945799297 1.45615473997e-21)
(-0.0235992889072 -0.0032595551662 -8.59550131213e-24)
(-0.0229526435672 -0.00530808350696 -2.2193177208e-22)
(-0.0229746434488 -0.00739123448423 -6.01184844846e-23)
(-0.0235526476407 -0.00951631026138 1.35480391424e-22)
(-0.0245402093608 -0.0117094180231 1.85679147818e-22)
(-0.0258500015607 -0.0139795883617 2.47335190804e-22)
(-0.0274123278244 -0.0162716218708 3.58169485831e-22)
(-0.029185733459 -0.0185797100234 4.70032534391e-22)
(-0.0311721320022 -0.0209344787928 4.9018910178e-22)
(-0.0225853077314 -0.00116287525123 1.78952814145e-21)
(-0.0214128061786 -0.00355004238962 3.21716569236e-22)
(-0.020779017157 -0.00579128940976 1.33595133389e-23)
(-0.0207651686624 -0.00806944793428 7.07573212769e-23)
(-0.0212833348364 -0.0104127125605 2.25172621338e-22)
(-0.0221994068494 -0.0128524286519 3.92336622095e-22)
(-0.0234326694666 -0.0153447295624 8.79410740672e-22)
(-0.0187970662518 -0.0112103228276 6.62064520526e-22)
)
;

boundaryField
{
    back
    {
        type            noSlip;
    }
    sides
    {
        type            noSlip;
    }
    bottom
    {
        type            noSlip;
    }
    front
    {
        type            noSlip;
    }
    atmosphere
    {
        type            pressureInletOutletVelocity;
        value           nonuniform List<vector> 0();
    }
    floatingObject
    {
        type            movingWallVelocity;
        value           nonuniform List<vector> 0();
    }
    procBoundary4to0
    {
        type            processor;
        value           nonuniform List<vector> 8((-0.0278514214274 0.000762908025173 -3.1175762295e-22) (-0.0264095841888 0.00218817552615 -4.5883623914e-23) (-0.0255844250158 0.00362049787371 3.1068884877e-23) (-0.0253304923884 0.00512963193778 1.00299918206e-22) (-0.0254921695216 0.00672452266957 4.15478525666e-23) (-0.0258842122831 0.00846230464162 4.88503150815e-24) (-0.0264103573671 0.0103917578953 -4.02671005853e-24) (-0.0270398022199 0.0125623260956 -1.68609873594e-23));
    }
    procBoundary4to3
    {
        type            processor;
        value           nonuniform List<vector> 
13
(
(-0.0249432964139 -0.017862447255 1.74022044081e-21)
(-0.0267085807629 -0.0204164874588 2.65710505365e-21)
(-0.0287128538838 -0.0230240001155 3.05052385239e-21)
(-0.0201391274813 -0.00125450959797 1.53989896163e-21)
(-0.0190563785771 -0.00379322346666 3.55631880442e-22)
(-0.0184264348623 -0.0061946449193 9.7857000568e-23)
(-0.0183624582178 -0.00866110036064 2.17356703568e-22)
(-0.019610472997 -0.0138704793312 1.84866597579e-21)
(-0.0249432964139 -0.017862447255 1.74022044081e-21)
(-0.0207504319474 -0.0166283851344 5.17253291073e-21)
(-0.0183624582178 -0.00866110036064 2.17356703568e-22)
(-0.019610472997 -0.0138704793312 1.84866597579e-21)
(-0.0160933644237 -0.011862580878 3.06728849887e-21)
)
;
    }
    procBoundary4to5
    {
        type            processor;
        value           nonuniform List<vector> 
18
(
(-0.0303378453704 0.0140897794422 3.13435596231e-24)
(-0.0327401857577 0.012786760772 1.77472022795e-23)
(-0.0327401857577 0.012786760772 1.77472022795e-23)
(-0.0343367264063 0.0152826233405 3.04880572215e-23)
(-0.0391357217783 0.0159533457239 2.76857413675e-23)
(-0.0416836113667 0.0132709488005 2.00918563961e-23)
(-0.0437674113205 0.010210748768 2.86946129177e-23)
(-0.0453263831144 0.00684094608773 5.89066286207e-23)
(-0.0463098118261 0.00324122589433 7.89620720357e-23)
(-0.0466529728025 -0.000479939680172 -2.32818955097e-23)
(-0.0463429399132 -0.00420736033775 7.96832255229e-24)
(-0.0454083056926 -0.00779156124662 -9.30746342792e-24)
(-0.0439526762193 -0.0110806599929 1.0823524778e-22)
(-0.0421229288454 -0.0139875420482 3.39129450533e-22)
(-0.0400984967049 -0.0165675802649 1.4048799459e-22)
(-0.0379344531955 -0.0189628691612 3.17945097128e-22)
(-0.0356616154664 -0.0211653797589 2.36968874512e-22)
(-0.033366684238 -0.0232662982814 6.25411985269e-22)
)
;
    }
}


// ************************************************************************* //
