/*--------------------------------*- C++ -*----------------------------------*\
| =========                 |                                                 |
| \\      /  F ield         | OpenFOAM: The Open Source CFD Toolbox           |
|  \\    /   O peration     | Version:  v2012                                 |
|   \\  /    A nd           | Website:  www.openfoam.com                      |
|    \\/     M anipulation  |                                                 |
\*---------------------------------------------------------------------------*/
FoamFile
{
    version     2.0;
    format      ascii;
    class       volScalarField;
    location    "5";
    object      alpha.water;
}
// * * * * * * * * * * * * * * * * * * * * * * * * * * * * * * * * * * * * * //

dimensions      [0 0 0 0 0 0 0];


internalField   nonuniform List<scalar> 
164
(
0.999985709129
0.999982068229
0.999994581002
0.999998545048
0.994608155025
0.460473165575
0.00139848973636
-8.68378084467e-25
0.999991717965
0.999986184137
0.999995649603
0.999998533796
0.993299776443
0.46038793406
0.0015621094988
1.37863435426e-23
0.999991702148
0.999986454479
0.999993533132
0.999998493429
0.994197427371
0.459480527998
0.00151886343728
3.53724488077e-21
0.999993412561
0.999988590268
0.999991704565
0.99999841844
0.996107243642
0.458327747315
0.00125046104306
-1.68032909564e-23
0.999989108397
0.999998309812
0.998052307555
0.457679056524
0.00101009415749
0
0.999989900871
0.999998103099
0.999560071661
0.457487777711
0.000824928651822
-2.38417578638e-24
0.999990931423
0.999997190701
0.999997186703
0.458271222019
0.000750114597277
3.4820995066e-21
0.999989738263
0.999996833913
0.999997084474
0.45897392183
0.000674867970063
1.4629075706e-05
0.999986497971
0.999996547143
0.999996810247
0.45977514776
0.00067686426163
3.42695413243e-21
0.999973018163
0.999996416223
0.999996482255
0.461047858669
0.000682753617497
-6.89317177128e-23
0.999963036991
0.999996238884
0.999996763023
0.463231957547
0.000729737416352
-9.76213140364e-24
0.999934959762
0.999995863582
0.999997849535
0.466857044948
0.000851457120711
6.68249920902e-23
0.999923815834
0.999995450802
0.99999864046
0.472008704644
0.00111877237663
6.61744490042e-22
0.999947940792
0.999995924804
0.999998941258
0.477862532265
0.00142199764163
7.40536200657e-21
0.999966444508
0.999996128689
0.999999006817
0.484698024713
0.00179436267134
8.54740915036e-06
0.999975953648
0.999996332611
0.99999902995
0.492471125386
0.00231554650464
0
0.999977771949
0.999996596862
0.999999043249
0.50061946977
0.00277597898658
5.91003321587e-06
0.999977444524
0.999996845406
0.999999051111
0.510290466563
0.00360730258978
0
0.999984839854
0.999996993549
0.999999053983
0.521110237555
0.00476269733111
6.22278886173e-05
0.999987819538
0.999996921359
0.999999054001
0.531218572098
0.00514990005694
1.63547944899e-20
0.999988559124
0.999996438416
0.99999905401
0.542766280946
0.0058550847351
-1.72028665828e-21
0.999986854463
0.999995451898
0.99999905401
0.556392249976
0.00714161450594
1.99901981367e-22
0.999981336382
0.999994636634
0.99999905401
0.571705601501
0.00873673431789
1.02051253958e-23
0.999972385378
0.99999292729
0.999999052921
0.58779324902
0.0107867033407
1.43862196702e-24
0.999999072921
0.604163335488
0.0128676608739
4.85623951301e-24
0.999999211805
0.621067772644
0.0159111058441
-8.82325986723e-22
0.999999409413
0.638012581102
0.0199684900639
-1.36785205497e-20
)
;

boundaryField
{
    back
    {
        type            zeroGradient;
    }
    sides
    {
        type            zeroGradient;
    }
    bottom
    {
        type            zeroGradient;
    }
    front
    {
        type            zeroGradient;
    }
    atmosphere
    {
        type            inletOutlet;
        inletValue      uniform 0;
        value           nonuniform List<scalar> 
27
(
0
1.37863435426e-23
3.53724488077e-21
0
0
0
3.4820995066e-21
1.4629075706e-05
3.42695413243e-21
0
0
0
6.61744490042e-22
7.40536200657e-21
0
0
0
0
6.22278886173e-05
1.63547944899e-20
0
0
0
0
0
0
-1.36785205497e-20
)
;
    }
    floatingObject
    {
        type            zeroGradient;
    }
    procBoundary6to3
    {
        type            processor;
        value           nonuniform List<scalar> 8(0.999989223837 0.9999821435 0.999995014351 0.999998553402 0.997142545138 0.460012913687 0.00117479391444 3.94759291907e-24);
    }
    procBoundary6to7
    {
        type            processor;
        value           nonuniform List<scalar> 
11
(
0.999965634813
0.999979292169
0.999989925103
0.999988647965
0.999978788751
0.999975871399
0.999971446124
0.999988966346
0.999988966346
0.999989612795
0.999989161112
)
;
    }
    procBoundary6to8
    {
        type            processor;
        value           nonuniform List<scalar> 
16
(
0.999991208767
0.999987796769
0.999987796769
0.999990145367
0.999988675769
0.999984395625
0.999973241894
0.999946370944
0.999913196866
0.999913196866
0.999913196866
0.999935669647
0.999962364357
0.999973490053
0.999973244303
0.999965634906
)
;
    }
    procBoundary6to9
    {
        type            processor;
        value           nonuniform List<scalar> 4(0.999999517173 0.653292739379 0.0242312512883 -1.46246083753e-20);
    }
}


// ************************************************************************* //
