/*--------------------------------*- C++ -*----------------------------------*\
| =========                 |                                                 |
| \\      /  F ield         | OpenFOAM: The Open Source CFD Toolbox           |
|  \\    /   O peration     | Version:  v2012                                 |
|   \\  /    A nd           | Website:  www.openfoam.com                      |
|    \\/     M anipulation  |                                                 |
\*---------------------------------------------------------------------------*/
FoamFile
{
    version     2.0;
    format      ascii;
    class       surfaceScalarField;
    location    "5";
    object      alphaPhi0.water;
}
// * * * * * * * * * * * * * * * * * * * * * * * * * * * * * * * * * * * * * //

dimensions      [0 3 -1 0 0 0 0];
oriented        oriented;


internalField   nonuniform List<scalar> 
293
(
-3.86037034311e-06
-4.30753131168e-05
4.46434348576e-06
4.57704258148e-06
2.59124041674e-05
3.51846040619e-05
5.66958420694e-05
4.54502403222e-05
6.2795503683e-05
3.52476741529e-05
2.61961697377e-06
9.48423759807e-06
5.08153695874e-10
2.91810333556e-08
1.06258653154e-09
-4.36733768508e-05
5.97747924639e-07
-3.94843747278e-05
3.87190679037e-07
-4.53641170836e-06
2.34474736072e-07
4.14677829784e-05
-5.5568782573e-07
5.80583891639e-05
2.43819883555e-06
2.58430967277e-06
2.94429360632e-06
6.74040668364e-09
5.57122556668e-08
4.50144116025e-09
-4.38224498352e-05
4.44195740706e-05
-3.9670484897e-05
-3.76504679194e-06
-5.18339904317e-06
-3.42544604125e-05
3.86586441289e-05
-4.43999008362e-05
5.59438693612e-05
-3.03951165309e-05
2.52520378764e-06
-5.89811898214e-06
5.59373788265e-08
-1.51314520582e-09
-2.31546124884e-09
-3.72060433106e-06
4.99717191896e-06
2.59694534863e-05
-5.52275394317e-05
5.32505798785e-05
-7.16843012739e-05
5.98548293059e-05
-5.33965982621e-05
2.37611251235e-06
-1.31679950906e-05
3.97051808161e-09
9.81022092342e-09
1.35236291423e-09
7.05172741942e-05
-5.28611207158e-05
7.65313400251e-05
-7.77023454968e-05
6.7698284138e-05
-6.26721832176e-05
2.32965440589e-06
-1.69441515376e-05
2.55879406529e-09
2.06271892613e-08
3.84851517275e-09
0.000101573197404
-4.45665701534e-05
9.6276604385e-05
-7.24113449612e-05
7.59377274164e-05
-6.21292639705e-05
2.34290559251e-06
-1.84278221722e-05
-2.28806683777e-09
3.67299274115e-08
1.33929088106e-09
0.000119897048004
-3.92793752867e-05
0.000110704782084
-6.32197859055e-05
9.13109094369e-05
-5.69408817619e-05
2.63657179982e-06
-1.92144403653e-05
-3.96559139395e-08
-2.14465905969e-08
2.73079557396e-09
0.000131099677719
-3.74324104523e-05
0.000122167114582
-5.42881253134e-05
0.00010730243113
-5.13065064348e-05
2.79637749516e-06
-1.86459361047e-05
1.73874416726e-07
-4.33228720221e-08
-8.37569943795e-09
0.000137908057029
-3.77907235423e-05
0.000131615739537
-4.7996233553e-05
0.000120015898641
-4.69538495534e-05
3.09083332599e-06
-1.79460373592e-05
7.11859451934e-09
-6.08890214646e-08
-5.54089612337e-09
0.000143256504813
-4.06121572153e-05
0.000139491772173
-4.42323540647e-05
0.000132983269495
-4.42284534e-05
3.48231141692e-06
-1.82663909016e-05
-1.77874732344e-08
-6.07453045582e-08
-8.50671041065e-09
0.000146672578174
-4.58579679063e-05
0.000146600265127
-4.41608201127e-05
0.000148449905171
-4.43223964455e-05
3.9417772029e-06
-1.9671138748e-05
1.26922916042e-08
-4.90323175486e-08
1.77510366685e-09
0.000147712982706
-5.33907798764e-05
0.000152162831278
-4.86089673875e-05
0.000166107348284
-4.83253897258e-05
4.71802769681e-06
-2.2862392013e-05
1.0998952594e-09
-4.68686770354e-08
1.51859641061e-08
0.000149492149491
-6.36642203449e-05
0.000158011127361
-5.71255467671e-05
0.000176610169848
-5.59234670956e-05
5.84595536374e-06
-2.84439211028e-05
2.92396129697e-08
-1.69601878067e-07
3.01715617174e-08
0.000152184114039
-7.65275212708e-05
0.000165228448369
-7.01685855775e-05
0.000180317976715
-6.70073885477e-05
7.00450713766e-06
-3.39547331463e-05
-1.72795938545e-07
-2.62667495643e-07
2.19478504165e-08
0.000155693304555
-9.17482493513e-05
0.000171977824916
-8.64520117301e-05
0.000185326043171
-8.2320700505e-05
8.61913316581e-06
-4.02702756119e-05
-1.68942079121e-07
-2.44468392463e-07
3.24777391445e-08
0.000156658338165
-0.000108255339176
0.00017738313477
-0.000107175421739
0.000193201368131
-0.000103312190174
1.08179619386e-05
-5.04404776741e-05
-2.02079237577e-07
-3.14728180091e-07
-2.05467136611e-08
0.000157698324464
-0.000125609270842
0.000182484677756
-0.000131960768884
0.000201836521887
-0.000130378256317
1.30615508987e-05
-6.36948591268e-05
-2.24789151217e-07
-3.81314112015e-09
3.90367035119e-08
0.000161090358882
-0.00014332372767
0.000187013294125
-0.000157883701203
0.00020963841237
-0.000159871731248
1.59488233983e-05
-8.3939505216e-05
-9.66722607304e-08
-4.96635196611e-07
2.15738445737e-07
0.000167128308006
-0.000161083221944
0.00019175453066
-0.000182511006133
0.000216946047533
-0.000187435268605
1.91470956864e-05
-0.000109035432864
3.37107188468e-07
-2.36154485598e-06
-3.74527435235e-07
0.000174321666279
-0.00017964238334
0.0001962753485
-0.00020446703187
0.00022465378809
-0.000212837369373
2.03531012956e-05
-0.000128223748196
3.95035177524e-07
-2.61628072764e-06
-1.36526680912e-07
0.000177947005391
-0.000198262432472
0.000198238348987
-0.000224762471318
0.000222513754537
-0.000235376703892
2.1547332671e-05
-0.000142600825672
6.90794705464e-08
-2.56055984466e-06
-1.35139296395e-07
0.000176277758937
-0.000216692233511
0.000193637246566
-0.000242133760851
0.00021261977703
-0.000255428438342
2.33001210404e-05
-0.000155518254904
4.70770297524e-08
-3.06046544074e-06
-6.10784632128e-08
0.000168299809106
-0.000233780065749
0.000184254561421
-0.000258106955865
0.000202153992425
-0.000273955969394
2.53441287836e-05
-0.000168646264439
4.80196442268e-08
-4.23034796964e-06
1.10204819763e-08
0.000157204704719
0.000171984489413
0.000187942638377
-0.00028935077526
2.62499752973e-05
-0.000179509648604
7.40193320889e-08
-5.5485863232e-06
8.63980389291e-08
0.000169475994635
-0.000302904053281
2.61104573401e-05
-0.000187859756505
4.5260047439e-08
-6.00856438991e-06
1.05983978671e-07
0.000149648867986
-0.000314707371146
2.61109037878e-05
-0.000196807851942
8.01613329763e-07
-7.23659636008e-06
1.0801907917e-07
0.000126599017975
2.59572834287e-05
2.01322077814e-06
)
;

boundaryField
{
    back
    {
        type            calculated;
        value           uniform 0;
    }
    sides
    {
        type            calculated;
        value           nonuniform List<scalar> 0();
    }
    bottom
    {
        type            calculated;
        value           nonuniform List<scalar> 0();
    }
    front
    {
        type            calculated;
        value           uniform 0;
    }
    atmosphere
    {
        type            calculated;
        value           nonuniform List<scalar> 
27
(
-1.66897823278e-12
9.60820553396e-10
3.88168579858e-09
-6.70518698187e-10
3.38213066159e-13
-7.71338416515e-10
3.11935929926e-09
1.82971752881e-08
4.07526788137e-09
-1.25723852017e-08
2.4925298986e-10
4.12691120855e-11
9.23495225629e-09
1.08182267035e-08
-9.89732477115e-10
-1.39924486582e-09
-4.24489093105e-09
3.60980298747e-08
5.74387092874e-07
3.55250763542e-09
1.23349452762e-09
1.82112048658e-09
-9.46694690628e-10
-3.52193848698e-10
-2.07972149911e-09
4.0170673743e-09
-3.03630550376e-09
)
;
    }
    floatingObject
    {
        type            calculated;
        value           uniform 0;
    }
    procBoundary6to3
    {
        type            processor;
        value           nonuniform List<scalar> 8(4.69351621024e-05 -1.29031515947e-05 -5.66355429074e-05 -7.62355217051e-05 -5.87129972948e-05 -1.43350021463e-05 4.04536917503e-09 -3.16313465362e-10);
    }
    procBoundary6to7
    {
        type            processor;
        value           nonuniform List<scalar> 
11
(
-0.000149361773476
-0.000155761645198
-0.000159334119665
-0.000157866456051
-0.000151244558842
-0.000141529250186
-0.000249500658767
-0.000272913856729
-0.000156191735398
-0.000137819055052
-0.00011744651045
)
;
    }
    procBoundary6to8
    {
        type            processor;
        value           nonuniform List<scalar> 
16
(
4.81402140399e-05
-1.24835528881e-05
-7.28838169096e-05
-0.000109869502864
-0.000125182847004
-0.000132944029769
-0.000137545300522
-0.000140427485805
-0.000141410247172
-0.000140161473512
-0.000139208318238
-0.000139316794845
-0.000140469470362
-0.000140148650475
-0.000140340365146
-0.000143365688146
)
;
    }
    procBoundary6to9
    {
        type            processor;
        value           nonuniform List<scalar> 4(-0.000323850707736 -0.000208413772058 -1.12962714543e-05 -1.34040261936e-07);
    }
}


// ************************************************************************* //
