/*--------------------------------*- C++ -*----------------------------------*\
| =========                 |                                                 |
| \\      /  F ield         | OpenFOAM: The Open Source CFD Toolbox           |
|  \\    /   O peration     | Version:  v2012                                 |
|   \\  /    A nd           | Website:  www.openfoam.com                      |
|    \\/     M anipulation  |                                                 |
\*---------------------------------------------------------------------------*/
FoamFile
{
    version     2.0;
    format      ascii;
    class       surfaceVectorField;
    location    "5.4";
    object      Uf_0;
}
// * * * * * * * * * * * * * * * * * * * * * * * * * * * * * * * * * * * * * //

dimensions      [0 1 -1 0 0 0 0];


internalField   nonuniform List<vector> 
296
(
(0.0230052032196 0.0211350645477 9.70410423225e-21)
(0.0208587897003 0.0201425871967 2.47330873821e-20)
(0.0243465482093 0.0241374503018 1.23241401491e-20)
(0.0221060270429 0.0232960104102 3.56480600099e-20)
(0.025841636362 0.0270972013025 1.38403168466e-20)
(0.0236026238782 0.026285601593 4.11304329053e-20)
(0.0274058281582 0.0302078587149 1.57801392134e-20)
(0.025030776259 0.0292571263805 4.62589342268e-20)
(0.029167171159 0.0336794176728 1.74376122673e-20)
(0.0263973422773 0.0326063283468 5.59651281147e-20)
(0.0312913559542 0.0374625015923 1.67228938422e-20)
(0.0280956844288 0.0365752476352 5.8483828162e-20)
(0.0335641828807 0.0410423539933 1.24112358534e-20)
(0.0305613660204 0.0407401691063 5.02320243581e-20)
(0.0361685995925 0.0438628096005 5.66124910463e-21)
(0.0333021731473 0.0440984749076 2.60447288512e-20)
(0.0393507989768 0.0457975504724 1.50295909932e-21)
(0.0368274779093 0.0470504295028 1.14575409982e-20)
(0.0426701708935 0.047595040916 5.38768082554e-21)
(0.0402336993829 0.0461005719062 7.40850204445e-21)
(0.0588625131201 0.0530102549223 3.61611387087e-20)
(0.0417428736133 0.0449275829482 1.20708883802e-20)
(0.0531986138273 0.0919671088873 1.52933038012e-20)
(0.0644236629741 0.0518474146933 3.68241504807e-20)
(-0.0153134438122 0.163781050694 -9.16811505273e-21)
(0.0153808436727 0.00227211056692 9.634692339e-22)
(0.0138127235201 0.00112976543548 1.34571860063e-21)
(0.0162034671156 0.00466164210018 5.25122333119e-22)
(0.014621020902 0.00348756688232 8.15919917529e-22)
(0.0168809811078 0.00718162455144 6.52636453147e-22)
(0.0153375662285 0.00590735522679 7.96568322653e-22)
(0.0158288833183 0.00854209484354 2.31536229012e-21)
(0.0181582657493 0.0157619170155 1.50606570427e-20)
(0.0163778744011 0.0143812622968 2.40140497739e-20)
(0.0188109537266 0.0189878643935 3.14852820242e-20)
(0.016779308611 0.0176450162894 6.00858617149e-20)
(0.0198544243207 0.0223267346528 5.06770431598e-20)
(0.0175210083808 0.021126531017 1.16140642786e-19)
(0.0212750663386 0.0255003040083 6.44543527661e-20)
(0.0189333208571 0.0245334005019 1.66037340311e-19)
(0.0227312548127 0.0284765704043 7.35490502855e-20)
(0.0206266854294 0.0275172799784 1.90030769714e-19)
(0.0239898842916 0.0316662947849 8.64439231281e-20)
(0.0218406605783 0.0303304378551 2.18753958892e-19)
(0.0253262999502 0.0354676232484 9.70113440094e-20)
(0.022594847423 0.0337347808836 2.80652355066e-19)
(0.0273854596774 0.0398670948471 9.19929586779e-20)
(0.0236944103985 0.0383384787696 2.92863042554e-19)
(0.0303050108938 0.0438484802888 6.38655173559e-20)
(0.0265778743521 0.0432342970199 2.35313575141e-19)
(0.0339090296688 0.0465939621331 3.18410207448e-20)
(0.0305546815725 0.0467708460571 1.1815302791e-19)
(0.03756372025 0.0482743218664 1.73630839434e-20)
(0.035145667493 0.0492749059306 4.83237595732e-20)
(0.0396862615752 0.0501838360024 1.40917095991e-20)
(0.0383236069477 0.0477848232224 2.90097910883e-20)
(0.0382555979393 0.052937785759 1.27339001522e-20)
(0.038988782289 0.0464076101574 3.127661385e-20)
(-0.068176789248 0.078787833484 1.23627316268e-20)
(0.0385649425598 0.0570930195546 1.2773317076e-20)
(-0.135600373646 0.0814403849357 2.67370502554e-20)
(0.013039214341 0.00227446075486 1.19816928425e-21)
(0.0115371864108 0.00112192836024 1.5730946202e-21)
(0.0137332778942 0.00467423602927 1.08736590706e-21)
(0.012220419053 0.0034608698038 1.32230373305e-21)
(0.0142524881857 0.00722531138606 2.45929415963e-21)
(0.0127862480603 0.00587396334099 2.49282082375e-21)
(0.0145422489154 0.00996470452955 8.28730458015e-21)
(0.0130900194056 0.00852481874625 8.78270674509e-21)
(0.0146912794333 0.0129343131521 2.61056013235e-20)
(0.0131560983395 0.011386818683 3.11026196785e-20)
(0.0148818293092 0.0161784159925 6.9039254446e-20)
(0.0131351934549 0.014519531578 9.66177111901e-20)
(0.0153524519806 0.0197131063182 1.44741222476e-19)
(0.0132462548109 0.017992520101 2.4342947454e-19)
(0.0164591617823 0.0233908533168 2.31500939938e-19)
(0.0138448757679 0.0218735690114 4.69028848704e-19)
(0.0181499959869 0.0266604560422 2.91613757259e-19)
(0.0156650507084 0.0255583206558 6.53243012581e-19)
(0.0196090539402 0.0294037725794 3.3523567832e-19)
(0.0178841347578 0.0283409385206 7.23430706406e-19)
(0.0203473055161 0.0324617554516 4.12962390829e-19)
(0.0187826728726 0.0307377417885 8.35910737772e-19)
(0.0209215783447 0.0365946337499 4.7650405361e-19)
(0.0184611599616 0.0339901489487 1.10541592779e-18)
(0.022921966138 0.0417855064963 4.36183659017e-19)
(0.0185020788031 0.0394820555499 1.13344339262e-18)
(0.0269083183992 0.0461211340151 2.89601085695e-19)
(0.0222404593443 0.0452683727992 8.72682101743e-19)
(0.0318348963634 0.0487204961389 1.34635766738e-19)
(0.0279536015616 0.0487366154217 4.46451282168e-19)
(0.035908612959 0.050045583892 5.99704667181e-20)
(0.0338193636852 0.0507565734561 1.75611495308e-19)
(0.0378320568543 0.0517495864032 4.61946953392e-20)
(0.0366191140502 0.0487608226711 9.76258976737e-20)
(0.0422305303465 0.0530631614683 3.13160307738e-20)
(0.0376752174881 0.0468054506059 8.49724343092e-20)
(-0.0208962946425 0.0367864830565 2.71476357046e-20)
(0.054846676067 0.0596115667097 5.60939794619e-20)
(-0.0847389818537 -0.000144407563249 8.50327151537e-20)
(0.0107160010198 0.00223936518781 1.69722906899e-21)
(0.0092970016694 0.00108908488341 1.81042096967e-21)
(0.0112693057719 0.00459789929664 2.72775864973e-21)
(0.00986132459549 0.00335954827971 2.4882053295e-21)
(0.0116076024051 0.00712093521967 8.81623340921e-21)
(0.0102631883891 0.00570743473029 7.5276473031e-21)
(0.0116666767472 0.00984980952051 3.15980218435e-20)
(0.0103618006592 0.00829657478475 2.90362504691e-20)
(0.0115188043548 0.0128423162748 1.01614729545e-19)
(0.0101648830931 0.0110996817749 1.04507879468e-19)
(0.0113584731575 0.0161961859629 2.71007931284e-19)
(0.00978312196271 0.0141931967337 3.28612916053e-19)
(0.0115512069234 0.0200048018843 5.67717100767e-19)
(0.00943974834087 0.01773703834 8.30037291955e-19)
(0.0129113924764 0.0241878137693 8.90770921348e-19)
(0.00966399600588 0.0221913255846 1.58157291818e-18)
(0.0153459642936 0.0274098952998 1.08505996173e-18)
(0.0124448165647 0.0263413496237 2.11966891027e-18)
(0.0170539987897 0.0296210107273 1.22410576586e-18)
(0.0156742824369 0.0289861222725 2.32181158668e-18)
(0.0169863292417 0.0323549251554 1.52836427473e-18)
(0.0160492289478 0.0310343303311 2.47269752925e-18)
(0.0161849109999 0.0369737210637 1.7623552668e-18)
(0.0138420144542 0.034116150735 3.07795372768e-18)
(0.0179679106988 0.0431127298713 1.56994183535e-18)
(0.0123620671777 0.0404455094209 3.06913029466e-18)
(0.0234471670403 0.0477347579875 1.02953229822e-18)
(0.0176170918476 0.0465959434105 2.32913044482e-18)
(0.0300522123392 0.050025352855 4.87427010737e-19)
(0.0256617083556 0.0494752657625 1.19735492371e-18)
(0.0345897788532 0.0509315546076 2.13266926263e-19)
(0.0329122772398 0.0510625209281 4.65812911866e-19)
(0.0364094840787 0.0523927075142 1.36403636644e-19)
(0.0351576057275 0.049014462004 2.68821623224e-19)
(0.0459526211361 0.0539656687423 1.09750382997e-19)
(0.0361023430589 0.0465986409029 2.12108471743e-19)
(0.0265032094111 0.0541868390594 1.13979058911e-19)
(0.0546380933084 0.0586128217206 1.9548929101e-19)
(0.0162872492368 0.0188758429752 1.11119925818e-19)
(0.00846031436939 0.0021455433382 2.60139723018e-21)
(0.00715082314547 0.00102231648929 2.1035404858e-21)
(0.00887621624406 0.00441302509592 7.28809398287e-21)
(0.00759348599764 0.00318097076631 5.20002168965e-21)
(0.00904732624494 0.00682540528746 2.7747664363e-20)
(0.00785098166586 0.00540860039664 2.00339916865e-20)
(0.00889050590331 0.00942972546217 1.01946108093e-19)
(0.007758329761 0.00784165086749 7.93245345685e-20)
(0.00842889414066 0.0122673613248 3.31506065976e-19)
(0.00732878119169 0.0104293501084 2.8546389191e-19)
(0.00773928854081 0.0154991724655 8.87642276725e-19)
(0.00655342131435 0.0131893065033 9.03479836715e-19)
(0.0072216054361 0.0195781531403 1.84389310937e-18)
(0.00536324508625 0.0164020352836 2.28841964632e-18)
(0.00885731400059 0.0247213790417 2.8104709071e-18)
(0.00452331770949 0.0219535830864 4.30055507762e-18)
(0.0124830547105 0.0281089152681 3.35642053522e-18)
(0.00905970941652 0.0273334320349 5.73487934397e-18)
(0.0142631808322 0.0301602582052 3.57040335007e-18)
(0.0136247309799 0.0304067285469 5.88633177563e-18)
(0.0124305024352 0.0330343297281 4.0222869822e-18)
(0.0131761020096 0.0331831602119 5.47402338036e-18)
(0.00998830989342 0.0379504534939 4.38472875554e-18)
(0.00892600375523 0.0375632034671 6.43575287565e-18)
(0.0123485462658 0.0440366904636 3.82831890412e-18)
(0.00627534659232 0.0434411911848 5.54975072655e-18)
(0.0200300491358 0.0480396922438 2.49695307031e-18)
(0.0136132908839 0.0470925992261 4.19232592046e-18)
(0.028592309438 0.0496951757189 1.17574082483e-18)
(0.0240054380951 0.0479963407191 2.19322924361e-18)
(0.0334524170394 0.0505468203656 5.21367608827e-19)
(0.0320601383858 0.0495501953721 9.06719302272e-19)
(0.0343817337576 0.0524689734233 3.44526458323e-19)
(0.0332352818289 0.0481850194758 5.5874719944e-19)
(0.0431778558073 0.0569159886114 2.97847379756e-19)
(0.03165513311 0.0457475429508 4.46833719828e-19)
(0.0568279380175 0.0693678259037 1.92630157917e-19)
(0.0421956782563 0.0545683507087 4.21204683224e-19)
(0.0792384786155 0.022371302272 2.49462837175e-19)
(0.00631144678287 0.0020042474865 4.70216494527e-21)
(0.00514606757332 0.000924067717362 2.82003632727e-21)
(0.00658561900022 0.00412311229709 1.79459193933e-20)
(0.00547440067125 0.00292201210952 1.06991416079e-20)
(0.00658243439134 0.00638434634175 7.1610861892e-20)
(0.00559005017292 0.00496202980659 4.41748877136e-20)
(0.0062334082262 0.00874171600776 2.62842318385e-19)
(0.00540192634603 0.00716150226483 1.72174583543e-19)
(0.00555224116799 0.0111577057671 8.5743766265e-19)
(0.00491444490125 0.00949470963302 6.06249637214e-19)
(0.00447022575831 0.0137566485683 2.30425720631e-18)
(0.00395672619945 0.012013596693 1.87929850803e-18)
(0.00318597412475 0.0179845207008 4.74508161457e-18)
(0.0011380125724 0.0150642994124 4.63211490962e-18)
(0.00534221904032 0.0255820428521 7.22496351449e-18)
(-0.0030710772644 0.0217855293198 8.83332850989e-18)
(0.0104721110272 0.0295759051817 8.26479058438e-18)
(0.00506860588458 0.0292015800463 1.33409133283e-17)
(0.0124250707561 0.0329738878284 7.78995180592e-18)
(0.0102287904596 0.0341678578246 1.38638398702e-17)
(0.00940770156005 0.0374560554798 7.88748927381e-18)
(0.00869512717938 0.0423729102277 1.05016553499e-17)
(0.00479491523312 0.0450443107979 7.60077484666e-18)
(0.00133824034342 0.0471701810762 1.14514363903e-17)
(0.00696623344321 0.045930999679 5.91375774289e-18)
(0.00538865908851 0.047018041937 7.77700709589e-18)
(0.0171024813749 0.0463191921315 3.88860209376e-18)
(0.0132248310837 0.0453205423813 5.09241288321e-18)
(0.0272809947538 0.0469077851986 1.92420772104e-18)
(0.0234165722728 0.0431491962779 2.76545309777e-18)
(0.0319161491352 0.0485333589877 9.44098892886e-19)
(0.0304344098662 0.0460233846622 1.35156589145e-18)
(0.0313603140438 0.0511098265049 6.61054460945e-19)
(0.030658771845 0.0468250247038 9.04833413859e-19)
(0.0369261464406 0.0543781633016 5.70191023296e-19)
(0.0283869654353 0.0459231961366 7.49689713828e-19)
(0.0750054407981 0.0439540013085 4.78037362482e-19)
(0.0526248384889 0.0556320256964 7.13029453143e-19)
(0.164475800175 -0.00858441714359 5.19076664042e-19)
(0.00436970010979 0.00179795945481 8.81701298989e-21)
(0.00334768779264 0.000832159991775 4.43037294525e-21)
(0.00455292234992 0.00371251265054 3.69281099282e-20)
(0.00355970714428 0.0026746966601 1.94134253882e-20)
(0.00448256600437 0.00571439387447 1.44738609365e-19)
(0.00358851643377 0.00451957472612 7.88814240764e-20)
(0.00403387596484 0.00780392156458 5.15581902372e-19)
(0.00331335984644 0.00642077877333 2.91704189501e-19)
(0.0029551983381 0.0101227814379 1.62811048259e-18)
(0.00259718614695 0.00832407618843 9.63464564697e-19)
(6.40693865319e-05 0.0129510408476 4.20715621134e-18)
(0.001130630412 0.00995377351395 2.83933178089e-18)
(-0.00607694437882 0.017578236951 8.72036180494e-18)
(-0.00348626876239 0.0117132983189 6.52459041314e-18)
(-0.00448647362914 0.0275113935646 1.49492783237e-17)
(-0.0130013251145 0.0131822622037 1.19788173061e-17)
(0.00419919343033 0.0325812464579 1.89399626141e-17)
(0.0061393803305 0.0428108803439 1.65755434142e-17)
(0.000366008591624 0.0515064838661 1.40656024664e-17)
(0.0029026925731 0.0528449415827 1.16276686395e-17)
(0.0137040693551 0.0458969006765 6.95566223621e-18)
(0.0207525610867 0.040547340908 3.96926388722e-18)
(0.0265432299363 0.0410731008048 2.19281126817e-18)
(0.02863501035 0.0456220650343 1.31230041242e-18)
(0.0266677105759 0.0517864607193 9.93468666742e-19)
(0.0308006154252 0.0593970545884 8.92528143675e-19)
(0.167178441325 0.0795267543443 7.54068754703e-19)
(0.00258122563574 0.00167884441246 1.50267853436e-20)
(0.00166849022326 0.000760627184051 6.8622593129e-21)
(0.00267979462623 0.00346468189634 6.13667395364e-20)
(0.00177376976269 0.00248907034992 2.96509528259e-20)
(0.00260183004547 0.00527956556259 2.25847004213e-19)
(0.00177395068366 0.00419240755672 1.18462087052e-19)
(0.00222322145606 0.00694301687103 7.39586851826e-19)
(0.00165074794687 0.00585584713458 4.19504092743e-19)
(0.00124447836167 0.0081683658792 2.17468586299e-18)
(0.00137322638927 0.00738709154831 1.29676995211e-18)
(-0.00150792376486 0.00868897868331 5.15676598268e-18)
(0.000612020200216 0.00814623150823 3.76380486775e-18)
(-0.00785406876943 0.00676360743592 9.78304591429e-18)
(-0.00155854657023 0.00832584393824 8.79848386232e-18)
(-0.00623666650943 0.00446204830548 1.81353843878e-17)
(0.000898302018673 0.00155843544466 2.14864267952e-20)
(0.000109735952581 0.000725981304524 8.48221612697e-21)
(0.000911514958208 0.00322576118656 8.6746300342e-20)
(0.000106331194475 0.00240169014803 3.49769851077e-20)
(0.000857536414938 0.0048945007417 3.12119175582e-19)
(0.000105413013678 0.0040427723493 1.38783216735e-19)
(0.000724804717311 0.00643367596285 9.76687193026e-19)
(0.000112172755212 0.00563451835884 4.85597525349e-19)
(0.000512403034863 0.00768315910957 2.88588895687e-18)
(0.000124782270628 0.00712004141102 1.46859040998e-18)
(8.01488718876e-05 0.00814950405177 7.40552274739e-18)
(0.000147177505967 0.00791536571181 4.30687374949e-18)
(-0.00128195506452 0.00642969318377 1.71508223359e-17)
(0.000163035129863 0.00795834367314 1.05061799604e-17)
(0.000193892361353 0.00443842817733 2.38052156024e-17)
(-0.000681260463732 0.00156299778243 2.19727744394e-20)
(-0.00145356525221 0.000767641747794 7.75441421311e-21)
(-0.000697621437697 0.00323295164678 8.70139015012e-20)
(-0.00156380803343 0.00250019420086 3.00778403105e-20)
(-0.000637960574271 0.00489940595741 3.12261566502e-19)
(-0.00156102728683 0.00420262426618 1.18669078429e-19)
(-0.000489836829069 0.00643800550931 9.77500742302e-19)
(-0.00142612459964 0.00586171441499 4.19700977097e-19)
(-0.000250041238864 0.00768745077073 2.8895752026e-18)
(-0.00112398963529 0.00738826251178 1.29858694692e-18)
(0.000231284535248 0.00812981563629 7.40753096245e-18)
(-0.00029410335325 0.00815102003978 3.76900187192e-18)
(0.00165713089625 0.00641855714866 1.71605732269e-17)
(0.00187572859141 0.00833579862786 8.80354580228e-18)
(0.00661313384938 0.00446023793282 1.8162969887e-17)
(-0.00237021138501 0.00169367080145 1.58594800842e-20)
(-0.00246554880005 0.00347999507606 6.17330172385e-20)
(-0.0023773008813 0.00529073713471 2.26108489024e-19)
(-0.00197933449268 0.00694497053876 7.40787181717e-19)
(-0.000973514671886 0.00816487226874 2.17801361624e-18)
(0.00182375615381 0.00874150866414 5.16501671174e-18)
(0.00822488867653 0.00677964799423 9.80594246239e-18)
)
;

boundaryField
{
    back
    {
        type            calculated;
        value           uniform (0 0 0);
    }
    sides
    {
        type            calculated;
        value           nonuniform List<vector> 0();
    }
    bottom
    {
        type            calculated;
        value           uniform (0 0 0);
    }
    front
    {
        type            calculated;
        value           uniform (0 0 0);
    }
    atmosphere
    {
        type            calculated;
        value           nonuniform List<vector> 7((0.0329762548295 0.201062020909 -3.18296511896e-20) (-0.172721908468 0.199105213778 1.34934210841e-20) (0 -0.0140819186718 0) (0 -0.0468503311151 0) (0.0616852566085 0.00641060871495 9.21551007558e-20) (0 -0.0412584230618 0) (0 -0.148855131836 0));
    }
    floatingObject
    {
        type            calculated;
        value           nonuniform List<vector> 8((0 -1.66533453694e-15 2.08166817117e-16) (0 0 2.08166817117e-16) (0 0 0) (0 -3.33066907388e-15 2.08166817117e-16) (4.16333634234e-16 0 0) (0 0 2.08166817117e-16) (0 0 2.08166817117e-16) (0 0 0));
    }
    procBoundary3to4
    {
        type            processor;
        value           nonuniform List<vector> 
13
(
(0.0238956182743 0.0190638850632 4.71215209887e-21)
(0.0251078343671 0.0219660516038 6.77118114127e-21)
(0.0265627017355 0.0248310496718 7.77571825803e-21)
(0.016087077745 0.00112378525512 1.22223494732e-21)
(0.0170124305561 0.00345479753679 5.78061686036e-22)
(0.0178585839459 0.00583602288958 2.60244557716e-22)
(0.0185061548273 0.00840470754014 5.6481213972e-22)
(0.0194257378893 0.013967841697 5.20259634229e-21)
(0.0219531866592 0.0180973914879 6.06560483971e-21)
(0.0200038854126 0.0169862741964 1.28177994818e-20)
(0.0173592961113 0.00985884323004 1.92692678749e-21)
(0.0177296890403 0.0127123317766 5.80731752791e-21)
(0.0161244453518 0.0113546255795 7.89886907751e-21)
)
;
    }
    procBoundary3to5
    {
        type            processor;
        value           nonuniform List<vector> 10((0.0281423950362 0.0277332238406 8.55734174687e-21) (0.0298710167345 0.0308645894692 1.00515395948e-20) (0.0318818421781 0.0343064414431 1.06542280427e-20) (0.0341447546975 0.0378758986383 9.65766909329e-21) (0.0361260506633 0.0409405358459 6.48825406979e-21) (0.0387647551697 0.0443216082908 2.06954790285e-21) (0.0420324516697 0.043790130309 1.49283613639e-21) (0.0471577755067 0.0430051815418 7.63384527907e-21) (0.103357637322 0.0449922316675 2.17663665817e-20) (0.0938460729294 0.118681926371 -4.93864715311e-20));
    }
    procBoundary3to6
    {
        type            processor;
        value           nonuniform List<vector> 8((0.0123369353314 0.025752544217 6.65090712127e-18) (0.0185744784736 0.0299978616512 4.36670550709e-18) (0.0228908266707 0.0314936497538 2.6533376474e-18) (0.0258854690455 0.0399450903061 1.64317228586e-18) (0.0244945061132 0.0452729700312 1.20608515391e-18) (0.0207751639251 0.0471524392788 1.04888813784e-18) (0.0325128789495 0.0623438974066 1.0166094209e-18) (0.392836887225 0.227972858745 7.25360941752e-19));
    }
    procBoundary3to8
    {
        type            processor;
        value           nonuniform List<vector> 8((-0.00314754247611 0.000843543060375 5.43478669683e-21) (-0.0033503806559 0.00269290473806 1.98367547434e-20) (-0.00337190051906 0.00453708021943 7.90500455917e-20) (-0.00308028976532 0.00643329074898 2.91799688153e-19) (-0.00234350913074 0.00832671154032 9.652858573e-19) (-0.000869995280343 0.00996034999705 2.84514364067e-18) (0.00383862780788 0.0117113904045 6.54527569172e-18) (0.0133931662894 0.0132031950782 1.20091265817e-17));
    }
}


// ************************************************************************* //
