/*--------------------------------*- C++ -*----------------------------------*\
| =========                 |                                                 |
| \\      /  F ield         | OpenFOAM: The Open Source CFD Toolbox           |
|  \\    /   O peration     | Version:  v2012                                 |
|   \\  /    A nd           | Website:  www.openfoam.com                      |
|    \\/     M anipulation  |                                                 |
\*---------------------------------------------------------------------------*/
FoamFile
{
    version     2.0;
    format      ascii;
    class       volScalarField;
    location    "3.2";
    object      ddt0(epsilon);
}
// * * * * * * * * * * * * * * * * * * * * * * * * * * * * * * * * * * * * * //

dimensions      [0 2 -4 0 0 0 0];


internalField   nonuniform List<scalar> 
167
(
-0.00393252725075
-0.00391669854172
-0.0038649374925
-0.00349272074862
-0.000961737786384
0.0107292474212
0.0413470307353
0.0648575521334
0.0104650494551
-0.00391663186631
-0.00387951121209
-0.00352670698745
-0.000946125466142
0.0112049137061
0.0410549233324
0.0373274154695
-0.0131938215402
-0.00391363743116
-0.00388681486717
-0.00355917363355
-0.000975446130105
0.0120416817875
0.0446422010921
0.00653948027408
-0.0426604489999
-0.00391340974167
-0.00390710896486
-0.00387951664428
-0.00353681704318
-0.00092799055749
0.0120917362817
0.0486089215885
0.0265472762641
-0.0412821847639
-0.0039053565879
-0.00390045943728
-0.00387099383012
-0.00349371112974
-0.0007942331869
0.0114700090766
0.0418478830232
0.0263304675106
-0.0409237934388
-0.00389723738641
-0.00389582602352
-0.00387577928762
-0.00350686837547
-0.000747115258373
0.0113865007865
0.0353704716209
-0.00749654295244
-0.0638571240782
-0.0038873595103
-0.00388904172761
-0.00389239801931
-0.00388920829164
-0.00357098006138
-0.000873050397805
0.011493347638
0.0324958229201
-0.0629562328391
-0.109240102382
-0.00387126952711
-0.00387779521467
-0.00388088423555
-0.00388939696028
-0.00390764504871
-0.00367358157731
-0.00114480261972
0.0120686300654
0.0387452416943
-0.0836063990624
-0.135111235247
-0.00386138680733
-0.00386840337517
-0.00387269487905
-0.00388516145225
-0.00391662424247
-0.00373302657061
-0.00134389063819
0.012164883945
0.0455753235031
-0.0404620450161
-0.107111230708
-0.00385929261235
-0.0038643852887
-0.00387965576937
-0.00391994274553
-0.00376829924598
-0.00151584412729
0.0117492601589
0.0505937282153
0.0173601327649
-0.0565338498716
-0.00385023262957
-0.00385625882878
-0.00387418017465
-0.00392098637777
-0.00379509711313
-0.00170857502377
0.0105106749906
0.049032025263
0.0673588320693
0.00233506416831
-0.00384045259313
-0.00384734242413
-0.00386732078784
-0.0039194292492
-0.00381875385449
-0.00196353257307
0.0083727778501
0.0407221903274
0.0977080860532
0.091397286073
-0.00382589341144
-0.00383355215592
-0.00385534749871
-0.00391128569943
-0.00383650892917
-0.00232462720728
0.00498092073099
0.026367038586
0.142607847534
0.506496331371
-0.00379268990141
-0.00380138119813
-0.00382528522258
-0.00388615790847
-0.0038382654133
-0.00263901854766
0.00204472641968
0.0112366691812
0.156411180044
1.25584667487
-0.00368822976727
-0.00369770755462
-0.00370780088905
-0.00373399885428
-0.00380312031757
-0.00379366412413
-0.00287576948309
0.000371964134858
0.00707719783668
0.175806572161
1.39147065206
-0.00340584764918
-0.00341661860841
-0.0034277915737
-0.00345396604082
-0.00352813812478
-0.00358024502986
-0.00298229336751
-6.24259702109e-05
0.0120743494013
0.193035527266
0.969098348941
-0.00325946449049
-0.00327425664521
-0.00328836527113
-0.00332207144106
-0.0034194863918
-0.00360445744772
-0.00336216429896
0.000985723268408
0.0287498162148
0.156224288733
0.272148651098
)
;

boundaryField
{
    back
    {
        type            calculated;
        value           nonuniform List<scalar> 
167
(
-0.00393252725075
-0.00391669854172
-0.0038649374925
-0.00349272074862
-0.000961737786384
0.0107292474212
0.0413470307353
0.0648575521334
0.0104650494551
-0.00391663186631
-0.00387951121209
-0.00352670698745
-0.000946125466142
0.0112049137061
0.0410549233324
0.0373274154695
-0.0131938215402
-0.00391363743116
-0.00388681486717
-0.00355917363355
-0.000975446130105
0.0120416817875
0.0446422010921
0.00653948027408
-0.0426604489999
-0.00391340974167
-0.00390710896486
-0.00387951664428
-0.00353681704318
-0.00092799055749
0.0120917362817
0.0486089215885
0.0265472762641
-0.0412821847639
-0.0039053565879
-0.00390045943728
-0.00387099383012
-0.00349371112974
-0.0007942331869
0.0114700090766
0.0418478830232
0.0263304675106
-0.0409237934388
-0.00389723738641
-0.00389582602352
-0.00387577928762
-0.00350686837547
-0.000747115258373
0.0113865007865
0.0353704716209
-0.00749654295244
-0.0638571240782
-0.0038873595103
-0.00388904172761
-0.00389239801931
-0.00388920829164
-0.00357098006138
-0.000873050397805
0.011493347638
0.0324958229201
-0.0629562328391
-0.109240102382
-0.00387126952711
-0.00387779521467
-0.00388088423555
-0.00388939696028
-0.00390764504871
-0.00367358157731
-0.00114480261972
0.0120686300654
0.0387452416943
-0.0836063990624
-0.135111235247
-0.00386138680733
-0.00386840337517
-0.00387269487905
-0.00388516145225
-0.00391662424247
-0.00373302657061
-0.00134389063819
0.012164883945
0.0455753235031
-0.0404620450161
-0.107111230708
-0.00385929261235
-0.0038643852887
-0.00387965576937
-0.00391994274553
-0.00376829924598
-0.00151584412729
0.0117492601589
0.0505937282153
0.0173601327649
-0.0565338498716
-0.00385023262957
-0.00385625882878
-0.00387418017465
-0.00392098637777
-0.00379509711313
-0.00170857502377
0.0105106749906
0.049032025263
0.0673588320693
0.00233506416831
-0.00384045259313
-0.00384734242413
-0.00386732078784
-0.0039194292492
-0.00381875385449
-0.00196353257307
0.0083727778501
0.0407221903274
0.0977080860532
0.091397286073
-0.00382589341144
-0.00383355215592
-0.00385534749871
-0.00391128569943
-0.00383650892917
-0.00232462720728
0.00498092073099
0.026367038586
0.142607847534
0.506496331371
-0.00379268990141
-0.00380138119813
-0.00382528522258
-0.00388615790847
-0.0038382654133
-0.00263901854766
0.00204472641968
0.0112366691812
0.156411180044
1.25584667487
-0.00368822976727
-0.00369770755462
-0.00370780088905
-0.00373399885428
-0.00380312031757
-0.00379366412413
-0.00287576948309
0.000371964134858
0.00707719783668
0.175806572161
1.39147065206
-0.00340584764918
-0.00341661860841
-0.0034277915737
-0.00345396604082
-0.00352813812478
-0.00358024502986
-0.00298229336751
-6.24259702109e-05
0.0120743494013
0.193035527266
0.969098348941
-0.00325946449049
-0.00327425664521
-0.00328836527113
-0.00332207144106
-0.0034194863918
-0.00360445744772
-0.00336216429896
0.000985723268408
0.0287498162148
0.156224288733
0.272148651098
)
;
    }
    sides
    {
        type            calculated;
        value           nonuniform List<scalar> 
11
(
-0.00325946449049
-0.00327425664521
-0.00328836527113
-0.00332207144106
-0.0034194863918
-0.00360445744772
-0.00336216429896
0.000985723268408
0.0287498162148
0.156224288733
0.272148651098
)
;
    }
    bottom
    {
        type            calculated;
        value           nonuniform List<scalar> 0();
    }
    front
    {
        type            calculated;
        value           nonuniform List<scalar> 
167
(
-0.00393252725075
-0.00391669854172
-0.0038649374925
-0.00349272074862
-0.000961737786384
0.0107292474212
0.0413470307353
0.0648575521334
0.0104650494551
-0.00391663186631
-0.00387951121209
-0.00352670698745
-0.000946125466142
0.0112049137061
0.0410549233324
0.0373274154695
-0.0131938215402
-0.00391363743116
-0.00388681486717
-0.00355917363355
-0.000975446130105
0.0120416817875
0.0446422010921
0.00653948027408
-0.0426604489999
-0.00391340974167
-0.00390710896486
-0.00387951664428
-0.00353681704318
-0.00092799055749
0.0120917362817
0.0486089215885
0.0265472762641
-0.0412821847639
-0.0039053565879
-0.00390045943728
-0.00387099383012
-0.00349371112974
-0.0007942331869
0.0114700090766
0.0418478830232
0.0263304675106
-0.0409237934388
-0.00389723738641
-0.00389582602352
-0.00387577928762
-0.00350686837547
-0.000747115258373
0.0113865007865
0.0353704716209
-0.00749654295244
-0.0638571240782
-0.0038873595103
-0.00388904172761
-0.00389239801931
-0.00388920829164
-0.00357098006138
-0.000873050397805
0.011493347638
0.0324958229201
-0.0629562328391
-0.109240102382
-0.00387126952711
-0.00387779521467
-0.00388088423555
-0.00388939696028
-0.00390764504871
-0.00367358157731
-0.00114480261972
0.0120686300654
0.0387452416943
-0.0836063990624
-0.135111235247
-0.00386138680733
-0.00386840337517
-0.00387269487905
-0.00388516145225
-0.00391662424247
-0.00373302657061
-0.00134389063819
0.012164883945
0.0455753235031
-0.0404620450161
-0.107111230708
-0.00385929261235
-0.0038643852887
-0.00387965576937
-0.00391994274553
-0.00376829924598
-0.00151584412729
0.0117492601589
0.0505937282153
0.0173601327649
-0.0565338498716
-0.00385023262957
-0.00385625882878
-0.00387418017465
-0.00392098637777
-0.00379509711313
-0.00170857502377
0.0105106749906
0.049032025263
0.0673588320693
0.00233506416831
-0.00384045259313
-0.00384734242413
-0.00386732078784
-0.0039194292492
-0.00381875385449
-0.00196353257307
0.0083727778501
0.0407221903274
0.0977080860532
0.091397286073
-0.00382589341144
-0.00383355215592
-0.00385534749871
-0.00391128569943
-0.00383650892917
-0.00232462720728
0.00498092073099
0.026367038586
0.142607847534
0.506496331371
-0.00379268990141
-0.00380138119813
-0.00382528522258
-0.00388615790847
-0.0038382654133
-0.00263901854766
0.00204472641968
0.0112366691812
0.156411180044
1.25584667487
-0.00368822976727
-0.00369770755462
-0.00370780088905
-0.00373399885428
-0.00380312031757
-0.00379366412413
-0.00287576948309
0.000371964134858
0.00707719783668
0.175806572161
1.39147065206
-0.00340584764918
-0.00341661860841
-0.0034277915737
-0.00345396604082
-0.00352813812478
-0.00358024502986
-0.00298229336751
-6.24259702109e-05
0.0120743494013
0.193035527266
0.969098348941
-0.00325946449049
-0.00327425664521
-0.00328836527113
-0.00332207144106
-0.0034194863918
-0.00360445744772
-0.00336216429896
0.000985723268408
0.0287498162148
0.156224288733
0.272148651098
)
;
    }
    atmosphere
    {
        type            calculated;
        value           nonuniform List<scalar> 
17
(
-1.31416670579e-06
-4.69704164963e-08
-6.0711312384e-07
-4.57526531977e-06
4.26078122547e-06
-2.3544325443e-05
1.95207216296e-07
-4.01312147952e-05
2.03079172368e-05
5.99111595332e-07
1.8245213411e-10
-3.63277038387e-11
-0.0041064414668
0.115894306058
0.14815640254
-0.0575126644608
1.44509638693e-07
)
;
    }
    floatingObject
    {
        type            calculated;
        value           nonuniform List<scalar> 0();
    }
    procBoundary11to9
    {
        type            processor;
        value           nonuniform List<scalar> 9(-0.00393722939767 -0.00391639576628 -0.00385009999304 -0.00347083125349 -0.00103731590653 0.0104808430769 0.0418324016925 0.0658281455856 0.0136042770064);
    }
    procBoundary11to10
    {
        type            processor;
        value           nonuniform List<scalar> 
23
(
-0.00393568623711
-0.00392740289167
-0.00392740289167
-0.00392102745498
-0.00392102745498
-0.00391413216813
-0.00390552914838
-0.00389654322108
-0.00389654322108
-0.00388094066609
-0.00388094066609
-0.00386136254538
-0.00385126745817
-0.00385180915403
-0.00385180915403
-0.00384223755904
-0.00383207941274
-0.00381719107703
-0.00378368308517
-0.00378368308517
-0.00367631034173
-0.00339320876601
-0.00324316018391
)
;
    }
}


// ************************************************************************* //
