/*--------------------------------*- C++ -*----------------------------------*\
| =========                 |                                                 |
| \\      /  F ield         | OpenFOAM: The Open Source CFD Toolbox           |
|  \\    /   O peration     | Version:  v2012                                 |
|   \\  /    A nd           | Website:  www.openfoam.com                      |
|    \\/     M anipulation  |                                                 |
\*---------------------------------------------------------------------------*/
FoamFile
{
    version     2.0;
    format      ascii;
    class       volScalarField;
    location    "3.2";
    object      rAU;
}
// * * * * * * * * * * * * * * * * * * * * * * * * * * * * * * * * * * * * * //

dimensions      [-1 3 1 0 0 0 0];


internalField   nonuniform List<scalar> 
167
(
1.09847033783e-05
1.09816585161e-05
1.09829042945e-05
1.09704542404e-05
1.09020637195e-05
1.08410191786e-05
1.70635379083e-05
0.000772493662855
0.00895471956898
1.09801513667e-05
1.09804890194e-05
1.09653828837e-05
1.08793706335e-05
1.08119984481e-05
1.7224691463e-05
0.000852582147014
0.0090250534881
1.09790596178e-05
1.09809078057e-05
1.09780374472e-05
1.09022795585e-05
1.08142118492e-05
1.73426797099e-05
0.00100929110286
0.00881819771939
1.09837845673e-05
1.09801272602e-05
1.0984833894e-05
1.09899391532e-05
1.09692768783e-05
1.09423582652e-05
1.76472968386e-05
0.00112574229391
0.00891880348093
1.09842146455e-05
1.09813009861e-05
1.09881336726e-05
1.09876168019e-05
1.09631447577e-05
1.09299841347e-05
1.7676284602e-05
0.00121400861228
0.00902727986855
1.09846521045e-05
1.09819113647e-05
1.09897334849e-05
1.09869429273e-05
1.09446753614e-05
1.09186205016e-05
1.76517306053e-05
0.00142466473849
0.00916952932423
1.09872335893e-05
1.09849849344e-05
1.09817585489e-05
1.09894896471e-05
1.098821157e-05
1.0934028781e-05
1.08618905986e-05
1.73616676942e-05
0.00178938528487
0.00934560431355
1.09882680986e-05
1.09876994732e-05
1.09855097908e-05
1.0981579243e-05
1.09883584384e-05
1.09930157462e-05
1.09314649063e-05
1.08589461459e-05
1.70906524264e-05
0.00139117065521
0.0105060204365
1.09886707006e-05
1.09880397746e-05
1.09862660524e-05
1.09831074616e-05
1.09870583696e-05
1.0994681984e-05
1.09322846458e-05
1.09418731525e-05
1.69995023849e-05
0.00102114717645
0.00916506242555
1.09884711517e-05
1.09873656115e-05
1.09853193113e-05
1.09855798545e-05
1.09922291051e-05
1.09322349198e-05
1.09114233689e-05
1.65052286714e-05
0.000691912436413
0.00895446028981
1.09888469753e-05
1.09879971764e-05
1.09876368131e-05
1.0984776198e-05
1.09899279784e-05
1.09291709761e-05
1.08380695744e-05
1.58896341451e-05
0.000476864032702
0.00874432475739
1.09891684386e-05
1.09889285389e-05
1.09894723263e-05
1.09843361287e-05
1.09885637288e-05
1.09253639696e-05
1.08312511729e-05
1.54685646303e-05
0.000342373075342
0.00847621572293
1.0989479116e-05
1.09895418446e-05
1.09898401048e-05
1.09834741744e-05
1.09864517285e-05
1.09222051093e-05
1.08531776926e-05
1.52047696458e-05
0.000261190041651
0.00825230629868
1.09901846665e-05
1.09904242658e-05
1.09903232264e-05
1.09823334477e-05
1.09835470415e-05
1.09209262255e-05
1.09028496852e-05
1.50771285444e-05
0.000210756108405
0.00805295038724
1.09921075267e-05
1.09918394765e-05
1.099184113e-05
1.09918420834e-05
1.09825426156e-05
1.09808806166e-05
1.09215998118e-05
1.08993420296e-05
1.48707452768e-05
0.000180819707318
0.00782509930939
1.10029790484e-05
1.10026195299e-05
1.10022938893e-05
1.10020171999e-05
1.0989246832e-05
1.09840860396e-05
1.09331666297e-05
1.08620867489e-05
1.46210364284e-05
0.000170432155131
0.0076895730545
1.10548324855e-05
1.10542229375e-05
1.10528594441e-05
1.1054040281e-05
1.10434499574e-05
1.10440606204e-05
1.10023007449e-05
1.09379146537e-05
1.4556766897e-05
0.00017713537774
0.00779471693519
)
;

boundaryField
{
    back
    {
        type            calculated;
        value           nonuniform List<scalar> 
167
(
1.09847033783e-05
1.09816585161e-05
1.09829042945e-05
1.09704542404e-05
1.09020637195e-05
1.08410191786e-05
1.70635379083e-05
0.000772493662855
0.00895471956898
1.09801513667e-05
1.09804890194e-05
1.09653828837e-05
1.08793706335e-05
1.08119984481e-05
1.7224691463e-05
0.000852582147014
0.0090250534881
1.09790596178e-05
1.09809078057e-05
1.09780374472e-05
1.09022795585e-05
1.08142118492e-05
1.73426797099e-05
0.00100929110286
0.00881819771939
1.09837845673e-05
1.09801272602e-05
1.0984833894e-05
1.09899391532e-05
1.09692768783e-05
1.09423582652e-05
1.76472968386e-05
0.00112574229391
0.00891880348093
1.09842146455e-05
1.09813009861e-05
1.09881336726e-05
1.09876168019e-05
1.09631447577e-05
1.09299841347e-05
1.7676284602e-05
0.00121400861228
0.00902727986855
1.09846521045e-05
1.09819113647e-05
1.09897334849e-05
1.09869429273e-05
1.09446753614e-05
1.09186205016e-05
1.76517306053e-05
0.00142466473849
0.00916952932423
1.09872335893e-05
1.09849849344e-05
1.09817585489e-05
1.09894896471e-05
1.098821157e-05
1.0934028781e-05
1.08618905986e-05
1.73616676942e-05
0.00178938528487
0.00934560431355
1.09882680986e-05
1.09876994732e-05
1.09855097908e-05
1.0981579243e-05
1.09883584384e-05
1.09930157462e-05
1.09314649063e-05
1.08589461459e-05
1.70906524264e-05
0.00139117065521
0.0105060204365
1.09886707006e-05
1.09880397746e-05
1.09862660524e-05
1.09831074616e-05
1.09870583696e-05
1.0994681984e-05
1.09322846458e-05
1.09418731525e-05
1.69995023849e-05
0.00102114717645
0.00916506242555
1.09884711517e-05
1.09873656115e-05
1.09853193113e-05
1.09855798545e-05
1.09922291051e-05
1.09322349198e-05
1.09114233689e-05
1.65052286714e-05
0.000691912436413
0.00895446028981
1.09888469753e-05
1.09879971764e-05
1.09876368131e-05
1.0984776198e-05
1.09899279784e-05
1.09291709761e-05
1.08380695744e-05
1.58896341451e-05
0.000476864032702
0.00874432475739
1.09891684386e-05
1.09889285389e-05
1.09894723263e-05
1.09843361287e-05
1.09885637288e-05
1.09253639696e-05
1.08312511729e-05
1.54685646303e-05
0.000342373075342
0.00847621572293
1.0989479116e-05
1.09895418446e-05
1.09898401048e-05
1.09834741744e-05
1.09864517285e-05
1.09222051093e-05
1.08531776926e-05
1.52047696458e-05
0.000261190041651
0.00825230629868
1.09901846665e-05
1.09904242658e-05
1.09903232264e-05
1.09823334477e-05
1.09835470415e-05
1.09209262255e-05
1.09028496852e-05
1.50771285444e-05
0.000210756108405
0.00805295038724
1.09921075267e-05
1.09918394765e-05
1.099184113e-05
1.09918420834e-05
1.09825426156e-05
1.09808806166e-05
1.09215998118e-05
1.08993420296e-05
1.48707452768e-05
0.000180819707318
0.00782509930939
1.10029790484e-05
1.10026195299e-05
1.10022938893e-05
1.10020171999e-05
1.0989246832e-05
1.09840860396e-05
1.09331666297e-05
1.08620867489e-05
1.46210364284e-05
0.000170432155131
0.0076895730545
1.10548324855e-05
1.10542229375e-05
1.10528594441e-05
1.1054040281e-05
1.10434499574e-05
1.10440606204e-05
1.10023007449e-05
1.09379146537e-05
1.4556766897e-05
0.00017713537774
0.00779471693519
)
;
    }
    sides
    {
        type            calculated;
        value           nonuniform List<scalar> 
11
(
1.10548324855e-05
1.10542229375e-05
1.10528594441e-05
1.1054040281e-05
1.10434499574e-05
1.10440606204e-05
1.10023007449e-05
1.09379146537e-05
1.4556766897e-05
0.00017713537774
0.00779471693519
)
;
    }
    bottom
    {
        type            calculated;
        value           nonuniform List<scalar> 0();
    }
    front
    {
        type            calculated;
        value           nonuniform List<scalar> 
167
(
1.09847033783e-05
1.09816585161e-05
1.09829042945e-05
1.09704542404e-05
1.09020637195e-05
1.08410191786e-05
1.70635379083e-05
0.000772493662855
0.00895471956898
1.09801513667e-05
1.09804890194e-05
1.09653828837e-05
1.08793706335e-05
1.08119984481e-05
1.7224691463e-05
0.000852582147014
0.0090250534881
1.09790596178e-05
1.09809078057e-05
1.09780374472e-05
1.09022795585e-05
1.08142118492e-05
1.73426797099e-05
0.00100929110286
0.00881819771939
1.09837845673e-05
1.09801272602e-05
1.0984833894e-05
1.09899391532e-05
1.09692768783e-05
1.09423582652e-05
1.76472968386e-05
0.00112574229391
0.00891880348093
1.09842146455e-05
1.09813009861e-05
1.09881336726e-05
1.09876168019e-05
1.09631447577e-05
1.09299841347e-05
1.7676284602e-05
0.00121400861228
0.00902727986855
1.09846521045e-05
1.09819113647e-05
1.09897334849e-05
1.09869429273e-05
1.09446753614e-05
1.09186205016e-05
1.76517306053e-05
0.00142466473849
0.00916952932423
1.09872335893e-05
1.09849849344e-05
1.09817585489e-05
1.09894896471e-05
1.098821157e-05
1.0934028781e-05
1.08618905986e-05
1.73616676942e-05
0.00178938528487
0.00934560431355
1.09882680986e-05
1.09876994732e-05
1.09855097908e-05
1.0981579243e-05
1.09883584384e-05
1.09930157462e-05
1.09314649063e-05
1.08589461459e-05
1.70906524264e-05
0.00139117065521
0.0105060204365
1.09886707006e-05
1.09880397746e-05
1.09862660524e-05
1.09831074616e-05
1.09870583696e-05
1.0994681984e-05
1.09322846458e-05
1.09418731525e-05
1.69995023849e-05
0.00102114717645
0.00916506242555
1.09884711517e-05
1.09873656115e-05
1.09853193113e-05
1.09855798545e-05
1.09922291051e-05
1.09322349198e-05
1.09114233689e-05
1.65052286714e-05
0.000691912436413
0.00895446028981
1.09888469753e-05
1.09879971764e-05
1.09876368131e-05
1.0984776198e-05
1.09899279784e-05
1.09291709761e-05
1.08380695744e-05
1.58896341451e-05
0.000476864032702
0.00874432475739
1.09891684386e-05
1.09889285389e-05
1.09894723263e-05
1.09843361287e-05
1.09885637288e-05
1.09253639696e-05
1.08312511729e-05
1.54685646303e-05
0.000342373075342
0.00847621572293
1.0989479116e-05
1.09895418446e-05
1.09898401048e-05
1.09834741744e-05
1.09864517285e-05
1.09222051093e-05
1.08531776926e-05
1.52047696458e-05
0.000261190041651
0.00825230629868
1.09901846665e-05
1.09904242658e-05
1.09903232264e-05
1.09823334477e-05
1.09835470415e-05
1.09209262255e-05
1.09028496852e-05
1.50771285444e-05
0.000210756108405
0.00805295038724
1.09921075267e-05
1.09918394765e-05
1.099184113e-05
1.09918420834e-05
1.09825426156e-05
1.09808806166e-05
1.09215998118e-05
1.08993420296e-05
1.48707452768e-05
0.000180819707318
0.00782509930939
1.10029790484e-05
1.10026195299e-05
1.10022938893e-05
1.10020171999e-05
1.0989246832e-05
1.09840860396e-05
1.09331666297e-05
1.08620867489e-05
1.46210364284e-05
0.000170432155131
0.0076895730545
1.10548324855e-05
1.10542229375e-05
1.10528594441e-05
1.1054040281e-05
1.10434499574e-05
1.10440606204e-05
1.10023007449e-05
1.09379146537e-05
1.4556766897e-05
0.00017713537774
0.00779471693519
)
;
    }
    atmosphere
    {
        type            calculated;
        value           nonuniform List<scalar> 
17
(
0.00895471956898
0.0090250534881
0.00881819771939
0.00891880348093
0.00902727986855
0.00916952932423
0.00934560431355
0.0105060204365
0.00916506242555
0.00895446028981
0.00874432475739
0.00847621572293
0.00825230629868
0.00805295038724
0.00782509930939
0.0076895730545
0.00779471693519
)
;
    }
    floatingObject
    {
        type            calculated;
        value           nonuniform List<scalar> 0();
    }
    procBoundary11to9
    {
        type            processor;
        value           nonuniform List<scalar> 9(1.09855441702e-05 1.09831731881e-05 1.09867989053e-05 1.097979375e-05 1.09068459897e-05 1.08323666523e-05 1.68309374416e-05 0.000774159813074 0.00892704814345);
    }
    procBoundary11to10
    {
        type            processor;
        value           nonuniform List<scalar> 
23
(
1.0986049478e-05
1.09837507623e-05
1.09837507623e-05
1.09833635324e-05
1.09833635324e-05
1.09861378808e-05
1.09865394513e-05
1.09869389139e-05
1.09869389139e-05
1.09879344533e-05
1.09879344533e-05
1.09885820993e-05
1.09889225987e-05
1.0988909053e-05
1.0988909053e-05
1.09893596869e-05
1.09895737794e-05
1.09898806522e-05
1.09904456769e-05
1.09904456769e-05
1.09923113603e-05
1.10030254873e-05
1.10547191882e-05
)
;
    }
}


// ************************************************************************* //
