/*--------------------------------*- C++ -*----------------------------------*\
| =========                 |                                                 |
| \\      /  F ield         | OpenFOAM: The Open Source CFD Toolbox           |
|  \\    /   O peration     | Version:  v2012                                 |
|   \\  /    A nd           | Website:  www.openfoam.com                      |
|    \\/     M anipulation  |                                                 |
\*---------------------------------------------------------------------------*/
FoamFile
{
    version     2.0;
    format      ascii;
    class       volScalarField;
    location    "2.5";
    object      nut;
}
// * * * * * * * * * * * * * * * * * * * * * * * * * * * * * * * * * * * * * //

dimensions      [0 2 -1 0 0 0 0];


internalField   nonuniform List<scalar> 
164
(
0.000851181293022
0.000853880147443
0.000856840645661
0.000860088240967
0.00086385180314
0.000869543875687
0.000883845539707
0.000931278463221
0.00107469571626
0.00137839434829
0.00177454947022
0.00220764608798
0.00300982781879
0.000541140903029
0.000803939286911
0.000828188808122
0.000837560166538
0.00084486242482
0.000847449851687
0.000850161640314
0.000853123747104
0.00085638301911
0.000859944632515
0.000863925113297
0.000869502953703
0.000883211489931
0.000931554141933
0.00108892424504
0.0014277795695
0.0018652450014
0.00234411847102
0.00309469274917
0.000539545674109
0.000801791005382
0.000826105443866
0.000835609529926
0.000840179562003
0.000843236438024
0.000846005781707
0.000848907922815
0.000852087506524
0.000855670574111
0.000859610010397
0.000863881510403
0.000869789697765
0.000885449050419
0.000942673014174
0.0011233135708
0.00148178388166
0.00192058160616
0.00240868644019
0.00311055997633
0.000537883059784
0.000799612206673
0.00082398958388
0.000833591874291
0.000838256184383
0.000841371621719
0.000844127047594
0.000846924223263
0.000850005862908
0.000853873511651
0.000858177417306
0.000862487819615
0.000868892402851
0.000889205203964
0.000960524379062
0.00116446788344
0.00152094823705
0.00193541010377
0.00243041997394
0.00311380952181
0.000536209184133
0.000797487141746
0.000821918639564
0.00083155047713
0.000836156081341
0.000838980594927
0.000841036372735
0.000842620783933
0.000844342429367
0.000848443083087
0.000853063630784
0.000856711708697
0.000864597428217
0.000895464429423
0.000987086227572
0.0012151152863
0.0015747864187
0.00199336223974
0.00249999697275
0.00314399245872
0.00053459288259
0.00079551582585
0.000819983656876
0.000829528887076
0.000833734264908
0.000835322545916
0.000834542384782
0.000831026870247
0.00082666531571
0.000831376718805
0.000837261993695
0.000841332157119
0.000854812702654
0.000905046194058
0.00102522053328
0.00127830988753
0.00165007669604
0.00209149096633
0.00255174658864
0.00332050901515
0.00053309871928
0.000793796405381
0.000818277279547
0.000827563401081
0.000830760050261
0.000828811547517
0.000817644432282
0.000793352283142
0.000572593202053
0.00057515426041
0.000586388747005
0.000605978367485
0.000835209030894
0.000903341541403
0.00104801150034
0.00135807844008
0.00179666549614
0.00225509211022
0.00269182206045
0.00326408668413
0.000531825197261
0.000792426939852
0.000816876287905
0.000825737164713
0.000827793427918
0.000823324778255
0.000806573692307
0.000562518835049
0.000530956353098
0.000791664591641
0.000816187428286
0.000824888734769
0.000826267217206
0.00081972068695
0.000797367995276
0.000543509274876
0.000530957588071
0.000791665321025
0.000816187843448
0.000824888954199
0.000826267332713
0.000819720518089
0.000797367416439
0.000543507772276
0.000531827125421
0.00079242869398
0.000816877453086
0.000825737748627
0.000827793516987
0.000823324210399
0.000806572746831
0.000562515252059
)
;

boundaryField
{
    back
    {
        type            nutkWallFunction;
        blending        stepwise;
        Cmu             0.09;
        kappa           0.41;
        E               9.8;
        value           nonuniform List<scalar> 
164
(
8.71608606696e-05
8.74043136039e-05
8.76710136645e-05
8.79620783867e-05
8.82934083832e-05
8.87708622534e-05
8.99278721108e-05
9.38617986913e-05
0.000106277443825
0.00013382627502
0.000171820416981
0.000266156092319
0.000344372571657
7.50244335754e-05
8.2764939928e-05
8.50332329451e-05
8.59085324867e-05
8.65826228556e-05
8.68172111372e-05
8.70619147859e-05
8.73286728554e-05
8.76211809203e-05
8.79389363859e-05
8.82880972108e-05
8.87477685731e-05
8.9790835769e-05
9.34981203622e-05
0.000106416737232
0.000137004538693
0.00017962500085
0.000281012779716
0.000352772656664
7.4820026795e-05
8.25603398198e-05
8.4835982825e-05
8.57244148302e-05
8.61487164262e-05
8.64289571096e-05
8.66805018583e-05
8.69431187945e-05
8.72302191536e-05
8.75511395848e-05
8.79016396182e-05
8.82762290045e-05
8.87504635798e-05
8.98601169702e-05
9.39194833567e-05
0.000108034613044
0.000140429083421
0.000184586739989
0.000288571855454
0.000355692011326
7.46078594304e-05
8.23535565046e-05
8.46360702426e-05
8.55342574746e-05
8.59678505147e-05
8.62547149404e-05
8.65072220317e-05
8.67636328076e-05
8.70451557672e-05
8.73912680432e-05
8.77760173561e-05
8.81610755725e-05
8.86525052941e-05
9.00023433461e-05
9.47881594903e-05
0.000110237455684
0.000142350864491
0.000184478187306
0.000288953303341
0.000356014424489
7.43953420429e-05
8.21529851776e-05
8.44412465901e-05
8.53427625352e-05
8.57724910393e-05
8.60363206867e-05
8.62306297029e-05
8.63836288705e-05
8.654457652e-05
8.690652279e-05
8.73268862749e-05
8.76673844124e-05
8.82066726412e-05
9.02217916635e-05
9.62049582245e-05
0.000112976127581
0.000144084064655
0.000183912297404
0.000288011820665
0.000355573412422
7.41914529329e-05
8.19684366352e-05
8.42605268548e-05
8.515500164e-05
8.55517843818e-05
8.57115236711e-05
8.56586589129e-05
8.53526022259e-05
8.49241458183e-05
8.53110255572e-05
8.58577778036e-05
8.62122408951e-05
8.70856765579e-05
9.06236237827e-05
9.89703984394e-05
0.0001182498961
0.00014882735482
0.000186138287719
0.000283629188007
0.000344873729098
7.40046267144e-05
8.18094351156e-05
8.41030005597e-05
8.49752006524e-05
8.52873259167e-05
8.51479182121e-05
8.41794552394e-05
8.19180427549e-05
7.9017843471e-05
7.92197972476e-05
8.04867345977e-05
8.2715888774e-05
8.48973678703e-05
8.99004039422e-05
9.9125737122e-05
0.000120440672736
0.000155178699184
0.000196782162971
0.000299275826353
0.000354008439298
7.38480010714e-05
8.16855948299e-05
8.39767538091e-05
8.48113423562e-05
8.50195232793e-05
8.46312763642e-05
8.30897855641e-05
7.77704406614e-05
7.3740726927e-05
8.16161443868e-05
8.39137958066e-05
8.47339366667e-05
8.48816085991e-05
8.430439446e-05
8.22319761828e-05
7.53895927973e-05
7.37408183846e-05
8.16161852002e-05
8.39138164144e-05
8.47339430097e-05
8.48816058142e-05
8.43043779652e-05
8.22319537934e-05
7.53895299742e-05
7.38481476407e-05
8.16856971286e-05
8.39768171425e-05
8.48113647622e-05
8.50195112748e-05
8.46312283793e-05
8.30897421557e-05
7.77702658988e-05
)
;
    }
    sides
    {
        type            nutkWallFunction;
        blending        stepwise;
        Cmu             0.09;
        kappa           0.41;
        E               9.8;
        value           nonuniform List<scalar> 0();
    }
    bottom
    {
        type            nutkWallFunction;
        blending        stepwise;
        Cmu             0.09;
        kappa           0.41;
        E               9.8;
        value           nonuniform List<scalar> 10(3.9909888166e-05 3.98008472039e-05 3.96876643313e-05 3.95742926652e-05 3.9465521973e-05 3.93658523008e-05 3.9282293048e-05 3.92250619962e-05 3.92251107894e-05 3.92823712427e-05);
    }
    front
    {
        type            nutkWallFunction;
        blending        stepwise;
        Cmu             0.09;
        kappa           0.41;
        E               9.8;
        value           nonuniform List<scalar> 
164
(
8.71608606696e-05
8.74043136039e-05
8.76710136645e-05
8.79620783867e-05
8.82934083832e-05
8.87708622534e-05
8.99278721108e-05
9.38617986913e-05
0.000106277443825
0.00013382627502
0.000171820416981
0.000266156092319
0.000344372571657
7.50244335754e-05
8.2764939928e-05
8.50332329451e-05
8.59085324867e-05
8.65826228556e-05
8.68172111372e-05
8.70619147859e-05
8.73286728554e-05
8.76211809203e-05
8.79389363859e-05
8.82880972108e-05
8.87477685731e-05
8.9790835769e-05
9.34981203622e-05
0.000106416737232
0.000137004538693
0.00017962500085
0.000281012779716
0.000352772656664
7.4820026795e-05
8.25603398198e-05
8.4835982825e-05
8.57244148302e-05
8.61487164262e-05
8.64289571096e-05
8.66805018583e-05
8.69431187945e-05
8.72302191536e-05
8.75511395848e-05
8.79016396182e-05
8.82762290045e-05
8.87504635798e-05
8.98601169702e-05
9.39194833567e-05
0.000108034613044
0.000140429083421
0.000184586739989
0.000288571855454
0.000355692011326
7.46078594304e-05
8.23535565046e-05
8.46360702426e-05
8.55342574746e-05
8.59678505147e-05
8.62547149404e-05
8.65072220317e-05
8.67636328076e-05
8.70451557672e-05
8.73912680432e-05
8.77760173561e-05
8.81610755725e-05
8.86525052941e-05
9.00023433461e-05
9.47881594903e-05
0.000110237455684
0.000142350864491
0.000184478187306
0.000288953303341
0.000356014424489
7.43953420429e-05
8.21529851776e-05
8.44412465901e-05
8.53427625352e-05
8.57724910393e-05
8.60363206867e-05
8.62306297029e-05
8.63836288705e-05
8.654457652e-05
8.690652279e-05
8.73268862749e-05
8.76673844124e-05
8.82066726412e-05
9.02217916635e-05
9.62049582245e-05
0.000112976127581
0.000144084064655
0.000183912297404
0.000288011820665
0.000355573412422
7.41914529329e-05
8.19684366352e-05
8.42605268548e-05
8.515500164e-05
8.55517843818e-05
8.57115236711e-05
8.56586589129e-05
8.53526022259e-05
8.49241458183e-05
8.53110255572e-05
8.58577778036e-05
8.62122408951e-05
8.70856765579e-05
9.06236237827e-05
9.89703984394e-05
0.0001182498961
0.00014882735482
0.000186138287719
0.000283629188007
0.000344873729098
7.40046267144e-05
8.18094351156e-05
8.41030005597e-05
8.49752006524e-05
8.52873259167e-05
8.51479182121e-05
8.41794552394e-05
8.19180427549e-05
7.9017843471e-05
7.92197972476e-05
8.04867345977e-05
8.2715888774e-05
8.48973678703e-05
8.99004039422e-05
9.9125737122e-05
0.000120440672736
0.000155178699184
0.000196782162971
0.000299275826353
0.000354008439298
7.38480010714e-05
8.16855948299e-05
8.39767538091e-05
8.48113423562e-05
8.50195232793e-05
8.46312763642e-05
8.30897855641e-05
7.77704406614e-05
7.3740726927e-05
8.16161443868e-05
8.39137958066e-05
8.47339366667e-05
8.48816085991e-05
8.430439446e-05
8.22319761828e-05
7.53895927973e-05
7.37408183846e-05
8.16161852002e-05
8.39138164144e-05
8.47339430097e-05
8.48816058142e-05
8.43043779652e-05
8.22319537934e-05
7.53895299742e-05
7.38481476407e-05
8.16856971286e-05
8.39768171425e-05
8.48113647622e-05
8.50195112748e-05
8.46312283793e-05
8.30897421557e-05
7.77702658988e-05
)
;
    }
    atmosphere
    {
        type            calculated;
        value           uniform 0.009;
    }
    floatingObject
    {
        type            nutkWallFunction;
        blending        stepwise;
        Cmu             0.09;
        kappa           0.41;
        E               9.8;
        value           nonuniform List<scalar> 8(4.20398013806e-05 4.21474963418e-05 4.28230706635e-05 4.40115693595e-05 4.13745656939e-05 4.01046779125e-05 4.01046444007e-05 4.13744724883e-05);
    }
    procBoundary3to4
    {
        type            processor;
        value           nonuniform List<scalar> 
13
(
0.00085209122296
0.000854552337473
0.00085725929559
0.00054263270862
0.000805995691182
0.000830181539106
0.000839403234062
0.000846334397058
0.000848707983764
0.000848707983764
0.000841974070727
0.000841974070727
0.000841974070727
)
;
    }
    procBoundary3to5
    {
        type            processor;
        value           nonuniform List<scalar> 10(0.000860270915687 0.000863971630642 0.000870360219181 0.000887678103632 0.000941517881131 0.00108368688265 0.00135355238608 0.00169915775526 0.00204750032325 0.00247646649243);
    }
    procBoundary3to6
    {
        type            processor;
        value           nonuniform List<scalar> 8(0.000612178667991 0.000918580315788 0.00111893045317 0.00149986358725 0.00196704174641 0.00241085389562 0.00280269385212 0.00325636725704);
    }
    procBoundary3to8
    {
        type            processor;
        value           nonuniform List<scalar> 8(0.000533101517829 0.000793799138722 0.000818279296698 0.00082756467244 0.000830760763602 0.000828812569683 0.000817645917786 0.000793354852771);
    }
}


// ************************************************************************* //
