/*--------------------------------*- C++ -*----------------------------------*\
| =========                 |                                                 |
| \\      /  F ield         | OpenFOAM: The Open Source CFD Toolbox           |
|  \\    /   O peration     | Version:  v2012                                 |
|   \\  /    A nd           | Website:  www.openfoam.com                      |
|    \\/     M anipulation  |                                                 |
\*---------------------------------------------------------------------------*/
FoamFile
{
    version     2.0;
    format      ascii;
    class       surfaceVectorField;
    location    "3.1";
    object      Uf;
}
// * * * * * * * * * * * * * * * * * * * * * * * * * * * * * * * * * * * * * //

dimensions      [0 1 -1 0 0 0 0];


internalField   nonuniform List<vector> 
305
(
(0.000810167850109 -0.00154620269773 7.69448511377e-22)
(0.00154622145603 -0.000833684166532 7.20075595905e-22)
(0.00100042371306 -0.00343586776517 6.87736953476e-22)
(0.00188968485977 -0.00266563146586 1.11536781623e-21)
(0.001039364628 -0.00544368236246 3.79643585425e-23)
(0.00200783171508 -0.00465097163491 4.62443418532e-22)
(0.00100316787041 -0.00743955461007 -6.19504967536e-22)
(0.00199588441544 -0.00664959246274 -3.78454726184e-22)
(0.000953295171732 -0.00937591127236 -8.73908817008e-22)
(0.00193636202966 -0.00863944327904 -9.30445129503e-22)
(0.000910108280638 -0.0112439619689 -7.13238638056e-22)
(0.0018680607047 -0.0105862924803 -9.62663540333e-22)
(0.000863837109899 -0.0130468753774 -1.69323308223e-22)
(0.00180292812695 -0.0124680990773 -6.6411530645e-22)
(0.00171763187575 -0.0142818374513 4.17803422033e-23)
(0.0026629130585 -0.00193035717647 1.06599490076e-21)
(0.00347659931149 -0.00103666972412 1.21931621554e-21)
(0.00292849932549 -0.00387662373782 8.90074281284e-22)
(0.00383597206445 -0.00299551466921 1.57690009216e-21)
(0.00300959955376 -0.00586917510201 4.60243338055e-23)
(0.00400040009197 -0.0050092567609 7.82454235704e-22)
(0.00297689798302 -0.00788412874387 -6.89394888151e-22)
(0.0040108484109 -0.00703542928016 -1.92765582055e-22)
(0.00290126264302 -0.00988119360611 -1.01919985283e-21)
(0.00393342878254 -0.00907808788296 -7.53383926715e-22)
(0.00281304363282 -0.0118480035004 -9.13540208726e-22)
(0.00383487540576 -0.0110993367801 -8.1569321181e-22)
(0.00270583880306 -0.0137537407784 -4.53011656023e-22)
(0.00370868121179 -0.0130786475739 -5.82242526855e-22)
(0.00355118581745 -0.0150035549302 -9.98553953128e-23)
(0.004686118426 -0.00208876735613 1.73022140695e-21)
(0.00556538825366 -0.00109708095909 1.48505487865e-21)
(0.00494222107736 -0.00412410864398 1.46928004659e-21)
(0.00587133438971 -0.00314751545564 1.86554653936e-21)
(0.0050397236559 -0.0061822374926 5.43664319843e-22)
(0.0060585450175 -0.00522342017453 1.12498206142e-21)
(0.00500885852972 -0.00825229431462 -2.5675462062e-22)
(0.00608091315333 -0.00730380589073 1.94057559003e-22)
(0.00491218527551 -0.010322788384 -5.49877285699e-22)
(0.00600392009136 -0.00940553101831 -3.17681620633e-22)
(0.00478021715736 -0.0123703753712 -4.84395529939e-22)
(0.00588246109991 -0.0114950719852 -3.73706917611e-22)
(0.00461414194545 -0.014368687402 -2.29086266144e-22)
(0.00570697597149 -0.0135539462017 -2.99218148894e-22)
(0.0054969804827 -0.0155754444901 -2.19793258513e-24)
(0.00677030071301 -0.00212675932719 1.62038001106e-21)
(0.00769216968574 -0.00109278140455 1.24529289812e-21)
(0.007009917908 -0.00423205760948 1.5212485542e-21)
(0.00797665350445 -0.00319850773662 1.72969569501e-21)
(0.00712253132034 -0.00634959823521 7.75375300578e-22)
(0.00817609995961 -0.00531957631463 1.21928793359e-21)
(0.00710061396138 -0.00847329577175 1.33130558991e-22)
(0.00820461459405 -0.00745812658981 4.3279848323e-22)
(0.00699483042072 -0.0106039393085 -1.41511252545e-22)
(0.00813455407225 -0.00961721029333 1.08564990264e-23)
(0.00683576428288 -0.0127095409072 -1.88529536566e-22)
(0.00798804597016 -0.0117666799829 -9.2029149942e-23)
(0.00662676205387 -0.0147973440974 -7.23298153348e-23)
(0.00779477428416 -0.0138927915647 -9.83361584035e-23)
(0.00636048185667 -0.0168366658512 5.39825997584e-23)
(0.00753627296039 -0.0159918002049 3.06853526252e-23)
(0.00719692702955 -0.0180542072132 4.62814542691e-23)
(0.00890609860371 -0.00212564393231 1.35460858207e-21)
(0.00981783619082 -0.00107754934766 9.4953196467e-22)
(0.00915437001131 -0.00427968916342 1.4277350744e-21)
(0.0101307191975 -0.00321619261353 1.47190695691e-21)
(0.00927648667103 -0.00645039495701 8.76711116237e-22)
(0.0103468179457 -0.00537435564187 1.14826992315e-21)
(0.00925771823942 -0.00862325259893 3.10524423266e-22)
(0.0103774716272 -0.00756340782525 4.79587496118e-22)
(0.00914642907233 -0.0107957777827 6.03386016293e-23)
(0.0103070625937 -0.0097729576532 1.24675501319e-22)
(0.00897260894643 -0.0129644423839 -1.8357717794e-24)
(0.01015668035 -0.0119764963467 1.91828527117e-23)
(0.0087407195563 -0.0151135884426 4.67900955653e-24)
(0.00994389245482 -0.0141639153331 -1.51863847336e-24)
(0.00843721430446 -0.0172345310458 2.29842071359e-23)
(0.00965721654425 -0.0163419879394 1.14884680955e-23)
(0.00803650136371 -0.0193427012338 1.03102523239e-23)
(0.0093051176177 -0.0185101643279 8.87370038922e-24)
(0.00884054886869 -0.0206523594382 5.29244877104e-24)
(0.0110558798057 -0.00213072912828 1.06683033951e-21)
(0.0119485885938 -0.00107288543299 7.40320801954e-22)
(0.0113366038838 -0.00429723574809 1.19244180565e-21)
(0.0122972461651 -0.00323415874893 1.28466049731e-21)
(0.0114712610919 -0.00650524686264 7.51146303026e-22)
(0.0125548393786 -0.00542990742645 9.41533562833e-22)
(0.0114572963896 -0.0087361140089 2.93738574172e-22)
(0.0126083339222 -0.00765780808278 3.97102798708e-22)
(0.0113464234468 -0.0109602265348 8.35197524018e-23)
(0.0125311527238 -0.00991007397893 1.17247404299e-22)
(0.0111680477977 -0.0131907745992 1.94999860177e-23)
(0.0123871896723 -0.0121656510398 2.67191494695e-23)
(0.0109230290397 -0.0154090624004 5.29082006566e-24)
(0.012162138191 -0.0144177908866 -1.55627548396e-24)
(0.0105961298935 -0.0176315291266 -2.62203865111e-24)
(0.0118796732465 -0.0166800132266 -6.5514015398e-24)
(0.0101764915433 -0.0198370087651 3.85589683635e-24)
(0.011510633561 -0.0189457675325 -1.60773425261e-23)
(0.0110413648289 -0.0212093155917 8.78900133451e-24)
(0.0132158329319 -0.00213602014551 9.58150959748e-22)
(0.0140846332809 -0.00107585404211 8.15352299413e-22)
(0.013542597269 -0.00434615586415 1.03375225449e-21)
(0.0145074029231 -0.00325853274614 1.26903381621e-21)
(0.0137056746607 -0.00658121561682 5.87490058514e-22)
(0.0147899085341 -0.00548638268411 9.27060315146e-22)
(0.0137058931234 -0.00884499184323 2.20611628835e-22)
(0.0148721022066 -0.00774686503676 3.92229293363e-22)
(0.0135990637408 -0.0111204961482 6.04468013667e-23)
(0.014806629558 -0.0100414933005 1.11719109326e-22)
(0.0134231350353 -0.013397122679 5.66288796781e-24)
(0.0146637726544 -0.0123465956946 2.64063128726e-23)
(0.0131790459461 -0.0156948959286 -1.33984970894e-23)
(0.0144598624722 -0.014662690917 -2.79212358252e-24)
(0.0128593395804 -0.0180050829293 -2.00067054148e-23)
(0.0141898442399 -0.0170012507189 -1.23392501688e-23)
(0.0124486152703 -0.0203122669621 -1.11442380279e-23)
(0.0138178457435 -0.0193615240769 -1.258464696e-23)
(0.0133836668294 -0.0217506772187 -2.54248951558e-24)
(0.015391450133 -0.00215791772781 1.12623515588e-21)
(0.0162425778181 -0.00108386848512 9.21789665941e-22)
(0.0157730777502 -0.00437850962275 1.16234187687e-21)
(0.0167280179489 -0.00328445281741 1.31246832596e-21)
(0.0159743007668 -0.00665107747961 7.31799549995e-22)
(0.0170624866997 -0.0055388636195 1.00591688619e-21)
(0.0159952430155 -0.00895061556022 2.83336773854e-22)
(0.0171716313162 -0.00782818360131 4.52288065211e-22)
(0.0159040776193 -0.0112733781132 7.76786208324e-23)
(0.0171293619086 -0.0101598435441 1.30251917499e-22)
(0.0157402704251 -0.0136010648542 1.79513013223e-23)
(0.0169914115396 -0.0125149495712 5.27296652558e-23)
(0.0155136200874 -0.0159645265773 -1.73287666193e-24)
(0.0168232721767 -0.0148885677714 8.51098470498e-24)
(0.0152198195635 -0.0183478391525 -4.91719171405e-24)
(0.0165731311235 -0.0172952890502 -3.25121214991e-24)
(0.0148384128948 -0.0207855380293 -3.98289844767e-24)
(0.0162555759249 -0.0197460050812 1.08232350322e-24)
(0.0158581630592 -0.0222479958566 -8.40833986529e-25)
(0.0175878137335 -0.00217292947628 1.10802283602e-21)
(0.0184155379271 -0.00109469259585 7.74279762663e-22)
(0.0180304753351 -0.00441211391602 1.15604333527e-21)
(0.0189672297173 -0.00330600450527 1.10957746086e-21)
(0.0182754084487 -0.00671071794767 7.26405401403e-22)
(0.0193611045567 -0.00558278760242 8.92854429318e-22)
(0.0183215664915 -0.0090420598017 2.99203208856e-22)
(0.0195029664257 -0.00789864153345 4.19457643807e-22)
(0.0182532164743 -0.0113967274736 1.05302961922e-22)
(0.0194839996399 -0.0102592749887 1.19464561091e-22)
(0.0181175679366 -0.013792149309 4.32893486384e-23)
(0.0193867853216 -0.0126555620291 4.56579881921e-23)
(0.01792388117 -0.0162028261388 6.99264921699e-24)
(0.0192338951815 -0.015081607295 8.47681058233e-24)
(0.0176696264439 -0.0186766229929 2.74830306737e-24)
(0.019046902838 -0.0175500299781 2.9926243648e-24)
(0.017340469492 -0.0211867227218 4.22438796436e-24)
(0.0187656956944 -0.0200783196444 1.13781628632e-23)
(0.0184503140784 -0.0226744402411 5.70788914949e-24)
(0.0198038195964 -0.00218463798626 7.75834387501e-22)
(0.0206002125746 -0.00110151523679 3.23881597275e-22)
(0.020309236588 -0.00445272963165 8.46388554905e-22)
(0.0212353556499 -0.0033215705639 7.53369577996e-22)
(0.020600629514 -0.00676494776651 5.85906671722e-22)
(0.0216733434123 -0.00561505695336 5.98764117172e-22)
(0.0206799299594 -0.00911832003445 2.39718996041e-22)
(0.0218563380864 -0.00795039494212 3.24921153259e-22)
(0.0206380430276 -0.0115067578933 5.98195873602e-23)
(0.0218724128083 -0.010336606446 8.67258285667e-23)
(0.020538902358 -0.0139325326536 1.0845450136e-23)
(0.021812515087 -0.0127605668222 7.73259694916e-24)
(0.020394021677 -0.0164094613469 4.47678573014e-24)
(0.0217107736845 -0.0152259028454 3.06512965691e-24)
(0.0201979520526 -0.0189280306407 1.16224841607e-23)
(0.0215654442328 -0.0177462511836 -1.24530058667e-25)
(0.0199429422275 -0.0215408230131 1.28616640483e-23)
(0.02137851787 -0.0203369192535 2.6839097496e-24)
(0.0211281524078 -0.0230126627145 -6.49012020989e-24)
(0.0220351453691 -0.0021972796663 3.01416787771e-22)
(0.0227975377207 -0.00110430432171 -2.30850802948e-23)
(0.0226034183518 -0.00446303890259 5.05745140264e-22)
(0.0235011594597 -0.00333031947688 5.93173663999e-22)
(0.0229433702321 -0.00679641427392 3.37778598709e-22)
(0.0240067502998 -0.00563327419647 4.67778403133e-22)
(0.0230626507871 -0.00917169012291 1.71927985784e-22)
(0.0242316242222 -0.00797642003758 2.8427731547e-22)
(0.0230582615422 -0.0115821043579 3.46388381557e-23)
(0.024282812461 -0.0103803157532 6.70230383489e-23)
(0.0230007083863 -0.0140369665509 -4.77235299656e-26)
(0.0242673425992 -0.0128250122687 2.34059187008e-24)
(0.0229103349094 -0.0165464452551 -1.5361861319e-24)
(0.0242202101001 -0.0153159926238 -7.03771105946e-24)
(0.0227853386534 -0.0191297010254 -9.06310446972e-24)
(0.024148684132 -0.0178712358514 -1.25222520957e-23)
(0.0226189744772 -0.0217781637169 -1.66678745086e-23)
(0.0240270073879 -0.0205061674726 -3.40197016935e-23)
(0.0239044959306 -0.0232383024819 -3.21925368195e-23)
(0.0242686047207 -0.00220520368969 2.68671795934e-22)
(0.0250027987711 -0.00110590942021 1.74267827603e-24)
(0.0249030721226 -0.00446817729506 5.55206926868e-22)
(0.025764191379 -0.00332812469519 5.89435370986e-22)
(0.0252976345669 -0.00680228947866 4.14277119894e-22)
(0.0263409090308 -0.00563120535721 5.9619890826e-22)
(0.0254599949026 -0.00918713639375 1.79372368035e-22)
(0.0266164973612 -0.00797399815124 3.03491120178e-22)
(0.0255003016386 -0.0116140321506 3.47247920632e-23)
(0.0267097104364 -0.0103836078092 5.3343325133e-23)
(0.0254940413764 -0.0140883006494 -4.64939565942e-24)
(0.0267415919882 -0.0128389266419 3.81741125631e-25)
(0.0254646054647 -0.0166199258925 -1.80237770232e-23)
(0.0267518095889 -0.0153451695993 -1.11104799043e-23)
(0.0254173095896 -0.0192262091669 -3.74788493195e-23)
(0.026754961198 -0.0179183434934 -2.03010086771e-23)
(0.025346578913 -0.0219348127423 -4.95443640043e-23)
(0.0267356616432 -0.0205788751084 -5.76041731045e-23)
(0.026713129756 -0.0233414329295 -4.06006836585e-23)
(0.0264954960588 -0.00218931470027 3.22506253328e-22)
(0.0271921854721 -0.00110119160409 -1.00660927453e-22)
(0.0272008259774 -0.00445638105381 6.30427352377e-22)
(0.0280313329195 -0.00331076728392 4.86293739505e-22)
(0.0276543557672 -0.00678710732461 4.85412908544e-22)
(0.0286717008037 -0.00560430137995 4.91955431221e-22)
(0.0278637951284 -0.00916989674573 1.77462077276e-22)
(0.0289993341521 -0.00793855493163 2.74117992276e-22)
(0.0279515702414 -0.0115979574801 1.90002741954e-23)
(0.0291377956192 -0.0103439612463 4.48220622852e-23)
(0.0280031121592 -0.0140785610759 -6.07934311926e-24)
(0.0292222000477 -0.0127963008041 -8.30488118453e-24)
(0.0280437679781 -0.0166260798991 -1.33877115581e-23)
(0.029299322845 -0.015304328821 -1.43052433848e-23)
(0.0280776512958 -0.0192416727003 -4.04263324622e-23)
(0.0293705711501 -0.0178834194022 -1.17357020885e-23)
(0.0281077639205 -0.0219643519701 -4.86604927587e-23)
(0.0294583968376 -0.0205487125402 -5.676073133e-23)
(0.0295443830321 -0.0233160157457 -3.81510118651e-23)
(0.0287156698598 -0.00217469655588 6.31265587243e-23)
(0.0293669704979 -0.00108822129714 -3.62210562032e-22)
(0.0294939400057 -0.00443809518784 3.47821818349e-22)
(0.0302948255726 -0.00327580449681 9.98042666932e-23)
(0.0300043466933 -0.00674937900905 2.80660514954e-22)
(0.0309830718241 -0.00555472035036 1.06527897915e-22)
(0.0302621292975 -0.00911316502224 1.41477977286e-22)
(0.0313631919665 -0.00786920070829 1.16904702807e-22)
(0.0304009368466 -0.0115310998949 1.75169069054e-23)
(0.0315557805743 -0.0102576244017 2.13676056285e-23)
(0.030512982642 -0.0140034563255 -1.65307814501e-23)
(0.031694582781 -0.0126933910767 -1.17389003762e-23)
(0.0306274807353 -0.0165446169625 -1.26532339152e-23)
(0.0318404965027 -0.0151879440975 -1.75512615336e-23)
(0.0307485701071 -0.0191684722656 -2.80701009563e-23)
(0.0319944652117 -0.0177590195778 -9.66320151771e-25)
(0.0308815471702 -0.021881393767 -4.62512504364e-23)
(0.0321714188364 -0.0204137223332 -3.07968590208e-23)
(0.032366697605 -0.0231660591872 -3.07853559162e-23)
(0.0309208565308 -0.00215517079051 -3.25532854063e-22)
(0.0315222464129 -0.00107074128984 -7.31317160374e-22)
(0.0317688997452 -0.00437322557751 -1.41489653741e-22)
(0.0325129930462 -0.0032255440611 -3.63934430331e-22)
(0.0323401901873 -0.006670915681 -5.7227914232e-23)
(0.033280870352 -0.00547814288832 -2.56693628793e-22)
(0.0326492624567 -0.00901083185385 -3.20566885021e-24)
(0.0337032019302 -0.00776315130077 -7.32373862242e-23)
(0.0328393130434 -0.011411473209 -7.88820165312e-24)
(0.0339564893875 -0.0101237131593 -3.08403543802e-23)
(0.0330110109645 -0.0138703965457 -1.27593804598e-23)
(0.0341535695417 -0.0125302762587 -1.14031910882e-23)
(0.0331971947088 -0.0163881514761 -5.86434777023e-24)
(0.0343583415792 -0.0149985497995 -8.91174863379e-24)
(0.0334059239631 -0.0189902582786 -3.69307821627e-24)
(0.0345966528112 -0.0175447121617 2.94208226182e-24)
(0.0336414490945 -0.0216850126197 -1.53309645006e-23)
(0.0348663145054 -0.0201729811047 -1.48547535283e-24)
(0.0351657647609 -0.0228947650127 -6.05753476943e-24)
(0.033093455089 -0.00211612638315 -7.69718736641e-22)
(0.0336385237341 -0.00105282127055 -9.9468364452e-22)
(0.0340088244362 -0.00429920553173 -4.79138405382e-22)
(0.0346962295448 -0.00316252089394 -5.37574265133e-22)
(0.0346433208145 -0.00655590237017 -2.72703100785e-22)
(0.0355376988111 -0.00537212939249 -3.48308876225e-22)
(0.0350069837528 -0.00887384754706 -1.00872071754e-22)
(0.0360212518979 -0.00761606728154 -1.24970750675e-22)
(0.035252476956 -0.0112319855636 -3.43553438153e-23)
(0.0363148053002 -0.00993806411971 -3.85362177891e-23)
(0.0354859267738 -0.0136496628558 -7.5555592622e-24)
(0.0365713973157 -0.0123057347663 -9.7644246494e-24)
(0.0357449719692 -0.016142318292 -1.05318601744e-25)
(0.0368510686543 -0.0147340297044 6.23620052519e-24)
(0.0360413115969 -0.0187133212141 5.14968512526e-24)
(0.036376996533 -0.0213770307157 7.7879543783e-24)
(0.0352207090015 -0.0020640039096 -7.62539173012e-22)
(0.0357027373827 -0.0010287598964 -7.44041635375e-22)
(0.0362049154025 -0.0042095370679 -4.06744735975e-22)
(0.0368419479202 -0.00308444478059 -2.925869308e-22)
(0.036898257748 -0.00641588764032 -2.00576526114e-22)
(0.0377442215621 -0.00524115552958 -1.59235130714e-22)
(0.0373165518854 -0.00867967806532 -6.26348967095e-23)
(0.0382853428302 -0.00742997548672 -5.76348653707e-23)
(0.0376215933985 -0.0109958226018 -1.39452986232e-23)
(0.0386311062731 -0.0096981368828 -3.12046065965e-23)
(0.0379222163658 -0.0133714258885 4.02733513799e-24)
(0.0372920046473 -0.00201779048256 -2.74089393164e-22)
(0.038346576315 -0.00409016876831 -4.50773255391e-23)
(0.0391013092906 -0.00624034118558 -1.62934699709e-23)
(0.0398947224843 -0.00508236312555 1.00791533046e-22)
(0.0395743834338 -0.0084446420947 -2.62045752577e-23)
(0.0404898264858 -0.00720502132588 7.92726882775e-23)
(0.0412458371168 -0.00602758906252 1.96357691294e-22)
)
;

boundaryField
{
    back
    {
        type            calculated;
        value           uniform (0 0 0);
    }
    sides
    {
        type            calculated;
        value           uniform (0 0 0);
    }
    bottom
    {
        type            calculated;
        value           uniform (0 0 0);
    }
    front
    {
        type            calculated;
        value           uniform (0 0 0);
    }
    atmosphere
    {
        type            calculated;
        value           nonuniform List<vector> 0();
    }
    floatingObject
    {
        type            calculated;
        value           nonuniform List<vector> 0();
    }
    procBoundary2to0
    {
        type            processor;
        value           nonuniform List<vector> 
14
(
(0.0371677828534 -0.0172392817867 5.06316780798e-24)
(0.0375301333246 -0.0198298373179 7.50263479155e-24)
(0.0379410440774 -0.0225124427873 9.24830794108e-24)
(0.038947154713 -0.012014486053 -1.05803189563e-23)
(0.0382579426501 -0.0158114127533 1.14046869349e-23)
(0.0392912065039 -0.0143930827311 8.10767050432e-24)
(0.0377207613594 -0.000993100814046 -2.15405678798e-22)
(0.0389145787712 -0.00298838112287 1.64494117635e-22)
(0.039935892825 -0.0107013133928 -2.78396269296e-23)
(0.0408880510405 -0.00940933710982 -1.54992426163e-23)
(0.0404290044854 -0.00394840392717 3.1036297622e-22)
(0.0419742702676 -0.00489404160117 1.73483671797e-22)
(0.0417721973139 -0.00816292201568 8.99780209188e-23)
(0.0426254469609 -0.00694227974746 1.45335497118e-22)
)
;
    }
    procBoundary2to1
    {
        type            processor;
        value           nonuniform List<vector> 
18
(
(0.000812325569465 -0.0147644844223 5.36514383184e-22)
(0.00256662487712 -0.0155873058517 -3.4984350445e-23)
(0.00439861521577 -0.0163144403243 3.41076401893e-23)
(0.00522031621532 -0.0175342870306 9.02881725328e-23)
(0.006009894761 -0.0188131688848 -6.73272427659e-24)
(0.00678061215735 -0.0200695404707 -4.27039262218e-23)
(0.0075148393916 -0.0214024962376 -8.6321733521e-24)
(0.00963923719647 -0.022037744759 -4.16819878226e-24)
(0.0119151343462 -0.0226544867387 -1.05639111635e-23)
(0.0143464984921 -0.0232599648548 -2.02675923514e-23)
(0.0169192714193 -0.0237788000333 -7.29989382015e-25)
(0.0196107530104 -0.0242185968757 -1.10154030004e-23)
(0.0223980342911 -0.0245544276 -2.56790355413e-23)
(0.0252465266871 -0.0247433666434 -2.95969177319e-23)
(0.0281343158947 -0.0247954985252 -3.81899111509e-23)
(0.0310314909579 -0.0247035745543 -3.12824175553e-23)
(0.0339096755233 -0.0244839473239 -1.56384827342e-23)
(0.036754548969 -0.0241521120629 9.57729418556e-24)
)
;
    }
}


// ************************************************************************* //
