/*--------------------------------*- C++ -*----------------------------------*\
| =========                 |                                                 |
| \\      /  F ield         | OpenFOAM: The Open Source CFD Toolbox           |
|  \\    /   O peration     | Version:  v2012                                 |
|   \\  /    A nd           | Website:  www.openfoam.com                      |
|    \\/     M anipulation  |                                                 |
\*---------------------------------------------------------------------------*/
FoamFile
{
    version     2.0;
    format      ascii;
    class       volScalarField;
    location    "2.5";
    object      k;
}
// * * * * * * * * * * * * * * * * * * * * * * * * * * * * * * * * * * * * * //

dimensions      [0 2 -2 0 0 0 0];


internalField   nonuniform List<scalar> 
166
(
0.00454546791717
0.00563250224208
0.00596133572118
0.00606946857461
0.00610553962011
0.00612120378523
0.0061326278972
0.00614430060584
0.00615739546557
0.00617255317814
0.00619145833614
0.00621984957704
0.00627583006338
0.00641054195447
0.00675784885071
0.00764633350886
0.00978337516532
0.0147673290091
0.02941525948
0.0720695674603
0.00454121006401
0.00562572635181
0.00595434803563
0.00606248712258
0.00609851579196
0.00611405340254
0.00612528300425
0.00613671580631
0.00614954259332
0.0061644662395
0.00618331729485
0.00621229091004
0.00627038341379
0.00640971432329
0.00676236311931
0.00764815725237
0.00976136389943
0.014618502613
0.0284888961985
0.0730615259091
0.00453586950098
0.00561782029684
0.005946283627
0.00605451267394
0.00609056999512
0.00610604787573
0.00611715258785
0.00612840758597
0.00614105121015
0.00615583313149
0.00617473176664
0.00620438127948
0.00626468505699
0.00640856207851
0.00676584847182
0.00764569772509
0.00972530636902
0.0144258447326
0.0273058491363
0.0726330342985
0.00452950370946
0.00560892569774
0.00593725566046
0.00604562831367
0.00608176566327
0.00609723687759
0.00610827827188
0.00611943404285
0.00613197474194
0.0061466894904
0.00616572598138
0.00619613981332
0.00625868943453
0.00640694905672
0.00676781341718
0.00763714671524
0.0096685414236
0.0142281812514
0.0264666467804
0.0711753801179
0.00452213725445
0.00559907701242
0.00592730882194
0.00603587255877
0.0060721410264
0.00608765471673
0.00609868834162
0.00610982150624
0.00612233636951
0.00613707039441
0.00615632716588
0.0061875770321
0.00625238739817
0.00640501404922
0.00676902979617
0.00762396980455
0.00959003643402
0.0139507238683
0.0248779339656
0.0653296263941
0.00451382100634
0.00558834723469
0.00591648875391
0.00602527698221
0.00606173122494
0.00607734908903
0.00608843357598
0.00609960198352
0.00611215667819
0.006126995139
0.00614656049518
0.00617872338764
0.00624587944971
0.00640308702013
0.00677060272212
0.00760804581419
0.00948691620409
0.0136082631879
0.0241599578792
0.068038947267
0.004504651556
0.00557679723665
0.00590487904453
0.0060139118343
0.00605058570559
0.00606635336023
0.00607754721317
0.00608881713475
0.00610148760702
0.00611650861355
0.00613646509878
0.00616961396675
0.00623922144063
0.00640134851032
0.00677308773494
0.00758896108136
0.00934429764975
0.0131169686035
0.0232550078078
0.0716062074398
0.00449468312256
0.00556453718068
0.00589248020854
0.00600179525019
0.00603872691088
0.00605469508661
0.0060660627091
0.00607750304951
0.00609036191767
0.00610563931198
0.00612605887026
0.00616025177006
0.00623231839997
0.00639930396484
0.00677464879479
0.00755977131504
0.00913036239931
0.012378554982
0.0219621082541
0.0625141361641
0.00448390199398
0.00555142321035
0.00587927838075
0.0044724106832
0.00446027162355
0.0044474407634
)
;

boundaryField
{
    back
    {
        type            kqRWallFunction;
        value           nonuniform List<scalar> 
166
(
0.00454546791717
0.00563250224208
0.00596133572118
0.00606946857461
0.00610553962011
0.00612120378523
0.0061326278972
0.00614430060584
0.00615739546557
0.00617255317814
0.00619145833614
0.00621984957704
0.00627583006338
0.00641054195447
0.00675784885071
0.00764633350886
0.00978337516532
0.0147673290091
0.02941525948
0.0720695674603
0.00454121006401
0.00562572635181
0.00595434803563
0.00606248712258
0.00609851579196
0.00611405340254
0.00612528300425
0.00613671580631
0.00614954259332
0.0061644662395
0.00618331729485
0.00621229091004
0.00627038341379
0.00640971432329
0.00676236311931
0.00764815725237
0.00976136389943
0.014618502613
0.0284888961985
0.0730615259091
0.00453586950098
0.00561782029684
0.005946283627
0.00605451267394
0.00609056999512
0.00610604787573
0.00611715258785
0.00612840758597
0.00614105121015
0.00615583313149
0.00617473176664
0.00620438127948
0.00626468505699
0.00640856207851
0.00676584847182
0.00764569772509
0.00972530636902
0.0144258447326
0.0273058491363
0.0726330342985
0.00452950370946
0.00560892569774
0.00593725566046
0.00604562831367
0.00608176566327
0.00609723687759
0.00610827827188
0.00611943404285
0.00613197474194
0.0061466894904
0.00616572598138
0.00619613981332
0.00625868943453
0.00640694905672
0.00676781341718
0.00763714671524
0.0096685414236
0.0142281812514
0.0264666467804
0.0711753801179
0.00452213725445
0.00559907701242
0.00592730882194
0.00603587255877
0.0060721410264
0.00608765471673
0.00609868834162
0.00610982150624
0.00612233636951
0.00613707039441
0.00615632716588
0.0061875770321
0.00625238739817
0.00640501404922
0.00676902979617
0.00762396980455
0.00959003643402
0.0139507238683
0.0248779339656
0.0653296263941
0.00451382100634
0.00558834723469
0.00591648875391
0.00602527698221
0.00606173122494
0.00607734908903
0.00608843357598
0.00609960198352
0.00611215667819
0.006126995139
0.00614656049518
0.00617872338764
0.00624587944971
0.00640308702013
0.00677060272212
0.00760804581419
0.00948691620409
0.0136082631879
0.0241599578792
0.068038947267
0.004504651556
0.00557679723665
0.00590487904453
0.0060139118343
0.00605058570559
0.00606635336023
0.00607754721317
0.00608881713475
0.00610148760702
0.00611650861355
0.00613646509878
0.00616961396675
0.00623922144063
0.00640134851032
0.00677308773494
0.00758896108136
0.00934429764975
0.0131169686035
0.0232550078078
0.0716062074398
0.00449468312256
0.00556453718068
0.00589248020854
0.00600179525019
0.00603872691088
0.00605469508661
0.0060660627091
0.00607750304951
0.00609036191767
0.00610563931198
0.00612605887026
0.00616025177006
0.00623231839997
0.00639930396484
0.00677464879479
0.00755977131504
0.00913036239931
0.012378554982
0.0219621082541
0.0625141361641
0.00448390199398
0.00555142321035
0.00587927838075
0.0044724106832
0.00446027162355
0.0044474407634
)
;
    }
    sides
    {
        type            kqRWallFunction;
        value           nonuniform List<scalar> 0();
    }
    bottom
    {
        type            kqRWallFunction;
        value           nonuniform List<scalar> 
12
(
0.00454546791717
0.00454121006401
0.00453586950098
0.00452950370946
0.00452213725445
0.00451382100634
0.004504651556
0.00449468312256
0.00448390199398
0.0044724106832
0.00446027162355
0.0044474407634
)
;
    }
    front
    {
        type            kqRWallFunction;
        value           nonuniform List<scalar> 
166
(
0.00454546791717
0.00563250224208
0.00596133572118
0.00606946857461
0.00610553962011
0.00612120378523
0.0061326278972
0.00614430060584
0.00615739546557
0.00617255317814
0.00619145833614
0.00621984957704
0.00627583006338
0.00641054195447
0.00675784885071
0.00764633350886
0.00978337516532
0.0147673290091
0.02941525948
0.0720695674603
0.00454121006401
0.00562572635181
0.00595434803563
0.00606248712258
0.00609851579196
0.00611405340254
0.00612528300425
0.00613671580631
0.00614954259332
0.0061644662395
0.00618331729485
0.00621229091004
0.00627038341379
0.00640971432329
0.00676236311931
0.00764815725237
0.00976136389943
0.014618502613
0.0284888961985
0.0730615259091
0.00453586950098
0.00561782029684
0.005946283627
0.00605451267394
0.00609056999512
0.00610604787573
0.00611715258785
0.00612840758597
0.00614105121015
0.00615583313149
0.00617473176664
0.00620438127948
0.00626468505699
0.00640856207851
0.00676584847182
0.00764569772509
0.00972530636902
0.0144258447326
0.0273058491363
0.0726330342985
0.00452950370946
0.00560892569774
0.00593725566046
0.00604562831367
0.00608176566327
0.00609723687759
0.00610827827188
0.00611943404285
0.00613197474194
0.0061466894904
0.00616572598138
0.00619613981332
0.00625868943453
0.00640694905672
0.00676781341718
0.00763714671524
0.0096685414236
0.0142281812514
0.0264666467804
0.0711753801179
0.00452213725445
0.00559907701242
0.00592730882194
0.00603587255877
0.0060721410264
0.00608765471673
0.00609868834162
0.00610982150624
0.00612233636951
0.00613707039441
0.00615632716588
0.0061875770321
0.00625238739817
0.00640501404922
0.00676902979617
0.00762396980455
0.00959003643402
0.0139507238683
0.0248779339656
0.0653296263941
0.00451382100634
0.00558834723469
0.00591648875391
0.00602527698221
0.00606173122494
0.00607734908903
0.00608843357598
0.00609960198352
0.00611215667819
0.006126995139
0.00614656049518
0.00617872338764
0.00624587944971
0.00640308702013
0.00677060272212
0.00760804581419
0.00948691620409
0.0136082631879
0.0241599578792
0.068038947267
0.004504651556
0.00557679723665
0.00590487904453
0.0060139118343
0.00605058570559
0.00606635336023
0.00607754721317
0.00608881713475
0.00610148760702
0.00611650861355
0.00613646509878
0.00616961396675
0.00623922144063
0.00640134851032
0.00677308773494
0.00758896108136
0.00934429764975
0.0131169686035
0.0232550078078
0.0716062074398
0.00449468312256
0.00556453718068
0.00589248020854
0.00600179525019
0.00603872691088
0.00605469508661
0.0060660627091
0.00607750304951
0.00609036191767
0.00610563931198
0.00612605887026
0.00616025177006
0.00623231839997
0.00639930396484
0.00677464879479
0.00755977131504
0.00913036239931
0.012378554982
0.0219621082541
0.0625141361641
0.00448390199398
0.00555142321035
0.00587927838075
0.0044724106832
0.00446027162355
0.0044474407634
)
;
    }
    atmosphere
    {
        type            inletOutlet;
        inletValue      uniform 0.1;
        value           nonuniform List<scalar> 8(0.1 0.1 0.1 0.1 0.1 0.1 0.1 0.0625141361641);
    }
    floatingObject
    {
        type            kqRWallFunction;
        value           nonuniform List<scalar> 0();
    }
    procBoundary9to6
    {
        type            processor;
        value           nonuniform List<scalar> 4(0.00980173941823 0.0145636301032 0.0271072917095 0.0531995839415);
    }
    procBoundary9to7
    {
        type            processor;
        value           nonuniform List<scalar> 
16
(
0.00454866606412
0.00563801033249
0.00596711726976
0.00607534680159
0.00611155015957
0.00612742023612
0.00613911942753
0.00615112168747
0.00616458620686
0.00618010983668
0.00619919922611
0.00622718350179
0.00628127965532
0.00641168212894
0.00675432917956
0.00764902891299
)
;
    }
    procBoundary9to10
    {
        type            processor;
        value           nonuniform List<scalar> 
15
(
0.00598892064618
0.0060261762715
0.00604240557464
0.00605400595844
0.00606567458969
0.00607878602121
0.00609439173816
0.00611533596351
0.00553753314707
0.00598892064618
0.00586532163556
0.00553753314707
0.00552297358597
0.00550774553625
0.00443394973499
)
;
    }
    procBoundary9to11
    {
        type            processor;
        value           nonuniform List<scalar> 9(0.00615057222334 0.00622485117151 0.00639560618204 0.00677166582953 0.00752097706148 0.00890076790799 0.0116370579303 0.0209689619772 0.0649195056199);
    }
}


// ************************************************************************* //
