/*--------------------------------*- C++ -*----------------------------------*\
| =========                 |                                                 |
| \\      /  F ield         | OpenFOAM: The Open Source CFD Toolbox           |
|  \\    /   O peration     | Version:  v2012                                 |
|   \\  /    A nd           | Website:  www.openfoam.com                      |
|    \\/     M anipulation  |                                                 |
\*---------------------------------------------------------------------------*/
FoamFile
{
    version     2.0;
    format      ascii;
    class       volVectorField;
    location    "2.7";
    object      ddtCorrDdt0(U);
}
// * * * * * * * * * * * * * * * * * * * * * * * * * * * * * * * * * * * * * //

dimensions      [0 1 -2 0 0 0 0];


internalField   nonuniform List<vector> 
166
(
(-0.174082654696 -0.00210170413104 2.03499552318e-22)
(-0.174117975929 -0.00694143016976 -1.09928796959e-22)
(-0.175056308924 -0.0114071382122 9.62887066929e-23)
(-0.176996118502 -0.0160438566516 -7.79958475308e-23)
(-0.179514440353 -0.0206923613981 6.1210682104e-23)
(-0.182602258106 -0.0253723953026 1.43449575535e-23)
(-0.186310452799 -0.030037131906 1.05726490608e-23)
(-0.190685801774 -0.0346179892558 7.15962402968e-24)
(-0.195756123909 -0.0390247941746 1.78660946943e-23)
(-0.201559832481 -0.0431232210645 1.91884729538e-23)
(-0.208167247993 -0.0467543447887 -1.88963216619e-23)
(-0.215599605228 -0.0497639326661 4.9578159305e-23)
(-0.223859919628 -0.0520292140243 -1.06204250712e-22)
(-0.23288803107 -0.0534802040339 -6.07311227268e-22)
(-0.242353888372 -0.0542719439504 -1.26595383487e-21)
(-0.251576275604 -0.0541134950574 -1.09280925306e-21)
(-0.258895997094 -0.0451248329403 -8.75375915766e-23)
(-0.238641794137 -0.0242295926119 4.83105353033e-21)
(-0.0480300451777 -0.0560837138766 6.8445775859e-20)
(-0.398725558357 0.0810141194652 1.33239713756e-19)
(-0.169238315348 -0.00242315492242 3.51673667986e-22)
(-0.169308897699 -0.00783846819302 -6.15691944697e-23)
(-0.170216098418 -0.0128931625881 -2.91882585736e-24)
(-0.17212181779 -0.0181524982624 3.09150224785e-24)
(-0.174604873939 -0.0234260255567 1.10089272392e-23)
(-0.177670109772 -0.0287505220558 3.35191485912e-23)
(-0.181379037051 -0.0340892729205 4.56021672931e-24)
(-0.185797808474 -0.0393757079505 8.017283806e-25)
(-0.19097057445 -0.0445290396906 4.41829479862e-23)
(-0.1969779911 -0.0494484747132 6.39195225791e-23)
(-0.20391634624 -0.0539654668953 -1.81343414519e-23)
(-0.211892188918 -0.0578822821465 1.31737732291e-22)
(-0.220940842466 -0.0610090038542 -6.10224113047e-24)
(-0.231148781828 -0.0630539450713 1.64928657284e-22)
(-0.242624720324 -0.0638563549501 5.5852961383e-22)
(-0.253818777074 -0.0632771931122 -1.58470170908e-22)
(-0.263351295532 -0.0518397634371 -8.01113938972e-23)
(-0.258831259095 -0.0322935697205 1.07625745174e-20)
(-0.0829121893366 -0.025756273353 -2.80063732007e-21)
(-0.150249122885 0.119565693743 5.38850738439e-20)
(-0.163781076641 -0.00273786908983 3.2449098701e-22)
(-0.163875920145 -0.00871562329995 -1.90953550327e-22)
(-0.164751629638 -0.0143507076292 -5.08428167874e-23)
(-0.166601369006 -0.0202206994834 1.59193977365e-23)
(-0.169025093358 -0.0261205425253 1.37276925112e-23)
(-0.172038446337 -0.0321054956682 -1.53509343271e-23)
(-0.175719563509 -0.0381537259445 -1.46918780012e-24)
(-0.180139289842 -0.0442065747479 7.15878708541e-25)
(-0.185386367172 -0.0502027127858 1.63921676712e-23)
(-0.191570278976 -0.0560651248589 -8.89773642817e-24)
(-0.198820995873 -0.0616645869447 -5.74395199624e-26)
(-0.207389812236 -0.0667844959441 5.13775048697e-24)
(-0.217537815357 -0.0712564624444 -4.62096510053e-23)
(-0.229253014818 -0.074969693394 1.1520306657e-22)
(-0.242516417781 -0.0763778280273 1.4405928663e-21)
(-0.256552921286 -0.0750743997699 1.98871119523e-21)
(-0.270761624874 -0.0639743321702 1.15874900194e-20)
(-0.282023722029 -0.0459457194851 -1.27584457773e-21)
(-0.18087098981 -0.0403051945254 -3.20458976997e-20)
(-0.471302437975 0.131589566609 -8.229361118e-20)
(-0.157747696708 -0.00304203020101 1.62026243092e-22)
(-0.157860370643 -0.00955975105999 -1.15689013114e-22)
(-0.158692731727 -0.0157576000943 -2.15192567588e-23)
(-0.160463724636 -0.0222262660255 5.21945088606e-23)
(-0.162790787091 -0.0287505603388 6.43610618573e-25)
(-0.165706053438 -0.0354071339218 4.70903726626e-24)
(-0.169302547076 -0.042178953687 5.42321960606e-24)
(-0.17366006005 -0.0490379543288 1.50057845919e-23)
(-0.178900016956 -0.0559580253451 -3.10540657638e-23)
(-0.185126599972 -0.0628806485791 -1.32691332334e-23)
(-0.192523906265 -0.0697843024079 1.01040557234e-23)
(-0.201805110733 -0.0766071829733 -1.24101472485e-22)
(-0.212574429963 -0.0828687508813 -1.05510007044e-22)
(-0.225195663633 -0.0878483454253 -6.51881029789e-23)
(-0.240116826818 -0.0907654155429 -9.34804466389e-22)
(-0.257894282013 -0.0920897960868 1.84455818186e-21)
(-0.279370779175 -0.0855179079072 1.64376364233e-20)
(-0.30496559849 -0.0696272561199 8.08189409423e-22)
(-0.303228521777 -0.0658419284342 -7.53847587594e-20)
(-0.334509710752 0.114990410609 -8.53319373859e-20)
(-0.151163895635 -0.00333428692237 5.7700882287e-22)
(-0.151288477865 -0.010363556652 -5.4363551743e-22)
(-0.152053819243 -0.0170968258989 1.82796511635e-22)
(-0.153716388704 -0.0241296530047 5.03699727123e-23)
(-0.155905731846 -0.0312567459371 -2.68732460983e-25)
(-0.158664244916 -0.0385825389352 -3.199811016e-23)
(-0.16209643873 -0.0460977645627 -3.00987091421e-23)
(-0.16631556917 -0.0538013916228 3.0428034798e-23)
(-0.171445627003 -0.0616674294998 -3.48324261162e-23)
(-0.17760923569 -0.0696863190934 -4.83628871021e-23)
(-0.185508269829 -0.0783398338249 1.45997299649e-22)
(-0.194419296768 -0.0868395233197 -4.26692343722e-23)
(-0.205183455863 -0.0946698200632 -1.92596980232e-22)
(-0.218423657054 -0.102344315193 -6.41433636735e-22)
(-0.235435805217 -0.108856744035 -1.33128011733e-21)
(-0.257075214362 -0.115017902113 4.90223818713e-22)
(-0.285031409931 -0.119066461398 5.56745670797e-20)
(-0.327402187706 -0.103876731529 1.55718170611e-20)
(-0.43533311885 -0.105905536706 1.32784589111e-20)
(-0.389814979466 0.106950907802 2.17610598635e-20)
(-0.144062592396 -0.00360967094425 5.02466089959e-22)
(-0.144188930302 -0.0111032670428 1.05693041365e-22)
(-0.144860086254 -0.0183299092317 2.82922360687e-22)
(-0.146376206042 -0.0258990543488 2.76356030075e-23)
(-0.148390449134 -0.0335992233772 1.69798993772e-23)
(-0.150931030386 -0.0415663486137 -1.82241440634e-23)
(-0.154102055261 -0.0498222099984 -5.83266029363e-24)
(-0.158077695248 -0.0583844403748 2.02812849099e-24)
(-0.16300152659 -0.0672491394963 -1.54921281906e-24)
(-0.16916266583 -0.0769406677084 -1.16196678112e-22)
(-0.176363190307 -0.0865924526984 2.76544604366e-23)
(-0.184693917256 -0.0962888833975 -3.69497161263e-23)
(-0.195348455011 -0.106925347611 1.48522779861e-22)
(-0.208817502404 -0.117997959299 -2.38596458036e-22)
(-0.226265317003 -0.129308123112 1.5238467302e-22)
(-0.249386065584 -0.143093272785 -4.92744189164e-22)
(-0.281142428019 -0.166764898494 -2.30636211265e-21)
(-0.340683593157 -0.153585861014 4.23788649976e-21)
(-0.545306278381 -0.184122463075 -1.6317319448e-20)
(-0.415376015119 -0.0142038759214 -3.74010510561e-20)
(-0.136505540389 -0.00387002243681 1.95897200744e-22)
(-0.136612130364 -0.0117683988931 -6.64778424881e-23)
(-0.137172372581 -0.0194334906551 -2.2039612536e-23)
(-0.138506180486 -0.0274961929481 -3.01484026305e-23)
(-0.140290559455 -0.0357230440467 3.19821828442e-23)
(-0.142546774586 -0.0442681833491 -3.508222937e-23)
(-0.145316854055 -0.0532391991679 -2.87390169756e-24)
(-0.148996091282 -0.0626993189791 8.54982195135e-23)
(-0.153425336543 -0.0727497614955 2.74422576727e-23)
(-0.158826731209 -0.0830458202477 3.66856916791e-25)
(-0.164930103014 -0.0938729684053 4.21562927726e-23)
(-0.173024646381 -0.105839126432 -1.57021855674e-22)
(-0.183008967347 -0.118868953346 -1.00053820638e-23)
(-0.195494041778 -0.133277101211 -1.34893829727e-22)
(-0.211441137066 -0.14956696317 4.13250091149e-22)
(-0.232275715902 -0.171362876532 -6.79243705142e-22)
(-0.259499722197 -0.226069164371 -4.69457990968e-21)
(-0.323477243935 -0.223641252041 -6.66074738485e-21)
(-0.559396325158 -0.311724026194 -2.54214921999e-20)
(-0.451353627531 -0.308087337339 -3.08719179278e-20)
(-0.128528609855 -0.00408698243898 3.15639915531e-22)
(-0.128600521936 -0.0123342593684 -7.24435516234e-22)
(-0.129035722835 -0.0203780614348 -8.23658279581e-23)
(-0.130153678538 -0.0288650575155 2.32811469359e-23)
(-0.131672181752 -0.0375577350761 -2.87364415054e-23)
(-0.13364777019 -0.0465697247638 -1.36650938483e-23)
(-0.136216695129 -0.0562674364418 -6.50989885836e-23)
(-0.139094175898 -0.0664924501037 -3.93206010504e-23)
(-0.142677843087 -0.0770800330934 -7.58663696495e-23)
(-0.146987399412 -0.0884452097035 -2.82025007918e-23)
(-0.152639956357 -0.100793695138 1.61033155125e-23)
(-0.15961267144 -0.114386602082 -3.00825324844e-22)
(-0.168228966498 -0.129484080158 -4.48636109807e-23)
(-0.17880759383 -0.146565223467 -8.59480790313e-22)
(-0.191817770186 -0.166322943122 -1.60093079169e-21)
(-0.207693011486 -0.192086724931 -3.51744814648e-21)
(-0.224778109738 -0.274480128112 3.8432637085e-20)
(-0.282775015812 -0.282467912719 2.12147700035e-22)
(-0.523722539049 -0.383833365512 -2.78415886352e-20)
(-0.514868759746 -0.378197527445 -1.5651065483e-20)
(-0.120178369435 -0.00427151694393 3.48412607927e-22)
(-0.120228788618 -0.012792280262 -3.57144174224e-22)
(-0.120500897503 -0.0211405106717 -5.10764045914e-23)
(-0.111566358576 -0.00443033348697 2.82243047255e-22)
(-0.102801502103 -0.00453927736973 9.51361300232e-24)
(-0.0939570675865 -0.00462302285095 5.05526508405e-22)
)
;

boundaryField
{
    back
    {
        type            calculated;
        value           uniform (0 0 0);
    }
    sides
    {
        type            calculated;
        value           nonuniform List<vector> 0();
    }
    bottom
    {
        type            calculated;
        value           uniform (0 0 0);
    }
    front
    {
        type            calculated;
        value           uniform (0 0 0);
    }
    atmosphere
    {
        type            calculated;
        value           nonuniform List<vector> 8((-1.31027648508 0.0810141194652 8.60369045802e-20) (-0.854069184215 0.119565693743 -1.36387880452e-20) (0.941494452521 0.131589566609 1.81318097229e-19) (0.000546126441452 0.114990410609 4.09961433013e-23) (0.0169232548158 0.106950907802 3.70150453436e-21) (-0.0478302449483 -0.0142038759214 7.03035902711e-21) (0.373909154272 -0.308087337339 -6.34859481937e-20) (-0.627273307458 -0.378197527445 1.04191491125e-19));
    }
    floatingObject
    {
        type            calculated;
        value           nonuniform List<vector> 0();
    }
    procBoundary9to6
    {
        type            processor;
        value           nonuniform List<vector> 4((-0.260682177604 -0.0425644221392 -1.60962385571e-20) (-0.236096867098 -0.0194043217263 6.84609788543e-21) (-0.0639886700131 -0.0629143070995 1.30860787499e-18) (0.241575963041 -0.116612528795 8.71336224733e-19));
    }
    procBoundary9to7
    {
        type            processor;
        value           nonuniform List<vector> 
16
(
(-0.178315669886 -0.00178831463076 1.71626491025e-22)
(-0.178310676863 -0.0060251571752 -1.2321189272e-22)
(-0.17927692099 -0.00989347094859 1.41578129381e-22)
(-0.181243936702 -0.0139153170788 9.82465923513e-23)
(-0.183785356463 -0.0179450182651 5.6045799589e-23)
(-0.186880641204 -0.0219970790976 1.96123405111e-23)
(-0.190569256205 -0.0260169457021 1.60410833761e-23)
(-0.194879111437 -0.0299317564481 -2.3072425887e-23)
(-0.199816792442 -0.0336566267792 2.92553393894e-23)
(-0.20540276188 -0.0370382160346 1.07181196283e-22)
(-0.21165745929 -0.0399299190377 -5.62170226105e-23)
(-0.218599828462 -0.0421998590651 7.21251012714e-23)
(-0.226259533926 -0.0437723480232 -2.44302880515e-22)
(-0.234662810444 -0.0447477345755 -9.49097505617e-23)
(-0.243729419282 -0.0458071064806 -1.14192591042e-21)
(-0.252977676577 -0.0470486492465 -1.46936831098e-21)
)
;
    }
    procBoundary9to10
    {
        type            processor;
        value           nonuniform List<vector> 
15
(
(-0.121359606799 -0.0299918803866 -4.28636221338e-23)
(-0.122654357184 -0.0391406955586 1.62618741229e-23)
(-0.124203181081 -0.0487925014301 8.1618430054e-24)
(-0.126164805825 -0.0586832959236 2.70995651653e-25)
(-0.128304740469 -0.0691619890143 -1.66226024039e-23)
(-0.131082642212 -0.0806439693514 -7.83150917523e-23)
(-0.1346149985 -0.0930086669815 4.04368276795e-24)
(-0.139080410821 -0.106501647352 9.44820086915e-24)
(-0.111577390706 -0.0131328028472 -6.31623308368e-22)
(-0.121359606799 -0.0299918803866 -4.28636221338e-23)
(-0.11170127865 -0.0216681070858 1.57453209647e-22)
(-0.111577390706 -0.0131328028472 -6.31623308368e-22)
(-0.102766512329 -0.0133674472359 1.08914534807e-22)
(-0.0938816978132 -0.0135356879847 -4.64741189241e-23)
(-0.0850878186386 -0.00466451203 -1.80285804599e-22)
)
;
    }
    procBoundary9to11
    {
        type            processor;
        value           nonuniform List<vector> 9((-0.144621007149 -0.121445824859 -9.51417222388e-24) (-0.151451723245 -0.138150598035 2.62042763902e-22) (-0.15975772891 -0.157022623641 -4.99957991934e-22) (-0.169628251758 -0.178585257988 2.12768012472e-22) (-0.180819785318 -0.205100040268 9.07645331679e-22) (-0.191254903135 -0.316485541969 3.07454145217e-20) (-0.218983822796 -0.349635595025 -1.79662162325e-21) (-0.4342915192 -0.499490003373 -7.86170630783e-20) (-0.617856381984 -0.354569809395 -7.97315671524e-20));
    }
}


// ************************************************************************* //
