/*--------------------------------*- C++ -*----------------------------------*\
| =========                 |                                                 |
| \\      /  F ield         | OpenFOAM: The Open Source CFD Toolbox           |
|  \\    /   O peration     | Version:  v2012                                 |
|   \\  /    A nd           | Website:  www.openfoam.com                      |
|    \\/     M anipulation  |                                                 |
\*---------------------------------------------------------------------------*/
FoamFile
{
    version     2.0;
    format      ascii;
    class       surfaceVectorField;
    location    "2.7";
    object      Uf_0;
}
// * * * * * * * * * * * * * * * * * * * * * * * * * * * * * * * * * * * * * //

dimensions      [0 1 -1 0 0 0 0];


internalField   nonuniform List<vector> 
300
(
(0.0057586484234 0.001077833657 -3.90661954166e-22)
(0.00590637131861 0.000576243454595 -6.20387500771e-22)
(0.00442792467482 0.00211995516263 -2.02897919683e-22)
(0.0045176847888 0.00162087598296 -2.01676243788e-22)
(0.00350390531328 0.00315840106582 -5.61425164328e-23)
(0.00324730848056 0.00255774207884 -1.49451249963e-22)
(0.00309370477789 0.00423009455879 5.25750677835e-23)
(0.00266050895845 0.00362764502416 8.43299966399e-23)
(0.0028757397911 0.0053661870991 3.65911912668e-25)
(0.00237884800603 0.00470334097864 1.9179392693e-23)
(0.00267310323946 0.00658880174362 -1.30514220711e-23)
(0.00214975354666 0.00584791171921 5.93243548095e-24)
(0.00242044299954 0.00791808888387 -1.10322233732e-23)
(0.00187736359377 0.00708454572455 5.14042768584e-24)
(0.00208579576144 0.00937782208363 -6.38775321251e-28)
(0.00151942719665 0.00842574947954 -4.00079674886e-24)
(0.0016405780171 0.0109878891156 1.97454202257e-24)
(0.00106607657274 0.00989576922653 1.09746730576e-23)
(0.0010642801455 0.0127672048537 -3.62400544703e-24)
(0.000472509764878 0.0115185345184 1.35534310206e-23)
(0.000331077276511 0.0147489334892 3.78311435417e-24)
(-0.000275532828899 0.0133081823051 3.92549248541e-24)
(-0.000580786299791 0.016939344952 8.54431445977e-23)
(-0.00120456344917 0.0152869697534 -6.20956912229e-24)
(-0.00163413746715 0.0193919086317 3.96210320548e-22)
(-0.00235179947762 0.017497136201 7.61540318455e-23)
(-0.00272194376738 0.0221223753933 4.63704947746e-22)
(-0.00360782711889 0.0199830009129 2.59652112562e-22)
(-0.00393832933899 0.0252074503237 -1.43009585582e-22)
(-0.00488882765217 0.022810635005 -3.79218360906e-22)
(-0.00633828518675 0.0286710850677 -2.44471523927e-21)
(-0.00647713423757 0.0261588550462 -1.12847537792e-21)
(-0.0140539372598 0.0321126291021 -7.08750071288e-21)
(-0.00984839004276 0.0291210428055 -5.1930348794e-21)
(-0.0692407523193 0.03300524649 -7.09603221655e-21)
(-0.0199363762948 0.0291388105828 -1.19478446653e-20)
(-0.111999497948 0.0442025317445 -3.83890062294e-21)
(-0.122661503979 0.0305877090523 -9.50368699461e-21)
(-0.103087267177 0.0281625081111 -1.67285827536e-21)
(0.00472003622086 0.00104780974927 -4.31401790393e-22)
(0.00485872323909 0.000571596728418 -6.38277211206e-22)
(0.00340824248679 0.00205378313583 -1.48229574068e-22)
(0.00351195171793 0.00156250793688 -1.41305508819e-22)
(0.00247058286999 0.00305378029581 -8.97873688978e-24)
(0.00224764294306 0.00245295625714 -6.7575789695e-23)
(0.0020159112366 0.00407891504898 5.09343215494e-23)
(0.00163579864847 0.00347857529827 3.20492536581e-23)
(0.0017284114575 0.00515876457083 2.47459162613e-23)
(0.00129949648921 0.00449382405956 5.72037252136e-24)
(0.00143660792787 0.00631213021595 2.41242852379e-23)
(0.000996920066494 0.00556625865693 1.92997054614e-23)
(0.00107594503652 0.00755947130525 1.21718543102e-23)
(0.000630538149515 0.00671789171782 1.55484979513e-23)
(0.000613626967462 0.00890966818538 6.97451508401e-24)
(0.000169680485623 0.00795399341695 1.66010707586e-24)
(2.12894851251e-05 0.0103861482339 2.25535620556e-23)
(-0.000410056801319 0.00929291241746 1.09756487255e-24)
(-0.000725463918312 0.0120057600322 2.1102928953e-23)
(-0.00114688400545 0.0107597322634 1.19172151109e-23)
(-0.00165372320485 0.0137933198923 -6.06719099105e-24)
(-0.00206302072554 0.0123636781836 2.95701315263e-24)
(-0.00279173642609 0.0157820097299 -1.54986818746e-23)
(-0.00319334277228 0.0141165174328 -2.44569860376e-23)
(-0.00411987337496 0.0179994527972 -6.04041761399e-23)
(-0.00456949568127 0.0160715085273 -5.63229385233e-23)
(-0.00554278700702 0.0205236244409 -5.8327119609e-22)
(-0.00613238005707 0.0182756955284 -4.17256508339e-22)
(-0.00715847744757 0.023349709904 -1.36468415324e-21)
(-0.00771535401695 0.0207025263266 -1.41898766394e-21)
(-0.00966569655089 0.0265904779186 -3.87679501805e-21)
(-0.00971827802206 0.0238737317325 -3.36277213144e-21)
(-0.0153411780975 0.0295085144069 -1.00533788318e-20)
(-0.0127666062117 0.0261128636844 -8.08207182577e-21)
(-0.0716915607216 0.0280615206252 -1.43554994433e-20)
(-0.0184896231578 0.0281064020769 -1.35195371055e-20)
(-0.110085462028 0.0300300866353 -7.33764464702e-21)
(-0.124623438991 0.0245684083429 -1.72628984579e-20)
(-0.0903936752991 0.0143118738843 -7.88855884655e-21)
(0.00371078687293 0.00100464661442 -3.48180929632e-22)
(0.00385428528694 0.000559105697405 -6.12341221466e-22)
(0.00242652640224 0.00196374101744 -6.06517244462e-23)
(0.00255313119642 0.00148697860351 -1.06766895839e-22)
(0.00148623347698 0.00290756503081 -2.65477991471e-23)
(0.00130416035661 0.00232130246986 -7.97258725331e-23)
(0.000996170336003 0.00387313143573 -1.31646953699e-23)
(0.000670634907764 0.00328724520936 -2.46385878971e-23)
(0.000651405394984 0.00488011492435 2.74161721451e-25)
(0.000292953679615 0.00422760186746 -2.16836618149e-23)
(0.00028656194493 0.00594604653515 1.07239181748e-23)
(-6.85724713928e-05 0.00521393946332 7.23127826958e-25)
(-0.000164429264147 0.00708969265233 5.03675071701e-24)
(-0.000512719650159 0.0062632342637 -9.91411903521e-25)
(-0.000732771702283 0.00830944738293 -4.2168431356e-24)
(-0.00104978385084 0.00737806830608 -3.99328030672e-24)
(-0.00144406070319 0.00963622237809 -9.53878207212e-24)
(-0.00173667762551 0.00857299400804 1.41535793124e-23)
(-0.00233016843643 0.0110748286524 -6.22870068949e-24)
(-0.00258549810453 0.00986356604376 1.52019701315e-23)
(-0.00342454526914 0.0126483266163 -1.54327818939e-23)
(-0.00363670267495 0.0112556762211 8.1622287602e-25)
(-0.00475735081739 0.0143772383994 -6.52812426864e-23)
(-0.00492261632949 0.0127540077915 -1.02194266317e-23)
(-0.00632818434556 0.0162825200332 -4.13175270722e-22)
(-0.00647529426498 0.0144002945506 -1.04924648887e-22)
(-0.00803605573326 0.0184022268737 -1.25297297619e-21)
(-0.00825269931102 0.0162430929209 -7.98423147166e-22)
(-0.00992397589404 0.0208073590415 -3.41707564213e-21)
(-0.0101211034031 0.0181358107545 -2.34500047468e-21)
(-0.0122588752356 0.0232823208647 -7.56804893916e-21)
(-0.0121937340411 0.0208995840989 -5.47425796734e-21)
(-0.0153880821362 0.0249201860442 -1.15482300995e-20)
(-0.0144047208577 0.0222007004561 -1.09541323427e-20)
(-0.0692747990976 0.0223947383727 -1.642693612e-20)
(-0.0159642906905 0.0262278775303 -1.4651115103e-20)
(-0.103481492296 0.016550055331 -1.78138126574e-20)
(-0.118772456446 0.0177762835888 -2.34362289803e-20)
(-0.0804247267693 0.00217209404448 -1.86740071943e-20)
(0.00275405579199 0.000949150059938 -3.70927187673e-22)
(0.00290538330761 0.000540189293195 -6.09976390022e-22)
(0.00150433073359 0.00185208823758 -1.25841043926e-22)
(0.00165049102801 0.00139694657744 -1.40744374249e-22)
(0.000569903814169 0.00273150363708 -7.78166612832e-23)
(0.000425089300487 0.00216601814901 -2.35499570171e-22)
(5.27756088511e-05 0.00362380419002 -3.31575543421e-23)
(-0.000221287160526 0.00305858333657 -8.75498111856e-23)
(-0.000338865072509 0.00454511035464 -2.12346957094e-23)
(-0.000627966496603 0.00391271453275 -4.72696126686e-23)
(-0.000761945237882 0.00551466789075 -1.09922022514e-23)
(-0.00103777712489 0.00480425056959 -7.20797215117e-24)
(-0.00128242148732 0.00653334045715 -1.00214429272e-23)
(-0.00153112283306 0.00574054315942 -6.45155400403e-24)
(-0.00193105505556 0.00762121137639 1.43771421413e-23)
(-0.00213751579224 0.0067237076014 -1.24637282389e-23)
(-0.00273383349054 0.00878662917102 3.8894331516e-23)
(-0.00290212665726 0.00776312110434 2.65613788865e-23)
(-0.00372462950057 0.0100191038039 2.2246893697e-23)
(-0.00381819820975 0.0088643492513 3.1650577847e-23)
(-0.004943974589 0.0113394392883 6.02957813822e-24)
(-0.00495746573782 0.0100237593739 -1.53761430289e-23)
(-0.00641924657559 0.0127621594092 -4.98628328325e-23)
(-0.00634595061042 0.0112495569437 -5.44151057994e-24)
(-0.00815665628407 0.0143127709522 -4.90172525331e-22)
(-0.0080266619326 0.012559364919 -1.18559966116e-22)
(-0.0100427131422 0.0160286710611 -1.89045064566e-21)
(-0.00996941944201 0.0139887255474 -1.03410749638e-21)
(-0.0119867426125 0.017859037383 -4.40218279989e-21)
(-0.0119522471857 0.0153178791081 -3.40457392151e-21)
(-0.0138087900361 0.0195236516893 -8.86034137093e-21)
(-0.0138589502231 0.0175638124954 -5.3787952242e-21)
(-0.0144187598063 0.0201060875928 -1.40570173462e-20)
(-0.0149874475389 0.0178090419078 -1.13987577605e-20)
(-0.0637624330734 0.0170053141106 -2.16604079632e-20)
(-0.0128636054358 0.0238312267686 -1.85181627292e-20)
(-0.0941236597006 0.00610549745895 -2.42964235172e-20)
(-0.107871690013 0.0119951469691 -3.12640204703e-20)
(-0.0711479757302 -0.00739449051469 -2.53189003976e-20)
(0.00186168367271 0.000886365341542 -3.79793576599e-22)
(0.00201927982826 0.000517618888043 -6.24831247489e-22)
(0.00065015963225 0.00172190703841 -2.50402900494e-22)
(0.000815245133111 0.00129341028646 -2.27782798467e-22)
(-0.000273513532885 0.00252647916408 -2.45232720073e-22)
(-0.000379159370071 0.00198898010501 -4.04535234623e-22)
(-0.00080861277313 0.00333082506822 -1.01661869512e-22)
(-0.00102529852775 0.00279955748389 -1.2422587516e-22)
(-0.00123523107202 0.00416125024223 -3.32428891103e-23)
(-0.00145807277849 0.00355979163396 -5.89102182952e-23)
(-0.00170249032328 0.00502294498986 -2.66732390386e-24)
(-0.0018992090494 0.0043502756398 -6.94349426214e-25)
(-0.00227173775025 0.00591916426348 -8.89383931569e-24)
(-0.00242718608404 0.00516973842637 5.10299495989e-25)
(-0.00297380959799 0.00686058518472 -2.79491493712e-25)
(-0.0030789350872 0.00601651981674 -1.23361582021e-23)
(-0.00383740547863 0.00783795793611 1.93176252175e-23)
(-0.0038796923945 0.00689305466703 7.03205631167e-24)
(-0.00490075265649 0.00886964323393 -5.97245887891e-24)
(-0.00485029271481 0.0077933501869 1.46779334906e-23)
(-0.00619350417991 0.00991924346187 -2.68472317471e-23)
(-0.00600769009628 0.00871914587289 -3.93392166815e-23)
(-0.0077444130944 0.0110470728635 -7.41386438634e-23)
(-0.00747458826226 0.00966840088264 -2.16189961516e-23)
(-0.00957248176455 0.0122144335022 -6.6249493716e-22)
(-0.00919495359454 0.0106245035799 -1.32124243846e-22)
(-0.0115487100602 0.0134433219216 -2.54823077223e-21)
(-0.0111992761338 0.0116052541757 -7.99089959548e-22)
(-0.0134112990328 0.0146965714799 -4.38118634582e-21)
(-0.0132063864447 0.0123847962227 -3.23741691558e-21)
(-0.0145682062581 0.0156579681541 -7.91721161381e-21)
(-0.0148210237057 0.0140160958051 -3.60209235591e-21)
(-0.0129965055806 0.0156582472376 -1.58599031435e-20)
(-0.0149880416264 0.0133267217239 -9.39696637747e-21)
(-0.0561987977703 0.0128587089784 -2.81217752363e-20)
(-0.0100641981396 0.0214115191974 -1.59363558384e-20)
(-0.084112606142 -0.000829119394863 -3.22864973507e-20)
(-0.094184963477 0.00846050878633 -2.19803459462e-20)
(-0.0622225173405 -0.0143634030481 -1.77089747826e-20)
(0.00103701263548 0.000815059590584 -4.72820469357e-22)
(0.00120446617475 0.000494107843153 -5.12866415272e-22)
(-0.000133966779878 0.00157494014165 -3.81915132595e-22)
(5.56302063904e-05 0.00117757847368 -1.80881611361e-22)
(-0.00104240597851 0.00229711330068 -2.83528389709e-22)
(-0.00110105642354 0.00179389394517 -2.41441652067e-22)
(-0.00158438894345 0.00301374084129 -8.14742239427e-23)
(-0.00174164073904 0.00252136708982 -2.42034925403e-23)
(-0.00202960627942 0.00374448182801 -2.63616786111e-23)
(-0.00218855553312 0.00318560543558 -2.3657850947e-23)
(-0.00252382353013 0.00449500695757 2.48327397363e-24)
(-0.00264954124764 0.00386953646653 5.14770525642e-24)
(-0.00312405368862 0.00526432351137 -2.93201939045e-24)
(-0.00319643729709 0.00456866489031 4.39437045417e-24)
(-0.00385901015893 0.00605316493598 -5.02461039674e-24)
(-0.00386789131762 0.00527711959654 -1.49729433647e-23)
(-0.0047555316081 0.00685687183519 2.39236458474e-24)
(-0.00468374315292 0.00599073540413 -6.10923226163e-24)
(-0.00584108416585 0.00764977946331 -1.8688824312e-23)
(-0.00564379224149 0.00670078727377 4.6322502851e-24)
(-0.00714533132225 0.00848381819477 -3.4110981086e-23)
(-0.00684254500353 0.00740406447177 -4.23501082235e-23)
(-0.00871179026945 0.00927616340744 -7.96045961342e-23)
(-0.00826797383495 0.00807250398439 -1.68467817265e-23)
(-0.0105560808081 0.0100450196835 -2.68719266235e-22)
(-0.00996497649091 0.00867224581137 -1.01186066999e-22)
(-0.0125311329076 0.0107636694646 -1.4882761029e-21)
(-0.0119191182459 0.00919776647742 -2.9749165005e-22)
(-0.0142333950424 0.0114183237817 -2.45832292567e-21)
(-0.0138621313282 0.00944023511453 -1.95882581304e-21)
(-0.0148154856031 0.0117563004147 -5.08184711958e-21)
(-0.0151598494948 0.0102982137302 -1.88669379033e-21)
(-0.0117546636972 0.011475933471 -9.47341907237e-21)
(-0.0147081056849 0.00889384741206 -4.90658132257e-21)
(-0.0479678169843 0.00997008134793 -9.79492654838e-21)
(-0.00855852023 0.0190284746499 -7.26856519658e-21)
(-0.0726062586461 -0.0044060374303 -7.4028233782e-21)
(-0.0798108572569 0.00686797445247 -3.72973797681e-21)
(-0.0519156486952 -0.0204637268377 -2.88032942461e-21)
(0.0002954462141 0.000739547368608 -2.20927557276e-22)
(0.000465125671272 0.000461350200889 -2.97219927666e-22)
(-0.000831475104731 0.00141687260696 -4.04081308339e-23)
(-0.000621482860761 0.00105265448213 8.72668089787e-23)
(-0.00171738847366 0.0020557293639 1.78832451011e-23)
(-0.00173965207792 0.00158732546211 7.89375473542e-23)
(-0.00226104389857 0.00268286823858 3.36128804553e-23)
(-0.00236854394069 0.00222780310871 8.32364052695e-23)
(-0.00271671178623 0.00331217541837 7.85153292046e-24)
(-0.00281763769971 0.00279646946925 -5.14145582023e-24)
(-0.00322390023174 0.00394788438262 7.05880173695e-24)
(-0.00328511995185 0.00337488636302 3.33539008982e-24)
(-0.00383680940365 0.00458755851207 -7.64655352006e-24)
(-0.00383612199885 0.00395501856853 1.01968239989e-23)
(-0.00457976351487 0.00522810064783 -1.60575652296e-23)
(-0.00450867379935 0.00453041103531 1.52236659632e-24)
(-0.00547128057577 0.00585415896553 -3.86934656127e-24)
(-0.00531031292318 0.00509437223995 1.85173600042e-23)
(-0.00653248162282 0.00647381341919 -1.90290336265e-23)
(-0.00626422447409 0.00563363292974 1.04367351998e-23)
(-0.00780322781585 0.00703860072404 -2.50859088641e-23)
(-0.00740856359051 0.00612381655184 -2.87464031324e-23)
(-0.00932219997377 0.00752352630871 -3.84282525915e-23)
(-0.00875429841254 0.00652588283 2.3637737297e-24)
(-0.0110882393555 0.00789830609261 -1.29958450815e-22)
(-0.010341257281 0.00679738786072 -5.72410685057e-23)
(-0.0129547354824 0.00810320500946 -7.6804136019e-22)
(-0.0121254722202 0.00688717927461 -2.58021225679e-22)
(-0.0144420900487 0.00809048352057 -1.38719667769e-21)
(-0.0138508003846 0.00659956333049 -1.18181013283e-21)
(-0.0146476185793 0.00776763642636 -1.71142799332e-21)
(-0.0148380325405 0.00654721984455 -3.2610567321e-21)
(-0.0110380620122 0.00728809496241 -2.70172744678e-21)
(-0.0142290985741 0.00422615070693 -4.77107138329e-21)
(-0.0394797891373 0.00683812507463 -1.20337662501e-21)
(-0.00810868850659 0.0157246816695 -6.02936471113e-21)
(-0.0590494818276 -0.00795868635335 7.92755976781e-22)
(-0.0650135080818 0.00410325875591 -3.99995417381e-21)
(-0.0415976264205 -0.0275280972132 -3.31807888399e-21)
(-0.00036755287412 0.000650308629707 1.09744385886e-23)
(-0.000185032011307 0.000421426594185 -1.7478491071e-22)
(-0.00144586788718 0.0012507791172 2.06612487167e-22)
(-0.00122174386999 0.000923561861012 2.8604037352e-22)
(-0.00230253927072 0.00179990128139 1.44290707523e-22)
(-0.00228859809325 0.00137448827222 1.74455166018e-22)
(-0.00284155095711 0.00233460538616 4.44820689939e-23)
(-0.00330102335891 0.00286563354665 -9.65759865087e-24)
(-0.00381279460012 0.00339605470896 6.47341235174e-24)
(-0.00442006521908 0.00390841184916 1.93657441153e-23)
(-0.00514321883007 0.00441707955821 3.60972918301e-23)
(-0.00599964447735 0.00489513881365 3.28234417653e-23)
(-0.00701038719312 0.00532635694522 7.19365693868e-25)
(-0.00820251750184 0.00566413960072 -1.29672053857e-24)
(-0.00959271752925 0.00587343620881 -1.64490421846e-23)
(-0.0111704981971 0.00588570965279 -1.8530384337e-22)
(-0.0127777183758 0.00560797490305 -6.71789998322e-22)
(-0.0139322549863 0.00492432842749 -3.05567018724e-21)
(-0.0139078492073 0.00387040145379 -6.32070012207e-21)
(-0.0104631131404 0.00278921431146 -8.09870864763e-21)
(-0.0306993175619 0.00246556232538 -8.82594225993e-21)
(-0.0449100239382 -0.0153217981449 -8.11078903458e-21)
(-0.000959424393285 0.000565797302253 1.00281024221e-22)
(-0.00075069268755 0.000387176331369 -9.79602399544e-23)
(-0.00198393604597 0.00108188318765 2.53883052371e-22)
(-0.00123524029766 0.000353754281879 -4.86849724141e-23)
(-0.00163656609381 0.000320255897495 7.57503028593e-23)
)
;

boundaryField
{
    back
    {
        type            calculated;
        value           uniform (0 0 0);
    }
    sides
    {
        type            calculated;
        value           nonuniform List<vector> 0();
    }
    bottom
    {
        type            calculated;
        value           uniform (0 0 0);
    }
    front
    {
        type            calculated;
        value           uniform (0 0 0);
    }
    atmosphere
    {
        type            calculated;
        value           nonuniform List<vector> 8((-0.105567716299 0.0268407194195 -3.35402942112e-21) (-0.0961934317605 0.017331579441 8.31287040591e-24) (-0.0856170535895 0.00657518302975 -1.57854305635e-20) (0 -0.00317280113283 0) (0 -0.00975377847789 0) (0 -0.0147114865836 0) (0 -0.0182777679992 0) (0 -0.0252153630524 0));
    }
    floatingObject
    {
        type            calculated;
        value           nonuniform List<vector> 0();
    }
    procBoundary9to6
    {
        type            processor;
        value           nonuniform List<vector> 4((-0.00640667635558 0.0307234844284 -1.03505862276e-20) (-0.0190432003364 0.028716606238 -9.83708515163e-21) (-0.111455287495 0.0353463767028 2.18408559323e-20) (-0.120475208526 0.0394214736333 2.0884033016e-20));
    }
    procBoundary9to7
    {
        type            processor;
        value           nonuniform List<vector> 
16
(
(0.00698399012817 0.00057832350565 -5.27714238527e-22)
(0.0055594696894 0.00165828558906 -1.80774346625e-22)
(0.00428524154335 0.00262815710672 -2.04223557077e-22)
(0.00373148588779 0.00372665014101 9.33601687386e-23)
(0.00351403606911 0.00484452031197 1.22120161381e-23)
(0.00337133661247 0.00604305642117 -7.75092822449e-24)
(0.00320558132463 0.00734562347474 -1.41529994347e-23)
(0.00297814452017 0.00877148156382 -1.00378819223e-23)
(0.00267525330325 0.0103525782391 1.31556002927e-23)
(0.00225110164227 0.0121072066895 -6.45488124628e-24)
(0.0017056588751 0.014057707093 3.00726995817e-24)
(0.000985521169529 0.0162299449621 2.84124676308e-23)
(0.000100677416111 0.0186429339394 2.7188198402e-22)
(-0.000877197299769 0.0213142942064 9.39521580807e-22)
(-0.00180336511058 0.0243328861508 3.49916478533e-22)
(-0.00301312654508 0.0275101568727 -1.56296756041e-21)
)
;
    }
    procBoundary9to10
    {
        type            processor;
        value           nonuniform List<vector> 
15
(
(-0.00290302594377 0.00192466045647 1.03796497815e-22)
(-0.00334849623207 0.00239860490731 -2.25912381229e-23)
(-0.00381543866731 0.00287435888668 -7.3863389686e-24)
(-0.00434854859549 0.00334700588149 8.97460795249e-24)
(-0.00501763927864 0.00380398035002 1.87954323466e-23)
(-0.00578894691628 0.00423383973158 4.98437183939e-23)
(-0.0066965784493 0.00461794095175 1.63296035267e-23)
(-0.00774765367557 0.00492362466577 -1.35905557211e-23)
(-0.0017377330971 0.000795122031133 3.06527080587e-22)
(-0.00280611262853 0.0015423985842 1.33960956311e-22)
(-0.00274895010939 0.0011616317158 4.0864123753e-23)
(-0.00146419414642 0.000484665919795 1.08285816411e-22)
(-0.0018753214588 0.000401333765676 7.92909713888e-23)
(-0.00220445441213 0.000320089502643 2.79386639223e-22)
(-0.00195649529889 0.000284911425008 4.00983520217e-22)
)
;
    }
    procBoundary9to11
    {
        type            processor;
        value           nonuniform List<vector> 9((-0.00896531387233 0.00510955615218 9.94516468786e-24) (-0.0103551034094 0.00511041142907 -3.24703052197e-23) (-0.0118493553017 0.0048458673911 -2.8943072333e-22) (-0.0131685467226 0.00414797317736 -1.89473993091e-21) (-0.0137852210485 0.00332868537062 -5.22633613044e-21) (-0.0131484527569 -0.000187324225932 -1.12506870003e-20) (-0.00778522434145 0.0117067554058 -1.10643491341e-20) (-0.0472308989965 0.00129770835938 -1.13154845561e-20) (-0.0317004259621 -0.0316093071128 -9.25861468527e-21));
    }
}


// ************************************************************************* //
