/*--------------------------------*- C++ -*----------------------------------*\
| =========                 |                                                 |
| \\      /  F ield         | OpenFOAM: The Open Source CFD Toolbox           |
|  \\    /   O peration     | Version:  v2012                                 |
|   \\  /    A nd           | Website:  www.openfoam.com                      |
|    \\/     M anipulation  |                                                 |
\*---------------------------------------------------------------------------*/
FoamFile
{
    version     2.0;
    format      ascii;
    class       volScalarField;
    location    "4.1";
    object      k_0;
}
// * * * * * * * * * * * * * * * * * * * * * * * * * * * * * * * * * * * * * //

dimensions      [0 2 -2 0 0 0 0];


internalField   nonuniform List<scalar> 
164
(
0.00280929706018
0.00282788353391
0.00284855241696
0.00287286843662
0.00290709169293
0.002973205962
0.00313587329449
0.0035597051735
0.00466938619717
0.00776326347599
0.0164185983393
0.0366117641892
0.0754510724759
0.00198932736943
0.00247915867705
0.00264291881718
0.00271062173614
0.00276457978128
0.00278272051086
0.00280123538796
0.00282134685794
0.00284362977062
0.00286931170497
0.00290383190571
0.00296775857713
0.00312627321357
0.00356073867172
0.00475951251654
0.00810102209524
0.0170094013787
0.03720933885
0.0757052337965
0.00197733874358
0.00246572126633
0.00262924999895
0.00269736335087
0.00273092972395
0.00275283931308
0.00277183802429
0.00279129603794
0.00281270937747
0.00283678617638
0.00286442675432
0.00290095216213
0.00296796207098
0.00313427684259
0.0035916085168
0.00486236425224
0.00840022479201
0.0176881213599
0.0382687557002
0.0761007583756
0.00196490757004
0.00245223204672
0.00261547127673
0.0026837215554
0.00271746856762
0.00273924505903
0.0027575151873
0.00277581204858
0.00279722908076
0.00282303054866
0.00285285658065
0.00289219075421
0.00296769605797
0.00315753956468
0.00365119780295
0.00497395145512
0.00866045946222
0.0184180075569
0.0395438669905
0.0765655914359
0.00195256361621
0.00243918793709
0.002602048114
0.00266989798633
0.00270257395833
0.00272153224124
0.00273405111265
0.00274411545136
0.00276077890778
0.00278767865812
0.00281880502136
0.00285918345587
0.00295124617293
0.00319414389211
0.00375659399926
0.00515410842249
0.00897939388212
0.0191579738688
0.0407755918919
0.0770020681741
0.00194060857548
0.00242718151766
0.00258947210109
0.00265601029505
0.0026850853265
0.00269464188205
0.00268673065309
0.00266434885971
0.00265264908293
0.00268042003475
0.00271190227975
0.0027575775798
0.00290467919557
0.00325114330117
0.00392375518738
0.00542682012473
0.00935344566915
0.0197472888579
0.0415954919286
0.077269748583
0.00192968051757
0.00241675024106
0.00257820773465
0.00264220208804
0.0026640848854
0.00265318621963
0.00258896719179
0.00244416182591
0.00226398182529
0.00226164237529
0.00231856330054
0.00250488108828
0.00287099168548
0.00340116882147
0.00420322319561
0.0058238515716
0.00980448779384
0.0201521092742
0.0418125167826
0.0772531163854
0.00192012718918
0.00240821000896
0.00256899639758
0.00263015024139
0.00264449047772
0.00261607145005
0.00250796072703
0.00214427330183
0.0019136886695
0.00240335743589
0.00256405088599
0.00262369071501
0.00263375022334
0.00259499651605
0.00246135447566
0.00202074613639
0.00191362884153
0.00240331554721
0.00256402744874
0.00262368252478
0.0026337557516
0.0025950481537
0.00246151276313
0.00202125486893
0.00192005528553
0.00240815224768
0.00256897010092
0.00263015876228
0.00264453891656
0.00261619222166
0.00250821871789
0.0021454850334
)
;

boundaryField
{
    back
    {
        type            kqRWallFunction;
        value           nonuniform List<scalar> 
164
(
0.00280929706018
0.00282788353391
0.00284855241696
0.00287286843662
0.00290709169293
0.002973205962
0.00313587329449
0.0035597051735
0.00466938619717
0.00776326347599
0.0164185983393
0.0366117641892
0.0754510724759
0.00198932736943
0.00247915867705
0.00264291881718
0.00271062173614
0.00276457978128
0.00278272051086
0.00280123538796
0.00282134685794
0.00284362977062
0.00286931170497
0.00290383190571
0.00296775857713
0.00312627321357
0.00356073867172
0.00475951251654
0.00810102209524
0.0170094013787
0.03720933885
0.0757052337965
0.00197733874358
0.00246572126633
0.00262924999895
0.00269736335087
0.00273092972395
0.00275283931308
0.00277183802429
0.00279129603794
0.00281270937747
0.00283678617638
0.00286442675432
0.00290095216213
0.00296796207098
0.00313427684259
0.0035916085168
0.00486236425224
0.00840022479201
0.0176881213599
0.0382687557002
0.0761007583756
0.00196490757004
0.00245223204672
0.00261547127673
0.0026837215554
0.00271746856762
0.00273924505903
0.0027575151873
0.00277581204858
0.00279722908076
0.00282303054866
0.00285285658065
0.00289219075421
0.00296769605797
0.00315753956468
0.00365119780295
0.00497395145512
0.00866045946222
0.0184180075569
0.0395438669905
0.0765655914359
0.00195256361621
0.00243918793709
0.002602048114
0.00266989798633
0.00270257395833
0.00272153224124
0.00273405111265
0.00274411545136
0.00276077890778
0.00278767865812
0.00281880502136
0.00285918345587
0.00295124617293
0.00319414389211
0.00375659399926
0.00515410842249
0.00897939388212
0.0191579738688
0.0407755918919
0.0770020681741
0.00194060857548
0.00242718151766
0.00258947210109
0.00265601029505
0.0026850853265
0.00269464188205
0.00268673065309
0.00266434885971
0.00265264908293
0.00268042003475
0.00271190227975
0.0027575775798
0.00290467919557
0.00325114330117
0.00392375518738
0.00542682012473
0.00935344566915
0.0197472888579
0.0415954919286
0.077269748583
0.00192968051757
0.00241675024106
0.00257820773465
0.00264220208804
0.0026640848854
0.00265318621963
0.00258896719179
0.00244416182591
0.00226398182529
0.00226164237529
0.00231856330054
0.00250488108828
0.00287099168548
0.00340116882147
0.00420322319561
0.0058238515716
0.00980448779384
0.0201521092742
0.0418125167826
0.0772531163854
0.00192012718918
0.00240821000896
0.00256899639758
0.00263015024139
0.00264449047772
0.00261607145005
0.00250796072703
0.00214427330183
0.0019136886695
0.00240335743589
0.00256405088599
0.00262369071501
0.00263375022334
0.00259499651605
0.00246135447566
0.00202074613639
0.00191362884153
0.00240331554721
0.00256402744874
0.00262368252478
0.0026337557516
0.0025950481537
0.00246151276313
0.00202125486893
0.00192005528553
0.00240815224768
0.00256897010092
0.00263015876228
0.00264453891656
0.00261619222166
0.00250821871789
0.0021454850334
)
;
    }
    sides
    {
        type            kqRWallFunction;
        value           nonuniform List<scalar> 0();
    }
    bottom
    {
        type            kqRWallFunction;
        value           nonuniform List<scalar> 10(0.00198932736943 0.00197733874358 0.00196490757004 0.00195256361621 0.00194060857548 0.00192968051757 0.00192012718918 0.0019136886695 0.00191362884153 0.00192005528553);
    }
    front
    {
        type            kqRWallFunction;
        value           nonuniform List<scalar> 
164
(
0.00280929706018
0.00282788353391
0.00284855241696
0.00287286843662
0.00290709169293
0.002973205962
0.00313587329449
0.0035597051735
0.00466938619717
0.00776326347599
0.0164185983393
0.0366117641892
0.0754510724759
0.00198932736943
0.00247915867705
0.00264291881718
0.00271062173614
0.00276457978128
0.00278272051086
0.00280123538796
0.00282134685794
0.00284362977062
0.00286931170497
0.00290383190571
0.00296775857713
0.00312627321357
0.00356073867172
0.00475951251654
0.00810102209524
0.0170094013787
0.03720933885
0.0757052337965
0.00197733874358
0.00246572126633
0.00262924999895
0.00269736335087
0.00273092972395
0.00275283931308
0.00277183802429
0.00279129603794
0.00281270937747
0.00283678617638
0.00286442675432
0.00290095216213
0.00296796207098
0.00313427684259
0.0035916085168
0.00486236425224
0.00840022479201
0.0176881213599
0.0382687557002
0.0761007583756
0.00196490757004
0.00245223204672
0.00261547127673
0.0026837215554
0.00271746856762
0.00273924505903
0.0027575151873
0.00277581204858
0.00279722908076
0.00282303054866
0.00285285658065
0.00289219075421
0.00296769605797
0.00315753956468
0.00365119780295
0.00497395145512
0.00866045946222
0.0184180075569
0.0395438669905
0.0765655914359
0.00195256361621
0.00243918793709
0.002602048114
0.00266989798633
0.00270257395833
0.00272153224124
0.00273405111265
0.00274411545136
0.00276077890778
0.00278767865812
0.00281880502136
0.00285918345587
0.00295124617293
0.00319414389211
0.00375659399926
0.00515410842249
0.00897939388212
0.0191579738688
0.0407755918919
0.0770020681741
0.00194060857548
0.00242718151766
0.00258947210109
0.00265601029505
0.0026850853265
0.00269464188205
0.00268673065309
0.00266434885971
0.00265264908293
0.00268042003475
0.00271190227975
0.0027575775798
0.00290467919557
0.00325114330117
0.00392375518738
0.00542682012473
0.00935344566915
0.0197472888579
0.0415954919286
0.077269748583
0.00192968051757
0.00241675024106
0.00257820773465
0.00264220208804
0.0026640848854
0.00265318621963
0.00258896719179
0.00244416182591
0.00226398182529
0.00226164237529
0.00231856330054
0.00250488108828
0.00287099168548
0.00340116882147
0.00420322319561
0.0058238515716
0.00980448779384
0.0201521092742
0.0418125167826
0.0772531163854
0.00192012718918
0.00240821000896
0.00256899639758
0.00263015024139
0.00264449047772
0.00261607145005
0.00250796072703
0.00214427330183
0.0019136886695
0.00240335743589
0.00256405088599
0.00262369071501
0.00263375022334
0.00259499651605
0.00246135447566
0.00202074613639
0.00191362884153
0.00240331554721
0.00256402744874
0.00262368252478
0.0026337557516
0.0025950481537
0.00246151276313
0.00202125486893
0.00192005528553
0.00240815224768
0.00256897010092
0.00263015876228
0.00264453891656
0.00261619222166
0.00250821871789
0.0021454850334
)
;
    }
    atmosphere
    {
        type            inletOutlet;
        inletValue      uniform 0.1;
        value           uniform 0.1;
    }
    floatingObject
    {
        type            kqRWallFunction;
        value           nonuniform List<scalar> 8(0.00226398182529 0.00226164237529 0.00231856330054 0.00250488108828 0.00214427330183 0.00202074613639 0.00202125486893 0.0021454850334);
    }
    procBoundary3to4
    {
        type            processor;
        value           nonuniform List<scalar> 
13
(
0.00281650350695
0.00283366001446
0.00285295154212
0.00200053291915
0.00249214142342
0.00265612657428
0.00272327386084
0.0027752579483
0.00279216743397
0.00279216743397
0.00274348323155
0.00274348323155
0.00274348323155
)
;
    }
    procBoundary3to5
    {
        type            processor;
        value           nonuniform List<scalar> 10(0.00287638802717 0.00291155524686 0.00298321418399 0.00315759535477 0.00358218537049 0.00461227802831 0.00745659652356 0.0158608954258 0.0360515690873 0.0752068241104);
    }
    procBoundary3to6
    {
        type            processor;
        value           nonuniform List<scalar> 8(0.00289349806372 0.00376678079893 0.00472866606905 0.0064000160945 0.010322246058 0.0202897475349 0.04113430598 0.0769261641695);
    }
    procBoundary3to8
    {
        type            processor;
        value           nonuniform List<scalar> 8(0.00192961076584 0.00241670017611 0.0025781893383 0.00264223088794 0.00266415680136 0.00265320028751 0.002588809444 0.00244405517939);
    }
}


// ************************************************************************* //
