/*--------------------------------*- C++ -*----------------------------------*\
| =========                 |                                                 |
| \\      /  F ield         | OpenFOAM: The Open Source CFD Toolbox           |
|  \\    /   O peration     | Version:  v2012                                 |
|   \\  /    A nd           | Website:  www.openfoam.com                      |
|    \\/     M anipulation  |                                                 |
\*---------------------------------------------------------------------------*/
FoamFile
{
    version     2.0;
    format      ascii;
    class       volVectorField;
    location    "4.1";
    object      U_0;
}
// * * * * * * * * * * * * * * * * * * * * * * * * * * * * * * * * * * * * * //

dimensions      [0 1 -1 0 0 0 0];


internalField   nonuniform List<vector> 
164
(
(-0.0274905979675 -0.0228400805968 3.1302080104e-21)
(-0.0289148239118 -0.025946707351 4.78710716436e-21)
(-0.030598408008 -0.0290454647515 5.43635375619e-21)
(-0.0326785373177 -0.0319950593527 5.35893659348e-21)
(-0.0351152738583 -0.0343833726328 5.69811079146e-21)
(-0.0374277078858 -0.0359973543217 5.67465232981e-21)
(-0.0394793909239 -0.0373258063361 4.80774682453e-21)
(-0.0423603074183 -0.0389695300422 3.14931651721e-21)
(-0.0464041649572 -0.0415433789688 1.62221638544e-21)
(-0.0474724488827 -0.0479949302247 8.37271327409e-21)
(-0.0450187421146 -0.0435277483636 3.6280535943e-21)
(-0.0481644200377 -0.0551997643606 -8.78284105439e-21)
(-0.0364249131771 -0.0606779059329 -6.51549325785e-21)
(-0.0232683603727 -0.00164510742114 1.49892216006e-21)
(-0.0222851662493 -0.00473008197084 3.94407013363e-22)
(-0.0215762324937 -0.00777509895434 1.43782842126e-22)
(-0.0213644054451 -0.0108848302971 3.20427575713e-22)
(-0.0221634464827 -0.0173409646079 3.12465046604e-21)
(-0.0230302390606 -0.0207092605386 8.73170062487e-21)
(-0.024229481167 -0.024097147019 1.88944078161e-20)
(-0.0256481918418 -0.0275151654387 2.95408727342e-20)
(-0.0273813425877 -0.0310651977288 3.35730109634e-20)
(-0.0298310860933 -0.0345280140882 3.36547207481e-20)
(-0.0331005135144 -0.0371089765609 3.89939060306e-20)
(-0.0362117008079 -0.0382784784597 3.89229795435e-20)
(-0.0381205348652 -0.0390504667177 3.1608437261e-20)
(-0.0397160882281 -0.0407099395959 1.55055787389e-20)
(-0.0416828540988 -0.0449332436617 8.26592348784e-21)
(-0.0422261438467 -0.053345184878 5.97875796953e-21)
(-0.0411262512332 -0.0490019604465 9.29126746788e-22)
(-0.0429371986253 -0.061549676612 -1.33326713695e-20)
(-0.0330196759686 -0.0704574200515 -9.78876026671e-21)
(-0.0201003555841 -0.00168662852866 1.91118244977e-21)
(-0.0191694272806 -0.00483179259296 6.80663158186e-22)
(-0.018461223363 -0.0079509096426 5.11213169508e-22)
(-0.0181765867829 -0.011169885154 1.29349226648e-21)
(-0.0182834742357 -0.0144935968303 4.74479994979e-21)
(-0.0187084332772 -0.0179895387222 1.63972808614e-20)
(-0.0194702420606 -0.0216790649426 4.80096031087e-20)
(-0.0206421723651 -0.0254279206363 1.05713208294e-19)
(-0.0219225694949 -0.0292963466305 1.64698146848e-19)
(-0.023520760974 -0.0336016678516 1.85498936748e-19)
(-0.0264370965761 -0.0380570312198 1.93047181177e-19)
(-0.0312907288065 -0.0411099121179 2.40517924595e-19)
(-0.0359035692563 -0.0413691933049 2.41452784504e-19)
(-0.0370699264637 -0.0409886746089 1.99579200388e-19)
(-0.0366767585989 -0.0426526956158 8.3785873069e-20)
(-0.0353182660796 -0.0482097915134 2.55840362763e-20)
(-0.0355586159443 -0.0577462577619 2.43429175562e-20)
(-0.0366536488936 -0.0539728909219 1.33635986862e-20)
(-0.0356204906115 -0.0686409438361 -1.25518182576e-21)
(-0.0294509955345 -0.0804431692025 -1.75769154986e-21)
(-0.0168832600257 -0.00169333602786 2.19667809003e-21)
(-0.0159988239619 -0.0048668256352 1.05778369458e-21)
(-0.0152739753701 -0.00802184380332 1.51218155468e-21)
(-0.0148840361489 -0.0113019963078 5.10050873335e-21)
(-0.0148025418626 -0.0147508830834 2.05443896829e-20)
(-0.0149584465982 -0.01851625724 7.44012513332e-20)
(-0.0153800626126 -0.0226992027936 2.22465867166e-19)
(-0.0163649065318 -0.027002476048 4.88786241048e-19)
(-0.0173142634804 -0.0315580673298 7.51573876299e-19)
(-0.0183495374113 -0.0370566382715 8.49756328129e-19)
(-0.0217902095461 -0.0432655414144 8.89825705282e-19)
(-0.0295560227441 -0.0473886254 1.14920948472e-18)
(-0.0369802688092 -0.045681565556 1.13654275742e-18)
(-0.0369121723301 -0.0430545311424 9.35158362759e-19)
(-0.0329894116258 -0.04448704213 3.74829830824e-19)
(-0.0279938488658 -0.0507906456926 1.3931030233e-19)
(-0.0273495665852 -0.0611696634199 9.15639119246e-20)
(-0.0299665429294 -0.0584717692353 6.72827346166e-20)
(-0.0268250246726 -0.0759895165236 5.04476098912e-20)
(-0.0251017519346 -0.0861448641095 3.59694386699e-20)
(-0.0136552632681 -0.00168623173854 2.04258516133e-21)
(-0.0128230372056 -0.00483710913785 1.57990237343e-21)
(-0.0120678671698 -0.00796661546334 4.50022831316e-21)
(-0.0115534623219 -0.0112411385049 1.91554759457e-20)
(-0.011229028852 -0.0147311435862 7.86487182971e-20)
(-0.0110377613812 -0.0187246235276 2.91198404889e-19)
(-0.0109837331921 -0.023717999442 8.70750205119e-19)
(-0.0117176499522 -0.0293245434891 1.89540208908e-18)
(-0.012412783097 -0.0351699870388 2.87035779705e-18)
(-0.012028467548 -0.0418177212037 3.04450143386e-18)
(-0.0157777029299 -0.0501452905694 2.93941109321e-18)
(-0.0277016543054 -0.0561649929391 3.74201075822e-18)
(-0.0409162032645 -0.0513526692059 3.59899132144e-18)
(-0.0380757001947 -0.0448077384237 2.80085382107e-18)
(-0.0293458173245 -0.0470679422516 1.23438641787e-18)
(-0.0204142115898 -0.053780658046 4.96019423807e-19)
(-0.0179751070794 -0.0644060123988 3.00809954048e-19)
(-0.0209311037893 -0.0626323406072 2.39705689094e-19)
(-0.0181209118836 -0.0821016654803 2.19794998833e-19)
(-0.0198602443129 -0.0893479402619 1.43804872806e-19)
(-0.0104803774886 -0.00166894569654 1.80512178907e-21)
(-0.00969889327343 -0.00474368797764 2.97343879732e-21)
(-0.00889634058813 -0.00779722176884 1.26826349047e-20)
(-0.00814438608519 -0.0110303788342 5.73159334177e-20)
(-0.00732945253972 -0.0145736973222 2.37553306096e-19)
(-0.00647243153151 -0.0187977875237 8.82919368537e-19)
(-0.0059769187188 -0.0250168036702 2.65026280014e-18)
(-0.0058635313453 -0.0331702724073 5.59867283895e-18)
(-0.00548369286731 -0.0396450355366 8.25128472337e-18)
(-0.00371379922971 -0.0452037693239 8.57742205538e-18)
(-0.00639916883167 -0.0534843352421 6.86219810841e-18)
(-0.0220781928393 -0.0632447217053 8.28837802933e-18)
(-0.0544666098936 -0.0567715302295 7.46058819118e-18)
(-0.0412447293817 -0.045328589484 5.12759106282e-18)
(-0.0260356855261 -0.0506560243971 2.53200723879e-18)
(-0.0131241720051 -0.0578184752254 1.13179530108e-18)
(-0.00865199984931 -0.0675886632957 7.04256578524e-19)
(-0.0110077154147 -0.0656811728119 5.36406382831e-19)
(-0.0123067235612 -0.0853497362603 4.43850921436e-19)
(-0.0151640293449 -0.0869573988482 2.81696627611e-19)
(-0.00736738115077 -0.00164217161369 1.80602310426e-21)
(-0.00667428260961 -0.0045683334152 6.25111810554e-21)
(-0.0058511901624 -0.00739737799288 3.00355198164e-20)
(-0.00477853347678 -0.0103540329841 1.32788409566e-19)
(-0.0029955312467 -0.0136970241162 5.25892711386e-19)
(0.000164598930771 -0.0178604180936 1.84280812366e-18)
(0.00468719899954 -0.0241651599822 5.44576425969e-18)
(0.00779069350608 -0.0346057756661 1.21823814152e-17)
(-0.00277507638781 -0.0427898921944 1.94951884328e-17)
(0.000760936684407 -0.044233448374 2.07862976315e-17)
(-0.00231035647431 -0.0418679425159 1.28661999068e-17)
(-0.0315487653106 -0.0680300624092 1.38071321221e-17)
(-0.0745373265885 -0.0575882489015 7.87722573063e-18)
(-0.0428864909633 -0.0478050362256 5.88655959036e-18)
(-0.0185775323593 -0.054871010859 3.07012474663e-18)
(-0.00473764735323 -0.0625697018181 1.58829739635e-18)
(-4.3519964226e-05 -0.0703023695215 1.10065353024e-18)
(-0.0018685009467 -0.0675865736422 9.16866783666e-19)
(-0.00941766473556 -0.083828554965 8.11975254627e-19)
(-0.00965779634412 -0.0773736458809 4.95896557014e-19)
(-0.00437264818157 -0.00159318802898 2.48693148185e-21)
(-0.00388149241404 -0.00430919343258 1.19292616233e-20)
(-0.00325191341477 -0.00674431745828 5.63866986649e-20)
(-0.00234799202499 -0.00884156224201 2.32983877413e-19)
(-0.000768227664268 -0.0102447126594 8.43176241067e-19)
(0.00226037687215 -0.0104436285675 2.66884869903e-18)
(0.00682951689456 -0.00868826728673 6.57390518383e-18)
(0.0116943214483 -0.00579343120029 1.20369098498e-17)
(-0.00148615774384 -0.00157871106121 4.504494141e-21)
(-0.00131433732006 -0.00417541535615 1.85287489588e-20)
(-0.00109140155795 -0.0064396960405 8.60098206382e-20)
(-0.00078258217754 -0.00833513971457 3.5385897405e-19)
(-0.000353928866879 -0.0094249698458 1.20015663036e-18)
(0.000350772199689 -0.00927205778903 3.93491292798e-18)
(0.00109079585895 -0.00737594290156 1.06267932506e-17)
(0.000797881035676 -0.00252457002123 2.50584823845e-17)
(0.00138708754663 -0.0015790226165 5.22025969629e-21)
(0.00120498725044 -0.00417291451535 1.91024620097e-20)
(0.000975426070664 -0.00643538448043 8.61347927123e-20)
(0.000659099413651 -0.00833163088189 3.52817083068e-19)
(0.000222315880876 -0.00941772285583 1.202200866e-18)
(-0.000494937765502 -0.00926275771525 3.93476682981e-18)
(-0.00122045626094 -0.00736812701158 1.06224829232e-17)
(-0.000863684992671 -0.00252547881913 2.50340058191e-17)
(0.00427470847341 -0.00159149309964 4.29045088282e-21)
(0.00377846878846 -0.00430751483728 1.30312289143e-20)
(0.00314029927715 -0.00674806300173 5.67538470425e-20)
(0.00222443385047 -0.00885387786315 2.32575216619e-19)
(0.000634730028829 -0.0102803868215 8.42391455622e-19)
(-0.00241071221929 -0.0104774415177 2.66749534075e-18)
(-0.00697869345718 -0.00867928845965 6.57302167214e-18)
(-0.0117846364083 -0.00588084053777 1.20319475914e-17)
)
;

boundaryField
{
    back
    {
        type            noSlip;
    }
    sides
    {
        type            noSlip;
    }
    bottom
    {
        type            noSlip;
    }
    front
    {
        type            noSlip;
    }
    atmosphere
    {
        type            pressureInletOutletVelocity;
        value           nonuniform List<vector> 7((0 -0.0606779059329 0) (0 -0.0704574200515 0) (0 -0.0804431692025 0) (0 -0.0861448641095 0) (0 -0.0893479402619 0) (0 -0.0869573988482 0) (0 -0.0773736458809 0));
    }
    floatingObject
    {
        type            movingWallVelocity;
        value           nonuniform List<vector> 8((0 -1.66533453694e-15 2.08166817117e-16) (0 0 2.08166817117e-16) (0 0 0) (0 -3.33066907388e-15 2.08166817117e-16) (4.16333634234e-16 0 0) (0 0 2.08166817117e-16) (0 0 2.08166817117e-16) (0 0 0));
    }
    procBoundary3to4
    {
        type            processor;
        value           nonuniform List<vector> 
13
(
(-0.0305326025658 -0.0216075676249 5.95773500672e-22)
(-0.0319002434607 -0.0244756227804 8.14606978003e-22)
(-0.0334680516337 -0.027296205907 8.87003271574e-22)
(-0.0263702310358 -0.00157977752212 1.67610605036e-21)
(-0.0253151866877 -0.00457268550433 3.49021197281e-22)
(-0.0245961383199 -0.00751036006151 3.8279484516e-23)
(-0.0244251665699 -0.0104842235643 9.6071360426e-23)
(-0.0253778238304 -0.0165961322566 6.25366545858e-22)
(-0.0263058661977 -0.0197214882254 1.52730960737e-21)
(-0.0263058661977 -0.0197214882254 1.52730960737e-21)
(-0.0215956967421 -0.0140616942728 1.02560253409e-21)
(-0.0215956967421 -0.0140616942728 1.02560253409e-21)
(-0.0215956967421 -0.0140616942728 1.02560253409e-21)
)
;
    }
    procBoundary3to5
    {
        type            processor;
        value           nonuniform List<vector> 10((-0.0352566480038 -0.0299707916103 1.0305954293e-21) (-0.037191810628 -0.0323300600664 1.14377296917e-21) (-0.0390351317227 -0.0342482253322 1.75858017205e-21) (-0.0409771184476 -0.035933803279 2.12651771437e-21) (-0.0442352191275 -0.0375464502546 2.92101545812e-21) (-0.0491197735521 -0.0387895682436 2.51141282415e-21) (-0.0509511800665 -0.0428502585309 9.00371634006e-21) (-0.0487831740625 -0.0385307297815 2.51986763708e-21) (-0.0513529379757 -0.0492249260042 -3.34294184463e-21) (-0.039838674384 -0.0505587440285 -2.770212244e-21));
    }
    procBoundary3to6
    {
        type            processor;
        value           nonuniform List<vector> 8((-0.0711088072333 -0.0273181778944 5.63595195674e-18) (-0.0303601680384 -0.0474688285404 4.24015259837e-18) (-0.0098866158049 -0.0615799809154 2.78615745787e-18) (0.00115888962839 -0.0683591229742 1.86498846317e-18) (0.00506987514594 -0.0723886506241 1.46256490463e-18) (0.00307197917094 -0.0683792103967 1.29110623211e-18) (-0.0131939631573 -0.0780199170242 1.17912228787e-18) (-0.00569365000906 -0.0685485251574 7.5201357341e-19));
    }
    procBoundary3to8
    {
        type            processor;
        value           nonuniform List<vector> 8((0.0072650545549 -0.00163822142751 2.67038414837e-21) (0.0065718222975 -0.00456629629324 6.75599522051e-21) (0.00574823899079 -0.00740571170934 2.99615777144e-20) (0.00467225728656 -0.0103716491803 1.31882416322e-19) (0.00288451462033 -0.0137250998055 5.25224698598e-19) (-0.000266399830832 -0.0179032296298 1.84510744025e-18) (-0.00479031064661 -0.0242416277231 5.46395086581e-18) (-0.00783011077104 -0.0347170633757 1.22078826836e-17));
    }
}


// ************************************************************************* //
