/*--------------------------------*- C++ -*----------------------------------*\
| =========                 |                                                 |
| \\      /  F ield         | OpenFOAM: The Open Source CFD Toolbox           |
|  \\    /   O peration     | Version:  v2012                                 |
|   \\  /    A nd           | Website:  www.openfoam.com                      |
|    \\/     M anipulation  |                                                 |
\*---------------------------------------------------------------------------*/
FoamFile
{
    version     2.0;
    format      ascii;
    class       volScalarField;
    location    "2.7";
    object      p;
}
// * * * * * * * * * * * * * * * * * * * * * * * * * * * * * * * * * * * * * //

dimensions      [1 -1 -2 0 0 0 0];


internalField   nonuniform List<scalar> 
167
(
7014.64168555
6526.77937952
6039.3892827
5552.49414143
5066.12404154
4580.31459232
4095.11017048
3610.56031557
7997.27095233
7508.52879595
7020.23563907
6532.40830623
6045.06535347
5558.2325229
5071.94346654
4586.23943181
4101.17197465
3616.80377753
3133.21290567
8002.38803468
7513.65144767
7025.3678805
6537.55536691
6050.23312403
5563.42869354
5077.1781926
4591.52701192
4106.53202093
3622.26713073
3138.81918788
8007.06529105
7518.323719
7030.03345069
6542.21460471
6054.88512904
5568.07293629
5081.81524603
4596.15975348
4111.16749813
3626.91770719
8500.4449931
8011.30485536
7522.5461228
7034.23306811
6546.38675022
6059.02191984
5572.16544329
5085.85422574
4600.13458767
4115.07046748
3630.74626157
8504.2448832
8015.11403168
7526.32479133
7037.97196083
6550.07912765
6062.65254656
5575.71680716
5089.30591538
4603.46336977
4118.25909687
3633.76409133
8507.62061821
8018.50591238
7529.66996618
7041.25993554
6553.30656779
6065.7944562
5578.74705004
5092.19410162
4606.18160174
4120.76264786
8510.59964186
8021.47864223
7532.58224189
7044.12915704
6556.09290743
6068.47293244
5581.28638924
5094.55892212
4608.32662167
8513.20519245
8024.02523082
7535.11165711
7046.59424601
6558.46302107
6070.71869962
5583.3725135
5096.44261111
4609.95475728
8515.44812911
8026.20259625
7537.26166262
7048.67731304
6560.4456213
6072.56729784
5585.0473542
5097.89513752
4611.12561499
4124.75838044
8517.33195737
8028.04469658
7539.06426309
7050.40861474
6562.07407115
6074.05744412
5586.35728254
5098.97354735
4611.90917877
4125.16909523
8518.88452691
8029.57160368
7540.54434252
7051.81883385
6563.38352645
6075.23067561
5587.35222707
5099.73826376
4612.37897052
4125.26280916
8520.13442686
8030.79662165
7541.73109258
7052.93908241
6564.40918013
6076.12866085
5588.08252329
5100.25150717
4612.61245676
4125.13801752
8521.10152797
8031.74707948
7542.64593381
7053.79637508
6565.18362439
6076.79087661
5588.59683776
5100.57321507
4612.68601175
4124.88978725
8521.80062973
8032.44051805
7543.31263343
7054.41559702
6565.73558995
6077.25162735
5588.93764755
5100.75782754
4612.66687808
8522.23921923
8032.89561656
7543.74706983
7054.81437843
6566.08466621
6077.53643293
5589.13683812
5100.84579026
4612.6102277
8522.50413398
8033.15540007
7543.96871906
7055.01004134
6566.25313283
6077.66967125
5589.22535364
5100.87610588
4612.56366718
)
;

boundaryField
{
    back
    {
        type            calculated;
        value           nonuniform List<scalar> 
167
(
7014.64168555
6526.77937952
6039.3892827
5552.49414143
5066.12404154
4580.31459232
4095.11017048
3610.56031557
7997.27095233
7508.52879595
7020.23563907
6532.40830623
6045.06535347
5558.2325229
5071.94346654
4586.23943181
4101.17197465
3616.80377753
3133.21290567
8002.38803468
7513.65144767
7025.3678805
6537.55536691
6050.23312403
5563.42869354
5077.1781926
4591.52701192
4106.53202093
3622.26713073
3138.81918788
8007.06529105
7518.323719
7030.03345069
6542.21460471
6054.88512904
5568.07293629
5081.81524603
4596.15975348
4111.16749813
3626.91770719
8500.4449931
8011.30485536
7522.5461228
7034.23306811
6546.38675022
6059.02191984
5572.16544329
5085.85422574
4600.13458767
4115.07046748
3630.74626157
8504.2448832
8015.11403168
7526.32479133
7037.97196083
6550.07912765
6062.65254656
5575.71680716
5089.30591538
4603.46336977
4118.25909687
3633.76409133
8507.62061821
8018.50591238
7529.66996618
7041.25993554
6553.30656779
6065.7944562
5578.74705004
5092.19410162
4606.18160174
4120.76264786
8510.59964186
8021.47864223
7532.58224189
7044.12915704
6556.09290743
6068.47293244
5581.28638924
5094.55892212
4608.32662167
8513.20519245
8024.02523082
7535.11165711
7046.59424601
6558.46302107
6070.71869962
5583.3725135
5096.44261111
4609.95475728
8515.44812911
8026.20259625
7537.26166262
7048.67731304
6560.4456213
6072.56729784
5585.0473542
5097.89513752
4611.12561499
4124.75838044
8517.33195737
8028.04469658
7539.06426309
7050.40861474
6562.07407115
6074.05744412
5586.35728254
5098.97354735
4611.90917877
4125.16909523
8518.88452691
8029.57160368
7540.54434252
7051.81883385
6563.38352645
6075.23067561
5587.35222707
5099.73826376
4612.37897052
4125.26280916
8520.13442686
8030.79662165
7541.73109258
7052.93908241
6564.40918013
6076.12866085
5588.08252329
5100.25150717
4612.61245676
4125.13801752
8521.10152797
8031.74707948
7542.64593381
7053.79637508
6565.18362439
6076.79087661
5588.59683776
5100.57321507
4612.68601175
4124.88978725
8521.80062973
8032.44051805
7543.31263343
7054.41559702
6565.73558995
6077.25162735
5588.93764755
5100.75782754
4612.66687808
8522.23921923
8032.89561656
7543.74706983
7054.81437843
6566.08466621
6077.53643293
5589.13683812
5100.84579026
4612.6102277
8522.50413398
8033.15540007
7543.96871906
7055.01004134
6566.25313283
6077.66967125
5589.22535364
5100.87610588
4612.56366718
)
;
    }
    sides
    {
        type            calculated;
        value           nonuniform List<scalar> 9(8522.50413398 8033.15540007 7543.96871906 7055.01004134 6566.25313283 6077.66967125 5589.22535364 5100.87610588 4612.56366718);
    }
    bottom
    {
        type            calculated;
        value           nonuniform List<scalar> 
13
(
8745.25453327
8749.05411955
8752.42982263
8755.40882492
8758.01433022
8760.25718976
8762.14091251
8763.69335782
8764.94312834
8765.91010969
8766.60909877
8767.04762392
8767.31260795
)
;
    }
    front
    {
        type            calculated;
        value           nonuniform List<scalar> 
167
(
7014.64168555
6526.77937952
6039.3892827
5552.49414143
5066.12404154
4580.31459232
4095.11017048
3610.56031557
7997.27095233
7508.52879595
7020.23563907
6532.40830623
6045.06535347
5558.2325229
5071.94346654
4586.23943181
4101.17197465
3616.80377753
3133.21290567
8002.38803468
7513.65144767
7025.3678805
6537.55536691
6050.23312403
5563.42869354
5077.1781926
4591.52701192
4106.53202093
3622.26713073
3138.81918788
8007.06529105
7518.323719
7030.03345069
6542.21460471
6054.88512904
5568.07293629
5081.81524603
4596.15975348
4111.16749813
3626.91770719
8500.4449931
8011.30485536
7522.5461228
7034.23306811
6546.38675022
6059.02191984
5572.16544329
5085.85422574
4600.13458767
4115.07046748
3630.74626157
8504.2448832
8015.11403168
7526.32479133
7037.97196083
6550.07912765
6062.65254656
5575.71680716
5089.30591538
4603.46336977
4118.25909687
3633.76409133
8507.62061821
8018.50591238
7529.66996618
7041.25993554
6553.30656779
6065.7944562
5578.74705004
5092.19410162
4606.18160174
4120.76264786
8510.59964186
8021.47864223
7532.58224189
7044.12915704
6556.09290743
6068.47293244
5581.28638924
5094.55892212
4608.32662167
8513.20519245
8024.02523082
7535.11165711
7046.59424601
6558.46302107
6070.71869962
5583.3725135
5096.44261111
4609.95475728
8515.44812911
8026.20259625
7537.26166262
7048.67731304
6560.4456213
6072.56729784
5585.0473542
5097.89513752
4611.12561499
4124.75838044
8517.33195737
8028.04469658
7539.06426309
7050.40861474
6562.07407115
6074.05744412
5586.35728254
5098.97354735
4611.90917877
4125.16909523
8518.88452691
8029.57160368
7540.54434252
7051.81883385
6563.38352645
6075.23067561
5587.35222707
5099.73826376
4612.37897052
4125.26280916
8520.13442686
8030.79662165
7541.73109258
7052.93908241
6564.40918013
6076.12866085
5588.08252329
5100.25150717
4612.61245676
4125.13801752
8521.10152797
8031.74707948
7542.64593381
7053.79637508
6565.18362439
6076.79087661
5588.59683776
5100.57321507
4612.68601175
4124.88978725
8521.80062973
8032.44051805
7543.31263343
7054.41559702
6565.73558995
6077.25162735
5588.93764755
5100.75782754
4612.66687808
8522.23921923
8032.89561656
7543.74706983
7054.81437843
6566.08466621
6077.53643293
5589.13683812
5100.84579026
4612.6102277
8522.50413398
8033.15540007
7543.96871906
7055.01004134
6566.25313283
6077.66967125
5589.22535364
5100.87610588
4612.56366718
)
;
    }
    atmosphere
    {
        type            calculated;
        value           nonuniform List<scalar> 0();
    }
    floatingObject
    {
        type            calculated;
        value           nonuniform List<scalar> 0();
    }
    procBoundary10to9
    {
        type            processor;
        value           nonuniform List<scalar> 
15
(
7008.5979887
6520.68218042
6033.2206403
5546.2330743
5059.74388443
4573.78335801
4088.38514218
3603.59048598
7991.7197089
7502.9607517
7502.9607517
8486.43170185
8491.53991147
8496.21151598
8496.21151598
)
;
    }
    procBoundary10to11
    {
        type            processor;
        value           nonuniform List<scalar> 
23
(
3126.73156401
3126.73156401
2650.49095471
2656.29350358
3143.50577502
3143.50577502
3147.25223793
3150.07111328
3636.00991354
3636.00991354
4122.6348254
4122.6348254
4123.94534989
4123.94534989
3638.82611186
3638.75937097
3638.3741753
3637.7904188
3637.12898356
4124.60634251
4124.60634251
4124.36041031
4124.21367999
)
;
    }
}


// ************************************************************************* //
