/*--------------------------------*- C++ -*----------------------------------*\
| =========                 |                                                 |
| \\      /  F ield         | OpenFOAM: The Open Source CFD Toolbox           |
|  \\    /   O peration     | Version:  v2012                                 |
|   \\  /    A nd           | Website:  www.openfoam.com                      |
|    \\/     M anipulation  |                                                 |
\*---------------------------------------------------------------------------*/
FoamFile
{
    version     2.0;
    format      ascii;
    class       volScalarField;
    location    "5";
    object      nut;
}
// * * * * * * * * * * * * * * * * * * * * * * * * * * * * * * * * * * * * * //

dimensions      [0 2 -1 0 0 0 0];


internalField   nonuniform List<scalar> 
164
(
0.000304410734842
0.000454825410038
0.000469837169876
0.000475550964079
0.000477293202513
0.000475962654853
0.000470100787449
0.000456766578168
0.000328434874108
0.000328652523531
0.000332311341865
0.00034641907573
0.000510326396153
0.000561096177985
0.000305242593314
0.000455788579836
0.000470845341488
0.000476792486739
0.000479237100511
0.000479828621275
0.000478843374527
0.000476528154349
0.000475965585976
0.000478455253552
0.000481907946055
0.000488619590098
0.000510683416652
0.000545939824904
0.000306138982285
0.000456870744475
0.00047194664111
0.000478022184546
0.000480845475081
0.000482378850934
0.000483315357845
0.000484149495895
0.000485680522633
0.000488214591217
0.000491354380916
0.000496576913894
0.000509969246094
0.000538356450006
0.000307065956856
0.00045802719982
0.000473099745375
0.000479210885334
0.000482160179201
0.000484003063611
0.000485506614076
0.000487037038552
0.000488907146153
0.000491243304713
0.000494145219371
0.00049875255879
0.000508986637602
0.000533799994247
0.000308002438833
0.000459218149581
0.000474276622438
0.000480372344132
0.000483323214329
0.000485210173559
0.000486814256776
0.000488445144449
0.000490264560235
0.000492375221928
0.000495003176516
0.00049915481481
0.00050808640782
0.000531071908006
0.000308919500929
0.000460407613097
0.000475448024692
0.000481503359411
0.000484402610534
0.000486235441932
0.0004877849673
0.000489347306468
0.000491046655422
0.000492979892602
0.000495407620232
0.000499287830608
0.000507700486306
0.000529764957694
0.000309792917435
0.000461562989247
0.000476588267447
0.000482593224589
0.000485420789039
0.000487169805696
0.00048862421102
0.000490078289581
0.000491652409757
0.000493453345561
0.000495781664928
0.000499649558073
0.000508165866095
0.000530210141396
0.000310609395956
0.000462660972277
0.000477675749594
0.000483628371972
0.000486380019596
0.000488040036567
0.00048939647152
0.000490744366666
0.000492208399013
0.000493914480276
0.000496219455407
0.000500256337206
0.000509291792691
0.000532068905547
0.000311371660487
0.000463691981404
0.000478698648254
0.00048460028794
0.000487277867933
0.000488852841634
0.000490118188632
0.000491371518228
0.000492742109201
0.000494372925032
0.000496672491455
0.000500888392856
0.000510416863083
0.000533754111463
0.000312065877122
0.000464645692877
0.000479648446443
0.000485501798927
0.000488109600799
0.000489606408252
0.000490789886587
0.000491959829456
0.000493247994077
0.000494804833737
0.000497063965113
0.000501328661097
0.000511032298133
0.000534368830452
0.000312699506378
0.000465518614923
0.000480519388561
0.00048632781327
0.000488871043708
0.00049029704705
0.000491407742145
0.000492504075977
0.000493717855268
0.000495200169834
0.000497386320215
0.000501590532202
0.000511255411262
0.000534419142599
0.000494147187188
0.000495558930119
0.000497664105811
0.000501771933393
0.000511354839016
0.000534465350547
0.000501826494614
0.00051113339955
0.000533816188849
0.00053163541477
)
;

boundaryField
{
    back
    {
        type            nutkWallFunction;
        blending        stepwise;
        Cmu             0.09;
        kappa           0.41;
        E               9.8;
        value           nonuniform List<scalar> 
164
(
4.39170652948e-05
4.87144237336e-05
5.01709701702e-05
5.07234063411e-05
5.08904598689e-05
5.07557455997e-05
5.01745593764e-05
4.8887637148e-05
4.70072625191e-05
4.70755333313e-05
4.75885082549e-05
4.95842750773e-05
5.42708788307e-05
5.91478687317e-05
4.40269224637e-05
4.88094166287e-05
5.02694559449e-05
5.08443103558e-05
5.10804440308e-05
5.11375520225e-05
5.10425796151e-05
5.0824653757e-05
5.07638005541e-05
5.10158597859e-05
5.13615758142e-05
5.2034665358e-05
5.41869341775e-05
5.76360399718e-05
4.4145027079e-05
4.89157243851e-05
5.03767803682e-05
5.0963654272e-05
5.12365221341e-05
5.13854673653e-05
5.1477104383e-05
5.15588678578e-05
5.1709808263e-05
5.19622606596e-05
5.22749385308e-05
5.27882454008e-05
5.40850823443e-05
5.68740592332e-05
4.42668947108e-05
4.90291355818e-05
5.04890525133e-05
5.10788845303e-05
5.13637126666e-05
5.15425747909e-05
5.16891403323e-05
5.18383496072e-05
5.20217228594e-05
5.22529778194e-05
5.25403003374e-05
5.29913788642e-05
5.39872929101e-05
5.64234958147e-05
4.43898211305e-05
4.91456709815e-05
5.06034344649e-05
5.1191278789e-05
5.14759149907e-05
5.16588321542e-05
5.18151371615e-05
5.19743455544e-05
5.21523875675e-05
5.23600910452e-05
5.26188961745e-05
5.3025245413e-05
5.38976526589e-05
5.61531885424e-05
4.45099485289e-05
4.92618318565e-05
5.07171096898e-05
5.13005229884e-05
5.15798443472e-05
5.17572971464e-05
5.19081849839e-05
5.20607702695e-05
5.22270056156e-05
5.24165710308e-05
5.26545313411e-05
5.30337399938e-05
5.38567386814e-05
5.60227932627e-05
4.46240645124e-05
4.93745019277e-05
5.08275831792e-05
5.14056125556e-05
5.16776470255e-05
5.18467854306e-05
5.19883046976e-05
5.213029696e-05
5.22842208922e-05
5.2460443454e-05
5.26881278443e-05
5.30661880944e-05
5.39010710423e-05
5.60672326043e-05
4.47303644505e-05
4.94813907738e-05
5.093275337e-05
5.15052308096e-05
5.17695835937e-05
5.19298760054e-05
5.20617686924e-05
5.21933456581e-05
5.23364400781e-05
5.25032069208e-05
5.27285068388e-05
5.31240032177e-05
5.40131915737e-05
5.62574786073e-05
4.48293763506e-05
4.95815179446e-05
5.10314756997e-05
5.15985557298e-05
5.18554334429e-05
5.2007281911e-05
5.21302057767e-05
5.22525230018e-05
5.23864778784e-05
5.25459048832e-05
5.27709428002e-05
5.31853453469e-05
5.41265903587e-05
5.64313438104e-05
4.4919098914e-05
4.96738890357e-05
5.11229196357e-05
5.16849029497e-05
5.19347506505e-05
5.2078851634e-05
5.21937207481e-05
5.23078811034e-05
5.24338017722e-05
5.25860346738e-05
5.28073156967e-05
5.32272655333e-05
5.41874876655e-05
5.64935182196e-05
4.50007227292e-05
4.97581617158e-05
5.12065386941e-05
5.17637989776e-05
5.20071458122e-05
5.21442288736e-05
5.22519384438e-05
5.23588859078e-05
5.24775667154e-05
5.2622527941e-05
5.28366462874e-05
5.32507210356e-05
5.42072942559e-05
5.64961374973e-05
5.25172524433e-05
5.265534486e-05
5.28616589434e-05
5.32665725556e-05
5.42161917562e-05
5.65031341263e-05
5.32705194337e-05
5.41952988011e-05
5.64462606364e-05
5.62363582848e-05
)
;
    }
    sides
    {
        type            nutkWallFunction;
        blending        stepwise;
        Cmu             0.09;
        kappa           0.41;
        E               9.8;
        value           nonuniform List<scalar> 0();
    }
    bottom
    {
        type            nutkWallFunction;
        blending        stepwise;
        Cmu             0.09;
        kappa           0.41;
        E               9.8;
        value           nonuniform List<scalar> 
11
(
2.32889595466e-05
2.3347773823e-05
2.3411002373e-05
2.3476244239e-05
2.35420516407e-05
2.36063593707e-05
2.36674478777e-05
2.37243513113e-05
2.37773525258e-05
2.38253804315e-05
2.38690725421e-05
)
;
    }
    front
    {
        type            nutkWallFunction;
        blending        stepwise;
        Cmu             0.09;
        kappa           0.41;
        E               9.8;
        value           nonuniform List<scalar> 
164
(
4.39170652948e-05
4.87144237336e-05
5.01709701702e-05
5.07234063411e-05
5.08904598689e-05
5.07557455997e-05
5.01745593764e-05
4.8887637148e-05
4.70072625191e-05
4.70755333313e-05
4.75885082549e-05
4.95842750773e-05
5.42708788307e-05
5.91478687317e-05
4.40269224637e-05
4.88094166287e-05
5.02694559449e-05
5.08443103558e-05
5.10804440308e-05
5.11375520225e-05
5.10425796151e-05
5.0824653757e-05
5.07638005541e-05
5.10158597859e-05
5.13615758142e-05
5.2034665358e-05
5.41869341775e-05
5.76360399718e-05
4.4145027079e-05
4.89157243851e-05
5.03767803682e-05
5.0963654272e-05
5.12365221341e-05
5.13854673653e-05
5.1477104383e-05
5.15588678578e-05
5.1709808263e-05
5.19622606596e-05
5.22749385308e-05
5.27882454008e-05
5.40850823443e-05
5.68740592332e-05
4.42668947108e-05
4.90291355818e-05
5.04890525133e-05
5.10788845303e-05
5.13637126666e-05
5.15425747909e-05
5.16891403323e-05
5.18383496072e-05
5.20217228594e-05
5.22529778194e-05
5.25403003374e-05
5.29913788642e-05
5.39872929101e-05
5.64234958147e-05
4.43898211305e-05
4.91456709815e-05
5.06034344649e-05
5.1191278789e-05
5.14759149907e-05
5.16588321542e-05
5.18151371615e-05
5.19743455544e-05
5.21523875675e-05
5.23600910452e-05
5.26188961745e-05
5.3025245413e-05
5.38976526589e-05
5.61531885424e-05
4.45099485289e-05
4.92618318565e-05
5.07171096898e-05
5.13005229884e-05
5.15798443472e-05
5.17572971464e-05
5.19081849839e-05
5.20607702695e-05
5.22270056156e-05
5.24165710308e-05
5.26545313411e-05
5.30337399938e-05
5.38567386814e-05
5.60227932627e-05
4.46240645124e-05
4.93745019277e-05
5.08275831792e-05
5.14056125556e-05
5.16776470255e-05
5.18467854306e-05
5.19883046976e-05
5.213029696e-05
5.22842208922e-05
5.2460443454e-05
5.26881278443e-05
5.30661880944e-05
5.39010710423e-05
5.60672326043e-05
4.47303644505e-05
4.94813907738e-05
5.093275337e-05
5.15052308096e-05
5.17695835937e-05
5.19298760054e-05
5.20617686924e-05
5.21933456581e-05
5.23364400781e-05
5.25032069208e-05
5.27285068388e-05
5.31240032177e-05
5.40131915737e-05
5.62574786073e-05
4.48293763506e-05
4.95815179446e-05
5.10314756997e-05
5.15985557298e-05
5.18554334429e-05
5.2007281911e-05
5.21302057767e-05
5.22525230018e-05
5.23864778784e-05
5.25459048832e-05
5.27709428002e-05
5.31853453469e-05
5.41265903587e-05
5.64313438104e-05
4.4919098914e-05
4.96738890357e-05
5.11229196357e-05
5.16849029497e-05
5.19347506505e-05
5.2078851634e-05
5.21937207481e-05
5.23078811034e-05
5.24338017722e-05
5.25860346738e-05
5.28073156967e-05
5.32272655333e-05
5.41874876655e-05
5.64935182196e-05
4.50007227292e-05
4.97581617158e-05
5.12065386941e-05
5.17637989776e-05
5.20071458122e-05
5.21442288736e-05
5.22519384438e-05
5.23588859078e-05
5.24775667154e-05
5.2622527941e-05
5.28366462874e-05
5.32507210356e-05
5.42072942559e-05
5.64961374973e-05
5.25172524433e-05
5.265534486e-05
5.28616589434e-05
5.32665725556e-05
5.42161917562e-05
5.65031341263e-05
5.32705194337e-05
5.41952988011e-05
5.64462606364e-05
5.62363582848e-05
)
;
    }
    atmosphere
    {
        type            calculated;
        value           nonuniform List<scalar> 0();
    }
    floatingObject
    {
        type            nutkWallFunction;
        blending        stepwise;
        Cmu             0.09;
        kappa           0.41;
        E               9.8;
        value           nonuniform List<scalar> 4(2.49429730544e-05 2.49795058745e-05 2.5253995283e-05 2.63217225835e-05);
    }
    procBoundary8to3
    {
        type            processor;
        value           nonuniform List<scalar> 8(0.000303676623058 0.000453995508268 0.000468968295999 0.000474436980734 0.000475580734916 0.000472860093156 0.000462857519647 0.000319252348377);
    }
    procBoundary8to6
    {
        type            processor;
        value           nonuniform List<scalar> 
16
(
0.000385460229127
0.000589640488229
0.000635710832
0.000615422543828
0.00060392798648
0.000596922318062
0.000592291253225
0.000589145420864
0.000588384493137
0.000589938480179
0.000590917477989
0.00059029963061
0.00058944112633
0.000589138739072
0.000587718879163
0.000583451698853
)
;
    }
    procBoundary8to7
    {
        type            processor;
        value           nonuniform List<scalar> 
17
(
0.000313266496229
0.000466306566322
0.000481308359238
0.000487075931882
0.000489560208144
0.000490922543989
0.000491968962953
0.000492999766104
0.000492999766104
0.000494531947105
0.000495875247508
0.000497883100672
0.000497883100672
0.000501676529473
0.000510295709489
0.000510295709489
0.000528079536436
)
;
    }
}


// ************************************************************************* //
