/*--------------------------------*- C++ -*----------------------------------*\
| =========                 |                                                 |
| \\      /  F ield         | OpenFOAM: The Open Source CFD Toolbox           |
|  \\    /   O peration     | Version:  v2012                                 |
|   \\  /    A nd           | Website:  www.openfoam.com                      |
|    \\/     M anipulation  |                                                 |
\*---------------------------------------------------------------------------*/
FoamFile
{
    version     2.0;
    format      ascii;
    class       volVectorField;
    location    "5";
    object      U_0;
}
// * * * * * * * * * * * * * * * * * * * * * * * * * * * * * * * * * * * * * //

dimensions      [0 1 -1 0 0 0 0];


internalField   nonuniform List<vector> 
164
(
(-0.00169085650806 0.000307904840899 3.69354824549e-21)
(-0.00201612929483 0.00127406237865 1.28983446148e-20)
(-0.00224292973897 0.00213151077807 5.47884578676e-20)
(-0.00230268080157 0.00306358811358 2.21218483735e-19)
(-0.00220500232402 0.00399187318589 8.05269597699e-19)
(-0.00187658509021 0.00493819348604 2.54051963207e-18)
(0.000815737093937 0.00589524061971 6.45124821537e-18)
(0.00631755737701 0.00989919450509 1.23306408405e-17)
(-0.00178071150912 0.0155080038099 1.98456166949e-17)
(-0.00571477413217 0.0188750044413 1.95167583611e-17)
(-0.00091567747042 0.030700210176 1.28837804841e-17)
(0.0132651201459 0.0233868241012 1.39317878521e-17)
(0.0145803468449 0.015259461214 6.74051692857e-18)
(-0.000222335095532 0.015176797391 4.5995365679e-18)
(-0.00255637389292 0.000382359244903 2.27775573542e-21)
(-0.00293866786021 0.00149424865675 6.1417821207e-21)
(-0.00316688854976 0.00252510091281 2.60066450666e-20)
(-0.0031012242661 0.00364575762252 1.0980673557e-19)
(-0.00276601397664 0.00471978251607 4.14915039196e-19)
(-0.00219477763604 0.0054901774782 1.3625827763e-18)
(-0.00123316090165 0.00597971804042 3.47734489461e-18)
(-0.000377761960508 0.00872053795682 6.47610498463e-18)
(-0.00468873502379 0.0117586601124 8.66905833729e-18)
(-0.00864066529052 0.012028689958 8.51825601288e-18)
(-0.00528022819173 0.0122010282832 7.27018900698e-18)
(0.00359538804209 0.0137518298174 8.59998917685e-18)
(0.0148427768638 0.0183494223886 6.67920882435e-18)
(0.00258314641006 0.0217143495293 4.51836509874e-18)
(-0.00357598093582 0.000450026283885 1.72224544926e-21)
(-0.00403681236531 0.00166882661915 2.58904435188e-21)
(-0.00437615136413 0.002811533167 9.82907745106e-21)
(-0.00438311638272 0.00408030842917 4.20963971208e-20)
(-0.00405993742589 0.00540324197939 1.60344795932e-19)
(-0.0034739063938 0.00675868481452 5.23456328919e-19)
(-0.00264553350109 0.00820949157716 1.34073564217e-18)
(-0.00216999762564 0.0103148349092 2.55727199084e-18)
(-0.00459880215865 0.0119630694917 3.45433526765e-18)
(-0.00668530566516 0.0116416916996 3.57494121599e-18)
(-0.00374271643172 0.0105140432483 3.72432309035e-18)
(0.00350013386955 0.011137339479 4.65454591797e-18)
(0.00860673472016 0.0172353832524 4.3953725967e-18)
(0.00107110150768 0.0233943268177 2.93350892267e-18)
(-0.00470204133474 0.000506105342114 1.57991493586e-21)
(-0.00524403276461 0.00182986258476 1.21656160712e-21)
(-0.00566306387443 0.00308868025512 3.14830291366e-21)
(-0.00572767799904 0.00450647606515 1.32385469312e-20)
(-0.00544708304192 0.00601550883434 5.01410516006e-20)
(-0.00495176760415 0.0076132301567 1.62115893444e-19)
(-0.00444629854789 0.00934405202471 4.14643243241e-19)
(-0.00429744859022 0.0113317111246 7.99033971076e-19)
(-0.00540708846286 0.0128478713859 1.1114827422e-18)
(-0.00640504781503 0.012977468712 1.21214899441e-18)
(-0.00479555280673 0.012744615883 1.39830872864e-18)
(-0.000811762137295 0.0140271980064 1.87708802688e-18)
(0.00241199415899 0.019138988797 1.74886701767e-18)
(-0.00140059576095 0.0241293720535 1.21569115508e-18)
(-0.00592493026665 0.000548162593171 1.37129457703e-21)
(-0.00655106063219 0.00196743441108 6.63910799047e-22)
(-0.00706487936901 0.00332190035904 9.10591596598e-22)
(-0.0072322144671 0.00482699414286 3.60577563082e-21)
(-0.00707450369035 0.00643227712391 1.34124291894e-20)
(-0.00672970447357 0.00814100276336 4.24577704756e-20)
(-0.00634690019095 0.00996351672275 1.08158279793e-19)
(-0.00612351054218 0.0119003249921 2.10126893601e-19)
(-0.00641948581959 0.0135597586872 3.01543869527e-19)
(-0.0066026966487 0.0145056934483 3.43182741735e-19)
(-0.00550818505942 0.0152469197806 3.93602807757e-19)
(-0.00345524007975 0.017061255071 5.02675331479e-19)
(-0.00188285240421 0.0208661107091 4.88104975846e-19)
(-0.0036337648359 0.0244900482142 3.59531279596e-19)
(-0.00723203727321 0.000585874788628 1.28263135981e-21)
(-0.00793849450395 0.00207809905681 5.55379402805e-22)
(-0.00855229154692 0.0035056637521 3.12825112117e-22)
(-0.00881584266166 0.00507244948291 9.16863647792e-22)
(-0.00875352254824 0.00672471327599 3.27820727862e-21)
(-0.00851384884599 0.00846342391204 9.8062625487e-21)
(-0.00822829952262 0.0102874176284 2.45270116602e-20)
(-0.00800184581714 0.0121703751679 4.74970791932e-20)
(-0.00797018567241 0.0139278845388 6.82748350571e-20)
(-0.00786534736572 0.0153804450881 7.80318392346e-20)
(-0.00720443984419 0.0168149987369 8.7059198706e-20)
(-0.00608226060564 0.0188803401465 1.03929995407e-19)
(-0.0052727221764 0.021897289304 1.03249214078e-19)
(-0.00579671669071 0.0247461187039 8.1276198734e-20)
(-0.00860251481794 0.000620369200788 1.345763427e-21)
(-0.0093900351663 0.00216921188485 5.33302194534e-22)
(-0.0100979911848 0.00365445967252 2.34865750915e-22)
(-0.0104456001613 0.0052662066269 3.81145654299e-22)
(-0.0104656650001 0.00694944916576 8.81516178038e-22)
(-0.0103031444572 0.00869090377758 2.12797143116e-21)
(-0.0100819858662 0.0104989981273 5.12180873091e-21)
(-0.00986735482792 0.0123585641323 9.66206987596e-21)
(-0.00971287610123 0.0141846085664 1.38323302014e-20)
(-0.00951381514574 0.0159040437623 1.57142808386e-20)
(-0.00907628539075 0.0176603495109 1.69810232592e-20)
(-0.00846905556531 0.0197778155442 1.94616698772e-20)
(-0.00802995637822 0.0223526426288 1.78080242754e-20)
(-0.00785530913141 0.024785643704 8.46975961834e-21)
(-0.0100304007567 0.000655731404698 1.09779601367e-21)
(-0.01089463353 0.00225125683531 3.58432620068e-22)
(-0.0116859798857 0.00378404090333 1.02095166697e-22)
(-0.0121050297446 0.00542682174618 1.89429675877e-22)
(-0.0121914864193 0.00713183816337 3.62381508043e-22)
(-0.012090463375 0.00888259255367 5.75166042518e-22)
(-0.0119135150244 0.0106802898566 1.15265616153e-21)
(-0.0117249203734 0.0125265317202 2.0109628749e-21)
(-0.0115540562779 0.0143890295283 2.88731085639e-21)
(-0.0113595456536 0.016234247616 3.23154712938e-21)
(-0.0110652184444 0.018132247258 3.13479583536e-21)
(-0.0107223740554 0.0202142405409 2.78771003742e-21)
(-0.0104002883283 0.022448468029 -6.67165532554e-23)
(-0.00979174004753 0.0245539766354 -1.08360178513e-20)
(-0.0115174729903 0.000686819776043 3.72067325269e-22)
(-0.0124439738317 0.00232302035286 -6.51348241609e-23)
(-0.013307562201 0.00389522192924 -1.51100742456e-22)
(-0.0137871574445 0.00555906702225 3.20266935625e-23)
(-0.0139239763553 0.00727626203961 2.11843169914e-22)
(-0.0138706144104 0.00903280928059 2.78935063851e-22)
(-0.0137358512457 0.0108263946159 3.70678153704e-22)
(-0.0135779521713 0.0126586123326 5.16104909201e-22)
(-0.0134198131276 0.0145164927224 7.08891112125e-22)
(-0.0132393767856 0.0163807492847 7.31816180333e-22)
(-0.0130210295942 0.018279059264 4.65315243052e-22)
(-0.0127721547837 0.0202564441889 -3.48272190995e-22)
(-0.0124149652655 0.0222720277519 -4.11213052666e-21)
(-0.0115845707715 0.0242453813537 -1.74920647159e-20)
(-0.013055238487 0.000714862073342 -1.41974711053e-22)
(-0.014029296836 0.00238305037302 -2.61095409646e-22)
(-0.0149529165595 0.00398319849589 -2.78473875669e-22)
(-0.0154830425185 0.00566059650939 -2.64115400573e-23)
(-0.0156602596511 0.00738359924071 1.67730928212e-22)
(-0.015644073588 0.00914162144608 2.13303084471e-22)
(-0.0155447920291 0.010931614378 2.15085477784e-22)
(-0.0154137549765 0.0127504112835 2.35157924069e-22)
(-0.0152668852457 0.0145942761466 2.69323387632e-22)
(-0.0151013383341 0.0164542184862 1.8513681922e-22)
(-0.014912778443 0.0183327624961 2.49471930237e-23)
(-0.0146862328338 0.0202305100516 -7.88503840307e-22)
(-0.0143215116124 0.0221385772053 -4.55853973735e-21)
(-0.0135193835846 0.0241347421285 -1.82726574713e-20)
(-0.0146331488634 0.000738718072936 -2.43608036042e-22)
(-0.0156404528577 0.00242680810321 -4.39245982115e-22)
(-0.0166122206222 0.00404749636444 -2.34718151029e-22)
(-0.017185167654 0.00573256120878 7.89544359586e-24)
(-0.0173985999479 0.00745906115576 1.69888438682e-22)
(-0.0174159290811 0.00921965349616 1.90658593143e-22)
(-0.0173469924993 0.011013120104 1.65620879916e-22)
(-0.0172389557681 0.0128328542209 1.61321410317e-22)
(-0.01710158822 0.0146737253001 1.57471202655e-22)
(-0.0169474881951 0.0165393993764 9.47639198104e-23)
(-0.0167794696816 0.0184168246793 -2.13302828746e-22)
(-0.0165802975669 0.0202954304152 -1.0671354503e-21)
(-0.0163016520352 0.022205244239 -4.7110698071e-21)
(-0.0157254460089 0.0242811959289 -1.624779056e-20)
(-0.0189594376094 0.0147847761133 9.98663042068e-23)
(-0.018808008789 0.0166722456728 6.45354268462e-23)
(-0.0186364118534 0.0185621107798 -9.65544653259e-23)
(-0.0184542450613 0.020428992626 -9.14506017415e-22)
(-0.0182710353532 0.0222786559942 -3.90277497954e-21)
(-0.0180007553602 0.0242548311104 -1.29433699318e-20)
(-0.020270026775 0.0206697684841 -6.88117342883e-22)
(-0.0201019862317 0.0225024829857 -2.68827192025e-21)
(-0.0201542992818 0.0243920198236 -8.2280344385e-21)
(-0.0222955851067 0.0250744908636 -5.29452200902e-21)
)
;

boundaryField
{
    back
    {
        type            noSlip;
    }
    sides
    {
        type            noSlip;
    }
    bottom
    {
        type            noSlip;
    }
    front
    {
        type            noSlip;
    }
    atmosphere
    {
        type            pressureInletOutletVelocity;
        value           nonuniform List<vector> 0();
    }
    floatingObject
    {
        type            movingWallVelocity;
        value           nonuniform List<vector> 4((0 -1.66533453694e-15 2.08166817117e-16) (0 -1.66533453694e-15 2.08166817117e-16) (0 0 0) (0 -3.33066907388e-15 2.08166817117e-16));
    }
    procBoundary8to3
    {
        type            processor;
        value           nonuniform List<vector> 8((-0.000908453537549 0.000273974070682 5.97886712785e-21) (-0.00112932826219 0.00121460753882 2.21456462948e-20) (-0.00129743384228 0.00208962186996 9.16344964686e-20) (-0.00138006046789 0.00304082916717 3.41900786224e-19) (-0.00133381211954 0.00408547703188 1.11656861273e-18) (-0.00102979210729 0.00444734824889 3.22453083785e-18) (0.00143345330705 0.00559565358674 7.16212819612e-18) (0.00768345222339 0.00180772108625 1.23804689174e-17));
    }
    procBoundary8to6
    {
        type            processor;
        value           nonuniform List<vector> 
16
(
(0.0133204425493 -0.00600754572586 4.40197188571e-18)
(-0.0014175740891 0.000738434955692 3.49580134281e-18)
(-0.0107614467496 0.0110540386555 2.51166607262e-18)
(-0.00913158616573 0.0185626326193 2.15791569091e-18)
(-0.00780613197479 0.0224569375916 1.26190468078e-18)
(-0.00701767306842 0.0244949467497 5.06194236287e-19)
(-0.00666889881291 0.0254689530907 1.39304812314e-19)
(-0.00679668352725 0.026116673342 1.9904732365e-20)
(-0.00734074085331 0.0262944948126 -1.9191672545e-20)
(-0.00835977824611 0.0260056081155 -3.9596159368e-20)
(-0.00984504874247 0.0258253584669 -5.22301911568e-20)
(-0.0118932566227 0.0260993364399 -5.28917285449e-20)
(-0.0144647209537 0.0264326470442 -4.47432444489e-20)
(-0.0174106491882 0.026465154934 -3.33328925792e-20)
(-0.0205206971718 0.0265870913635 -2.09423230338e-20)
(-0.0237597805751 0.0272931811925 -1.1956271085e-20)
)
;
    }
    procBoundary8to7
    {
        type            processor;
        value           nonuniform List<vector> 
17
(
(-0.0162392563352 0.00075944688308 -2.63214021817e-22)
(-0.017267139831 0.00245580948718 -2.02892426928e-22)
(-0.0182784372347 0.00408783946411 -1.51202273301e-22)
(-0.018889110099 0.00577669289946 3.79221478614e-23)
(-0.0191382580714 0.00750525617757 1.49584179555e-22)
(-0.0191916579018 0.00927108013304 1.60571849922e-22)
(-0.0191562601133 0.0110760859657 1.38440258505e-22)
(-0.0190758189875 0.012917041667 1.20738758039e-22)
(-0.0190758189875 0.012917041667 1.20738758039e-22)
(-0.0208491902053 0.0148874877659 5.17507890841e-23)
(-0.0207093300048 0.0168208292998 1.99788058276e-23)
(-0.0205054052329 0.018763296172 -1.09577756426e-22)
(-0.0205054052329 0.018763296172 -1.09577756426e-22)
(-0.0221523232616 0.0210182956233 -6.63375572663e-22)
(-0.0219407038298 0.0230290246142 -2.13657237153e-21)
(-0.0219407038298 0.0230290246142 -2.13657237153e-21)
(-0.0246363267562 0.0262822347708 -4.0771765391e-21)
)
;
    }
}


// ************************************************************************* //
