/*--------------------------------*- C++ -*----------------------------------*\
| =========                 |                                                 |
| \\      /  F ield         | OpenFOAM: The Open Source CFD Toolbox           |
|  \\    /   O peration     | Version:  v2012                                 |
|   \\  /    A nd           | Website:  www.openfoam.com                      |
|    \\/     M anipulation  |                                                 |
\*---------------------------------------------------------------------------*/
FoamFile
{
    version     2.0;
    format      ascii;
    class       volScalarField;
    location    "0.8";
    object      alpha.water;
}
// * * * * * * * * * * * * * * * * * * * * * * * * * * * * * * * * * * * * * //

dimensions      [0 0 0 0 0 0 0];


internalField   nonuniform List<scalar> 
1984
(
1.00000004911
1.0000000536
1.00000005183
1.0000000486
1.00000005205
1.00000009188
1.0000001371
1.00000017859
1.00000022075
1.00000019109
1.00000022014
1.00000023617
1.00000022788
1.00000017154
1
1
0.999999978515
0.999999149073
0.898802426417
0.101595780344
1.00000005523
1.00000005863
1.00000005616
1.0000000518
1.00000005416
1.00000009152
1.00000014365
1.00000017676
1.00000027359
1.00000021677
1.00000023687
1.00000024812
1.0000002358
1.00000016667
1
0.99999999998
0.999999975936
0.999999065656
0.897216913825
0.103133025113
1.00000005962
1.00000006272
1.00000005884
1.00000005278
1.00000005222
1.00000008285
1.00000011697
1.00000022114
1.00000023836
1.00000027384
1.00000024879
1.00000024913
1.00000022595
1.00000015508
1
0.999999999981
0.999999975615
0.999999054227
0.895057828619
0.100136329642
1.00000006414
1.00000006674
1.00000006087
1.00000005159
1.00000004517
1.00000006123
1.00000011473
1.00000018243
1.00000037542
1.00000029144
1.00000027227
1.00000024229
1.00000020946
1.00000013203
1
0.99999999999
0.999999975107
0.999999031926
0.891679242356
0.0964547361181
1.00000006958
1.00000007139
1.00000006308
1.00000005006
1.00000003803
1.00000004007
1.00000007802
1.00000016211
1.00000027856
1.0000004142
1.00000033038
1.0000002268
1.00000018414
1.00000010659
1
1
0.999999974324
0.999998998958
0.887119476516
0.0918008843547
1.00000007592
1.00000007667
1.00000006559
1.00000004871
1.00000003247
1.00000002647
1.00000005092
1.00000013019
1.00000022081
1.00000029954
1.00000031982
1.00000020362
1.00000015743
1.00000007938
1
1.00000000002
0.999999973241
0.999998954595
0.881238840154
0.0862011321039
1.00000008279
1.00000008232
1.00000006834
1.00000004744
1.0000000272
1.00000001707
1.00000003374
1.00000010405
1.00000018737
1.00000025488
1.00000028852
1.0000001797
1.0000001322
1.00000005581
1
1.00000000005
0.999999971933
0.999998899376
0.874073085995
0.0797531392864
1.00000008972
1.00000008802
1.00000007128
1.00000004644
1.00000002208
1.00000000834
1.00000002055
1.00000008152
1.00000016199
1.00000022224
1.00000025684
1.00000015847
1.00000011192
1.00000004106
1
1.00000000008
0.999999970409
0.999998833492
0.865511094874
0.0725695100345
1.00000009626
1.00000009346
1.00000007435
1.00000004608
1.00000001776
1.00000000098
1.00000000927
1.0000000643
1.00000013915
1.00000019764
1.00000022855
1.00000014141
1.00000009682
1.00000002968
1
1.00000000012
0.999999968677
0.999998757003
0.855444727156
0.0647385961244
1.00000010209
1.00000009836
1.00000007742
1.00000004649
1.00000001482
0.999999996847
1.00000000235
1.00000005019
1.00000012334
1.00000017613
1.00000020788
1.00000012914
1.00000008697
1.00000002219
1
1.00000000016
0.9999999668
0.999998670035
0.843763344654
0.0564166130028
1.00000010699
1.00000010258
1.00000008044
1.00000004782
1.00000001403
0.999999991641
0.999999997798
1.0000000419
1.00000010966
1.00000016264
1.00000019149
1.00000012106
1.00000008168
1.00000001868
1
1.0000000002
0.999999964794
0.999998573263
0.83035616398
0.0477123486084
1.00000011086
1.00000010603
1.00000008347
1.00000005033
1.00000001646
0.999999990897
0.999999995099
1.00000003642
1.00000010322
1.00000015038
1.00000018315
1.00000011713
1.00000008061
1.00000001881
1
1.0000000002
0.999999963291
0.999998467666
0.815123923047
0.0388039663306
1.00000011363
1.00000010869
1.00000008655
1.00000005409
1.00000002058
0.999999993799
0.999999996297
1.00000003658
1.00000009628
1.00000014466
1.00000017685
1.00000011684
1.00000008382
1.00000002248
1
1.00000000022
0.999999960802
0.999998355568
0.797955820405
0.0298572534584
1.00000011511
1.00000011029
1.0000000894
1.0000000586
1.00000002616
0.999999999747
0.999999999704
1.0000000388
1.00000009865
1.0000001491
1.00000018257
1.00000013417
1.00000010489
1.00000004165
1
1.00000000016
0.999999958956
0.999998237281
0.778772994932
0.0210227554374
1.00000011474
1.00000010998
1.00000009073
1.00000006151
1.00000003024
1.0000000107
1.00000001681
1.00000004643
1.00000011101
1.00000014591
1.00000023644
1.00000016984
1.00000015539
1.00000006644
1
1.00000000022
0.999999956477
0.999998118294
0.757525336617
0.012460123602
1.00000012548
1.00000011871
1.00000009153
1.00000006069
1.00000006574
1.00000002953
0.999999986162
1.00000004961
1.00000008859
1.00000017548
1.00000022837
1.00000020916
1.00000018
1.00000010643
1
1.00000000031
0.9999999781
0.999998007318
0.734232420231
0.00413628746865
1.00000014158
1.00000012209
1.00000009928
1.0000001216
1.00000005318
1.00000001682
0.99999998709
1.00000003739
1.00000012311
1.00000018871
1.00000026984
1.000000276
1.00000026734
1.00000015524
1
1.00000000045
0.999999964678
0.999997932454
0.705406840342
-4.49997027311e-25
1.00000014574
1.00000013775
1.00000014449
1.00000008309
1.00000007733
1.00000006642
0.999999994803
1.00000001178
1.00000008459
1.00000013915
1.00000019768
1.00000021939
1.00000021473
1.0000001183
1
1.00000000057
0.999999953023
0.9999978063
0.671325620995
-5.8234040999e-32
1.0000001877
1.00000018225
1.00000016349
1.00000010096
1.0000001124
1.00000000889
1.00000000365
1.00000004109
1.00000007982
1.00000012521
1.00000016956
1.00000019256
1.00000018642
1.00000009555
1
1.00000000069
0.999999949223
0.999997700528
0.635897586357
5.29395592034e-24
1.00000011776
1.00000011592
1.00000016222
1.00000010614
1.00000004173
1.00000002489
1.00000002972
1.00000005362
1.00000008132
1.00000012041
1.0000001584
1.0000001801
1.00000017376
1.00000008578
1
1.00000000082
0.999999948505
0.999997649369
0.599575021968
-1.72649474637e-45
1.00000008692
1.00000008541
1.00000008454
1.00000005671
1.00000003881
1.00000003351
1.00000003522
1.00000005435
1.00000007967
1.00000011537
1.00000014966
1.00000017059
1.00000016314
1.00000007487
1
1.00000000094
0.999999950604
0.999640672469
0.563276794871
-4.57562133914e-52
1.00000007161
1.00000006944
1.00000006151
1.00000004432
1.00000003361
1.00000002657
1.0000000305
1.00000005009
1.00000007306
1.00000010563
1.0000001375
1.00000015783
1.00000015039
1.00000006672
1
1.00000000104
0.999999953378
0.998532442941
0.527326234416
0
1.00000007513
1.00000007097
1.00000005912
1.00000004298
1.00000002959
1.00000002113
1.00000002822
1.00000004409
1.00000006366
1.00000009302
1.00000012547
1.00000014807
1.00000014299
1.00000006319
1
1.00000000077
0.999999956285
0.99650691237
0.492689052076
0
1.00000009101
1.00000008406
1.00000006796
1.00000004743
1.00000002914
1.00000001818
1.00000002659
1.00000003865
1.00000005607
1.00000008379
1.00000012061
1.00000014855
1.00000014684
1.00000006817
1
1.00000000059
0.999999959706
0.993667850889
0.459803645833
-5.04870979341e-30
1.00000010217
1.00000009324
1.00000007353
1.00000004631
1.00000001952
1.0000000095
0.999999989871
1
1.00000004622
1.00000007544
1.00000011546
1.00000014892
1.00000015143
1.00000007476
1
1.00000000047
0.99999996461
0.99008690849
0.429246062636
0
1.00000013917
1.00000012903
1.00000010375
1.00000006702
1.0000000164
0.999999967215
0.999999929401
0.999999947958
1.00000002541
1.00000008636
1.00000013768
1.00000018209
1.00000019221
1.00000011276
1
1.0000000006
0.999999972269
0.985972482229
0.401559636081
0
1.00000009864
1.00000008847
1.00000006341
1.00000003019
0.999999976799
0.999999888363
0.999999885909
0.999999886232
0.999999938082
1.0000000642
1.00000011499
1.00000016078
1.00000017779
1.00000010901
1
1.00000000249
0.999999980602
0.981558978219
0.377239467441
-6.16297582204e-34
1.00000007996
1.00000006929
1.00000004592
1.00000001816
0.999999979942
0.999999924321
0.999999885903
0.999999885903
0.999999984353
1.00000008819
1.00000013824
1.00000016267
1.00000018258
1.00000012045
1
1.00000000305
0.999999994134
0.977248364657
0.356887807698
0
1.00000006445
1.00000005211
1.00000003158
1.0000000065
0.999999983421
0.999999974989
0.999999928368
0.999999951092
1.00000001853
1.00000009559
1.00000016741
1.00000018373
1.00000020543
1.00000014523
1
1.00000000035
1.0000000012
0.973535993504
0.341139941124
0
1.0000000465
1.00000003433
1.00000001376
0.999999991294
0.999999969733
0.999999965448
0.999999965219
0.99999999777
1.00000004784
1.00000012621
1.00000020952
1.00000021747
1.0000002409
1.00000017948
1.00000000287
1
1.00000000016
0.970925582444
0.330647968523
-5.56546692334e-32
1.000000028
1.00000001298
0.99999999514
0.999999967439
0.999999945845
0.999999930625
0.99999994602
0.999999998413
1.00000007821
1.00000016627
1.00000026187
1.00000025743
1.00000028196
1.00000021811
1.00000001206
1
1
0.969884606359
0.325975376638
7.52316384526e-38
1.00000000624
0.999999991724
0.999999966546
0.999999941353
0.999999921107
0.999999893049
0.99999992671
1.00000000184
1.00000010995
1.00000021022
1.00000032077
1.00000029934
1.00000032222
1.00000025628
1.00000004059
1
1
0.970762978412
0.327782286214
-9.46243471395e-66
0.999999984399
0.999999959923
0.999999936838
0.999999909274
0.999999880814
0.99999986836
0.999999924779
1.00000001196
1.00000014358
1.00000025652
1.00000038438
1.00000034078
1.00000035748
1.0000002888
1.00000007167
1.00000000166
1
0.974548619684
0.33590204384
0
0.999999951201
0.99999992694
0.999999895687
0.999999867352
0.999999832551
0.999999868354
0.999999932714
1.00000002848
1.00000018004
1.00000030437
1.00000045071
1.00000038026
1.0000003851
1.00000031348
1.00000009136
1.00000001606
1
0.982290248445
0.354847475894
4.5917748079e-41
0.999999920875
0.999999887059
0.99999985523
0.999999826295
0.999999823837
0.999999875786
0.999999946478
1.00000005155
1.00000021915
1.00000035202
1.00000051601
1.00000041617
1.00000040302
1.00000032774
1.00000011778
1.00000005467
1
0.994486206995
0.385791254443
-2.80066811798e-21
0.999999886981
0.999999843901
0.999999816936
0.999999816961
0.999999849461
0.999999896295
0.999999964882
1.00000008037
1.00000025915
1.00000039598
1.00000057438
1.00000044562
1.00000040938
1.00000032844
1.00000014566
1.00000008668
1.00000000006
1
0.438850190579
0.000365879385753
0.999999825714
0.999999816936
0.999999816935
0.999999820312
0.999999863889
0.999999919787
0.999999990531
1.00000011335
1.00000029709
1.00000043137
1.00000061829
1.00000046395
1.0000004023
1.00000031431
1.00000016313
1.00000009832
1.00000003847
1
0.504061942419
0.00307341413871
0.999999817132
0.999999816935
0.999999816936
0.999999831696
0.99999987629
0.999999940339
1.00000001721
1.00000014891
1.00000032821
1.00000045255
1.0000006402
1.00000046514
1.00000037711
1.00000029241
1.00000017075
1.00000009975
1.00000007296
1
0.553073282155
0.00556658860501
0.999999853846
0.999999834606
0.999999837919
0.999999869776
0.999999899333
0.999999962034
1.00000004407
1.00000018477
1.00000035821
1.00000046523
1.00000065453
1.00000046632
1.00000037867
1.00000030997
1.0000002011
1.00000013419
1.00000011309
1
0.567535970341
-1.35525271561e-21
0.999999857828
0.99999986093
0.999999867169
0.999999882982
0.999999929598
0.999999989593
1.00000009051
1.00000025657
1.0000003849
1.00000050532
1.00000063284
1.00000046837
1.00000040418
1.00000035574
1.00000028272
1.00000017079
1.00000018046
1.00000000341
0.911121961263
0.114825183852
0.99999983
0.999999833589
0.999999858272
0.99999987445
0.999999944255
1.00000002356
1.0000001718
1.000000283
1.0000004105
1.00000041354
1.00000061877
1.00000044678
1.00000033683
1.0000002418
1.00000011323
1.00000013353
1.00000017742
1.00000004588
0.76373448918
0.0102045354822
0.999999810252
0.99999980802
0.99999978355
0.999999850394
0.999999896707
1.00000005727
1.00000017531
1.00000036297
1.00000043218
1.00000049899
1.00000054478
1.00000037421
1.00000018847
1.0000000524
0.999999874349
0.999999929581
1.0000001911
1.00000011003
0.753236606616
0.0105915394534
0.999999702697
0.999999670546
0.999999670546
0.999999670546
0.999999777207
0.999999897225
1.00000015917
1.00000024349
1.00000025756
1.00000029369
1.00000030286
1.00000020807
0.999999876974
0.999999680689
0.999999626496
0.999999629827
1.00000001727
1.00000004638
0.738772604841
-3.58732406867e-41
0.999999820261
0.999999786548
0.999999772922
0.999999771604
0.999999757777
0.999999961935
1.00000006373
1.00000012231
1.00000016701
1.00000017171
1.00000016149
1.00000013973
1.00000004773
0.999999708484
0.999999626496
0.999999806063
1.0000000172
1.00000006678
0.859950571247
2.11758236814e-23
0.999999850116
0.999999844414
0.999999841957
0.999999852561
0.999999858648
0.999999921228
0.999999993425
1.00000003964
1.00000005464
1.00000006728
0.999999939952
0.999999781018
0.999999762458
0.999999800351
0.999999897589
0.999999990563
1.00000005343
1.00000008341
1
0.259039340183
0.999999865938
0.999999864627
0.999999868218
0.999999881977
0.999999901202
0.999999922643
0.999999948994
0.999999984065
1.00000000999
0.99999982153
0.999999638808
0.999999426152
0.999999218737
0.999999504347
0.999999862762
0.999999962597
1.00000005269
1.00000010764
1
0.29959376445
0.999999881831
0.999999884764
0.999999889212
0.9999998993
0.999999914376
0.999999933825
0.999999952254
0.999999971689
0.999999904481
0.99999968567
0.999999591554
0.999999212218
0.999999082857
0.999999160218
0.999999623672
0.999999934559
1.00000011751
1.00000022309
0.911543977911
-1.73472347598e-19
0.999999924972
0.999999927977
0.99999993009
0.999999931781
0.999999935674
0.999999948876
0.999999948611
0.999999895162
0.999999788089
0.999999773422
0.999999726409
0.999999556058
0.999999082743
0.999999082441
0.999999529063
0.999999983683
1.00000021497
1.00000022926
0.894802237719
-1.5156659257e-22
0.999999972873
0.999999973837
0.999999970315
0.999999963719
0.99999995607
0.999999940894
0.999999882635
0.999999907254
0.999999082759
0.999999083654
0.999999473084
1
1.00000035584
1.00000041686
1
0.00354502497736
0.999999998854
0.999999992732
0.999999980751
0.999999963898
0.999999947743
0.999999916617
0.99999984164
0.999999884237
0.999999487855
0.999999670279
0.999999973651
1.00000029164
1.00000051501
1.00000055557
1
0.411457393293
0.999999998322
0.999999974737
0.999999947861
0.999999919189
0.999999900444
0.999999847035
0.999999756211
0.999999870448
0.999999651786
0.999999927499
1.00000020348
1.00000044408
1.00000058178
1.0000005032
1
0.411460568375
0.999999971821
0.999999928486
0.999999888064
0.999999863434
0.999999831153
0.999999748628
0.999999671027
0.999999868176
0.999999679657
0.999999928931
1.00000022229
1.00000048784
1.00000058239
1.00000032766
1
0.00354578197209
0.999999896942
0.999999833282
0.999999773113
0.999999748043
0.999999749481
0.999999693688
0.999999549626
0.99999953873
0.999999466816
0.999999466816
0.999999500469
0.999999712428
0.999999584467
0.999999745035
1.00000009566
1.00000051492
1.00000061211
1
0.894807995864
-2.59818395645e-22
0.99999979788
0.999999743787
0.999999709632
0.999999689117
0.999999702818
0.999999758901
0.99999976349
0.99999960798
0.999999466816
0.999999466816
0.999999575185
0.999999891939
0.999999978862
1.00000018699
1.00000039863
1.00000066817
1.00000068914
1
0.911547789177
0
0.99999968398
0.999999623045
0.99999959263
0.999999593739
0.9999996157
0.999999674343
0.999999684988
0.999999480432
0.999999467101
0.99999958214
0.999999997791
1.00000003629
1.00000019593
1.00000043536
1.00000070166
1.00000087309
1.00000080704
1
1
0.299596646068
0.999999560724
0.999999501009
0.999999469899
0.999999496568
0.999999550176
0.999999499252
0.999999459902
0.999999476262
0.999999693028
1.00000001433
1.00000012572
1.00000022513
1.0000004278
1.00000067883
1.00000098473
1.00000104965
1.00000087269
1.00000043712
1
0.259037647048
0.999999334665
0.999999289227
0.999999264265
0.999999281367
0.999999320378
0.999999370184
0.999999519522
0.999999772365
1.00000002185
1.00000016922
1.00000025249
1.00000039309
1.00000062887
1.0000008778
1.00000119641
1.00000112826
1.00000081762
1.00000036923
0.859948265342
2.11758236814e-23
0.999999243744
0.999999243744
0.999999243756
0.999999243916
0.999999301608
0.999999485346
0.999999759007
0.999999998901
1.00000016151
1.00000026137
1.00000037159
1.00000053554
1.00000078085
1.00000100524
1.00000130646
1.00000109915
1.00000069198
1.00000018453
0.738771898828
5.29395592034e-24
0.999999439613
0.999999430227
0.999999458624
0.999999529674
0.999999578197
0.999999716327
0.999999913671
1.00000008709
1.00000021978
1.00000033709
1.00000045789
1.0000006273
1.00000086346
1.00000104659
1.00000130366
1.00000097615
1.00000053009
1.00000009598
0.753235801574
0.0105920192488
0.99999964405
0.999999657917
0.99999968196
0.999999730686
0.999999793737
0.99999987247
0.999999996153
1.00000012275
1.00000024994
1.00000037315
1.000000495
1.00000065722
1.00000086839
1.00000100208
1.00000119694
1.00000079088
1.00000036231
1.00000003521
0.763732244104
0.0102046759351
0.999999728483
0.999999735613
0.999999748183
0.999999780641
0.999999819639
0.99999988236
0.99999999835
1.00000011494
1.00000024158
1.00000036761
1.00000048411
1.00000062968
1.00000080418
1.00000088822
1.00000101175
1.00000058011
1.00000020804
1
0.911119725597
0.114823788362
0.99999978883
0.999999788158
0.999999788079
0.999999772073
0.999999760544
0.999999795909
0.999999941798
1.000000076
1.00000020023
1.00000033194
1.00000044209
1.00000056957
1.00000070016
1.00000073768
1.00000078801
1.00000037805
1.00000009643
1
0.567536265013
0
0.999999821354
0.99999980933
0.999999767452
0.999999760543
0.999999760549
0.999999808596
0.999999918385
1.00000003638
1.00000015483
1.000000286
1.00000038154
1.00000050422
1.00000059221
1.00000059223
1.00000057549
1.00000020616
1.00000003656
1
0.553073308259
0.00556666351862
0.999999848444
0.999999833425
0.999999819988
0.999999786632
0.999999817141
0.999999897037
0.999999964794
1.00000003238
1.00000012693
1.00000022133
1.00000033306
1.00000044149
1.00000049496
1.00000047106
1.00000041918
1.00000008708
1.00000000513
1
0.504061564879
0.00307343744715
0.99999995754
0.999999945151
0.999999928859
0.999999917929
0.999999914016
0.999999920297
0.999999946471
0.99999998616
1.00000007805
1.00000017838
1.00000025275
1.00000036911
1.00000043052
1.00000038379
1.00000030082
1.00000003976
0.99999999685
1
0.438849957865
0.000365882135288
0.999999965156
0.999999953281
0.999999934743
0.999999913475
0.999999905816
0.999999903638
0.999999914755
0.999999960713
1.00000000519
1.00000005874
1.00000012288
1.0000002568
1.00000030179
1.00000038175
1.00000014629
1.0000000099
1
0.994485879727
0.385791559193
-2.6765910261e-21
0.999999975403
0.999999963706
0.999999946159
0.99999992741
0.999999907571
0.99999990433
0.999999924369
0.999999953685
0.999999995742
1.00000004414
1.00000009626
1.00000015785
1.00000022904
1.00000023253
1.00000007465
0.999999999465
1
0.98229019608
0.354847694143
-4.4428646182e-24
0.99999998461
0.999999974823
0.999999959515
0.999999944281
0.99999993465
0.999999933134
0.999999940419
0.99999996478
1.00000000242
1.00000004978
1.0000000983
1.00000015438
1.00000021068
1.00000018174
1.00000003362
1.00000000076
1
0.974548824891
0.335902072023
6.7777369935e-22
0.999999994881
0.999999986414
0.999999972217
0.9999999574
0.999999947308
0.999999945545
0.999999956294
0.999999980117
1.00000001649
1.00000006106
1.00000010567
1.00000015783
1.00000020375
1.00000016803
1.00000003123
1
1
0.970763136924
0.327782223732
0
1.00000000459
0.99999999752
0.999999984477
0.999999970914
0.99999996167
0.999999960754
0.999999971093
0.999999993614
1.00000002853
1.00000006954
1.00000010933
1.00000015551
1.00000018932
1.0000001479
1.0000000299
1
1
0.969884662885
0.32597537855
0
1.00000001409
1.00000000749
0.999999995253
0.999999981624
0.999999972255
0.999999970787
0.999999979725
1.00000000133
1.00000003416
1.00000007184
1.00000010715
1.00000014526
1.00000016536
1.00000012159
1.00000000958
1
1.0000000001
0.970925560803
0.330647922835
-1.36467250167e-30
1.00000002439
1.00000001764
1.00000000455
0.999999989823
0.999999978554
0.999999975813
0.999999982776
1.00000000284
1.0000000341
1.00000007018
1.00000010295
1.00000013267
1.00000013837
1.00000009279
1
1.00000000047
1.00000000389
0.973536007395
0.341139818023
6.01853107621e-37
1.00000003758
1.00000002943
1.00000001403
0.999999996081
0.999999981345
0.999999974044
0.999999979949
1.00000000009
1.00000003249
1.00000007026
1.00000010406
1.00000012691
1.00000012759
1.00000007217
1
1.00000000434
0.999999996958
0.977248382132
0.356887635848
-3.85185988877e-35
1.00000004961
1.00000004055
1.00000002258
1.00000000113
0.999999982576
0.999999970764
0.999999974677
0.99999999823
1.00000003436
1.0000000763
1.00000011401
1.00000013736
1.0000001325
1.00000006332
1
1.00000000316
0.999999979804
0.981558967287
0.377239288425
0
1.00000005729
1.00000004904
1.00000003036
1.00000000739
0.999999986489
0.999999971776
0.999999975225
1.00000000192
1.00000004117
1.00000008653
1.00000012806
1.00000015408
1.00000014719
1.00000006764
1
1.00000000063
0.999999970871
0.985972460497
0.401559434133
0
1.00000005657
1.00000005061
1.00000003326
1.00000001105
0.999999992264
0.999999979317
0.999999989554
1.00000001061
1.00000005044
1.00000009843
1.00000014409
1.00000017402
1.00000016902
1.00000008384
1
1.00000000077
0.999999965115
0.990086892897
0.429245809405
0
1.00000004872
1.0000000469
1.00000003619
1.00000002218
1.00000001125
1.0000000081
1.00000001553
1.00000003633
1.00000006735
1.00000010489
1.00000014071
1.00000016422
1.00000015742
1.00000007338
1
1.00000000101
0.999999959641
0.993667832214
0.459803313626
-5.04870979341e-30
1.00000005498
1.00000005485
1.00000004599
1.00000003411
1.00000002536
1.00000002485
1.00000003465
1.00000005723
1.00000009081
1.00000013059
1.00000016787
1.00000019214
1.00000018347
1.00000009155
1
1.00000000092
0.99999995625
0.996506895771
0.492688617869
0
1.0000000634
1.00000006439
1.00000005686
1.00000004647
1.00000003856
1.00000003932
1.00000005128
1.00000007706
1.00000011366
1.00000015689
1.00000019727
1.00000022274
1.0000002106
1.00000011037
1
1.00000000064
0.999999954039
0.998532438162
0.527325672946
0
1.00000007265
1.00000007464
1.00000006821
1.00000005903
1.0000000509
1.00000005171
1.00000006532
1.00000009369
1.00000013443
1.00000018343
1.00000023101
1.0000002601
1.0000002429
1.00000013324
1
1.00000000073
0.999999951289
0.999640673934
0.56327614266
-4.5742699387e-52
1.00000008286
1.00000008705
1.00000008306
1.0000000779
1.00000006753
1.00000006742
1.00000008175
1.00000011355
1.00000016063
1.0000002204
1.00000028379
1.00000032694
1.00000030208
1.00000017405
1
1.00000000051
0.999999949881
0.999997653386
0.59957430879
-1.72599174159e-45
1.00000009887
1.00000011301
1.00000012257
1.00000010452
1.00000008876
1.00000008184
1.00000010283
1.00000013243
1.00000019497
1.00000026711
1.00000040695
1.00000041341
1.00000036634
1.00000021078
1
1.0000000004
0.999999951752
0.999997707165
0.635896792699
-8.72103150164e-39
1.00000014514
1.00000016856
1.00000012898
1.00000014187
1.00000009844
1.00000009947
1.00000010616
1.00000015378
1.00000021282
1.00000038304
1.00000042856
1.00000056233
1.00000041636
1.00000026406
1
1.00000000028
0.999999955367
0.999997814062
0.671324804406
-5.82175605535e-32
1.00000017063
1.00000018936
1.00000016257
1.00000018934
1.00000013092
1.00000011738
1.00000014036
1.00000017039
1.00000027408
1.00000034557
1.00000066481
1.00000063818
1.00000053746
1.00000029033
1
1.00000000017
0.99999996884
0.999997944677
0.705406043948
2.07259508368e-23
1.00000019909
1.00000030517
1.0000001712
1.00000010029
1.0000000845
1.00000007736
1.00000008552
1.0000001057
1.00000017304
1.00000030916
1.0000004714
1.00000063413
1.00000047757
1.00000018109
1
1.0000000001
0.999999980405
0.999998015316
0.734231816806
0.00413605192112
1.00000020914
1.00000026894
1.0000001267
1.00000009953
1.00000008319
1.00000007677
1.00000008237
1.00000010313
1.00000016902
1.00000035741
1.00000040867
1.00000050887
1.00000039993
1.00000017096
1
1.00000000008
0.999999959478
0.999998127702
0.757524750342
0.0124598504557
1.00000022313
1.00000023895
1.00000012354
1.00000009869
1.00000008342
1.00000007626
1.00000008306
1.00000011009
1.00000020318
1.0000003557
1.00000049168
1.00000059107
1.00000028396
1.00000016609
1
1.00000000005
0.999999963322
0.999998247078
0.778772484367
0.0210223947574
1.00000024664
1.00000014046
1.00000011771
1.00000009713
1.00000008187
1.00000007574
1.00000008376
1.00000012623
1.00000025659
1.00000045056
1.00000041213
1.00000051957
1.0000002821
1.00000017409
1
1.00000000007
0.999999964445
0.999998365176
0.797955403097
0.0298568024438
1.00000013565
1.00000012835
1.0000001123
1.00000009389
1.00000007983
1.0000000739
1.00000008973
1.00000016721
1.0000004117
1.00000036693
1.00000050778
1.00000044006
1.00000028599
1.00000018056
1
1.00000000004
0.999999966502
0.999998477321
0.815123602532
0.0388034665923
1.00000012299
1.00000012067
1.00000010733
1.00000009049
1.00000007668
1.00000007306
1.0000001045
1.00000027115
1.00000032209
1.00000051831
1.00000053703
1.00000032684
1.00000028279
1.00000018899
1
1.00000000003
0.999999967938
0.999998582253
0.830355906119
0.0477118074723
1.00000011645
1.00000011558
1.00000010308
1.00000008673
1.00000007344
1.00000007315
1.00000013178
1.00000024923
1.00000036307
1.0000005723
1.00000033131
1.00000030813
1.00000027825
1.00000019176
1
1.00000000002
0.99999996958
0.999998678174
0.84376311319
0.0564160441961
1.00000011258
1.00000011163
1.00000009897
1.00000008254
1.00000006964
1.00000007068
1.00000013329
1.00000019561
1.0000003701
1.00000039837
1.00000034874
1.00000029929
1.00000027371
1.00000019266
1
1.00000000001
0.99999997108
0.999998763883
0.855444498236
0.0647380018692
1.00000010946
1.00000010787
1.00000009466
1.00000007791
1.0000000654
1.00000006387
1.00000010117
1.00000019619
1.00000028757
1.00000050049
1.00000040766
1.00000028896
1.00000026843
1.00000019506
1
1
0.99999997228
0.999998838972
0.865510840258
0.0725688969978
1.0000001062
1.00000010392
1.0000000902
1.00000007322
1.00000006129
1.0000000583
1.00000007985
1.00000016002
1.00000023561
1.00000030882
1.00000038076
1.00000027899
1.00000026892
1.00000019905
1
0.999999999993
0.999999973417
0.999998903706
0.874072785163
0.0797525219251
1.00000010258
1.0000000998
1.0000000858
1.00000006882
1.00000005703
1.00000005465
1.00000007063
1.00000013926
1.00000022932
1.00000030647
1.00000035939
1.00000027429
1.0000002712
1.00000020884
1
0.999999999988
0.999999974422
0.999998958
0.881238528559
0.0862005211837
1.00000009892
1.00000009591
1.00000008198
1.00000006537
1.00000005369
1.0000000517
1.00000006852
1.00000014553
1.00000029244
1.00000025816
1.0000004073
1.00000028148
1.0000002815
1.00000021999
1
0.999999999987
0.999999975392
0.999999002082
0.887119192485
0.0918002841027
1.00000009603
1.00000009291
1.0000000796
1.000000064
1.00000005287
1.00000005223
1.00000007683
1.00000020722
1.00000021284
1.00000033325
1.00000034223
1.00000029013
1.00000029231
1.00000023788
1
0.999999999988
0.999999976201
0.999999035188
0.891678998257
0.0964541540684
1.00000009923
1.00000009209
1.00000007848
1.00000006417
1.00000005447
1.00000005618
1.0000000973
1.00000017708
1.00000029213
1.00000039139
1.00000027141
1.00000029553
1.00000030695
1.00000025246
1
0.999999999992
0.999999976956
0.999999058114
0.895057616164
0.100135763566
1.00000009901
1.00000008966
1.00000007692
1.00000006427
1.00000005678
1.00000006147
1.00000011043
1.00000021409
1.00000022542
1.00000035659
1.00000027892
1.0000003042
1.00000031193
1.00000026025
1
0.999999999997
0.999999977395
0.999999069883
0.897216711472
0.103132490702
1.00000004806
1.00000004237
1.00000003553
1.00000003081
1.00000002977
1.00000003844
1.00000010337
1.00000009728
1.00000015812
1.00000020622
1.0000001512
1.00000016066
1.00000016193
1.00000012214
1
1
0.999999978991
0.999999150409
0.898802123376
0.101595384481
)
;

boundaryField
{
    back
    {
        type            zeroGradient;
    }
    sides
    {
        type            zeroGradient;
    }
    bottom
    {
        type            zeroGradient;
    }
    front
    {
        type            zeroGradient;
    }
    atmosphere
    {
        type            inletOutlet;
        inletValue      uniform 0;
        value           nonuniform List<scalar> 
100
(
0
0
0
0
0
0
0
0
0
0
0
0
0
0
0
0
0
0
0
0
0
0
0
0
0
0
0
0
0
0
0
0
0
0
0
0.000365879385753
0
0
0
0.114825183852
0
0
0
0
0.259039340183
0.29959376445
0
0
0
0.411457393293
0.411460568375
0
0
0
0.299596646068
0.259037647048
0
0
0
0
0.114823788362
0
0
0
0.000365882135288
0
0
0
0
0
0
0
0
0
0
0
0
0
0
0
0
0
0
0
0
0
0
0
0
0
0
0
0
0
0
0
0
0
0
0
)
;
    }
    floatingObject
    {
        type            zeroGradient;
    }
}


// ************************************************************************* //
