/*--------------------------------*- C++ -*----------------------------------*\
| =========                 |                                                 |
| \\      /  F ield         | OpenFOAM: The Open Source CFD Toolbox           |
|  \\    /   O peration     | Version:  v2012                                 |
|   \\  /    A nd           | Website:  www.openfoam.com                      |
|    \\/     M anipulation  |                                                 |
\*---------------------------------------------------------------------------*/
FoamFile
{
    version     2.0;
    format      ascii;
    class       volVectorField;
    location    "0.8";
    object      ddt0(rho,U);
}
// * * * * * * * * * * * * * * * * * * * * * * * * * * * * * * * * * * * * * //

dimensions      [1 -2 -2 0 0 0 0];


internalField   nonuniform List<vector> 
1984
(
(4.11545353398 -4.06660598678 2.70664954289e-19)
(5.24353169295 -10.4961447191 2.4202852663e-18)
(5.39077861914 -19.189601395 3.32114205374e-21)
(5.40114888125 -27.6601540951 -1.99000939968e-19)
(5.48095996531 -36.2147712546 -5.45981483789e-19)
(5.62738209676 -45.0257344072 -4.01785674996e-19)
(5.82713573144 -54.1972221634 -1.02840983684e-18)
(6.07363281679 -63.810772198 1.01987629351e-18)
(6.36400281077 -73.9433339324 1.30408762409e-18)
(6.69660562438 -84.6684064779 4.52179100917e-18)
(7.07087011849 -96.0578503354 -1.79822893619e-19)
(7.48795131663 -108.209522505 3.52815840215e-19)
(7.94382870932 -121.21651679 1.22004223689e-19)
(8.33517515644 -134.877193488 1.37310868809e-18)
(8.26471133675 -149.228673318 2.99621847427e-20)
(7.38291128149 -166.21697137 4.79261319906e-19)
(7.56968784385 -183.271632357 2.80229102385e-18)
(17.201557852 -193.635651101 -1.14456024462e-17)
(50.7145667161 -21.9331115526 -3.3370985228e-18)
(-30.5205593752 217.616506011 1.3939491108e-18)
(10.5342304601 -5.18469970782 2.01339794917e-19)
(11.8610026254 -11.6496387062 7.51715129164e-19)
(12.1785665044 -20.12862684 -3.34573641975e-20)
(12.3928205278 -28.660356352 -8.75437535974e-19)
(12.7495460561 -37.3638888765 -3.74130959112e-18)
(13.2491807881 -46.3848761342 -1.72737348442e-18)
(13.872662526 -55.7956209009 3.04102639379e-19)
(14.6105982981 -65.662061581 6.44451519058e-19)
(15.4590770874 -76.0546389413 -5.96156211147e-19)
(16.4174274144 -87.0435132497 -2.60288186845e-18)
(17.4858842992 -98.695296391 4.3124483605e-20)
(18.6692078245 -111.100044198 -9.30429944814e-19)
(19.9753472954 -124.36562173 1.31792856383e-18)
(21.3677598069 -138.266203854 4.32798172607e-19)
(22.7588660935 -152.61829788 8.15943739416e-19)
(24.4267706295 -170.655729694 -6.71758866071e-19)
(26.6346436488 -194.092671884 4.11621222511e-18)
(26.7499996303 -203.651837054 -1.79476996946e-17)
(13.1386594289 -16.1736756416 -1.30365439626e-17)
(-11.5469195214 202.936077615 -1.24027727314e-19)
(18.8827985564 -5.26852971562 2.06289140555e-21)
(20.0654702892 -11.6418680917 3.68130735213e-18)
(20.5545289855 -20.0362606839 5.68848790721e-19)
(21.0434049254 -28.4666278139 -1.82649708075e-19)
(21.6946097963 -37.0671098189 -7.44976280957e-19)
(22.5316054331 -45.9910823276 -2.39072117508e-19)
(23.5532435098 -55.3079434255 -3.97730758261e-19)
(24.7575507866 -65.0817282123 -2.34608883543e-19)
(26.1436471621 -75.3811779659 7.28090040994e-19)
(27.7108143656 -86.2756480218 -1.98195170734e-19)
(29.4591094179 -97.8304883393 -6.94779475481e-20)
(31.3895815206 -110.13480939 3.60097580557e-19)
(33.5028525094 -123.304690729 1.91055310676e-19)
(35.78085697 -137.110461941 6.41162194226e-19)
(38.2132097449 -151.248318806 -9.12604198538e-19)
(40.9219796276 -168.373484317 -5.4567038823e-19)
(44.0197569892 -189.855584413 -3.76986032927e-18)
(47.6344510243 -199.756416243 1.75681752843e-17)
(29.9012084947 -13.7103345161 -2.83891763895e-17)
(-24.0091186913 205.803373437 3.88320393495e-20)
(26.9721866051 -5.08324182094 1.67792954311e-18)
(28.2262553242 -11.2555793734 3.75339940656e-18)
(28.871621215 -19.5369201057 4.16100148188e-19)
(29.6138185996 -27.7947781356 6.00446598596e-20)
(30.5722720837 -36.2006048214 -5.1128806909e-20)
(31.7738537666 -44.9220801458 -1.49751025897e-19)
(33.2244148979 -54.0342010136 3.24591149317e-19)
(34.9256612456 -63.6020571823 -2.66331973604e-19)
(36.8786768282 -73.6952563508 6.38185111991e-19)
(39.0835617807 -84.3829610888 7.45631641805e-19)
(41.5397251584 -95.7302253703 -2.98962058836e-19)
(44.2471514385 -107.827875442 -3.51467370383e-19)
(47.204281692 -120.796982359 2.127353593e-19)
(50.3914755104 -134.400314936 2.86419252262e-19)
(53.7798050325 -148.334479015 5.74484572943e-19)
(57.3112714794 -165.35560173 7.3235695184e-19)
(60.2255840959 -186.285539823 -8.36209352834e-19)
(62.3861624031 -195.391948079 -2.97593371362e-18)
(34.4992448814 -9.63235685324 -4.59084459581e-18)
(-29.5656806877 204.656459396 7.87447125688e-19)
(34.579052279 -4.8688441361 2.14896680386e-18)
(36.0142800816 -10.7691832007 4.61301788478e-18)
(36.802551399 -18.8257374174 7.5556496696e-19)
(37.7634401738 -26.8271536022 9.71020919112e-20)
(39.0090824761 -34.9635738074 1.65779789976e-20)
(40.5640013349 -43.4075345058 4.66304961411e-20)
(42.4353381444 -52.2379528062 6.93279969273e-20)
(44.6265762837 -61.5221612056 -2.85230545331e-20)
(47.139387722 -71.3303069357 1.75383979508e-21)
(49.9752036162 -81.7328171177 5.04625173441e-20)
(53.1330760755 -92.7952715851 -1.20457373152e-20)
(56.6123120851 -104.608816021 6.62326538417e-21)
(60.4104287052 -117.299264699 6.62965796e-20)
(64.5033426912 -130.615889691 3.66210320102e-19)
(68.839096554 -144.234740299 1.23858387664e-19)
(73.2840400434 -161.015910388 3.16654021224e-19)
(76.9232492545 -181.458149932 -6.11230847981e-19)
(79.6190015142 -189.956773197 -9.86941288862e-18)
(40.4200173678 -1.99122565614 -2.20532699236e-17)
(-37.0497944481 203.320398034 -6.6491087594e-19)
(41.8073998793 -4.64499751849 -6.34889359985e-19)
(43.481732663 -10.2173492957 5.54442638112e-18)
(44.4174034132 -17.9486332611 1.01511655132e-18)
(45.5840263529 -25.6120580331 1.07418887505e-19)
(47.105631498 -33.4060754825 2.01149394706e-20)
(49.006186549 -41.5016370562 -2.92687744523e-20)
(51.2928946564 -49.9792616366 1.23953120948e-20)
(53.969940714 -58.9076606485 -8.24983377515e-21)
(57.040031911 -68.3584688201 -2.04769525317e-20)
(60.5044395311 -78.4031767431 1.55682902693e-20)
(64.3631587555 -89.1086134847 -6.2582768868e-21)
(68.6144083655 -100.567527906 -5.08253942279e-20)
(73.253207191 -112.910098083 8.06792664618e-20)
(78.2484771272 -125.875807725 7.81567450415e-19)
(83.5271668243 -139.122036794 6.65192344222e-20)
(88.8721916548 -155.603102019 2.48698943582e-19)
(93.2208701282 -175.622904485 -1.57005063693e-18)
(96.5524510517 -183.640935949 -9.27999262955e-18)
(45.4705101523 7.86565061654 -9.84795574582e-18)
(-45.2485189371 201.477096894 -6.33659087901e-19)
(48.6460928268 -4.39863144384 -4.44776603223e-20)
(50.5876575544 -9.58564480307 8.28517411962e-19)
(51.6769669921 -16.9103131313 -1.99029381203e-19)
(53.0456179554 -24.1601083131 3.18515835099e-20)
(54.8375624649 -31.5396936794 5.84781233509e-21)
(57.0788453863 -39.2158746535 3.31330077455e-21)
(59.7771572181 -47.2695511166 -1.75211061076e-21)
(62.9374485663 -55.7703820157 -5.93785563003e-20)
(66.5634085497 -64.7912982038 1.31717397996e-20)
(70.6570193519 -74.4055279491 -3.21409114489e-20)
(75.2183165268 -84.6817718869 -1.33631561792e-20)
(80.2453022296 -95.7155191296 8.52190502045e-21)
(85.7300395712 -107.64254587 7.11310438272e-20)
(91.634490261 -120.195332971 4.22983443028e-19)
(97.8697731508 -133.031998372 -8.11319071234e-19)
(104.13077219 -149.203897924 -3.87756275436e-18)
(109.21162432 -168.711295575 8.06879159793e-18)
(113.223942324 -176.638365374 -2.87842601119e-17)
(49.3066343975 19.8878736282 -1.72980801824e-17)
(-53.8587994823 198.738482851 -1.81871715612e-18)
(55.0323386627 -4.12219425902 5.07561352942e-19)
(57.249759012 -8.86566905189 -6.44282502126e-19)
(58.4950719136 -15.7115306746 1.21768421404e-19)
(60.0633171915 -22.4757690789 7.19771784887e-20)
(62.1210483366 -29.3700468873 -2.08778404927e-21)
(64.6981211164 -36.555811664 -6.28825968797e-21)
(67.8035442785 -44.1137653419 -1.03678132523e-20)
(71.4436070781 -52.1141870365 -5.14704456147e-20)
(75.6234271737 -60.6314352626 2.122769143e-20)
(80.346279064 -69.7406502673 -1.55957638948e-20)
(85.6129582158 -79.513150349 -1.56282049753e-20)
(91.4217271835 -90.0486059165 -1.27251962694e-19)
(97.7626073328 -101.488402743 1.51438315592e-19)
(104.59218219 -113.561188274 6.65476196419e-19)
(111.809575922 -125.948776175 -1.34512439506e-18)
(119.033191388 -141.7587886 -6.83986309211e-18)
(124.968216546 -160.677396036 -7.01436411256e-18)
(129.860643617 -168.787091889 -1.70850312026e-17)
(51.8289981924 34.0375117966 -3.16677383636e-17)
(-62.7615522542 195.117884534 -1.02170940007e-18)
(60.9048513023 -3.81229507599 3.65481135268e-19)
(63.3971538409 -8.05471042802 3.05247979663e-18)
(64.7980290492 -14.3538264512 4.45935236352e-19)
(66.5626179117 -20.5630540089 -1.79256967054e-19)
(68.8809961359 -26.9023330773 -9.75151546853e-22)
(71.7879528602 -33.5268608663 3.58322786218e-20)
(75.2946927856 -40.5167396965 -4.75704450294e-20)
(79.4096248666 -47.9427367672 3.66840827634e-20)
(84.1400884183 -55.8804943162 6.8639115367e-21)
(89.4914651056 -64.4074947299 9.73800507146e-21)
(95.4663587191 -73.5982443385 9.81248865097e-21)
(102.064324727 -83.5575008993 -4.8077929141e-20)
(109.274783172 -94.432354097 6.34866787471e-20)
(117.050843076 -105.95122044 1.67529385438e-19)
(125.283236676 -117.834729265 1.42704608953e-19)
(133.530177171 -133.209657246 2.94506780266e-18)
(140.444737872 -151.455589053 -3.02591848835e-18)
(146.462812307 -159.723109631 -7.57699428191e-18)
(52.6749990669 50.3343168315 -7.28706598171e-18)
(-71.8514360689 190.56286658 -6.47034087932e-19)
(66.2042829909 -3.467642287 -1.71473322232e-19)
(68.9660813143 -7.1528425038 1.47003386783e-19)
(70.5201878842 -12.840000979 6.73001414592e-19)
(72.476408337 -18.4268543331 6.58665566364e-20)
(75.0487993595 -24.1427560337 2.45053193693e-21)
(78.2779638355 -30.1356669294 -3.73562633095e-20)
(82.1781787922 -36.4847333878 -1.08122832385e-20)
(86.7609059361 -43.2609098915 5.05552649076e-21)
(92.0366912358 -50.5412336886 1.52208975357e-20)
(98.0141608244 -58.4054896611 -2.18609683097e-20)
(104.69897196 -66.9319327373 -3.22566673902e-21)
(112.093393767 -76.2312669505 -8.24767283538e-20)
(120.187832133 -86.4553540101 8.35001455415e-20)
(128.933585114 -97.3364601741 3.16152483908e-19)
(138.218214478 -108.644256021 9.14451563815e-20)
(147.55686334 -123.469917249 -7.48494954725e-20)
(155.555365017 -140.957523601 -2.50272666091e-18)
(162.964746207 -149.461207351 -1.39355087293e-17)
(51.5477097608 68.6385945533 -3.84542585832e-17)
(-81.0553695591 185.014020991 -7.30879636238e-19)
(70.8708797246 -3.0882797145 -1.83886595882e-18)
(73.8942007786 -6.16223055829 -1.96378429871e-19)
(75.5974646823 -11.1746346733 5.68274132325e-19)
(77.7386412315 -16.0738583676 -5.17166055245e-19)
(80.5561484922 -21.0995209639 -2.15333862373e-20)
(84.09720872 -26.3911692549 -1.98058048662e-20)
(88.3800829314 -32.0264860658 -1.45518283191e-21)
(93.4203193491 -38.0763218492 -2.42842458051e-21)
(99.2328903599 -44.618747478 8.5754594261e-21)
(105.83100176 -51.7360610928 -2.02495957677e-20)
(113.224942147 -59.5105895663 -6.79822617027e-21)
(121.421299019 -68.0593837657 -8.80844306436e-20)
(130.413098943 -77.538840337 1.1546783214e-19)
(140.150978535 -87.6878414806 5.72980412688e-19)
(150.522586602 -98.332911804 7.40745552154e-19)
(161.010337451 -112.487686215 2.6872633523e-18)
(170.183087307 -129.025841271 -7.85464446214e-18)
(179.236501264 -137.699853663 1.55839976396e-17)
(48.0623244289 88.8912878418 -5.50100280764e-17)
(-90.1953542342 178.321737917 -8.46095030486e-19)
(74.8463606615 -2.67513509293 -1.94382624102e-18)
(78.1211807496 -5.08679753292 3.15087551166e-18)
(79.9677273441 -9.36437889304 -1.06103419571e-20)
(82.2847818919 -13.5131963035 -1.58499055904e-19)
(85.3355411124 -17.7837284094 1.65943060912e-21)
(89.174671684 -22.3056217824 -1.67122390458e-20)
(93.8253633161 -27.1544230685 -7.67097904784e-20)
(99.3084234948 -32.4002556953 -2.61358276299e-20)
(105.64463081 -38.1220169624 -8.59430821446e-20)
(112.853419603 -44.4041263742 -5.94494806004e-20)
(120.9515534 -51.3333230929 3.3969812374e-21)
(129.951949225 -59.0336113814 -7.63154219276e-20)
(139.85201973 -67.6652958701 4.3759756755e-20)
(150.603173596 -76.9790165238 8.6932863025e-19)
(162.094587688 -86.866571044 7.22579773847e-19)
(173.772937446 -100.214946789 2.65000767923e-18)
(184.168007028 -115.657671098 -2.08434800408e-18)
(195.079212771 -124.516030612 -1.29209616799e-17)
(41.7540921798 110.909282456 -3.87567485638e-17)
(-99.1534387387 170.508836621 1.60326468686e-18)
(78.0755525175 -2.22980119631 -1.65148611756e-18)
(81.5899122037 -3.93207457062 2.80693136476e-18)
(83.5719188774 -7.4181914169 4.91672953768e-19)
(86.0529400566 -10.7569814734 2.22970100266e-20)
(89.3214301307 -14.2101008649 -8.84569475968e-20)
(93.4403581927 -17.8955471442 -2.02682671988e-20)
(98.4388642143 -21.8857528312 -3.17760439557e-20)
(104.344282447 -26.2493695313 -8.1103412937e-20)
(111.184755498 -31.0652727878 -5.96148003169e-20)
(118.987864767 -36.4197765605 -7.23752912367e-20)
(127.779156493 -42.4040326124 -1.55058543492e-20)
(137.580408334 -49.1491752057 -1.69893858602e-19)
(148.395829832 -56.8197211929 1.26049273664e-19)
(160.179852671 -65.1848340415 1.0698165207e-18)
(172.826438389 -74.2130211511 -9.43346701066e-19)
(185.751036903 -86.6289290195 -4.6213787992e-18)
(197.399976121 -100.851986293 -4.3064986239e-18)
(209.798027083 -109.800341973 -1.93522582937e-17)
(32.4819156029 134.489972673 -1.97832759376e-17)
(-107.770069791 161.58972789 6.82595099177e-19)
(80.5074998432 -1.75449577327 -1.41962016356e-18)
(84.2474469439 -2.70526805585 1.21510177386e-18)
(86.3549098717 -5.34766294263 5.00255993557e-19)
(88.9846938375 -7.82088440411 1.42612991647e-19)
(92.4510434934 -10.3978424374 -2.82474799573e-20)
(96.8261226425 -13.1828047966 -6.55801239068e-20)
(102.146046569 -16.2438571796 -6.97709292462e-20)
(108.445808923 -19.6469756647 -9.78295841512e-21)
(115.762907388 -23.4701589104 -1.04005240393e-19)
(124.135238842 -27.8004705998 2.32636625456e-20)
(133.6002296 -32.7332395098 2.94139315155e-20)
(144.191175155 -38.4069548443 -1.28322987346e-19)
(155.923142941 -44.990399369 1.66202340868e-19)
(168.757470181 -52.2786572754 1.04207204036e-19)
(182.600183439 -60.3252354458 7.24664802338e-19)
(196.872272671 -71.7153795284 3.37825590237e-18)
(209.830872138 -85.1723830699 -3.72588424006e-18)
(224.637316083 -91.8368087751 6.59466719399e-18)
(18.5374247339 158.333017313 7.98664460474e-17)
(-115.929244814 151.467188463 4.0174342234e-19)
(82.0966353564 -1.25209393817 -1.16421510237e-18)
(86.0461044027 -1.41543177538 6.55333423782e-18)
(88.2665504664 -3.16738870559 -3.87184255377e-19)
(91.0261399146 -4.72471450615 -9.11775637835e-20)
(94.6655065908 -6.37142442806 3.88128916261e-20)
(99.2664161822 -8.19575066368 -2.4802551863e-20)
(104.872983552 -10.2599665809 -6.70723646327e-20)
(111.530222915 -12.625591871 -2.63113608166e-20)
(119.285888206 -15.3679057144 -2.62554406792e-20)
(128.191471056 -18.5734989853 -3.41318492502e-20)
(138.298141359 -22.3413447881 7.29031892556e-20)
(149.656371876 -26.8160719293 -1.56473199431e-19)
(162.29578607 -32.1706832882 1.79470364428e-19)
(176.191611593 -38.2303444539 1.98577203309e-19)
(191.274151132 -45.1127186447 5.74211758999e-19)
(206.985981965 -55.4741004147 2.11699102456e-18)
(221.548213214 -68.0638456954 -8.77422233772e-18)
(239.779217797 -70.1864950296 -3.6570268122e-17)
(-0.0849517544407 180.753324951 -3.39928672658e-17)
(-123.678484425 140.531809976 1.07670562324e-18)
(82.8035324043 -0.726250298988 -1.31360267916e-18)
(86.9442667489 -0.0737641068393 -3.05341671544e-18)
(89.2627967089 -0.895402612034 -5.10822196833e-19)
(92.1292300249 -1.4930278086 -3.2963971628e-19)
(95.9099353541 -2.16186384561 -5.41857554618e-20)
(100.698867976 -2.97124186485 -1.38036268326e-20)
(106.548984986 -3.97442359533 -8.4929081642e-20)
(113.516070072 -5.22753473208 1.97009152686e-21)
(121.660228349 -6.80124016213 -3.96834503511e-20)
(131.048231752 -8.77948485461 -4.57830784379e-20)
(141.749128875 -11.2622469495 5.79103905974e-21)
(153.835289708 -14.3985437789 1.27300462e-19)
(167.356487196 -18.3650654778 1.43626402983e-19)
(182.310806991 -23.0165332243 9.66212801473e-20)
(198.67000024 -28.5546871064 1.15977933153e-18)
(215.885358647 -37.6702258827 -6.55635733805e-20)
(232.341804819 -48.5767584355 -1.14019290551e-17)
(253.452319388 -50.3372264518 -4.31462614563e-17)
(-24.0435810394 204.33578206 -2.96664626521e-17)
(-130.608351103 128.830670388 1.35084765231e-18)
(82.5965712061 -0.181289672147 -2.92338167964e-18)
(86.90822216 1.30672883068 -1.35481562127e-18)
(89.3069902973 1.4468799945 -4.84004774224e-19)
(92.2511992597 1.84330203119 -2.1046970236e-19)
(96.1365702993 2.19227215183 1.21415628858e-20)
(101.068183476 2.44678767853 -7.1564007737e-20)
(107.107982162 2.56239678639 -8.70635712584e-20)
(114.323615059 2.49169592647 -1.91809024185e-20)
(122.791284356 2.17151394586 -2.67748598915e-20)
(132.593736878 1.52383945877 -8.50791046205e-20)
(143.821780018 0.451145163417 -6.91450573893e-21)
(156.572919042 -1.19719535554 -1.94650031816e-19)
(170.924718163 -3.59767674245 8.94538049632e-20)
(186.908991987 -6.63231156165 8.50247674744e-20)
(204.551629012 -10.5936778572 1.43778054908e-18)
(223.301859162 -18.0441853861 4.64277346112e-18)
(241.946601874 -26.6865617208 -4.17484881178e-18)
(267.802337504 -32.0054628421 -5.28916632689e-18)
(-60.3463274868 227.452213047 -7.46391472374e-19)
(-139.661732496 119.071434607 -5.43813587723e-19)
(81.4543341215 0.377809820405 -3.11068622799e-18)
(85.9138415238 2.71043138064 -2.55976314496e-18)
(88.3710713057 3.832326704 -2.2624099679e-19)
(91.3605292338 5.2489307897 -9.74451559643e-20)
(95.3067909496 6.64726805552 2.09279694761e-20)
(100.324454541 8.00259327342 -2.20933272632e-20)
(106.489828946 9.28552980009 -5.54623884218e-20)
(113.881068571 10.4616636851 -1.03538655634e-19)
(122.589898489 11.4762641688 -8.22224791117e-20)
(132.71848749 12.2596807165 1.21303557202e-20)
(144.38154021 12.7222868996 -5.11571341525e-20)
(157.70554604 12.7176666086 -2.12148569975e-19)
(172.80226304 12.0761103602 6.29875440947e-20)
(189.749723393 10.8869087901 9.12959875304e-20)
(208.633266402 8.739669232 5.79145936948e-21)
(228.896154228 3.58021081242 9.9744334803e-20)
(249.729914751 -0.614820435926 -4.41910442738e-18)
(276.407153279 -17.0933758255 -1.36345883201e-17)
(-209.483530633 327.536649753 7.52456181669e-17)
(-30.229290922 18.1934828879 1.0583814882e-18)
(79.3655373602 0.94448825943 -2.30812082205e-19)
(83.9471200584 4.11821413034 1.50453840443e-18)
(86.4390181226 6.23187313953 2.21595743269e-19)
(89.4372988044 8.68197490264 -3.92406159812e-20)
(93.3910942389 11.1460904082 -1.47402410576e-20)
(98.4323509719 13.6312904346 -2.80459092038e-20)
(104.646766322 16.1228744736 -3.8975434342e-20)
(112.124515567 18.5973006953 -7.73120117181e-20)
(120.972553873 21.0165123786 -1.22721188893e-19)
(131.314652317 23.3247648381 -2.97951721192e-20)
(143.291649037 25.4441319939 -2.57372117151e-19)
(157.061671055 27.2398060394 -1.0990735179e-19)
(172.775659449 28.5586480119 1.55412386859e-19)
(190.569258471 29.454669816 7.24297062813e-19)
(210.599218308 29.4367475128 5.91107679076e-19)
(232.423822652 27.0166596304 -2.44240465195e-18)
(255.741735416 24.4101133868 -5.72006912632e-19)
(278.669389704 4.35145517718 -2.15899594477e-17)
(-265.763595471 357.547653508 1.45914157933e-16)
(0.435880681909 0.0622385028952 -1.24712234897e-19)
(76.3366337223 1.5121570656 1.99352373761e-18)
(81.0123541511 5.51097920487 5.48084676564e-18)
(83.5102558957 8.61230123528 4.98780570056e-19)
(86.4737472423 12.0936050372 -6.95983689558e-20)
(90.378518029 15.6299450886 -4.11752960616e-20)
(95.3703815281 19.25872579 -5.15655914241e-20)
(101.541963962 22.9805224107 9.40964094325e-20)
(108.998068002 26.7921233096 -6.24864159083e-21)
(117.862387536 30.6737555944 -6.14156789213e-20)
(128.279558521 34.5882734294 -8.22333031271e-20)
(140.41720322 38.4755972242 4.16680222985e-20)
(154.466570239 42.2212875658 -3.14503905637e-19)
(170.619769136 45.6987069522 3.17989086274e-19)
(189.070818956 48.9420616583 7.08300131002e-19)
(210.03009022 51.495897995 1.653744998e-18)
(233.146002465 52.62471613 1.19124088913e-18)
(258.134398266 52.0456659736 -1.06571756582e-17)
(281.183930517 44.865835256 -1.11112821521e-18)
(-288.833321368 358.724080201 3.23566964592e-17)
(7.51995241418 -7.67553922204 -5.40308094312e-19)
(72.3873136402 2.07236063271 6.66790511426e-19)
(77.1279105683 6.86260477317 1.46378931994e-18)
(79.6008140225 10.9323867022 -1.06167985098e-18)
(82.4810425379 15.4315770436 -3.71881480563e-19)
(86.2714291332 20.0274056081 -9.84886762074e-20)
(91.1269165748 24.7936773651 -6.92268429232e-20)
(97.152045524 29.7526831461 -8.46853245362e-20)
(104.463368414 34.9224822082 7.6716265675e-23)
(113.200164175 40.3059723485 -4.81108418775e-20)
(123.527399153 45.8898991676 -7.01307554734e-20)
(135.63907498 51.6384666612 7.56923949215e-20)
(149.759490839 57.4657226351 -1.20823300427e-21)
(166.123090137 63.2762641442 8.90308993016e-20)
(184.983741152 69.0746662963 2.82218568226e-19)
(206.584121754 74.4325450353 9.46594376628e-19)
(230.627177706 78.9342431046 -1.70446539975e-18)
(256.706962483 80.6823393218 -1.23760344979e-17)
(278.831793919 71.6564288664 -1.64532352677e-17)
(-297.657757134 349.844806406 7.84137115804e-18)
(-6.61084273744 4.85169368255 2.17040420391e-19)
(67.5477026375 2.61702502883 -9.45393985575e-19)
(72.3229191554 8.14970370543 -9.41882146181e-19)
(74.7387776847 13.1503140558 -8.15699079272e-19)
(77.4832680942 18.632460879 -1.83582846287e-20)
(81.0848797817 24.2571255058 -8.51344289951e-20)
(85.7109146032 30.1374057815 3.00833198121e-20)
(91.4744722434 36.3195472065 -1.28794537717e-20)
(98.5024179208 42.8463022335 7.59948110008e-21)
(106.947725294 49.7475618883 -9.8370617413e-20)
(116.993807567 57.0394253347 -7.77313497567e-21)
(128.859390727 64.7173696103 3.32178341665e-20)
(142.800601831 72.7331295394 -2.78814113029e-19)
(159.095951777 81.0313612044 5.46780651624e-19)
(178.067607325 89.5924527229 2.94986113296e-19)
(200.003530402 98.0836612291 1.94315138112e-18)
(224.744796399 106.548976516 1.01755959774e-18)
(252.199360414 111.912145151 -3.16898378934e-18)
(260.966565649 109.056318 -9.46674460428e-18)
(-305.068475084 344.95778981 -1.09915948398e-17)
(1.17464702513 -0.488380938888 -7.72031132239e-21)
(61.8676096289 3.13710720141 -2.10154900675e-18)
(66.6464364037 9.34462316803 -2.48608264005e-18)
(68.9683541485 15.2195901858 -5.62954786796e-19)
(71.5213026293 21.6312154233 -1.69695083437e-19)
(74.8567102994 28.2334262525 -2.7324255617e-20)
(79.1529036892 35.1817889912 -2.63081590676e-20)
(84.5298415987 42.548731454 -6.02284728103e-20)
(91.1222084616 50.4046231824 1.28844457167e-20)
(99.093645375 58.8104416251 -1.72976154396e-21)
(108.642742937 67.8171437398 3.86432661044e-20)
(120.009483113 77.4589299636 1.20848773205e-20)
(133.478518601 87.7352521925 -4.88168282883e-20)
(149.371195774 98.6417792712 1.16553709551e-19)
(168.076856036 110.156198017 -8.29654515534e-20)
(189.927794536 122.093749453 -5.93466218827e-19)
(214.911066883 135.067132152 -3.07254713714e-18)
(242.996622307 144.836834792 -1.66631250591e-17)
(238.272328554 144.345280945 -1.00922640566e-18)
(-308.066738182 334.300380698 2.09454795465e-17)
(0.904977987917 -0.363773164144 6.16812966646e-21)
(55.4151293784 3.623242705 5.49055171267e-20)
(60.1678608317 10.4183350416 -3.30863524711e-19)
(62.3559334784 17.0907873643 2.83875313666e-19)
(64.6588052365 24.3590102259 2.82575991426e-20)
(67.6468137077 31.8656435774 -1.76541197328e-20)
(71.50764081 39.8117333142 -4.45158907863e-20)
(76.3654550282 48.2977245225 -4.8004485141e-20)
(82.3592086119 57.424048787 -8.97697004826e-20)
(89.6593146977 67.2863925927 -1.50227539895e-19)
(98.4743626174 77.9757822965 -7.30021694431e-20)
(109.060143637 89.5724158883 1.22355942815e-20)
(121.723841284 102.13288491 -1.41230973358e-19)
(136.823895708 115.713859296 2.00671621977e-19)
(154.805847524 130.316710459 2.60623183877e-19)
(176.031856457 145.94281629 7.26610204844e-19)
(200.636605485 163.72474635 7.91995945567e-19)
(228.449129852 178.48411643 -6.25747011381e-18)
(207.470536299 181.302431583 -3.06032520783e-17)
(-302.446787268 319.337109799 1.28749192506e-17)
(-0.0431305405415 0.31016018842 -4.17528268361e-20)
(48.2758376835 4.06629461703 -4.31262139297e-19)
(52.9768086305 11.3409348394 6.81972026622e-19)
(54.9863208818 18.7123932303 -1.98887193153e-19)
(56.9798450775 26.7461127247 -5.46069166037e-20)
(59.5386267295 35.0616393049 2.51769926969e-21)
(62.856770968 43.9087489448 -3.83837129209e-20)
(67.058980358 53.4174370869 -3.64569331342e-20)
(72.2846953159 63.7205308897 -5.56324555938e-20)
(78.7056770146 74.9512691235 -8.16108486441e-20)
(86.5336059779 87.2449817968 -8.25969205895e-20)
(96.0332175168 100.734504383 -1.97706726056e-19)
(107.525406982 115.540968092 -6.86822342762e-20)
(121.396003986 131.789972581 -7.31319215539e-22)
(138.130013311 149.532438543 3.90640920211e-19)
(158.109435207 168.966859156 7.68149679227e-19)
(181.609501632 191.676506481 -8.59724378853e-19)
(208.230069142 212.134709006 -6.01117879258e-18)
(172.341257425 217.732970306 2.05147724878e-17)
(-293.578871187 303.917286339 3.45984032228e-17)
(0.0126639139858 0.375203242493 3.28143207139e-20)
(40.5538567938 4.45764700662 -5.43189303374e-19)
(45.1846089749 12.0817536394 -2.55776982815e-19)
(46.9615965241 20.0324470915 7.70671984118e-19)
(48.5897607271 28.727067404 1.64599159919e-19)
(50.6411255011 37.7327224388 -1.86090136452e-20)
(53.3113033789 47.3547588915 -7.62991322217e-20)
(56.7210162881 57.7563692442 8.65929328056e-21)
(61.0074365673 69.1042819532 6.68433959587e-21)
(66.336585309 81.5699917435 2.35731320064e-20)
(72.916232408 95.3375344682 -2.07008590204e-20)
(81.0098335548 110.597376119 -1.51954660635e-19)
(90.9417131234 127.539894162 5.78348223362e-20)
(103.112570322 146.366994559 1.47173158015e-19)
(118.026644739 167.204014209 2.61766230141e-19)
(136.078505413 190.448899088 2.71718399767e-19)
(157.659906445 218.105255517 1.53144023023e-18)
(182.08876607 244.990100459 1.07007562161e-17)
(134.143222249 253.017279896 4.44016620829e-17)
(-279.781313568 286.463243061 1.5438637461e-17)
(0.129055049757 0.352485983254 1.17655758282e-20)
(32.3727274839 4.78971246832 5.19214976349e-19)
(36.9165729977 12.6115974442 2.81528943847e-18)
(38.3957680693 21.0060387715 -4.03701109172e-19)
(39.6170392074 30.2510185044 -1.19577820815e-19)
(41.092545858 39.7986921724 4.74290659509e-20)
(43.0161604591 50.0344103131 1.58361316517e-19)
(45.5000974123 61.1620181794 1.53153727627e-19)
(48.6812475391 73.3827192155 2.97378148692e-21)
(52.7094946877 86.9043193368 1.92963282903e-20)
(57.7796234691 101.959435498 7.55026585564e-20)
(64.1421911273 118.799289108 -8.86618408173e-20)
(72.113423467 137.688568078 -4.43730617259e-20)
(82.0956305424 158.909221787 4.33011872886e-20)
(94.5887365452 182.678212834 4.63687956439e-19)
(109.971929086 209.596517038 7.30334278921e-20)
(128.679820148 242.113771866 -4.37534805936e-18)
(149.801631034 276.557408325 -3.98769690007e-17)
(93.93367044 287.15276456 1.14254102417e-17)
(-261.023666616 268.444861796 2.50867742807e-17)
(0.113302111155 0.396304271147 1.91109176944e-20)
(23.8780944117 5.0508579253 1.14080489884e-18)
(28.2777501147 12.9159700376 1.22615022358e-18)
(29.4363829064 21.6206931191 -2.56776783326e-19)
(30.2268480668 31.2913340805 -1.8237439378e-19)
(31.0653825462 41.1853648757 -6.79354467111e-20)
(32.1537030488 51.8322723605 1.14982399282e-19)
(33.5776543446 63.4841863734 -2.254688943e-20)
(35.5027335659 76.369139238 -1.03656417707e-20)
(38.0336497861 90.7182898587 6.46807013262e-20)
(41.341308153 106.815169985 9.8273271346e-20)
(45.654106628 124.97361591 2.46300302372e-20)
(51.2675201515 145.536206327 1.38761074481e-19)
(58.5727814956 168.865074494 9.91184187609e-20)
(68.0588278213 195.253816173 2.76420975036e-19)
(80.0301116798 225.45527796 -1.56805813382e-19)
(94.6647417051 262.48653849 -6.34252383992e-18)
(110.479881134 305.484129747 -5.26690080588e-17)
(51.5829268379 321.594793401 3.65219947928e-17)
(-237.910392298 247.555984239 7.64722310049e-17)
(0.0801997658726 0.452567340316 1.80856017292e-19)
(15.5519585204 5.50549099779 -2.73681496542e-19)
(19.0817936979 13.1510987008 -1.17603430862e-19)
(20.4421650963 21.9348997263 -1.2135242791e-19)
(20.6357022005 31.8018244588 2.33999799955e-19)
(20.7558146957 41.8018685373 -1.61158281329e-21)
(20.9484756701 52.6233946709 -3.54476982085e-20)
(21.1453350545 64.5742826936 -4.99217060203e-20)
(21.7080277178 77.8925320466 -3.24706025777e-21)
(22.5691115748 92.7901193068 1.88568333199e-19)
(23.8841596367 109.62212595 4.92712328809e-20)
(25.8484794396 128.765722108 -1.75361238768e-19)
(28.7187795261 150.644419625 3.57148572268e-19)
(32.8647379646 175.713906449 -1.6129853478e-19)
(38.8470273888 204.285473391 -4.59797251772e-20)
(46.8935710188 236.979822181 -3.03750836141e-18)
(56.3644632444 277.136952199 -2.89459646269e-18)
(63.1532155022 329.642224759 -7.43540960353e-17)
(7.02068611094 353.246588931 -2.10397417024e-17)
(-209.687642992 226.981067711 1.84292510085e-17)
(0.0424017592244 0.500859595599 1.36309130181e-19)
(6.06349040219 5.02400453125 -8.08377151681e-19)
(9.92458682755 13.0507128143 -3.86931180765e-18)
(11.2177912937 22.1833995068 4.79916164911e-19)
(10.9170791927 31.4647457062 4.67166747271e-19)
(10.2732530504 41.5372929724 1.78364265082e-19)
(9.48412994597 52.2747013336 1.45876760266e-19)
(8.59090964534 64.2884641737 -5.59873186774e-20)
(7.63019807838 77.8311855791 -3.51447986171e-19)
(6.64925180678 92.9293518567 1.43212728137e-19)
(5.76748845137 110.126530848 3.4000144567e-19)
(5.11732953847 129.841163468 -2.08877571707e-19)
(4.88274431026 152.580860855 1.27164161647e-19)
(5.30884532774 178.998529749 -5.35049411102e-19)
(7.38356153665 209.395458269 4.16423909769e-19)
(11.56911841 243.599723638 -5.09775730282e-18)
(16.4393898713 283.289131172 -1.68042866781e-17)