/*--------------------------------*- C++ -*----------------------------------*\
| =========                 |                                                 |
| \\      /  F ield         | OpenFOAM: The Open Source CFD Toolbox           |
|  \\    /   O peration     | Version:  v2012                                 |
|   \\  /    A nd           | Website:  www.openfoam.com                      |
|    \\/     M anipulation  |                                                 |
\*---------------------------------------------------------------------------*/
FoamFile
{
    version     2.0;
    format      ascii;
    class       surfaceVectorField;
    location    "0.8";
    object      ddtCorrDdt0(Uf);
}
// * * * * * * * * * * * * * * * * * * * * * * * * * * * * * * * * * * * * * //

dimensions      [0 1 -2 0 0 0 0];


internalField   nonuniform List<vector> 
3840
(
(0.00468793013678 -0.00695571062209 1.34790121274e-21)
(0.00695723678337 -0.00463399327024 2.36427922403e-22)
(0.00532674249411 -0.0151281006362 1.21398828459e-21)
(0.00817395829299 -0.0110928568888 1.58885999595e-21)
(0.00540569330222 -0.0235119454795 -9.80163127253e-23)
(0.00838519143736 -0.0196945613122 -1.50952737896e-23)
(0.00545086535559 -0.0319911670788 -3.7316287704e-22)
(0.00848018188051 -0.0282110316016 -5.38187937477e-22)
(0.00556418578972 -0.0406776480983 -4.74738062178e-22)
(0.00868701817941 -0.0368556659276 -2.14751088378e-21)
(0.00573758545311 -0.0496778464567 -7.16387139417e-22)
(0.00900019474909 -0.045787715238 -1.0664991443e-21)
(0.00596111275957 -0.0590798115055 -4.27451923791e-24)
(0.00940151033015 -0.0550955804115 -3.62806515475e-22)
(0.00623003008935 -0.0689625879412 1.1640769832e-21)
(0.00988206295003 -0.0648531330273 8.33664340407e-22)
(0.00654207796997 -0.0794017844922 2.91819135176e-21)
(0.0104385866974 -0.0751342019646 3.54603859308e-22)
(0.00689614851691 -0.090471287165 2.1748983562e-21)
(0.0110696172618 -0.0860107477677 9.61184529373e-22)
(0.00729253444153 -0.102246222158 8.66523985594e-23)
(0.011775627046 -0.0975521245839 -6.84724064647e-23)
(0.00772980077289 -0.11480631942 2.37838058989e-22)
(0.0125615341667 -0.109852467076 -2.89327729803e-22)
(0.00815417773789 -0.128240166364 7.48904372857e-22)
(0.0134360364513 -0.123012442788 7.21264546187e-22)
(0.00831490925503 -0.142558983188 7.02800376613e-22)
(0.0143215208087 -0.136817966145 9.04581553687e-22)
(0.00783791906242 -0.157491265298 2.55070876413e-22)
(0.0149351632451 -0.151195627369 4.23715653589e-22)
(0.00748978199764 -0.172931365575 1.64373501199e-21)
(0.0154427375681 -0.1687400827 -9.64223333215e-23)
(0.0124079840098 -0.190424141968 -4.32945985236e-21)
(0.0174947601443 -0.189022438283 3.46548979409e-21)
(0.0450762524546 -0.211861080159 -1.53274248023e-20)
(0.021437987317 -0.199003608836 -1.47231550674e-20)
(0.128154174217 -0.256333542726 -2.34258851662e-20)
(0.0444728110053 -0.195323243344 -1.92207340866e-20)
(0.0800180215381 -0.286561061492 -5.29558438199e-20)
(0.0112178065789 -0.00807304791089 4.77386705607e-22)
(0.0150319221369 -0.00523603868733 1.01884715029e-22)
(0.0120414572032 -0.0161705342607 3.59776437564e-22)
(0.0162730415498 -0.0116667514263 2.2205078539e-21)
(0.0123078459578 -0.0244761762426 -4.55266898542e-22)
(0.0166921461011 -0.0201186542189 2.68178404674e-22)
(0.0125938507568 -0.0330498757301 -2.31253594422e-21)
(0.017054783683 -0.0286149956235 -5.29997580098e-22)
(0.0130228026497 -0.0419236475978 -2.7392719659e-21)
(0.0175612759766 -0.0372826039852 -2.24718769673e-21)
(0.0135853726107 -0.0511525020266 -7.12918520355e-22)
(0.0182290162937 -0.0462712602772 -9.84995673469e-22)
(0.0142673078839 -0.0608022480465 4.7513234417e-22)
(0.0190506454129 -0.05565194297 -4.68983997537e-23)
(0.0150619442295 -0.0709421831377 2.41912165188e-23)
(0.020021723125 -0.0654897547204 2.05290836691e-22)
(0.0159669870595 -0.0816440354112 -1.60240296308e-21)
(0.0211394050153 -0.0758544195856 6.60858158918e-23)
(0.0169822174305 -0.0929779906174 -1.2821862333e-21)
(0.0224038748884 -0.0868158124971 -1.40306362153e-21)
(0.0181101368307 -0.105015763584 -4.44452534827e-22)
(0.0238143200069 -0.0984400398979 -1.32004504815e-23)
(0.0193571128475 -0.117825534535 1.94098757396e-22)
(0.0253729202726 -0.110816845237 -2.85680278301e-22)
(0.0207088251025 -0.1314673014 8.76941727017e-22)
(0.0270800905971 -0.124058412671 7.55852338712e-22)
(0.0221030980082 -0.146054665468 6.25496830662e-22)
(0.028911639366 -0.137936614611 5.37948444524e-22)
(0.0236353622447 -0.161963432929 7.22224438542e-23)
(0.0308467656377 -0.15220728657 -4.84173696171e-23)
(0.025576746991 -0.179490930353 1.72533244877e-21)
(0.0329727568208 -0.169820283618 -6.0981228955e-22)
(0.0267405306077 -0.197314923388 -6.92820542093e-21)
(0.0353205840648 -0.192320340493 1.73488368621e-22)
(0.026809459872 -0.21435937905 -1.86164643517e-20)
(0.0384833713901 -0.202069588747 -1.90111356397e-22)
(0.0273727625331 -0.216813950446 -4.87506927404e-20)
(0.0469277857168 -0.194604476247 -2.60248451498e-20)
(0.0985206427876 -0.252855204388 -4.46656605022e-20)
(0.019509247463 -0.008091418759 1.84500586333e-21)
(0.0231249816934 -0.00518521823155 8.41510844171e-22)
(0.0203466201371 -0.0161371524646 2.12890982101e-21)
(0.0243203299451 -0.011469366422 3.72405623252e-21)
(0.0208364697917 -0.0243395012833 1.93447723118e-22)
(0.0248957474932 -0.019822267369 4.93362469876e-22)
(0.0214075386206 -0.0328055771005 -4.64649332606e-22)
(0.0255217015136 -0.0281814262978 -6.14130639534e-23)
(0.0221529803513 -0.0415788559675 -4.92911404296e-22)
(0.0263350050686 -0.036699913841 -3.98770304404e-22)
(0.0230839716583 -0.0507122908073 -3.18975552868e-22)
(0.0273623636054 -0.0455385448988 -1.9476213105e-22)
(0.0241989485019 -0.0602686337025 -3.16739907233e-22)
(0.0286068177029 -0.0547696460493 -3.66357438472e-23)
(0.0254964843349 -0.070316208186 2.47185436064e-22)
(0.0300681348328 -0.0644578928239 -2.50922045212e-22)
(0.0269757771858 -0.0809239789216 2.65425157438e-22)
(0.0317472267155 -0.0746725954546 6.84369238246e-22)
(0.0286364954598 -0.0921630002157 -1.34077838719e-22)
(0.0336424450299 -0.0854831374117 2.74211750622e-22)
(0.0304791953764 -0.10410259583 1.45571806044e-22)
(0.0357546485893 -0.0969548297645 -1.84552141811e-22)
(0.0325047132087 -0.116811640668 2.76073303015e-22)
(0.038083424614 -0.109177812475 4.32286949044e-24)
(0.0347043155665 -0.130356407178 4.16859056219e-22)
(0.0406269765168 -0.12227087881 2.02259360197e-22)
(0.037063747402 -0.144809087713 -1.35965755755e-22)
(0.0433668479615 -0.136000185626 4.64627018007e-22)
(0.0396389452758 -0.160246178272 -7.30452103021e-22)
(0.046286445462 -0.150061511604 -1.69364665172e-22)
(0.042547456597 -0.176644721163 -2.1616563697e-21)
(0.0493735634249 -0.167165440964 9.3511602548e-23)
(0.0459098781165 -0.193370505683 6.91158243316e-21)
(0.0520479861518 -0.188409738959 -2.30718780611e-21)
(0.0534655890394 -0.208860600428 -7.59849215454e-21)
(0.053974292237 -0.197932217933 7.30925934672e-21)
(0.0939925609983 -0.22691527463 -2.19398129116e-20)
(0.0649827706015 -0.194367176577 -1.89547252076e-20)
(0.135524185249 -0.26516835296 -6.47723657097e-21)
(0.0276489838813 -0.00779560181597 2.72056121336e-21)
(0.0309221555106 -0.00498501505923 1.91689846373e-21)
(0.0286004141522 -0.0157067732291 2.08850888138e-21)
(0.0322329636777 -0.0110322371274 4.19075151235e-21)
(0.0292954478972 -0.0237576360733 2.38501682805e-22)
(0.0329477767463 -0.0192159143539 5.86888892706e-22)
(0.0301473077322 -0.0320379526106 4.46596424817e-24)
(0.0338028037343 -0.0273602112998 7.87150570963e-23)
(0.0312292727856 -0.0406115294014 -1.00621031158e-22)
(0.0349090243219 -0.0356462501855 -1.73065648767e-23)
(0.0325577333308 -0.0495407636704 8.75776779704e-23)
(0.0362916958402 -0.0442444436524 -5.1653239954e-23)
(0.0341364743315 -0.058891712313 2.91821181739e-23)
(0.0379573509487 -0.0532318846725 1.97314710604e-22)
(0.0359668936322 -0.0687324739828 1.86261756971e-22)
(0.0399087999776 -0.0626749013035 -1.47693331431e-22)
(0.0380495916016 -0.0791341721331 6.9315583143e-22)
(0.0421470026467 -0.0726434983791 3.20546348902e-22)
(0.0403843188114 -0.0901652853863 2.2373744753e-22)
(0.0446737924533 -0.0832076197429 3.98764728833e-22)
(0.0429707676984 -0.101897620278 -3.25801078365e-22)
(0.0474871220856 -0.0944326819244 -1.55784264409e-22)
(0.0458081549215 -0.114400353936 -6.94910733276e-23)
(0.0505872284826 -0.106409836892 -1.72732938718e-22)
(0.0488858643846 -0.127743906688 2.50027321986e-22)
(0.0539722646089 -0.119262756295 1.39767525816e-22)
(0.0521795619935 -0.141995889498 4.3122810859e-22)
(0.0576209786461 -0.132747045563 3.26903182117e-22)
(0.0556457003348 -0.1572000591 6.54599040397e-22)
(0.0614928215661 -0.146548395666 3.49801121914e-22)
(0.0588744065416 -0.173326181188 -5.20198338556e-23)
(0.0655016065999 -0.16348002021 5.25451299e-22)
(0.0614166154897 -0.190123532591 -1.90951089254e-21)
(0.0688466931842 -0.184203454796 -7.25025122249e-22)
(0.0679310338434 -0.207576927041 -4.04697370633e-21)
(0.0714283681184 -0.193023600006 -6.4342657691e-21)
(0.112751062541 -0.225108494475 -3.49214886693e-21)
(0.0825145749032 -0.192518594631 -1.74169404442e-20)
(0.173303659096 -0.263113958338 -7.92102608493e-21)
(0.035360307757 -0.00744829903047 3.38708876272e-21)
(0.0383718971258 -0.00476549775547 7.58403851234e-22)
(0.0364740627259 -0.015110438923 2.68913152368e-21)
(0.0398964207931 -0.0105121859739 5.08787972353e-21)
(0.0373502214587 -0.0229176239093 4.27102266998e-22)
(0.0407560068878 -0.0184203389417 8.86937152984e-22)
(0.0384554782616 -0.0309361549408 5.69425279715e-23)
(0.0418220500048 -0.026266883522 1.02444883176e-22)
(0.0398582846907 -0.0392358928775 3.16612263275e-23)
(0.0432091993056 -0.0342464666746 1.83795416945e-23)
(0.0415744996903 -0.0478851691328 5.80837926794e-23)
(0.0449412017235 -0.0425311402417 8.69651389308e-24)
(0.0436094441099 -0.0569529914621 2.04392609985e-23)
(0.0470251117117 -0.0512007621232 4.09353341083e-23)
(0.0459657006566 -0.0665093656959 -1.34087394998e-23)
(0.0494647191489 -0.0603234742815 -1.8419596157e-23)
(0.0486448288677 -0.0766249451266 2.6155246305e-23)
(0.0522623045535 -0.069970296652 -9.37843396933e-24)
(0.0516470779607 -0.0873714083969 1.92430168945e-23)
(0.0554187767835 -0.0802123277885 3.30749234878e-23)
(0.0549716207638 -0.0988187115896 -2.71612476194e-24)
(0.0589343039283 -0.0911159063396 -9.16850761548e-24)
(0.058616861765 -0.111037904865 3.65256604256e-23)
(0.0628070963813 -0.102773121667 -2.21409147735e-23)
(0.0625695011737 -0.124098007194 2.16643385948e-22)
(0.0670336792854 -0.115312209207 7.36204262893e-23)
(0.0667914429472 -0.138061819932 2.45476195442e-22)
(0.0715864863038 -0.128477108563 5.7492370399e-22)
(0.0711897097069 -0.152968734466 2.20653380518e-22)
(0.0764015006402 -0.141933869211 9.5360459818e-23)
(0.0752390813556 -0.168773049663 -1.47553989394e-22)
(0.0813074550524 -0.15859497734 2.83186217704e-22)
(0.0784125203974 -0.185270014258 -5.24977999881e-21)
(0.0853447281574 -0.178862524922 -1.09260738999e-21)
(0.0854388550275 -0.202259663526 -1.9804232507e-20)
(0.0884185478507 -0.187137544787 -9.59198583747e-21)
(0.141873363533 -0.220216246354 -2.18458176622e-20)
(0.100471316928 -0.18915534382 -2.35271361809e-20)
(0.214142558545 -0.259881798722 -1.4472769825e-20)
(0.0427214560391 -0.00706983624426 2.45919481204e-21)
(0.0454429835335 -0.00452996742615 -3.40295992807e-22)
(0.0440288120068 -0.0143939032118 3.28568535284e-21)
(0.0472216002049 -0.00991934963174 3.19221753284e-21)
(0.0450818565756 -0.0218695156067 5.62279769163e-22)
(0.0482324976647 -0.0174608998222 4.08779344314e-22)
(0.0464283969757 -0.0295498319593 6.38818968993e-23)
(0.0495029858516 -0.0249309563937 6.97608003727e-23)
(0.0481425642614 -0.0375041135685 -4.58517073996e-24)
(0.0511638901528 -0.0325314400551 1.30047840762e-23)
(0.0502399697761 -0.0458025519824 -8.45194467807e-24)
(0.0532399376973 -0.0404315322585 -1.30011384865e-23)
(0.0527263159463 -0.0545157307346 2.07647695273e-24)
(0.055738438866 -0.0487120842449 5.33119655022e-24)
(0.0556050563051 -0.0637151026967 -1.43892906266e-23)
(0.0586638751319 -0.0574424026631 -3.38751667013e-23)
(0.0588781873608 -0.0734727386459 -2.45875678651e-24)
(0.0620193191813 -0.0666949038535 -3.65919180613e-24)
(0.0625463509289 -0.0838611042775 4.66339897786e-24)
(0.0658064321917 -0.0765420818011 -8.30125140783e-24)
(0.0666086526786 -0.0949524910876 -2.8593297627e-23)
(0.0700249136385 -0.0870518421413 -9.82840534764e-24)
(0.0710616984745 -0.106818094054 1.49538510902e-23)
(0.0746729902502 -0.0983184599139 -2.11898824218e-23)
(0.0758874303179 -0.119527567301 4.31900744331e-22)
(0.0797440071361 -0.110475149246 7.60420183487e-23)
(0.0810336821324 -0.133142902145 4.24807968366e-22)
(0.0852030276523 -0.12325743892 6.03361460436e-22)
(0.0863551184912 -0.147708436247 1.57893297004e-22)
(0.0909683242954 -0.136322397888 -3.73071447013e-22)
(0.0912107183445 -0.163182784805 -6.61867182895e-22)
(0.0967829291691 -0.152678321297 -1.8177037731e-21)
(0.0950580836404 -0.179344264064 -5.43481322865e-21)
(0.10150698789 -0.172477608448 3.25523026072e-21)
(0.10310138558 -0.196110898933 -1.33148895113e-20)
(0.105185566545 -0.180466392937 -1.90664460412e-20)
(0.172237107748 -0.214592508953 -1.61540883436e-20)
(0.118953013469 -0.184907679614 -2.02660318548e-20)
(0.257592045671 -0.255724186433 -1.47498099135e-20)
(0.0497063356448 -0.00664323234009 3.92726727991e-22)
(0.0520872039484 -0.00426809439038 2.31959364978e-22)
(0.0512245067418 -0.0135551402723 3.15311524316e-22)
(0.0541343463113 -0.00924229074876 9.22833989828e-23)
(0.0524557060616 -0.0206220338764 -8.3739624476e-23)
(0.0553000466938 -0.0163403314735 -3.87001558735e-23)
(0.0540388568881 -0.027890482839 1.88836875496e-23)
(0.0567719197933 -0.0233599842543 5.20079919405e-23)
(0.0560591094785 -0.0354278305508 4.58881632969e-24)
(0.0587016135142 -0.0305097870631 1.88340419783e-24)
(0.058533359625 -0.0433043884005 7.82002741844e-25)
(0.0611168160366 -0.037954160929 -1.49016173495e-24)
(0.061467936846 -0.0515914470723 -3.06204471038e-23)
(0.0640257719126 -0.0457740491455 -6.07088937498e-24)
(0.0648671705143 -0.0603616681944 -2.31450678808e-23)
(0.0674339574872 -0.0540395434587 -5.55244395955e-23)
(0.0687339053172 -0.069688517027 -9.50168642745e-24)
(0.0713457385565 -0.0628244243702 1.72307271369e-23)
(0.0730691586013 -0.0796464966165 -2.27930557333e-23)
(0.0757634577509 -0.0722030143519 -2.39113727504e-23)
(0.0778719502873 -0.0903100456854 -2.42499014246e-24)
(0.0806875913587 -0.0822454621883 -1.45218166778e-23)
(0.0831372973614 -0.101753018423 3.98982848366e-23)
(0.0861159472492 -0.0930495195862 -5.94720699709e-23)
(0.0888421732741 -0.114048004331 2.47502734453e-22)
(0.0920394254927 -0.10475400891 1.1148533869e-22)
(0.0949229940693 -0.127261199405 -1.94517954943e-22)
(0.0984169446364 -0.117089029745 5.45211185337e-22)
(0.101182401089 -0.141445975741 -2.34866851712e-21)
(0.105153912272 -0.129723890224 -1.080166032e-21)
(0.106863563441 -0.156568739332 2.09939367052e-21)
(0.111906413323 -0.145743680147 -5.36837599234e-21)
(0.111418729273 -0.172470248922 -1.03764025518e-20)
(0.117408997443 -0.164991383026 5.28164516267e-22)
(0.120820681663 -0.189140283271 -2.60175883847e-20)
(0.121855852036 -0.173026152839 -2.29760409121e-20)
(0.203935191696 -0.208144679345 -1.88617534247e-20)
(0.13795743316 -0.179642417523 -3.57889303305e-20)
(0.3037937634 -0.250942292542 -2.18313054713e-20)
(0.0562422716019 -0.00615994095511 -6.84839640303e-23)
(0.0582477930265 -0.00397439751357 4.37308362124e-22)
(0.0579767619681 -0.0125910198328 -2.61728281206e-22)
(0.0605659088576 -0.00847544316501 1.20626959958e-21)
(0.0593860815548 -0.0191778568839 9.7047460543e-23)
(0.061887242623 -0.0150597830599 2.84363633753e-22)
(0.0612023433402 -0.0259633223501 3.50077085888e-23)
(0.0635576797146 -0.0215582138827 -5.37366174854e-23)
(0.0635239273286 -0.0330128033262 -4.19557386681e-24)
(0.0657513917347 -0.0281869256869 -1.53422937812e-24)
(0.0663702982925 -0.0403960581199 -8.34305385177e-24)
(0.0685004295205 -0.0351045249568 1.47986470834e-23)
(0.0697491164592 -0.0481847193219 -3.09748818667e-23)
(0.0718147736451 -0.0423915557415 -2.90213672119e-23)
(0.0736660967129 -0.0564523368754 -1.51486445778e-23)
(0.0757016713518 -0.050118665083 -7.40651220481e-24)
(0.0781254480718 -0.0652743269342 2.82104081394e-24)
(0.080167128078 -0.0583609909313 1.40711269598e-23)
(0.0831292154261 -0.0747271028841 -1.56401336948e-23)
(0.0852154945039 -0.0671949873633 -2.93416033485e-24)
(0.0886769307387 -0.0848887536748 -7.15688965062e-23)
(0.0908480330286 -0.0766937083538 -2.91310167509e-24)
(0.0947627194429 -0.0958368263602 1.21149838828e-23)
(0.097063669327 -0.0869595525257 -8.78230145288e-23)
(0.101359836314 -0.107649156895 4.09193789574e-22)
(0.103851735754 -0.0981370067482 1.07656265913e-22)
(0.108395993886 -0.120398586238 -3.40436891716e-22)
(0.111166591759 -0.109954133592 4.17253841028e-22)
(0.115629515795 -0.13414694445 -4.09987350721e-21)
(0.118902598485 -0.122111553304 -6.02294022347e-22)
(0.12222071336 -0.148888776462 -6.93960514658e-21)
(0.126648568837 -0.137732140455 -1.95090926993e-21)
(0.127644665443 -0.164556489843 -1.2071473844e-20)
(0.133076947305 -0.15634797466 -5.02919418957e-21)
(0.13880424753 -0.18124159136 -3.27473828579e-20)
(0.138541087068 -0.164553351456 -1.23533054934e-20)
(0.237423899501 -0.200854684974 -3.87584823772e-20)
(0.157570507807 -0.173232148776 -2.92478449972e-20)
(0.353281405276 -0.24506404244 -2.17238330672e-20)
(0.0622630600651 -0.00561681184828 1.71206192573e-21)
(0.0638648249971 -0.00364653132882 9.71788156919e-23)
(0.064213161099 -0.0115011181141 1.75236151454e-21)
(0.0664502491577 -0.00761748548725 1.60262592065e-21)
(0.0657987516614 -0.0175397840426 1.33579555724e-22)
(0.0679258784986 -0.0136214290386 5.60477106305e-22)
(0.0678439217182 -0.0237730749014 -9.02785554523e-23)
(0.0697909847067 -0.0195301057522 -5.67974378152e-23)
(0.0704613044069 -0.0302644625063 1.74599915721e-23)
(0.0722429337547 -0.0255685670819 7.39020414715e-25)
(0.0736739353843 -0.037082851117 -5.87966627666e-24)
(0.075319123966 -0.031888663801 -7.63366426713e-25)
(0.0774916363118 -0.0442998769453 -5.45299755001e-24)
(0.0790321940444 -0.038570161543 -2.92440030332e-23)
(0.081922296959 -0.0519900593223 2.18132593328e-23)
(0.0833919091826 -0.045684045205 2.09074365173e-23)
(0.0869722945349 -0.0602304156683 8.31592581105e-24)
(0.0884071442841 -0.0533067943729 1.10623150723e-23)
(0.0926456361358 -0.0691005066472 9.79287168491e-24)
(0.0940845171362 -0.0615171898317 -6.07241077623e-24)
(0.0989434082161 -0.0786818643964 -1.91672196976e-23)
(0.100428201034 -0.0703917583157 3.29934827934e-24)
(0.105860081557 -0.0890575150681 7.7182675011e-24)
(0.107438644133 -0.0800384280927 -6.53950313623e-23)
(0.113366869358 -0.100311781729 1.15716317367e-22)
(0.115105530781 -0.0906069317084 7.36259316761e-23)
(0.121385537423 -0.112526270813 1.55396710397e-22)
(0.123380791021 -0.101827144378 2.4227703454e-22)
(0.129640059871 -0.125777090449 1.54667021493e-21)
(0.132153267707 -0.11344369053 1.17285997298e-22)
(0.137234496353 -0.140085696712 -4.04983129159e-23)
(0.140957119104 -0.128571213344 1.43769700886e-21)
(0.143713021945 -0.155425237072 -5.31102583897e-21)
(0.14841648059 -0.146470258888 -2.76930744875e-21)
(0.157013560029 -0.172012106743 -8.85376763264e-21)
(0.15512798716 -0.154873063244 -1.07756748439e-20)
(0.272826219176 -0.191985473635 -1.22131956873e-20)
(0.17754380534 -0.165599561325 -3.23827575308e-20)
(0.406177365552 -0.238096092034 -2.038822458e-20)
(0.0677070357972 -0.00501319604409 -1.22571893967e-23)
(0.06887771237 -0.00328387082266 -1.00698205146e-21)
(0.0698688818024 -0.0102869034156 4.10741512412e-22)
(0.0717234310144 -0.00666953917103 -2.47321649635e-23)
(0.0716272154409 -0.0157117045208 3.70100112766e-22)
(0.0733501446299 -0.0120289665475 6.21756873096e-22)
(0.0738956103727 -0.0213253853658 3.42201380518e-23)
(0.0754042832712 -0.0172814600873 -2.26056635939e-22)
(0.0768016233196 -0.0271893674583 -1.74843375841e-23)
(0.0781067924572 -0.0226619287074 -9.55863235915e-24)
(0.080372741334 -0.0333713448535 -2.41277031833e-23)
(0.081501273216 -0.0283143839323 -2.86325728406e-23)
(0.0846218540436 -0.0399427251846 -2.88356896595e-24)
(0.0856038665799 -0.0343173792131 -6.14479366755e-24)
(0.0895599853745 -0.0469786624845 1.01564922567e-23)
(0.090427964525 -0.040741942222 1.31591943197e-24)
(0.0951967457925 -0.0545583255039 -3.32602151502e-24)
(0.0959860422836 -0.0476657679814 1.19196323462e-23)
(0.101539296538 -0.0627638456379 -1.25659341818e-23)
(0.10228900956 -0.0551700499489 -2.10932460362e-23)
(0.108591613837 -0.0716817295864 -4.29284633853e-23)
(0.109344284427 -0.0633352303891 -5.02098373954e-24)
(0.116350022255 -0.0814004830844 5.12632812684e-25)
(0.117156258649 -0.0722753981954 -8.54343505177e-23)
(0.124785320244 -0.0920121790604 2.00186648849e-22)
(0.125716216939 -0.0821449457751 9.96633742779e-23)
(0.133816775163 -0.103607056511 2.04166321442e-22)
(0.134974830411 -0.0926789915679 4.45368108894e-22)
(0.143145197531 -0.116274211165 8.31279122551e-24)
(0.144819786533 -0.103675198403 4.16845676272e-22)
(0.151829421976 -0.130069681745 -1.29111212697e-21)
(0.154752164094 -0.118191542202 1.30856233531e-21)
(0.159547903126 -0.145008252812 -8.23395645373e-21)
(0.163354818098 -0.135235163214 -5.18802442961e-21)
(0.175407526496 -0.161495032425 -3.43046647421e-20)
(0.171614700784 -0.143841653914 8.25685121524e-22)
(0.310322703867 -0.182045293269 -4.05577864235e-20)
(0.198093933566 -0.156638718651 -6.12028178404e-20)
(0.463408653536 -0.229698582577 -2.0473435668e-20)
(0.0725130414437 -0.00435021828486 -1.01945702702e-21)
(0.0732269802941 -0.00288690265547 -1.8947563324e-21)
(0.0748805979262 -0.00895172221601 1.86283195721e-22)
(0.0763237262927 -0.00563465383158 1.47991217418e-21)
(0.0768062900269 -0.0136992876073 2.56001243918e-23)
(0.0780965370152 -0.0102880216257 2.79334680561e-22)
(0.0792901095649 -0.0186278070698 -2.69835406349e-22)
(0.0803318730584 -0.0148202004271 -3.38441724662e-22)
(0.0824751317999 -0.0237962074051 -2.07068676156e-23)
(0.0832746442139 -0.0194766808722 -9.95489597865e-24)
(0.0863941533712 -0.0292705631537 -1.06496633249e-23)
(0.0869754485562 -0.0243923008163 -1.82919475743e-23)
(0.0910641070093 -0.0351215547996 -1.94530526963e-24)
(0.0914549105947 -0.0296438107977 -3.91529618729e-23)
(0.0965002822062 -0.041424905921 3.07905952139e-24)
(0.0967310242084 -0.03530182245 -1.43078795172e-23)
(0.102716798941 -0.0482612975978 -5.84759217499e-24)
(0.102821573132 -0.0414449623234 -3.87535624643e-23)
(0.109725433503 -0.0557165072145 -1.35482955939e-23)
(0.109742397013 -0.048156745116 -3.9921389573e-23)
(0.11753464657 -0.0638814708749 -4.75268708719e-23)
(0.117507003806 -0.0555218617353 -1.70368965709e-24)
(0.126144237194 -0.0728514044008 1.37163909475e-23)
(0.126124511812 -0.0636610658951 -8.23481423699e-23)
(0.135525985629 -0.0827266108265 3.44844834322e-22)
(0.135589835834 -0.0727329768353 7.97573510563e-23)
(0.145598867926 -0.0936069302684 6.58047463724e-22)
(0.145853746192 -0.082481918042 7.22454930619e-22)
(0.156047346618 -0.105593105048 1.71709522036e-21)
(0.156804844189 -0.0927667214171 7.32982030598e-22)
(0.165895344551 -0.118750736371 -2.58834996733e-21)
(0.167909011246 -0.106543091793 2.6734477142e-21)
(0.175025606106 -0.133114131197 3.87161714564e-21)
(0.177717759704 -0.122562429615 -4.97845793735e-21)
(0.193870712733 -0.149251098183 -2.60724679768e-20)
(0.187751508632 -0.131346639029 1.3338700869e-21)
(0.350239181092 -0.16992587814 -4.11184670849e-20)
(0.21876853547 -0.146207767601 -6.08990926589e-20)
(0.525282787222 -0.219205013717 -1.13638969155e-20)
(0.0766216640315 -0.0036303457482 6.04612868809e-22)
(0.0768556183394 -0.00245688936133 -1.80089744149e-21)
(0.0791869673597 -0.00750081103208 1.57296365902e-21)
(0.0801921774771 -0.0045175650531 2.98427450902e-21)
(0.0812725278152 -0.0115104632054 -8.47071684929e-23)
(0.0821042369831 -0.00840641294449 2.40964980488e-22)
(0.0839612816621 -0.0156905490353 -7.8561214291e-23)
(0.084510320313 -0.012156967728 -6.82238196661e-23)
(0.0874124440383 -0.0200968169569 -7.53997593736e-24)
(0.087679729852 -0.0160257584097 -4.34770156518e-23)
(0.0916650103575 -0.0247930009339 -4.67952461224e-23)
(0.0916709339998 -0.020136828737 -1.85235955055e-23)
(0.0967410157008 -0.0298485284054 -5.15155361205e-23)
(0.0965099779336 -0.0245642999372 -5.43407300374e-23)
(0.1026612908 -0.0353389867342 -5.61405015029e-23)
(0.102220815057 -0.0293776820266 -5.37163063629e-23)
(0.109445986535 -0.0413468659413 -7.28273598623e-23)
(0.108827602524 -0.034656004437 -7.29101677124e-23)
(0.117113241118 -0.0479605446661 -2.80767836362e-23)
(0.116353791016 -0.0404847935432 -6.60312310754e-23)
(0.125677930894 -0.0552769535639 -3.65249611551e-23)
(0.124819815372 -0.0469531590096 -6.06535428586e-24)
(0.135145222902 -0.0633976678792 -1.63071822611e-23)
(0.134242801566 -0.0541889123614 -1.23326612651e-22)
(0.14548947953 -0.0724328558056 4.57367447353e-22)
(0.144622756139 -0.062354737419 8.50576114389e-23)
(0.156630825884 -0.0824932504211 7.97389497493e-22)
(0.155912131728 -0.0712101278092 9.71320948258e-22)
(0.168236587253 -0.0936921789287 1.68933452444e-21)
(0.168002173854 -0.0806850293442 -1.10582512079e-22)
(0.179293222784 -0.106104600782 2.83339744178e-22)
(0.180320289807 -0.0935903981329 -9.87462993144e-22)
(0.189966426997 -0.119752590997 -7.51620499609e-21)
(0.191365078708 -0.108450100399 -3.20118564108e-21)
(0.212181624988 -0.135352744255 -3.34927545952e-20)
(0.203351400336 -0.117371779529 -1.61657610188e-20)
(0.392582911856 -0.156172055926 -3.11445224895e-20)
(0.239587627191 -0.134149259175 -4.76645807005e-20)
(0.592308953736 -0.205735695926 -2.77966533642e-20)
(0.0799766613725 -0.00285717064901 5.78764198721e-22)
(0.0797102270813 -0.00199573964463 -1.5383217587e-21)
(0.0827298025116 -0.00594135577728 1.65227583049e-21)
(0.0832734440406 -0.00332465310049 2.01464244003e-21)
(0.084965346204 -0.00915580984795 2.57448329315e-22)
(0.0853158429296 -0.00639443329894 4.96858726979e-22)
(0.0878452929498 -0.0125271409697 -3.31396210269e-23)
(0.0878791502486 -0.00930567902868 8.26036890738e-23)
(0.091545668547 -0.0161069515505 -5.446063522e-23)
(0.0912575619356 -0.0123261553027 -5.8457434804e-23)
(0.0961126064226 -0.0199557540635 -2.60690794205e-23)
(0.0955182741911 -0.0155671936555 -4.30015974261e-23)
(0.101574391836 -0.0241407439823 -5.65415002798e-23)
(0.100693860339 -0.0190991782375 -5.08650422347e-23)
(0.107958814223 -0.0287368739131 -7.04859725724e-23)
(0.106815428115 -0.0229895419652 -4.5525128856e-23)
(0.115293792553 -0.0338272621762 -6.61140389255e-23)
(0.11391557508 -0.0273168636131 -8.19575297859e-23)
(0.123605946128 -0.0395036299681 -4.40198017251e-23)
(0.1220265148 -0.0321679943559 -2.46000885566e-23)
(0.132918991204 -0.0458679953385 -9.28670057822e-23)
(0.131179451792 -0.0376363457969 6.96657529966e-24)
(0.143245936406 -0.0530296970398 -2.19618189515e-23)
(0.141401285265 -0.0438569863856 -1.49377283025e-22)
(0.154566063201 -0.0611104871798 5.99011112344e-22)
(0.152700574519 -0.0509968454686 1.46389293365e-22)
(0.166803403318 -0.0702353075235 6.3348938686e-23)
(0.165034340736 -0.0588376810227 5.88070396011e-22)
(0.17961203865 -0.0805360360858 -2.78738002966e-21)
(0.178300821179 -0.0673904311118 -1.09538117979e-22)
(0.191920989882 -0.0921166016085 -4.4719883784e-21)
(0.19189935161 -0.0793149197133 -6.22682274424e-22)
(0.20396713259 -0.104958841796 -1.18507416638e-20)
(0.204206404858 -0.0931799710563 -4.02343405739e-21)
(0.23003030156 -0.119430173568 -3.03375871242e-20)
(0.217822322466 -0.10100272742 -6.39034968041e-21)
(0.437330833891 -0.139711108364 -4.43167115753e-20)
(0.259868298548 -0.12085722758 3.20471237077e-20)
(0.663783200736 -0.186500983026 -1.23882679372e-20)
(0.0825259882196 -0.00203541282988 -1.02443517398e-22)
(0.0817421775459 -0.00150600453453 -1.29424697202e-21)
(0.0854549673494 -0.004282688096 8.59225336521e-22)
(0.0855168615551 -0.00206406273444 3.8912216275e-21)
(0.0878278673444 -0.00664900383693 3.22014086738e-22)
(0.0876783633481 -0.00426519930544 5.66378186297e-23)
(0.0908814375254 -0.00915511799167 5.72858752968e-23)
(0.0903818289191 -0.00628410638783 2.57641057306e-23)
(0.0948092272925 -0.0118473107286 -4.69983970101e-23)
(0.0939468873409 -0.00839974878826 5.29223256665e-24)
(0.0996654703195 -0.0147816258418 -6.77975602403e-23)
(0.0984503813508 -0.0107085482113 -4.52728277558e-23)
(0.105485781601 -0.0180219103647 -3.9848670811e-23)
(0.103932361621 -0.0132758002934 -6.85450254367e-23)
(0.112306471726 -0.0216411987812 -5.69966860695e-23)
(0.110432216613 -0.0161653669735 -1.80797048427e-23)
(0.120165315251 -0.0257228305169 -4.04435794169e-23)
(0.117992853268 -0.0194540242877 -6.52477770492e-23)
(0.129100049538 -0.0303600126825 2.63862884681e-23)
(0.126658521966 -0.0232287631001 -5.44388854822e-24)
(0.139146111596 -0.035661073422 -4.95437019435e-23)
(0.136473463134 -0.0275869094538 5.1250798098e-23)
(0.150327718166 -0.0417426622874 1.89738292911e-23)
(0.147478075903 -0.0326702974471 -1.42654849123e-22)
(0.162633049159 -0.048740547834 1.35448577032e-22)
(0.15969415742 -0.0386501025145 1.73147996034e-22)
(0.175995632676 -0.0567984768697 4.15183339346e-22)
(0.17308837306 -0.0453361381162 1.51665217288e-22)
(0.190078368519 -0.0660766983421 2.05515963726e-21)
(0.187576018361 -0.0528140423199 6.50609377545e-22)
(0.203718294977 -0.0767787132266 -1.74127953412e-22)
(0.202599035011 -0.0637094155445 2.75257809899e-21)
(0.217626925659 -0.0889111677676 1.43695792602e-21)
(0.216337484334 -0.0767563400585 -6.26132466968e-21)
(0.247079861567 -0.103217929171 5.59943611515e-20)
(0.232128659882 -0.0811600792513 -1.50149349084e-20)
(0.481482595695 -0.121932448836 6.39755673457e-20)
(0.278582271314 -0.10773602552 1.80569169974e-20)
(0.72968309784 -0.149439621753 -2.50132720322e-20)
(0.0842229369015 -0.00117101301832 2.69941817287e-21)
(0.0829088709089 -0.000990954750596 -1.24114261927e-21)
(0.0873134588566 -0.00253656119259 3.0886341096e-21)
(0.0868776815789 -0.000745938247522 1.75311419699e-21)
(0.0898079714098 -0.00400728727099 -2.39612162378e-22)
(0.0891444207481 -0.00203505497132 -4.49812795989e-22)