/*--------------------------------*- C++ -*----------------------------------*\
| =========                 |                                                 |
| \\      /  F ield         | OpenFOAM: The Open Source CFD Toolbox           |
|  \\    /   O peration     | Version:  v2012                                 |
|   \\  /    A nd           | Website:  www.openfoam.com                      |
|    \\/     M anipulation  |                                                 |
\*---------------------------------------------------------------------------*/
FoamFile
{
    version     2.0;
    format      ascii;
    class       volScalarField;
    location    "0.8";
    object      k;
}
// * * * * * * * * * * * * * * * * * * * * * * * * * * * * * * * * * * * * * //

dimensions      [0 2 -2 0 0 0 0];


internalField   nonuniform List<scalar> 
1984
(
0.0166157678355
0.0187502915021
0.0191883347211
0.0192894136936
0.0193329002343
0.0193683608336
0.0194028108894
0.0194370199473
0.019471002193
0.0195046947961
0.0195380441807
0.0195711492762
0.0196053277287
0.0196500068666
0.0197600384743
0.0201968468866
0.0219514313545
0.0278483147576
0.0434832857049
0.0760997843999
0.0187884953504
0.0224048326067
0.0231647959844
0.0233361321805
0.0233903575529
0.0234258324169
0.0234589497322
0.0234918782439
0.0235247881827
0.0235576254132
0.0235903652058
0.0236232805851
0.0236587220111
0.0237114216917
0.0238582515156
0.0244299417746
0.0265563315464
0.0330928116594
0.0487695038914
0.0786850609508
0.0193048486644
0.0232877274344
0.0241472011175
0.0243396391644
0.0243958627561
0.0244302578178
0.0244622267792
0.0244942576704
0.0245264499523
0.0245586723305
0.0245908364924
0.0246232038015
0.0246582740535
0.0247115648377
0.0248626424178
0.0254477358029
0.0275942673435
0.0341042318997
0.0496250534721
0.079061015039
0.0194399400672
0.0235183774088
0.02440467647
0.0246011524037
0.0246558166633
0.0246880241422
0.0247180956677
0.0247485528782
0.0247794122289
0.02481045141
0.0248415292451
0.0248728675062
0.0249069927683
0.0249596716433
0.025111342836
0.025699714314
0.0278498446716
0.0343463642622
0.0498188415049
0.079133111032
0.0194924028918
0.0235908756636
0.0244821586078
0.0246775824828
0.0247297943281
0.0247596056543
0.0247876183708
0.0248163450795
0.0248457413473
0.0248755331048
0.0249055181847
0.0249358939567
0.0249692147209
0.0250214969032
0.0251741867052
0.0257676702362
0.0279305652868
0.034444612907
0.049918492599
0.0791811478455
0.0195292520307
0.0236299031516
0.0245210479613
0.0247144938141
0.0247643125256
0.0247918529203
0.0248178588041
0.0248448572299
0.0248727792232
0.0249013172287
0.0249302409609
0.0249597217026
0.0249923615705
0.0250445086407
0.025198964037
0.0258000238191
0.0279829512297
0.0345292476981
0.0500195522334
0.0792313516457
0.0195636911212
0.023662955801
0.024553184338
0.0247448073235
0.0247925374883
0.0248180358048
0.0248421682473
0.0248675032764
0.0248939764127
0.0249212685695
0.0249491328841
0.0249777339645
0.0250097428405
0.0250619301538
0.0252188023715
0.0258296044476
0.0280380797729
0.0346251573073
0.0501349194712
0.0792857949565
0.019598018878
0.0236953714655
0.0245847958525
0.0247749259808
0.0248208939578
0.0248446024697
0.0248670337782
0.0248908127508
0.0249158988172
0.0249419771996
0.0249687984432
0.024996533494
0.0250279472035
0.0250803235172
0.025240205831
0.0258626874966
0.02810132654
0.0347355879582
0.0502662200792
0.0793469232238
0.0196325689902
0.0237280443446
0.0246168894751
0.0248058287935
0.0248503259674
0.0248724889539
0.0248934067924
0.0249157654754
0.0249395581592
0.0249644866289
0.0249903081036
0.0250172126647
0.0250480830938
0.0251008069578
0.0252642847054
0.02590029024
0.0281733222693
0.0348604963674
0.0504133568466
0.0794152289091
0.0196673527314
0.0237610744409
0.0246495428842
0.0248375398806
0.0248808151144
0.0249016570531
0.0249212499227
0.0249423389168
0.0249649554184
0.0249888235242
0.0250137160291
0.0250398506702
0.0250702528244
0.0251235027205
0.0252911667291
0.0259424674388
0.0282538096021
0.0349989531794
0.050575047711
0.0794915351988
0.0197023299411
0.0237944366527
0.0246827005718
0.0248699592227
0.024912223861
0.0249319468223
0.0249503962278
0.0249703718672
0.0249919430753
0.0250148604847
0.0250389160531
0.0250643642799
0.025094395785
0.0251483722392
0.0253208288071
0.0259891681515
0.028342528192
0.0351502853238
0.0507505253273
0.0795751219122
0.0197374470098
0.023828088502
0.024716300277
0.0249029923544
0.024944427635
0.0249632126436
0.0249806901415
0.0249997086386
0.025020373983
0.0250424631896
0.0250657917043
0.0250906557743
0.025120434186
0.0251753566163
0.0253532161867
0.0260402595918
0.0284390210712
0.0353132821482
0.0509379859123
0.0796663141186
0.0197726390213
0.023861982425
0.0247502851061
0.0249365603818
0.0249773244173
0.024995334647
0.025012001473
0.0250302167479
0.0250501194615
0.025071513416
0.025094237574
0.0251186362065
0.0251482966851
0.0252044005929
0.0253882717708
0.0260955940248
0.0285427827294
0.0354866865879
0.051135827258
0.0797651754983
0.0198078274659
0.0238960640282
0.0247845995296
0.0249705936116
0.0250108273922
0.0250282116395
0.0250442200595
0.0250617829717
0.0250810695606
0.0251019080948
0.0251241626077
0.0251482285829
0.025177921946
0.0252354558222
0.0254259371327
0.0261550064775
0.0286532825077
0.0356694223127
0.0513423847045
0.0798696672016
0.0198429178245
0.0239302690914
0.0248191845644
0.0250050249141
0.025044857269
0.0250617538524
0.0250772496428
0.0250943082834
0.0251131268638
0.0251335561919
0.0251554869352
0.0251793652039
0.0252092565365
0.0252684769716
0.0254661423945
0.0262182745832
0.02876983504
0.03585986859
0.0515546816017
0.0799718857847
0.0198777977502
0.0239645211808
0.024853973963
0.0250397846669
0.0250793374658
0.0250958769559
0.0251109991096
0.0251277015238
0.0251462015786
0.025166376558
0.025188135101
0.0252119856391
0.0252422518709
0.0253034200455
0.0255087953021
0.0262850847166
0.0288914707921
0.0360556812349
0.0517665993336
0.080035290003
0.0199123339212
0.0239987281441
0.0248888911317
0.0250747984842
0.0251141855212
0.0251304934414
0.0251453812383
0.0251618743731
0.0251802120188
0.0252002894699
0.0252220413243
0.0252460353312
0.0252768667544
0.0253402376934
0.0255537784209
0.0263550257842
0.0290169956125
0.0362540951915
0.0519680008292
0.0799947390636
0.0199463702185
0.0240327816163
0.0249238468302
0.0251099750579
0.0251493137615
0.0251655142335
0.0251802975456
0.0251967215658
0.0252150521918
0.025235196959
0.0252571125865
0.0252814304252
0.0253130243081
0.025378847541
0.025600921263
0.0264275855592
0.0291449491
0.0364510874285
0.0521510089392
0.079940694638
0.0199797277563
0.0240665527112
0.0249587321632
0.0251452177096
0.0251846188189
0.0252008247191
0.025215648025
0.0252321642126
0.0252506534608
0.0252710422886
0.0252933085299
0.0253181453698
0.0253507100445
0.0254192122037
0.0256500464691
0.0265021246756
0.029273631607
0.0366431951622
0.0523150144563
0.0799333057565
0.0200121907359
0.0240998824858
0.0249934199986
0.0251804046858
0.0252199802937
0.0252363278315
0.0252513319488
0.0252680969109
0.0252869182383
0.0253077382131
0.0253305547153
0.0253561206638
0.0253898724382
0.025461250343
0.0257009012775
0.0265778196074
0.0294007911125
0.0368255378129
0.0524556501839
0.07994902606
0.0200435281875
0.0241325992059
0.0250277556956
0.0252153980222
0.0252552774091
0.0252718936334
0.0252872244851
0.0253044027411
0.0253237387944
0.0253451888857
0.0253687694941
0.0253952898827
0.0254304508561
0.0255048575316
0.0257531509642
0.0266535616272
0.0295233115033
0.0369916362634
0.0525695245204
0.0799884910696
0.0200734716926
0.0241645020265
0.0250615793358
0.0252500466135
0.0252903562588
0.0253073744924
0.025323185058
0.0253409503031
0.0253609949149
0.02538328781
0.0254078624848
0.0254355788844
0.0254723755284
0.0255499076644
0.0258063981008
0.0267281433695
0.0296384353588
0.0371368919917
0.0526513928394
0.0800008643197
0.0201017189233
0.0241953580704
0.0250946912859
0.0252841662604
0.0253250408205
0.0253426017726
0.0253590536522
0.0253775904407
0.0253985506864
0.025421914978
0.0254477319532
0.0254769038432
0.0255155660943
0.0255962511004
0.0258601570894
0.0267999592697
0.0297415474635
0.0372511717382
0.0526822056232
0.0799746254292
0.0201279310078
0.0242249018139
0.0251268628248
0.0253175456533
0.025359129473
0.0253773827302
0.0253946480086
0.0254141537292
0.0254362521549
0.0254609344259
0.0254882621722
0.0255191685286
0.0255599296152
0.0256437190557
0.0259139115754
0.0268674858166
0.0298290190521
0.0373274941609
0.0526566452026
0.0799241815738
0.0201517306151
0.0242528328933
0.0251578331982
0.0253499434284
0.0253923921615
0.0254114978523
0.0254297609002
0.0254504479711
0.0254739242947
0.0255001909666
0.0255293199884
0.0255622611029
0.0256053572526
0.0256921123744
0.0259670321851
0.0269287424945
0.0298959329167
0.0373585060252
0.0525662837344
0.079840486527
0.020172702222
0.0242788149194
0.0251873067006
0.0253810845437
0.0254245662139
0.0254446962968
0.0254641555878
0.0254862531535
0.0255113674182
0.0255395066178
0.0255707525697
0.0256060529987
0.0256517258708
0.0257412162741
0.026018859467
0.0269816725853
0.0299370799004
0.037333196011
0.0523920209066
0.0797129586657
0.0201903818841
0.0243024634619
0.0252149388662
0.0254106472589
0.0254553443292
0.0254766843315
0.0254975534716
0.0255213070222
0.0255483369858
0.0255786602817
0.0256123606342
0.0256503667088
0.0256988643474
0.0257907790182
0.0260687342367
0.0270243440702
0.0299476927832
0.0372423620398
0.052116283984
0.0795319843428
0.0202042807872
0.0243233684855
0.0252403577584
0.0254382854775
0.025484396661
0.0255071478709
0.0255296582222
0.0255553359306
0.025584588535
0.0256174338276
0.0256539591257
0.025695049808
0.0257466406711
0.0258406069673
0.0261160741634
0.0270548382127
0.0299226440137
0.0370756270663
0.0517221924377
0.0792896452282
0.0202138978815
0.0243410453151
0.025263128808
0.0254636019017
0.0255113451919
0.0255357257616
0.0255601277397
0.0255880180689
0.0256198192493
0.0256555573275
0.025695315497
0.0257399090342
0.0257948932425
0.0258905169967
0.0261604244146
0.0270716444667
0.0298575000366
0.0368224355914
0.0511864181289
0.0789759698498
0.0202198700643
0.0243541546819
0.0252823861072
0.0254860515378
0.025535749357
0.0255620107867
0.0255885770319
0.0256189969965
0.0256537086388
0.0256927401595
0.0257361698401
0.0257847237811
0.0258434491941
0.0259403712432
0.0262015377982
0.0270738357033
0.0297485353921
0.0364725686797
0.0504819835979
0.0785806034938
0.0202239569509
0.0243608769662
0.025296860707
0.0255048480338
0.0255570865364
0.0255855726649
0.0256146129904
0.0256478941182
0.0256858834839
0.0257286276256
0.0257761951674
0.0258292078672
0.0258920964952
0.0259900757952
0.0262394345557
0.0270613671795
0.0295936941873
0.0360203145679
0.0495906144043
0.0781000796382
0.0202251688665
0.0243609145875
0.025305955306
0.0255194406111
0.0255748403078
0.0256059346135
0.0256378020086
0.0256743322856
0.0257160337754
0.0257629627342
0.0258151717288
0.0258731972568
0.0259408480216
0.0260402311394
0.0262757673165
0.0270355052424
0.0293946209939
0.0354710862463
0.0485094538065
0.0775249812378
0.0202227715507
0.0243537574342
0.0253090170642
0.0255292014477
0.0255884321496
0.0256225601928
0.0256576422675
0.0256978450903
0.0257437320534
0.0257953619771
0.0258527884302
0.0259164573698
0.0259896445861
0.0260916613852
0.0263154549994
0.0270136799343
0.0291854327671
0.0348450550714
0.0472188896654
0.0753135494715
0.0202159943322
0.0243387519131
0.0253052868412
0.0255334320624
0.0255972286709
0.0256348652196
0.0256735937778
0.0257179365876
0.0257685296643
0.0258254315313
0.0258886950607
0.0259586766938
0.0260381824307
0.0261439509033
0.0263580365038
0.0269980899189
0.028983508067
0.0342016610214
0.0456621648682
0.0684330214335
0.020204027195
0.0243152736261
0.0252940175882
0.0255313925915
0.0256005474671
0.0256422212749
0.0256850772517
0.0257340808883
0.0257899547719
0.0258527592092
0.0259225294638
0.0259995479813
0.026086185455
0.0261968051083
0.0264030894095
0.026987894735
0.0287870517627
0.0335487813836
0.0441062955094
0.0649889997878
0.0201860175886
0.0242827264107
0.0252744411103
0.0255223014981
0.0255976603724
0.0256439620289
0.0256914855524
0.02574572492
0.0258075110406
0.0258769156162
0.0259539373254
0.0260387808351
0.0261334149451
0.0262500130561
0.0264503991724
0.026983052409
0.0285990316704
0.0329090783508
0.0428017568665
0.0640258007693
0.0201610680842
0.024240549761
0.025245818256
0.0255053558232
0.0255878069739
0.0256393858362
0.0256921744876
0.0257522857094
0.0258206959304
0.0258974789173
0.0259825808598
0.0260761098436
0.0261796613647
0.0263034036137
0.026499914215
0.0269842699751
0.0284225501297
0.0322934780245
0.0419200797239
0.0736245552537
0.0201282783322
0.0241883581215
0.025207518757
0.0254797878286
0.0255702159091
0.0256277639341
0.0256864735592
0.0257531775065
0.0258290243265
0.0259140624295
0.0260081665518
0.0261113260774
0.0262247902897
0.0263569055242
0.0265517063714
0.0269923451588
0.0282608749462
0.0317032483057
0.0411296812695
0.0797129334132
0.0200868474588
0.0241260099295
0.0251590840538
0.0254448997737
0.0255441341345
0.0256083715307
0.0256737222068
0.0257478299548
0.0258320315803
0.0259263268337
0.0260304770717
0.0261443147965
0.0262687477262
0.0264104677909
0.0266056906306
0.0270075920507
0.028118813696
0.0311828774121
0.0414491532871
0.0887099236061
0.0200361111866
0.0240536133653
0.0251002757107
0.025400131338
0.0255088798365
0.0255805241134
0.0256532941415
0.0257357105521
0.0258293190456
0.0259340294826
0.0260494200897
0.0261751004866
0.0263116603284
0.0264643221177
0.0266622535719
0.0270306835371
0.0279906084834
0.0305818617539
0.0387904790152
0.0772842863613
0.0199755945171
0.0239715887223
0.0250311652835
0.0253451486402
0.0254639186557
0.0255436284656
0.0256246174405
0.0257163599475
0.0258206122437
0.0259371187006
0.0260651067569
0.0262039149364
0.0263538219465
0.0265187866044
0.0267217318782
0.0270619708361
0.0278937357433
0.0301869199271
0.0389870188767
0.0854461177352
0.0199052051871
0.0238808610556
0.0249522888735
0.0252799864395
0.0254089542755
0.0254972491461
0.0255872651106
0.0256894905516
0.0258059045685
0.0259358622451
0.0260780167313
0.0262313353181
0.0263958667894
0.0265746618509
0.0267860561888
0.0271082776001
0.027844101163
0.0299216939148
0.0388130212127
0.0868020024241
0.0198254605198
0.0237831612974
0.0248649069634
0.0252052061961
0.025344104731
0.025441234747
0.0255410280174
0.0256550501372
0.0257855631271
0.0259310400876
0.0260891471655
0.0262583858429
0.0264387138141
0.026632509739
0.026855072247
0.0271664670698
0.0278250046453
0.0297557372046
0.0406072346648
0.0920066617601
0.019737655439
0.0236812781643
0.0247712313819
0.0251222033697
0.0252700311579
0.025375793721
0.0254859109962
0.0256132925011
0.0257604042007
0.0259238437982
0.0260997472936
0.0262862073433
0.0264833238478
0.0266925675113
0.0269270328704
0.0272318793704
0.0278160600648
0.0294982120518
0.0394337149
0.0945581062867
0.019643983152
0.0235791647079
0.0246746653884
0.0250333690801
0.0251881847752
0.0253014415062
0.0254214456275
0.0255626700639
0.0257280708684
0.0259111018549
0.0261061734552
0.0263116187983
0.0265273574383
0.0267521974723
0.0269974243417
0.0272982605417
0.0277975809947
0.029119834803
0.0357477729271
0.0790101519515
0.0195476391898
0.0234819144655
0.0245798624003
0.0249423300184
0.0251006901646
0.0252177448026
0.0253409489643
0.0254810652312
0.0256509835346
0.02584374436
0.0260547261488
0.026284432212
0.0265315182881
0.0267836892932
0.0270456034217
0.0273335168651
0.0277541770816
0.0288868339745
0.035056093946
0.0797629381954
0.0194527113143
0.0233952223276
0.0244924721384
0.0248538128568
0.0250095425434
0.0251175998234
0.025200208104
0.0251845138383
0.0252582207127
0.0253916759466
0.0255954185282
0.0258740666437
0.0262332772642
0.0266107304962
0.0269670430533
0.027305987149
0.0277417915201
0.0290558184953
0.0398025830176
0.0966702703133
0.019363770448
0.0233241027288
0.0244182695391
0.0247728451251
0.0249144286125
0.0249740669487
0.0248221707503
0.0238931357121
0.0227046081049
0.0223531221989
0.0224674144099
0.0229726968701
0.0244882100127
0.025637623234
0.0264361627008
0.0270501372725
0.0276576346643
0.0290829979703
0.0422848261024
0.0964182232716
0.0192864376033
0.0232729883984
0.024363565241
0.0247048858868
0.0248113731588
0.0247581884761
0.0241903124426
0.0209788578365
0.0231727481299
0.0248788516447
0.0259175975347
0.0267247830357
0.0274849091626
0.0288245784739
0.0373399586056
0.0909099752647
0.0192308179599
0.0232412458949
0.0243342256123
0.0246718422905
0.0247647831554
0.0246606755646
0.0239181917898
0.0201184075579
0.0208960291647
0.0242815293033
0.0254904357305
0.0263681035822
0.0272158398936
0.028447884113
0.0336096926476
0.071644176493
0.019230819759
0.0232412453437
0.024334222905
0.0246718378158
0.0247647775083
0.0246606692415
0.0239181863384
0.0201184051265
0.0208960858218
0.0242816513519
0.0254906220386
0.0263683150045
0.0272160938885
0.0284481876615
0.033609948784
0.0716439333905
0.0192864409313
0.0232729864091
0.0243635580639
0.0247048744171
0.0248113584271
0.0247581725309
0.0241902973291
0.0209788511452
0.0231728809025
0.0248790562676
0.0259179006378
0.0267251102625
0.0274852620291
0.0288249735319
0.0373401504213
0.0909096814036
0.0193637697186
0.0233240937289
0.0244182529909
0.0247728230991
0.0249144033171
0.0249740411219
0.0248221485472
0.0238931233373
0.022704600977
0.022353126384
0.0224674280535
0.0229727311875
0.024488294353
0.025637804628
0.0264364871511
0.0270505174591
0.0276580501113
0.0290834357439
0.0422848052191
0.0964180667927
0.019452701671
0.023395204212
0.0244924480673
0.0248537856357
0.025009514554
0.0251175733755
0.0252001862826
0.0251845006115
0.0252582183633
0.0253916893865
0.0255954511074
0.0258741392363
0.026233412801
0.0266109583765
0.026967417461
0.027306413713
0.0277422469333
0.0290562848482
0.039802352058
0.0966700375235
0.0195476198604
0.023481885188
0.0245798283545
0.0249422944207
0.0251006557775
0.0252177151538
0.0253409272849
0.0254810548198
0.0256509876642
0.025843768111
0.0260547760013
0.0262845207664
0.0265316693117
0.0267839371288
0.0270460163967
0.0273339850221
0.0277546792026
0.028887364502
0.0350564979777
0.0797626288997
0.0196439563225
0.0235791273392
0.0246746245375
0.025033327221
0.0251881447822
0.0253014087219
0.0254214247387
0.0255626643201
0.0257280835597
0.0259111374978
0.0261062391835
0.0263117269068
0.0265275261329
0.0267524624784
0.0269978607309
0.0272987454493
0.0277980997088
0.0291204039539
0.0357481708291
0.0790102209763
0.0197376244917
0.0236812373581
0.024771187897
0.0251221587227
0.0252699903508
0.0253757583272
0.0254858898018
0.0256132904119
0.02576042413
0.0259238898803
0.0260998265052
0.026286332311
0.0264835114757
0.0266928508136
0.026927484696
0.0272323615254
0.0278165618538
0.0294987333551
0.0394341058386
0.0945581100495
0.0198254327733
0.0237831255171
0.0248648680089
0.0252051733504
0.0253440660385
0.0254412019744
0.0255410044205
0.0256550489433
0.0257855857196
0.0259310907914
0.0260892326679
0.0262585215244
0.0264389145176
0.026632804352
0.0268555266936
0.0271669317458
0.0278254728593
0.0297562115107
0.0406075413895
0.0920066049773
0.0199051833646
0.0238808337122
0.0249522648606
0.0252799594248
0.0254089358865
0.0254972321348
0.0255872559883
0.0256894841611
0.0258059198706
0.0259359045553
0.0260780901454
0.0262314669665
0.0263960661925
0.0265749529348
0.0267864960134
0.0271087124176
0.02784453143
0.0299221254358
0.0388132884488
0.0868018995462
0.0199755832121
0.0239715775929
0.0250311550554
0.0253451429865
0.0254639143734
0.0255436286888
0.0256246259249
0.0257163773675
0.0258206500596
0.0259371757894
0.0260651859525
0.0262040556468
0.0263540275497
0.0265190749774
0.0267221572193
0.0270623789384
0.0278941378209
0.030187320381
0.0389873138788
0.0854461436438
0.0200361106095
0.024053617826
0.0251002821587
0.0254001403405
0.0255088934401
0.0255805438208
0.0256533193854
0.0257357453325
0.0258293674388
0.0259340943681
0.0260494997148
0.0261752407157
0.0263118587178
0.0264645980669
0.0266626502795
0.0270310581328
0.0279909769504
0.0305822439707
0.0387909377277
0.0772851088936
0.020086856232
0.0241260270131
0.0251591029196
0.025444920644
0.0255441588299
0.025608402461
0.0256737619088
0.0257478785785
0.0258320923621
0.0259263963385
0.0260305629286
0.0261444566288
0.0262689386336
0.0264107278559
0.0266060553122
0.0270079292661
0.028119147355
0.031183228836
0.0414495525723
0.0887100557752
0.0201282936821
0.0241883837397
0.0252075460955
0.0254798166533
0.0255702479168
0.025627801546
0.025686519308
0.0257532322582
0.0258290913521
0.0259141339133
0.0260082535229
0.0261114673653
0.0262249735398
0.0263571534068
0.0265520378208
0.0269926455679
0.0282611725471
0.031703563528
0.0411299947082
0.079712981096
0.0201610854587
0.0242405785965
0.0252458492774
0.0255053887042
0.0255878433304
0.025639427939
0.0256922236888
0.0257523422208
0.0258207632144
0.0258975479139
0.0259826645132
0.0260762464684
0.026179835387
0.0263036381488
0.0265002160582
0.0269845352015
0.0284228107012
0.0322937422869
0.0419203125038
0.0736245601832
0.0201860407926
0.0242827620044
0.0252744788614
0.0255223403933
0.0255977009025
0.0256440048764
0.0256915310243
0.0257457728845
0.0258075675815
0.025876978772
0.0259540140056
0.0260389064269
0.0261335763963
0.0262502329129
0.0264506696069
0.0269832847708
0.0285992547295
0.0329092917274
0.0428019043719
0.0640258066369
0.0202040519073
0.0243153112593
0.0252940582047
0.0255314348808
0.0256005915445
0.0256422673119
0.0256851250702
0.0257341289911
0.0257900030906
0.0258528124204
0.0259225930286
0.0259996528476
0.0260863287003
0.026197005362
0.0264033295064
0.0269880979943
0.028787239957
0.0335489452003
0.044106388776
0.0649890018317
0.0202160191359
0.0243387898033
0.0253053284886
0.0255334760806
0.0255972750413
0.0256349139751
0.0256736446267
0.025717987837
0.0257685805676
0.025825486585
0.0258887584221
0.0259587703002
0.0260383104505
0.0261441261629
0.0263582517456
0.0269982690264
0.0289836661468
0.0342017861361
0.0456622235481
0.0684330072655
0.0202227956886
0.0243537946266
0.0253090586348
0.0255292461039
0.025588479897
0.0256226110776
0.0256576960008
0.0256979000655
0.0257437874443
0.0257954218056
0.0258528564495
0.0259165516247
0.0259897687835
0.0260918239986
0.0263156542108
0.0270138399909
0.0291855653756
0.0348451492437
0.0472189250435
0.0753135319268
0.0202251919434
0.024360950625
0.0253059961573
0.025519485125
0.0255748886497
0.0256059869258
0.025637858058
0.025674390598
0.0257160935179
0.0257630275212
0.0258152450776
0.025873294412
0.0259409723962
0.0260403892779
0.0262759557074
0.0270356512939
0.0293947328067
0.0354711571309
0.0485094737135
0.0775249738914
0.0202239788879
0.0243609113628
0.0252969002486
0.0255048917813
0.0255571347451
0.0255856255653
0.0256146704029
0.0256479546483
0.0256859463065
0.0257286962215
0.0257762728079
0.0258293071461
0.0258922202966
0.0259902294427
0.0262396132603
0.0270615046517
0.0295937933371
0.0360203662632
0.0495906212108
0.0781000709521
0.020219890944
0.0243541876376
0.0252824242585
0.0254860941798
0.025535796879
0.0255620634721
0.025588634672
0.0256190582003
0.0256537725573
0.025692810722
0.0257362501367
0.0257848233769
0.0258435699993
0.0259405175886
0.026201704738
0.027073965793
0.0297486240802
0.0364726060174
0.0504819830168
0.0785805938077
0.0202139179158
0.024341077304
0.0252631658844
0.0254636435297
0.0255113918705
0.0255357777712
0.025560184705
0.0255880785101
0.0256198821157
0.0256556279085
0.0256953967677
0.0257400069433
0.0257950080037
0.0258906515115
0.0261605745254
0.0270717656306
0.0298575791964
0.0368224621091
0.0511864150803
0.0789759606708
0.0202043008433
0.0243234004076
0.0252403945825
0.0254383267252
0.0254844428927
0.025507199397
0.0255297144709
0.0255553953042
0.0255846494459
0.0256175035183
0.0256540407122
0.0256951448639
0.0257467482115
0.0258407272033
0.0261162031706
0.027054946599
0.0299227125095
0.0370756449452
0.0517221885441
0.0792896362079
0.0201904012405
0.024302494162
0.0252149741653
0.025410686726
0.0254553885809
0.0254767339806
0.025497608185
0.0255213661649
0.0255484010803
0.0255787319312
0.0256124413138
0.0256504563918
0.0256989625589
0.0257908833924
0.0260688362354
0.0270244267778
0.0299477437349
0.0372423723714
0.052116276164
0.0795319751777
0.0201727190811
0.0242788420688
0.0251873380878
0.0253811198119
0.0254246059539
0.0254447411175
0.0254642056561
0.0254863078396
0.025511426925
0.0255395733956
0.0255708259564
0.0256061331033
0.0256518122692
0.0257413060921
0.026018943509
0.0269817355307
0.0299371120607
0.0373331982113
0.0523920103749
0.0797129510327
0.0201517489142
0.0242528612423
0.0251578654738
0.0253499790342
0.0253924315459
0.0254115417124
0.0254298099672
0.0254505026496
0.0254739853993
0.0255002594573
0.0255293962897
0.0255623452741
0.0256054481856
0.0256922051873
0.0259671148673
0.0269287988656
0.0298959562185
0.0373585062578
0.0525662739925
0.0798404794912
0.0201279456587
0.0242249251702
0.0251268898712
0.0253175759465
0.0253591633316
0.0253774206269
0.0253946904475
0.0254142012063
0.0254363050293
0.0254609932819
0.0254883273858
0.0255192403496
0.0255600071099
0.0256437976961
0.0259139802612
0.0268675300941
0.0298290348658
0.0373274930601
0.0526566386892
0.0799241783083
0.0201017334413
0.0241953805567
0.025094717048
0.0252841950087
0.0253250727265
0.0253426372283
0.0253590931495
0.0253776345447
0.0253985999672
0.0254219700127
0.0254477931842
0.0254769713513
0.0255156386277
0.0255963239988
0.0258602196157
0.0267999980643
0.0297415600977
0.0372511709298
0.0526822012864
0.0799746229823
0.0200734854716
0.0241645231698
0.0250616033094
0.0252500737205
0.0252903863937
0.0253074078726
0.0253232220689
0.0253409915295
0.0253610409713
0.0253833393771
0.0254079200281
0.0254356422607
0.0254724430594
0.0255499747325
0.0258064544761
0.0267281768729
0.0296384450941
0.0371368914481
0.0526513906353
0.0800008622889
0.0200435401913
0.0241326179284
0.0250277763316
0.0252154227526
0.0252553055377
0.0252719250891
0.0252872594029
0.0253044416931
0.025323782391
0.0253452379697
0.0253688245667
0.0253953503695
0.0254305141209
0.0255049191996
0.025753201517
0.0266535900825
0.0295233183591
0.0369916354024
0.0525695236694
0.0799884914413
0.0200122004985
0.0240998983278
0.0249934350458
0.0251804262751
0.0252200061959
0.0252363578318
0.0252513655623
0.0252681347904
0.0252869609646
0.0253077871095
0.0253306106763
0.0253561824809
0.0253899347522
0.0254613093087
0.0257009483761
0.0265778447476
0.0294007958911
0.0368255359391
0.0524556488628
0.0799490261384
0.0199797357438
0.0240665688671
0.0249587523664
0.0251452411539
0.0251846396647
0.0252008519996
0.0252156799319
0.0252322011541
0.0252506960418
0.0252710924871
0.0252933700228
0.0253182117713
0.0253507735038
0.0254192694076
0.0256500912857
0.0265021472034
0.0292736342475
0.0366431912249
0.0523150133911
0.0799333006821
0.0199463839515
0.0240328049315
0.0249238703563
0.0251100025024
0.0251493358608
0.0251655343809
0.0251803232157
0.0251967549082
0.0252150909277
0.0252352473267
0.0252571735185
0.0252815012114
0.0253130849882
0.0253788994063
0.0256009598859
0.0264276046278
0.0291449487213
0.0364510832126
0.0521510090604
0.0799406936752
0.01991234939
0.0239987534776
0.0248889161333
0.0250748259277
0.0251142089816
0.0251305160913
0.0251454045568
0.0251618975588
0.0251802404024
0.0252003260635
0.0252220962877
0.025246099986
0.0252769169653
0.0253402744471
0.0255538061552
0.0263550399358
0.0290169974206
0.036254094232
0.0519680042542
0.0799947376715
0.019877812096
0.023964547713
0.024853994853
0.0250398015796
0.0250793534291
0.0250958933696
0.0251110170105
0.0251277195918
0.0251462241381
0.0251664073731
0.0251881809914
0.0252120459259
0.0252423002785
0.0253034492711
0.0255088150255
0.0262850921865
0.0288914711965
0.0360556836402
0.0517666062244
0.0800352925563
0.0198429269563
0.023930285395
0.0248191971833
0.0250050377562
0.0250448715532
0.0250617696235
0.0250772665037
0.02509432661
0.025113148678
0.0251335897323
0.0251555280791
0.025179417069
0.0252092991152
0.0252685069515
0.0254661631574
0.0262182840732
0.0287698370398
0.0358598736233
0.0515546911326
0.0799718906966
0.0198078345313
0.0238960737331
0.0247846087411
0.0249706041233
0.0250108398634
0.0250282261668
0.0250442366252
0.0250618015817
0.0250810932036
0.0251019418273
0.0251242073721
0.0251482820955
0.025177958068
0.0252354860285
0.0254259601071
0.026155019092
0.0286532895664
0.0356694330082
0.0513423987988
0.0798696716479
0.0197726435743
0.0238619882659
0.0247502922192
0.0249365693266
0.0249773354856
0.0249953479232
0.0250120171136
0.0250302355455
0.0250501449719
0.0250715492912
0.0250942763338
0.0251186808272
0.0251483306831
0.0252044309687
0.0253882961647
0.0260956099034
0.0285427949013
0.0354867039674
0.0511358470929
0.0797651809452
0.0197374488663
0.023828092752
0.0247163061997
0.0249030001543
0.0249444375386
0.0249632248337
0.0249807052463
0.0249997286645
0.0250204043826
0.0250424969093
0.0250658297954
0.0250906932283
0.0251204659419
0.0251753862531
0.0253532412596
0.0260402778042
0.0284390373263
0.0353133041748
0.0509380098619
0.0796663218445
0.0197023314629
0.0237944403485
0.0246827057861
0.0248699661127
0.0249122326622
0.0249319579137
0.0249504108956
0.0249703940304
0.0249919713233
0.0250148962755
0.0250389517109
0.0250643937958
0.0250944250088
0.0251484009301
0.0253208541328
0.0259891882562
0.0283425478162
0.0351503113669
0.0507505526492
0.0795751309777
0.0196673544091
0.0237610779518
0.0246495475999
0.0248375459332
0.0248808227579
0.0249016668375
0.024921263653
0.0249423586338
0.0249649815052
0.0249888564146
0.02501374029
0.0250398758897
0.0250702797508
0.0251235301589
0.0252911919614
0.0259424888882
0.0282538318569
0.0349989824477
0.0505750777803
0.0794915454557
0.0196325709233
0.023728047769
0.0246168937407
0.0248058339847
0.024850332333
0.0248724970152
0.0248934182063
0.0249157808013
0.0249395801395
0.0249645111294
0.0249903297764
0.0250172351624
0.0250481077732
0.0251008328405
0.0252643094276
0.0259003124933
0.0281733465447
0.0348605281111
0.0504133893294
0.0794152400099
0.0195980210374
0.0236953747891
0.0245847996462
0.0247749302666
0.024820898948
0.0248446085932
0.0248670422229
0.0248908248795
0.024915915601
0.0249420007622