/*--------------------------------*- C++ -*----------------------------------*\
| =========                 |                                                 |
| \\      /  F ield         | OpenFOAM: The Open Source CFD Toolbox           |
|  \\    /   O peration     | Version:  v2012                                 |
|   \\  /    A nd           | Website:  www.openfoam.com                      |
|    \\/     M anipulation  |                                                 |
\*---------------------------------------------------------------------------*/
FoamFile
{
    version     2.0;
    format      ascii;
    class       surfaceVectorField;
    location    "0.8";
    object      Uf;
}
// * * * * * * * * * * * * * * * * * * * * * * * * * * * * * * * * * * * * * //

dimensions      [0 1 -1 0 0 0 0];


internalField   nonuniform List<vector> 
3840
(
(0.00413958051955 -0.00676462041338 3.98943431999e-22)
(0.00676461626916 -0.00413110919709 8.68226311941e-23)
(0.00446331900823 -0.0141587871817 2.69676020316e-22)
(0.00739416237739 -0.0105325455848 5.12368116648e-22)
(0.00446801756955 -0.0215975345896 -1.05829161863e-22)
(0.00743874343224 -0.0181075684722 -7.07629608428e-23)
(0.0044396146723 -0.0289977032449 -1.24497431747e-22)
(0.00740016534444 -0.0256101925395 -1.55899969258e-22)
(0.00442901078665 -0.0363925675469 -1.67548264426e-22)
(0.00739486156832 -0.0330614078934 -8.88829383076e-22)
(0.00443045279865 -0.0438067289732 -2.3558098548e-22)
(0.00741415633331 -0.0405324681368 -4.27530512498e-22)
(0.00443819811748 -0.0512533908836 1.85030444079e-22)
(0.00744665368573 -0.0480368174177 -7.55709738375e-22)
(0.00444933930821 -0.0587401628451 6.64081253233e-22)
(0.00748676125505 -0.0555798970594 1.05166287858e-22)
(0.00446215726348 -0.0662716089354 8.9214257955e-22)
(0.00753143051883 -0.0631660204507 6.21031356366e-22)
(0.00447533064436 -0.0738501524114 5.77870857568e-22)
(0.00757853171398 -0.0707978454495 1.31909027106e-22)
(0.00448768014637 -0.0814764125133 9.73207987776e-23)
(0.00762624656377 -0.0784760580157 -1.26269857536e-22)
(0.00449778650059 -0.0891495863115 9.71916335924e-23)
(0.00767315918776 -0.0862018801725 -1.29996040889e-22)
(0.00449837122169 -0.0968679470727 1.41692846852e-22)
(0.00771834656792 -0.0939776836947 -1.91035462423e-22)
(0.00445415984011 -0.104619534219 1.54419897732e-22)
(0.0077515742979 -0.101769078969 1.97663677284e-22)
(0.00428106390254 -0.112347354376 6.77212712483e-23)
(0.00772780998977 -0.109522239272 9.00880560005e-23)
(0.00391702610063 -0.119964706963 2.82360724531e-22)
(0.00761734540706 -0.117568026779 -1.03640515405e-22)
(0.00374633121505 -0.127492472668 -5.0953510275e-22)
(0.00752776180538 -0.126189023428 7.52203146495e-22)
(0.00900871802923 -0.134732563957 -6.56354520356e-21)
(0.00724008960225 -0.132054000338 3.51525647844e-22)
(0.0249890576467 -0.145332754941 -7.53333631483e-21)
(0.0106001916645 -0.132458542534 -7.955657661e-21)
(0.0187940068692 -0.156749765987 -5.5299103723e-21)
(0.0105557630152 -0.00737964510733 2.00247315843e-22)
(0.0141442567861 -0.00446098090084 1.14487395382e-22)
(0.0109201944429 -0.0147368245727 1.71929135489e-22)
(0.0147513371557 -0.0108666076542 1.26411733149e-21)
(0.0109488428279 -0.0221534085186 -1.20833768238e-22)
(0.0148553232176 -0.0183927291935 1.35627079453e-22)
(0.0109478536006 -0.0296277000733 -9.20231920587e-22)
(0.0148744535349 -0.0259264550032 -1.43649148348e-22)
(0.0109759671433 -0.037141647778 -1.14881163115e-21)
(0.0149088065591 -0.0334256029363 -9.01506601416e-22)
(0.011025707229 -0.0446921287379 -9.47659265392e-22)
(0.0149646326106 -0.0409603866168 -3.72134391062e-22)
(0.0110883364097 -0.052281557383 -8.35573894596e-22)
(0.0150360738737 -0.0485364455229 -6.61986839511e-22)
(0.0111588476992 -0.0599132084202 6.21163909922e-23)
(0.0151184033641 -0.0561549358917 -1.85537651978e-22)
(0.0112339409949 -0.0675896646607 -1.39202196078e-22)
(0.0152078674801 -0.0638183695073 3.6824690183e-22)
(0.0113109403199 -0.0753122831944 -5.72231687998e-22)
(0.0153011366734 -0.0715285973762 -5.37085942562e-22)
(0.011387481764 -0.0830810271346 -3.53586697202e-22)
(0.0153949758694 -0.0792857005099 -1.41489699257e-22)
(0.0114615112318 -0.0908941311483 -4.18223136904e-22)
(0.0154862477933 -0.0870902602045 -1.95641929158e-22)
(0.0115285488225 -0.0987475651141 -1.35064631992e-22)
(0.0155717655235 -0.0949460856344 -1.83961249755e-22)
(0.0115750981997 -0.106641659479 1.33331835552e-22)
(0.0156456558368 -0.102819646739 2.41926471531e-22)
(0.0115940628144 -0.114613807409 -8.12737306528e-23)
(0.0156999478665 -0.110634622496 1.43510751973e-22)
(0.0115895733778 -0.122727946257 3.6620190656e-22)
(0.0157314777922 -0.118762898374 -3.82282476796e-22)
(0.0113433180976 -0.130889191574 1.61326389709e-21)
(0.0156890036495 -0.127917588393 5.21732605724e-22)
(0.0103713804603 -0.139323670097 -1.0405868096e-21)
(0.0156745668413 -0.134417092377 -7.16691936491e-22)
(0.009716595407 -0.144843198146 -5.95223171847e-21)
(0.0161197202201 -0.133877391527 -3.04483731523e-21)
(0.0216105732628 -0.151528396038 -4.35513074371e-21)
(0.0180673231152 -0.0074095945811 1.17835741102e-21)
(0.02155384652 -0.00446336310848 2.97492078777e-22)
(0.018399604374 -0.0147966247677 1.22781527545e-21)
(0.0221383624773 -0.0108449364318 1.63214470161e-21)
(0.0184785052833 -0.0222143248344 1.12811699343e-22)
(0.0222730191342 -0.0183901236321 2.24836089089e-22)
(0.0185284360012 -0.0296838156863 -1.24923829176e-22)
(0.0223439412469 -0.0259245932301 -6.4146584753e-24)
(0.0185936643409 -0.037197491845 -1.24829361329e-22)
(0.0224224804819 -0.0334160719466 -1.11396061424e-22)
(0.0186768874893 -0.044752421998 -8.64619651804e-23)
(0.0225195588498 -0.0409447302236 3.30189351031e-23)
(0.01877447961 -0.0523499583328 -1.19505968935e-23)
(0.0226336055968 -0.0485179385363 -5.2832023699e-26)
(0.0188825359182 -0.0599925905759 1.2059285886e-22)
(0.0227610223582 -0.0561369384907 3.64312163549e-23)
(0.0189972258893 -0.0676825490312 -2.96368446539e-23)
(0.0228978119558 -0.0638042057487 3.51541624639e-23)
(0.0191146639409 -0.0754210337733 -1.06343953822e-22)
(0.0230396028368 -0.0715215862231 -3.35661986679e-23)
(0.0192309328928 -0.0832077803443 1.64550687865e-23)
(0.0231817065402 -0.0792891545073 -2.69742890978e-23)
(0.0193421893153 -0.0910409336516 3.86199579915e-23)
(0.0233193851016 -0.0871074853162 5.50203225661e-23)
(0.0194439774232 -0.0989169703399 1.93029853769e-22)
(0.0234477874333 -0.0949809144307 -6.40255064237e-24)
(0.0195306437445 -0.106832532027 2.52105387952e-22)
(0.0235612049033 -0.102875003536 2.18766283829e-22)
(0.0196010331878 -0.114784360213 -1.5749799417e-22)
(0.0236517669448 -0.110703477159 1.03087366743e-22)
(0.019667634768 -0.122757501118 -2.26751777631e-22)
(0.0237046129393 -0.118809922346 -1.09094202495e-22)
(0.0197607494142 -0.130748859607 -1.80822322786e-21)
(0.0236803597161 -0.127802512019 2.36716514605e-23)
(0.0199963700498 -0.138570175673 -2.72094244212e-21)
(0.0234958821817 -0.134013596989 -1.91946466506e-21)
(0.0236004838317 -0.145337917523 -1.44773634048e-21)
(0.02288746302 -0.133709101046 -9.77960805033e-22)
(0.0289859515596 -0.154112878925 -7.4764973475e-22)
(0.0255408216152 -0.00732953812818 7.51279369357e-22)
(0.0288833795787 -0.00441808563242 3.15246848276e-23)
(0.0259153871947 -0.0147325087763 6.29165515245e-22)
(0.0295413281444 -0.0107604476142 1.55267978815e-21)
(0.0260323148135 -0.0221576822849 1.05609731271e-22)
(0.0296981886234 -0.0183154293944 2.93112642095e-22)
(0.0261261239968 -0.0296177505118 7.11310927696e-24)
(0.0298040068068 -0.0258413212923 3.3941152204e-23)
(0.0262340274498 -0.0371171171449 4.64522350082e-23)
(0.0299218457295 -0.0333161075051 -7.00438726259e-25)
(0.0263607419561 -0.0446587361987 1.1942806826e-22)
(0.0300611764974 -0.0408273490029 6.01475987128e-23)
(0.0265040671769 -0.0522459927743 4.83289812247e-23)
(0.0302208572663 -0.048385647013 8.07610822796e-23)
(0.0266601021798 -0.0598821914165 -4.90074800414e-23)
(0.0303972150958 -0.0559935891356 -2.31998033753e-23)
(0.0268242365703 -0.0675698052229 3.12248084498e-23)
(0.0305853993759 -0.0636543637537 -3.13096966578e-23)
(0.0269913550453 -0.0753102067246 4.58034660562e-23)
(0.0307799847955 -0.0713702383632 6.81926834534e-23)
(0.0271559660202 -0.0831034120731 1.15909646819e-23)
(0.030974893141 -0.0791415532857 -1.4194121744e-23)
(0.0273124600409 -0.0909475671357 9.99781393229e-24)
(0.0311635238571 -0.086969081009 2.97271511674e-23)
(0.0274548440949 -0.098839138112 1.93338794176e-23)
(0.031339343844 -0.0948574910665 -1.22941233561e-23)
(0.0275749211672 -0.10677288571 6.97482626194e-23)
(0.0314949409204 -0.102771204506 6.97480311056e-23)
(0.0276570154238 -0.114738839273 1.51491158418e-22)
(0.0316177123941 -0.110617607692 4.92696042671e-23)
(0.0276568825303 -0.12271351064 1.41329226596e-22)
(0.0316792800978 -0.118742161808 1.61733247829e-22)
(0.027455482746 -0.130630394842 -8.75697857426e-23)
(0.0315972427342 -0.127753842195 1.06371436975e-22)
(0.0268328168379 -0.138288511806 -1.76483027973e-22)
(0.0311539991775 -0.133918188016 -5.53191570713e-22)
(0.0295508178293 -0.145393893049 -2.77874199307e-22)
(0.0299928456025 -0.133604932391 -2.20123419694e-21)
(0.037052656834 -0.154909860262 -6.28245459522e-22)
(0.0328900367383 -0.00726271232758 8.32925103623e-22)
(0.0361460865815 -0.00438211501424 -3.47573232297e-22)
(0.0333277081739 -0.0146479839092 1.216626915e-21)
(0.036926594628 -0.010678400364 1.70539518839e-21)
(0.0334725360524 -0.0220600670769 2.21444063028e-22)
(0.0371102679501 -0.0182160568085 3.77099270094e-22)
(0.033600986987 -0.0295013401799 2.61276042007e-23)
(0.0372452778139 -0.025718784355 4.42695308705e-23)
(0.0337494463019 -0.0369797656178 1.29949249783e-23)
(0.0374002707488 -0.0331684878775 8.7535162488e-24)
(0.0339214778507 -0.0445018844945 2.14806127325e-23)
(0.03758329578 -0.0406557763186 1.05961725565e-23)
(0.0341142636087 -0.0520731461134 9.23229767958e-24)
(0.0377921177555 -0.0481934501978 1.37971292593e-23)
(0.0343230874169 -0.059698005901 -5.50201999171e-24)
(0.0380220682642 -0.0557855116507 -2.67666341557e-24)
(0.0345422038958 -0.0673798058643 5.65817834574e-24)
(0.0382671869856 -0.0634361797335 -4.68748751726e-24)
(0.0347651164513 -0.0751203785214 8.19509565319e-24)
(0.0385205275549 -0.0711485030494 9.5452787898e-24)
(0.0349846666267 -0.0829199190213 3.94206474159e-24)
(0.0387744078777 -0.0789233524259 4.32965767087e-25)
(0.0351932911659 -0.0907768139565 7.43521387903e-24)
(0.039020402823 -0.086761853117 3.94315458705e-24)
(0.0353827753505 -0.0986870649321 3.81200283319e-23)
(0.039249581297 -0.0946691333081 9.1088030285e-24)
(0.0355411529048 -0.10664371506 4.92693727534e-23)
(0.0394515806673 -0.102608614118 6.82552377955e-23)
(0.0356416417822 -0.1146343965 5.95116936779e-23)
(0.0396083874862 -0.110481083081 2.27106887085e-23)
(0.035608162759 -0.122628355993 1.26775458207e-22)
(0.0396732371283 -0.118637828229 8.15747993977e-23)
(0.0352617023942 -0.130544692458 -3.59250347996e-22)
(0.0395135795334 -0.127720831974 1.90224370381e-22)
(0.0342777548271 -0.138264120225 -2.57794273968e-21)
(0.0388734277357 -0.133927778542 -9.05034058106e-22)
(0.037429622646 -0.145596158078 -2.55160545716e-21)
(0.0373248851877 -0.13364833092 -4.4724227751e-21)
(0.0459217592409 -0.155864949867 -8.67670805072e-22)
(0.0401891132307 -0.00720606366823 5.24896852466e-22)
(0.0433521446255 -0.00435204590038 -1.67262963873e-22)
(0.0407063812544 -0.0145548439568 8.65867543477e-22)
(0.0442753696826 -0.0105953502381 8.68746380833e-22)
(0.0408802178781 -0.021936138952 1.99924737936e-22)
(0.0444915592908 -0.018097112525 1.81262804814e-22)
(0.0410418395481 -0.0293474130357 2.68954429186e-23)
(0.0446565503952 -0.0255635786489 2.51540764739e-23)
(0.0412315231833 -0.0367972241667 6.35476382697e-24)
(0.0448500823885 -0.0329788509509 3.02518036952e-24)
(0.0414517018531 -0.0442938400974 2.91268908327e-24)
(0.0450799134403 -0.04043492076 2.19050512652e-24)
(0.0416983067276 -0.0518442387931 1.88816816418e-24)
(0.0453425175444 -0.0479460685789 6.25464634934e-25)
(0.0419653940016 -0.0594541081476 -1.86213094112e-24)
(0.0456319332472 -0.0555176014153 -1.04925538988e-24)
(0.0422458089465 -0.0671277535823 -8.003870732e-25)
(0.0459408211431 -0.0631548966476 2.68904713654e-26)
(0.0425314127692 -0.074867901412 1.78314890369e-24)
(0.0462606587093 -0.0708620371627 2.78845131178e-25)
(0.0428131795426 -0.0826753862442 4.34055612545e-25)
(0.0465818680106 -0.0786407706561 2.2829735542e-24)
(0.0430812720514 -0.0905488712549 5.61674373652e-24)
(0.0468938730408 -0.0864929279363 1.50643945241e-24)
(0.0433245660064 -0.0984843971758 3.92440124921e-23)
(0.0471850949926 -0.0944244777156 1.29620129064e-23)
(0.0435266544209 -0.106474484824 4.16965537506e-23)
(0.0474416596821 -0.102398507055 6.6942437538e-23)
(0.0436488036406 -0.114506047392 4.47737944283e-23)
(0.0476399455914 -0.110311523068 -3.43108619937e-23)
(0.0435842819684 -0.122547810619 1.45023711571e-22)
(0.0477149997987 -0.11852497261 -2.43025035169e-22)
(0.0431263489421 -0.130526816469 -3.55559339729e-22)
(0.0474925871767 -0.127712498851 8.31392276546e-22)
(0.0419160253668 -0.138364370207 -2.79951409352e-21)
(0.0467109829187 -0.134009183317 1.06029147729e-21)
(0.0458116169793 -0.145950424335 -2.78848812301e-21)
(0.044910941406 -0.133818904165 -3.81803953507e-21)
(0.0555208888026 -0.156868383059 -4.56149921127e-22)
(0.0474425508426 -0.00714800313097 1.76586564494e-22)
(0.0505001418034 -0.00432169563893 -7.4437941625e-23)
(0.0480497363834 -0.0144479885865 1.84141642171e-22)
(0.0515753497505 -0.0105028806215 1.07546098293e-21)
(0.0482565911356 -0.021785252208 6.49214335236e-24)
(0.0518288194262 -0.0179555202177 1.69346515757e-22)
(0.0484538530689 -0.0291556726807 1.28381392483e-24)
(0.0520269699321 -0.0253739290868 2.04968388345e-23)
(0.0486879846585 -0.0365681755267 -1.13907833094e-24)
(0.0522625866518 -0.03274478965 -9.05064564013e-25)
(0.0489608722638 -0.0440321894576 -9.67193218223e-26)
(0.0525439301607 -0.040161240509 1.04583786458e-24)
(0.0492671580387 -0.051556004757 -2.31195891913e-24)
(0.0528663352697 -0.0476388535104 -1.26688025305e-24)
(0.0495995147929 -0.0591465810133 8.397660226e-25)
(0.0532225069559 -0.0551842504197 -3.00853137661e-24)
(0.0499492513762 -0.0668094042054 1.10612267574e-24)
(0.0536036349083 -0.062804115144 3.972017266e-24)
(0.0503064338417 -0.0745482728704 7.78669781687e-25)
(0.0539995124181 -0.0705037803665 2.21810712448e-25)
(0.050659957542 -0.0823650074671 3.35535739406e-24)
(0.0543985804002 -0.0782861680036 2.69023339481e-24)
(0.0509975116975 -0.0902591304557 8.85170862224e-24)
(0.054787982676 -0.0861542533339 1.40807705747e-24)
(0.0513048360495 -0.098227414901 4.06604379522e-23)
(0.0551533688214 -0.0941153313448 1.73132888915e-23)
(0.051561102712 -0.106263138592 -9.06497820634e-24)
(0.0554773765252 -0.10213272325 9.53349475369e-23)
(0.0517161931155 -0.114354666666 -3.22109691591e-22)
(0.0557314711131 -0.110101277513 -9.12232966951e-23)
(0.0516353683539 -0.122474059644 4.43343529806e-22)
(0.0558343939686 -0.118395477334 -7.38311647294e-22)
(0.0510936823597 -0.130557067221 2.24724309357e-21)
(0.0555755977731 -0.127705609594 2.13443023907e-22)
(0.0497212836482 -0.138541252959 4.17660357385e-23)
(0.0546951705806 -0.134131899643 -1.48467525542e-21)
(0.0546207038176 -0.146361275061 -1.48570133319e-21)
(0.052730965898 -0.134069701088 -5.69883635114e-21)
(0.0658035702832 -0.157919479911 -8.44978575856e-22)
(0.0546385497488 -0.00708281141258 8.2443647681e-22)
(0.0575829469348 -0.00428774315949 -1.34449645465e-23)
(0.0553414022442 -0.0143226696422 1.06066585652e-21)
(0.0588152024409 -0.0103959205541 1.43848823625e-21)
(0.0555854094059 -0.0216039352623 1.83351211239e-22)
(0.0591100816993 -0.0177873825779 2.62341416621e-22)
(0.055822362453 -0.0289225144762 1.83079603457e-23)
(0.0593455486981 -0.0251458993978 -3.91116793406e-24)
(0.0561057870599 -0.0362880584826 1.2798516315e-24)
(0.0596281328705 -0.0324615435421 8.14676464009e-25)
(0.0564374296103 -0.0437111621097 -1.24323066655e-25)
(0.0599670375457 -0.0398287848107 3.22469573568e-24)
(0.0568107509439 -0.0512014587743 -1.96345271053e-24)
(0.0603566353317 -0.0472645617913 -4.65589738214e-24)
(0.0572170257071 -0.0587672976259 1.2371986679e-25)
(0.0607883447598 -0.0547769288554 -5.54745718056e-25)
(0.0576459723981 -0.0664155470486 3.08770530271e-24)
(0.0612518762109 -0.0623740631546 1.84364215887e-24)
(0.0580858079114 -0.0741513537209 2.13337432557e-24)
(0.0617353059475 -0.0700627926726 3.41947276772e-25)
(0.0585232788661 -0.081977867196 7.42953058218e-25)
(0.0622250738239 -0.0778475189054 3.19556552474e-24)
(0.0589435428713 -0.0898959156149 9.86965732676e-24)
(0.0627060191206 -0.0857327576062 6.48324843539e-26)
(0.0593292506209 -0.0979035943901 7.19877984763e-23)
(0.0631610384888 -0.0937275148745 1.42596910729e-23)
(0.0596555306974 -0.105995648622 1.31766290482e-23)
(0.0635694255529 -0.101795694175 7.40905855004e-23)
(0.0598622900737 -0.114162336376 -5.07425252398e-22)
(0.0638981579623 -0.109832581691 -2.36402700277e-23)
(0.0597908876531 -0.122379685594 -9.68212153193e-22)
(0.0640517457879 -0.118226077076 -3.64411001884e-22)
(0.0591978179204 -0.13059410361 -3.51847532508e-21)
(0.0637900197081 -0.127667288562 -6.24210578977e-22)
(0.0577192575301 -0.138742010656 -7.22527764229e-21)
(0.0628430798457 -0.134250747558 -3.45925201481e-21)
(0.0639014460532 -0.146800926059 -5.0581135938e-21)
(0.0607898839149 -0.134365827973 -4.82349689339e-21)
(0.0768447378002 -0.159038231815 -1.1517539787e-21)
(0.0617663211282 -0.00700725677641 6.00606794898e-22)
(0.0645901971531 -0.0042482124714 2.52654978087e-23)
(0.0625687851398 -0.0141749724049 6.4016379636e-22)
(0.0659829124244 -0.0102709373587 1.46280036395e-21)
(0.062854130768 -0.0213879676277 7.50790374476e-23)
(0.0663230737025 -0.0175886330414 2.8399996777e-22)
(0.0631356956457 -0.02864298942 -2.14044518157e-23)
(0.0666005704251 -0.0248746040962 -7.64942475097e-24)
(0.0634744224008 -0.0359508134908 2.75952056819e-24)
(0.0669359597668 -0.0321231155616 -1.1314047201e-26)
(0.0638721544148 -0.0433233936135 -1.30687857981e-24)
(0.0673396221327 -0.039430227428 2.17458890353e-24)
(0.0643212867055 -0.0507718623399 -3.24719038966e-24)
(0.0678051081645 -0.0468144264982 -5.07611490755e-24)
(0.0648117383761 -0.0583061432109 1.16517657402e-24)
(0.0683226254335 -0.0542853844295 2.07994354732e-24)
(0.0653316440271 -0.0659347131164 -9.02115867067e-25)
(0.0688804391712 -0.0618529927732 1.21382180017e-24)
(0.0658673737459 -0.0736643522842 1.40413847594e-24)
(0.0694649329164 -0.0695258354844 -1.17981950426e-24)
(0.0664035340889 -0.081499864961 2.51744495087e-24)
(0.0700605683344 -0.0773100954484 2.84543633801e-24)
(0.0669227797226 -0.0894437639461 4.45486623053e-24)
(0.0706499072686 -0.0852121901772 -7.96364227562e-25)
(0.0674047742588 -0.0974958910612 1.6362478097e-23)
(0.0712131577339 -0.0932431300131 9.03196814731e-24)
(0.0678209271795 -0.105652864841 3.72736864245e-23)
(0.0717263954337 -0.101367614588 4.48471692288e-23)
(0.0681023304817 -0.113907366651 1.19373980487e-22)
(0.0721526601032 -0.109483022151 3.66131285977e-23)
(0.0680688752957 -0.122239506038 -2.04094276676e-23)
(0.0723838887401 -0.117989503174 1.25855959382e-22)
(0.0674561546784 -0.130600035381 -5.64987268712e-22)
(0.0721505535072 -0.127566390889 -1.65642844749e-22)
(0.0659245785898 -0.138924538094 -1.05747126591e-21)
(0.0711675848698 -0.13433134125 -1.21854794432e-21)
(0.0736998225574 -0.147236443492 -9.17137278286e-22)
(0.0691017920838 -0.134686627734 -3.82278349025e-21)
(0.0887187762248 -0.160239371449 -1.0261212529e-21)
(0.06881403655 -0.00691896920877 8.87459066861e-22)
(0.0715091596487 -0.00420165463334 -2.79823054699e-22)
(0.0697195233941 -0.0140012380075 1.10663653536e-21)
(0.0730651755872 -0.0101249327747 7.33575309267e-22)
(0.0700505854173 -0.0211326545044 2.01271505571e-22)
(0.0734544871507 -0.0173550201921 1.24745073892e-22)
(0.070382338355 -0.0283112464387 1.37437130176e-23)
(0.0737791626016 -0.0245544923777 -5.24932982257e-23)
(0.0707833294329 -0.0355492503217 -5.96245711858e-25)
(0.0741739668735 -0.0317225501393 -5.02631676282e-24)
(0.0712556467983 -0.0428602187485 -1.59464742422e-24)
(0.0746505954603 -0.0389570763555 -3.8677058548e-24)
(0.0717907223293 -0.0502569925474 2.51019029429e-25)
(0.0752018864091 -0.04627832009 1.51499882174e-26)
(0.0723771876359 -0.0577512889973 2.12858877346e-24)
(0.075816922188 -0.0536977864214 7.88578199415e-25)
(0.0730016397244 -0.0653534474508 9.36118162978e-25)
(0.0764825909391 -0.0612273223795 4.04493272975e-25)
(0.0736486418832 -0.0730721611991 2.6147835781e-25)
(0.0771836351667 -0.0688775378992 -1.74694424351e-24)
(0.0743007034641 -0.0809142015686 -4.68372840427e-25)
(0.0779025913746 -0.076656698916 1.54322839328e-24)
(0.0749380276582 -0.0888841020239 3.78073768921e-24)
(0.0786197976229 -0.0845734712132 -3.54469644064e-24)
(0.0755373446149 -0.0969837711944 3.75166592791e-23)
(0.0793128198762 -0.092641135813 8.73175927563e-24)
(0.0760664985691 -0.105211865459 4.4186611402e-23)
(0.0799544866588 -0.10082536467 4.52667622279e-23)
(0.0764488230959 -0.113563054788 4.30951074923e-23)
(0.0805038505022 -0.109026996442 5.47540390958e-23)
(0.0764846043144 -0.122021278485 -1.93774577002e-23)
(0.0808421164783 -0.117657072853 2.76475977571e-22)
(0.0758846076721 -0.130544639213 -8.19203520361e-22)
(0.0806739188239 -0.127372365332 -6.91884570983e-22)
(0.0743556883513 -0.139065396723 -3.98386016867e-21)
(0.0796883445845 -0.134341010838 -2.92961630567e-21)
(0.084081289665 -0.147660944418 -3.93176746487e-21)
(0.0776973426497 -0.135004402289 -4.68351247619e-21)
(0.101587462523 -0.161497675751 -9.03258843679e-22)
(0.0757678507897 -0.0068159290447 -4.33706812293e-22)
(0.0783250820311 -0.00414681539672 -6.25679005441e-22)
(0.076779660049 -0.0137978360465 -2.48316152201e-22)
(0.0800470771542 -0.00995507210683 2.71373971625e-22)
(0.0771610685596 -0.0208328978269 -1.29019729905e-22)
(0.0804895461611 -0.0170820700406 -3.30402628282e-23)
(0.0775491508218 -0.027920691344 -7.12633280061e-23)
(0.0808669566441 -0.0241794517944 -1.05295268436e-22)
(0.0780202027484 -0.0350751797078 -8.29777690577e-24)
(0.0813284586939 -0.0312520588701 -1.07514366317e-23)
(0.078576667113 -0.0423117525751 -2.25790844237e-24)
(0.0818871733345 -0.0383997757132 -3.41607496083e-24)
(0.079209108604 -0.0496451856636 5.52709158204e-25)
(0.0825353239359 -0.0456448257373 -5.59712096637e-24)
(0.0799049561616 -0.0570892260743 -9.35517301072e-25)
(0.0832609627551 -0.0530007731588 -1.97515961624e-24)
(0.0806493441582 -0.0646563314638 -2.27856913352e-24)
(0.0840496896952 -0.0604816699897 -6.17778942351e-24)
(0.0814250972914 -0.0723574007984 -4.65194208042e-25)
(0.0848846928446 -0.0681004293607 -4.43432463082e-24)
(0.0822126918218 -0.0802014874052 -1.53309520693e-24)
(0.0857466610793 -0.0758677091313 2.69508109334e-24)
(0.0829899323306 -0.0881954755516 1.40632514578e-24)
(0.086613776062 -0.0837947751838 -7.51605991668e-24)
(0.0837306196906 -0.096343662452 1.64818622245e-23)
(0.0874610002048 -0.0918974625792 6.29928384393e-24)
(0.0843990444084 -0.104647069723 5.58341899217e-23)
(0.0882578912782 -0.100142645521 3.22582842645e-23)
(0.0849113399788 -0.113102913713 2.88134909174e-22)
(0.08895969578 -0.108435905501 7.89066608043e-23)
(0.0850490141262 -0.121698009498 -3.96031135712e-22)
(0.0894372162462 -0.117197968781 4.23116615622e-22)
(0.084497136083 -0.130391390373 -2.80229735629e-21)
(0.0893673040069 -0.127054173236 -8.1526070873e-22)
(0.0830341533724 -0.139119437624 -3.62926861319e-21)
(0.0884163937202 -0.134248850432 -3.03860095002e-21)
(0.0951299256133 -0.148019051351 -1.65500385499e-21)
(0.0865969593031 -0.135292617588 -3.55617733424e-21)
(0.115553716244 -0.16276935536 -1.18555823142e-21)
(0.0826120253878 -0.00669620584598 7.94017784766e-23)
(0.0850212815478 -0.00408247461598 -7.08938166701e-22)
(0.0837334960387 -0.0135610267543 4.86649860998e-22)
(0.0869118930813 -0.00975849990425 1.44909297238e-21)
(0.0841701669994 -0.020483210604 -9.31580135921e-24)
(0.0874117276737 -0.0167650467901 2.27489958443e-22)
(0.0846212355882 -0.027464073371 -4.47833770614e-23)
(0.0878478202274 -0.0237428584442 -2.89771591687e-23)
(0.0851708932571 -0.0345195182325 -5.86973468673e-24)
(0.0883839070753 -0.030703106845 -9.9890912545e-24)
(0.0858220415083 -0.0416669873702 -6.75528748483e-24)
(0.0890346473096 -0.0377477979087 -4.1102291137e-24)
(0.0865644786494 -0.048923414504 -8.12498974082e-24)
(0.0897917551019 -0.044901323294 -1.03987460578e-23)
(0.0873845337107 -0.0563048142607 -7.21743173868e-24)
(0.0906423622381 -0.0521795280397 -9.28492968835e-24)
(0.0882659804178 -0.0638260304322 -8.33354492082e-24)
(0.0915708985774 -0.0595989206297 -1.67164614973e-23)
(0.0891900018076 -0.0715004609035 -1.27404932944e-24)
(0.0925591114979 -0.0671750004561 -6.02938599175e-24)
(0.0901351283212 -0.0793397676046 -3.2878836164e-24)
(0.0935859505091 -0.0749211384189 3.09299086215e-24)
(0.0910768246721 -0.0873535356949 -2.62310121852e-24)
(0.0946275345166 -0.082851571996 -1.11657794431e-23)
(0.0919859586634 -0.095548794258 2.2075705884e-23)
(0.0956562522897 -0.0909849958665 1.27544864347e-23)
(0.0928232772963 -0.103929226104 5.53307551471e-23)
(0.0966383203842 -0.0992898177387 7.9177741365e-23)
(0.09349787036 -0.112494725082 2.13888367251e-22)
(0.0975251957333 -0.107677840928 -8.69087862607e-24)
(0.0937718808361 -0.121235137019 3.88704260315e-24)
(0.0981776315492 -0.116577711055 -1.58630346403e-22)
(0.0933044470327 -0.13011137235 -1.05156430245e-21)
(0.0982435429177 -0.126574602827 -2.50880211518e-22)
(0.091979789657 -0.139063493071 -2.96550967106e-21)
(0.0973685157869 -0.13402168722 -2.1314368871e-21)
(0.106919448773 -0.148300140045 -3.08673171067e-21)
(0.0958336092585 -0.135530341083 -6.49461062938e-21)
(0.130774424982 -0.164017669968 -2.73770043343e-21)
(0.0893289257133 -0.00655783495175 6.60753027199e-22)
(0.0915791108207 -0.00400737689349 -8.12067124714e-22)
(0.0905634806159 -0.0132868887588 1.18993306982e-21)
(0.0936409426184 -0.00953226226397 1.22413632157e-21)
(0.0910606214458 -0.0200777244096 2.07828600633e-22)
(0.0942025615533 -0.0163989427519 2.64804854065e-22)
(0.0915818038134 -0.0269335441973 5.81712663821e-24)
(0.0947036410882 -0.0232376223643 -3.20209946893e-23)
(0.0922192803356 -0.0338723664307 -8.22958568147e-24)
(0.0953227327001 -0.0300664913014 -1.20912333917e-23)
(0.0929765269352 -0.0409138769645 -7.75368768669e-24)
(0.0960761621656 -0.0369897367355 -1.18395197263e-23)
(0.0938426928934 -0.0480773750219 -1.15586860053e-23)
(0.0969552564671 -0.0440340873925 -1.31466156873e-23)
(0.0948031347836 -0.0553813771463 -1.87839594469e-23)
(0.0979463632514 -0.0512178789533 -4.87292234213e-24)
(0.0958403993497 -0.0628433766443 -1.44123025682e-23)
(0.0990328902121 -0.0585603245451 -2.10464718379e-23)
(0.0969341587132 -0.0704795783139 -1.66234580016e-24)
(0.100195300801 -0.0660797946414 -6.27550332534e-24)
(0.0980611168646 -0.0783045970886 -4.78490496455e-24)
(0.101410951657 -0.0737927070422 4.52230039617e-24)
(0.0991944792863 -0.0863310998671 4.21180821015e-24)
(0.102654027486 -0.0817166708714 -8.89993078243e-24)
(0.100302169731 -0.0945692701939 6.98565219157e-23)
(0.103894415821 -0.0898736052544 2.02617123082e-23)
(0.101341343601 -0.103025874194 1.51561075919e-23)
(0.10509492105 -0.098233943758 8.75966062176e-23)
(0.102214423829 -0.111703778743 -3.8120959228e-22)
(0.106203100332 -0.106717161021 -7.00358314672e-24)
(0.102664099582 -0.1205967281 -4.13397600523e-22)
(0.107070583046 -0.11575938797 -1.0228811765e-22)
(0.102315772646 -0.129668726906 -1.33075279617e-21)
(0.107315544047 -0.125905020944 -6.93023998435e-22)
(0.101212147224 -0.138845729573 -5.66053784543e-21)
(0.10654551899 -0.133591001286 -2.80405084252e-21)
(0.119536773342 -0.148439880729 -6.14557935214e-21)
(0.105427763206 -0.135704626724 -2.26577052046e-21)
(0.147369594139 -0.165071896251 -1.3030416482e-21)
(0.0958989171734 -0.00639877837552 -2.4868383034e-22)
(0.0979778844395 -0.00392020814311 -6.79242478352e-22)
(0.0972500492445 -0.0129713048398 2.99008105816e-22)
(0.100213465695 -0.0092732928213 7.41538846679e-22)
(0.0978131337194 -0.0196102196723 2.49552587425e-23)
(0.100841475204 -0.0159785009357 -2.36856511055e-23)
(0.0984119676352 -0.0263207285045 -4.99293547192e-23)
(0.10141415112 -0.0226562477448 -9.67496594232e-23)
(0.0991470534934 -0.0331231058438 -1.57011674365e-23)
(0.102125113046 -0.0293324324977 -7.24379170016e-24)
(0.100022577811 -0.0400394452976 -1.72324477269e-23)
(0.102992505184 -0.0361134187739 -1.04409646529e-23)
(0.10102718275 -0.047091598909 -6.4608520241e-24)
(0.104007412486 -0.0430284120707 -1.3248399755e-23)
(0.10214541398 -0.0543008064806 -7.13543473312e-24)
(0.105155568609 -0.0500984305938 7.24102225112e-24)
(0.103358762369 -0.0616874816682 -1.29096725951e-23)
(0.106419556161 -0.0573456279043 -1.02160010863e-23)
(0.104645565939 -0.0692709334255 -9.08571290078e-26)
(0.107778738177 -0.064791528605 -6.5188251919e-24)
(0.105980871879 -0.077069098546 4.07274578287e-25)
(0.109209097797 -0.0724559380346 6.98845426491e-24)
(0.107335756041 -0.0850981635379 7.14997331562e-24)
(0.110683080615 -0.0803602486553 -1.03457958961e-23)
(0.108675238789 -0.0933719594345 3.80017966101e-23)
(0.112168202793 -0.0885300363515 1.89324893243e-23)
(0.109952890888 -0.101900950992 6.54369154791e-23)
(0.113623906546 -0.0969383924825 7.36811164866e-23)
(0.111064924225 -0.110691922181 2.71917891483e-22)
(0.114994069123 -0.105513757752 8.35202185475e-23)
(0.111734386998 -0.119743669883 -3.81914515562e-22)
(0.116122330107 -0.114701544749 4.31882458672e-22)
(0.111567015309 -0.129024695758 -2.16632204478e-21)
(0.116596570388 -0.125005271516 -1.65811962337e-21)
(0.110755867466 -0.138503855553 5.90716482445e-22)
(0.116024678291 -0.132903810539 -5.11307194012e-21)
(0.132956737498 -0.148453149936 2.57676718348e-21)
(0.115377061502 -0.135799707504 -3.23164662571e-21)
(0.165032624787 -0.165219098137 -1.97289992683e-21)
(0.102300267688 -0.00621692275808 3.10980198668e-22)
(0.104194803491 -0.00381959757517 -7.24977608116e-22)
(0.103771493481 -0.0126099820901 4.18845089758e-22)
(0.106606522531 -0.00897843804595 2.48360829762e-23)
(0.104406211732 -0.0190741776801 -1.45390569271e-22)