/*--------------------------------*- C++ -*----------------------------------*\
| =========                 |                                                 |
| \\      /  F ield         | OpenFOAM: The Open Source CFD Toolbox           |
|  \\    /   O peration     | Version:  v2012                                 |
|   \\  /    A nd           | Website:  www.openfoam.com                      |
|    \\/     M anipulation  |                                                 |
\*---------------------------------------------------------------------------*/
FoamFile
{
    version     2.0;
    format      ascii;
    class       volScalarField;
    location    "0.1";
    object      ddt0(k);
}
// * * * * * * * * * * * * * * * * * * * * * * * * * * * * * * * * * * * * * //

dimensions      [0 2 -3 0 0 0 0];


internalField   nonuniform List<scalar> 
164
(
-0.214203609587
-0.185162487874
-0.181566085632
-0.181302584278
-0.181271567922
-0.181249094782
-0.18122359569
-0.181194965988
-0.214052039949
-0.185035606484
-0.181440234578
-0.181174552726
-0.181140426141
-0.181114097442
-0.181084043069
-0.181050211149
-0.213899324698
-0.184906040696
-0.181311049447
-0.181042577541
-0.181004561237
-0.180973407606
-0.180937640841
-0.180897265987
-0.180852936308
-0.180805437701
-0.213747489437
-0.184775024456
-0.181179576563
-0.180907587684
-0.180864756009
-0.180827620353
-0.18078475005
-0.180736208533
-0.180682729447
-0.180625229543
-0.213599136029
-0.184644185596
-0.181047222823
-0.180770851885
-0.180722110128
-0.180677618268
-0.180625982975
-0.180567325545
-0.180502465477
-0.180432442617
-0.213457436445
-0.184515575188
-0.180915795512
-0.180634025843
-0.180578086948
-0.180524614975
-0.180462237126
-0.180391122299
-0.180312171991
-0.180226552083
-0.213326245459
-0.184391736645
-0.180787557901
-0.180499211135
-0.180434579026
-0.180370221948
-0.180294764447
-0.18020839913
-0.180112093678
-0.180007133236
-0.213210139505
-0.184275764906
-0.18066529738
-0.180369021786
-0.180293977476
-0.180216520662
-0.180125237913
-0.18002031179
-0.179902736695
-0.179773896025
-0.213114416839
-0.18417134199
-0.180552383096
-0.180246652283
-0.180159240584
-0.180066140986
-0.179955833779
-0.179828444577
-0.179684934076
-0.179526734478
-0.213044984192
-0.184082754514
-0.180452819899
-0.180135939048
-0.180033958339
-0.179922318041
-0.179789308577
-0.17963489224
-0.179459917173
-0.179265788934
-0.213008151152
-0.184015016642
-0.180371333779
-0.18004139635
-0.179922384547
-0.179788946719
-0.179629050069
-0.17944233619
-0.179229390019
-0.178991513411
-0.213011023345
-0.183974582916
-0.180313482732
-0.179968194515
-0.17982943276
-0.179670588564
-0.179479113296
-0.179254066222
-0.178995629875
-0.17870476072
-0.213053418689
-0.18397951901
-0.180286532515
-0.179921972409
-0.179760522541
-0.179572457151
-0.179344445125
-0.179074140005
-0.178761545905
-0.178406797407
-0.213088026278
-0.184072584227
-0.180303779963
-0.179909107239
-0.179721337155
-0.179500414118
-0.179230573137
-0.178907476888
-0.178531209952
-0.178099722038
-0.213164665881
-0.184222814017
-0.180363922727
-0.179934459705
-0.179717251824
-0.179459086279
-0.179141366769
-0.17875996068
-0.178310965192
-0.177786925605
-0.21329576381
-0.184426511768
-0.180470778386
-0.18000359808
-0.17975447396
-0.179455333687
-0.179084016377
-0.178633344748
-0.178097671675
-0.1774729212
-0.213486630638
-0.184684887568
-0.180627969863
-0.180121071981
-0.179838192176
-0.179495003166
-0.179064407747
-0.179972179727
)
;

boundaryField
{
    back
    {
        type            calculated;
        value           nonuniform List<scalar> 
164
(
-0.214203609587
-0.185162487874
-0.181566085632
-0.181302584278
-0.181271567922
-0.181249094782
-0.18122359569
-0.181194965988
-0.214052039949
-0.185035606484
-0.181440234578
-0.181174552726
-0.181140426141
-0.181114097442
-0.181084043069
-0.181050211149
-0.213899324698
-0.184906040696
-0.181311049447
-0.181042577541
-0.181004561237
-0.180973407606
-0.180937640841
-0.180897265987
-0.180852936308
-0.180805437701
-0.213747489437
-0.184775024456
-0.181179576563
-0.180907587684
-0.180864756009
-0.180827620353
-0.18078475005
-0.180736208533
-0.180682729447
-0.180625229543
-0.213599136029
-0.184644185596
-0.181047222823
-0.180770851885
-0.180722110128
-0.180677618268
-0.180625982975
-0.180567325545
-0.180502465477
-0.180432442617
-0.213457436445
-0.184515575188
-0.180915795512
-0.180634025843
-0.180578086948
-0.180524614975
-0.180462237126
-0.180391122299
-0.180312171991
-0.180226552083
-0.213326245459
-0.184391736645
-0.180787557901
-0.180499211135
-0.180434579026
-0.180370221948
-0.180294764447
-0.18020839913
-0.180112093678
-0.180007133236
-0.213210139505
-0.184275764906
-0.18066529738
-0.180369021786
-0.180293977476
-0.180216520662
-0.180125237913
-0.18002031179
-0.179902736695
-0.179773896025
-0.213114416839
-0.18417134199
-0.180552383096
-0.180246652283
-0.180159240584
-0.180066140986
-0.179955833779
-0.179828444577
-0.179684934076
-0.179526734478
-0.213044984192
-0.184082754514
-0.180452819899
-0.180135939048
-0.180033958339
-0.179922318041
-0.179789308577
-0.17963489224
-0.179459917173
-0.179265788934
-0.213008151152
-0.184015016642
-0.180371333779
-0.18004139635
-0.179922384547
-0.179788946719
-0.179629050069
-0.17944233619
-0.179229390019
-0.178991513411
-0.213011023345
-0.183974582916
-0.180313482732
-0.179968194515
-0.17982943276
-0.179670588564
-0.179479113296
-0.179254066222
-0.178995629875
-0.17870476072
-0.213053418689
-0.18397951901
-0.180286532515
-0.179921972409
-0.179760522541
-0.179572457151
-0.179344445125
-0.179074140005
-0.178761545905
-0.178406797407
-0.213088026278
-0.184072584227
-0.180303779963
-0.179909107239
-0.179721337155
-0.179500414118
-0.179230573137
-0.178907476888
-0.178531209952
-0.178099722038
-0.213164665881
-0.184222814017
-0.180363922727
-0.179934459705
-0.179717251824
-0.179459086279
-0.179141366769
-0.17875996068
-0.178310965192
-0.177786925605
-0.21329576381
-0.184426511768
-0.180470778386
-0.18000359808
-0.17975447396
-0.179455333687
-0.179084016377
-0.178633344748
-0.178097671675
-0.1774729212
-0.213486630638
-0.184684887568
-0.180627969863
-0.180121071981
-0.179838192176
-0.179495003166
-0.179064407747
-0.179972179727
)
;
    }
    sides
    {
        type            calculated;
        value           nonuniform List<scalar> 0();
    }
    bottom
    {
        type            calculated;
        value           nonuniform List<scalar> 
17
(
-0.214203609587
-0.214052039949
-0.213899324698
-0.213747489437
-0.213599136029
-0.213457436445
-0.213326245459
-0.213210139505
-0.213114416839
-0.213044984192
-0.213008151152
-0.213011023345
-0.213053418689
-0.213088026278
-0.213164665881
-0.21329576381
-0.213486630638
)
;
    }
    front
    {
        type            calculated;
        value           nonuniform List<scalar> 
164
(
-0.214203609587
-0.185162487874
-0.181566085632
-0.181302584278
-0.181271567922
-0.181249094782
-0.18122359569
-0.181194965988
-0.214052039949
-0.185035606484
-0.181440234578
-0.181174552726
-0.181140426141
-0.181114097442
-0.181084043069
-0.181050211149
-0.213899324698
-0.184906040696
-0.181311049447
-0.181042577541
-0.181004561237
-0.180973407606
-0.180937640841
-0.180897265987
-0.180852936308
-0.180805437701
-0.213747489437
-0.184775024456
-0.181179576563
-0.180907587684
-0.180864756009
-0.180827620353
-0.18078475005
-0.180736208533
-0.180682729447
-0.180625229543
-0.213599136029
-0.184644185596
-0.181047222823
-0.180770851885
-0.180722110128
-0.180677618268
-0.180625982975
-0.180567325545
-0.180502465477
-0.180432442617
-0.213457436445
-0.184515575188
-0.180915795512
-0.180634025843
-0.180578086948
-0.180524614975
-0.180462237126
-0.180391122299
-0.180312171991
-0.180226552083
-0.213326245459
-0.184391736645
-0.180787557901
-0.180499211135
-0.180434579026
-0.180370221948
-0.180294764447
-0.18020839913
-0.180112093678
-0.180007133236
-0.213210139505
-0.184275764906
-0.18066529738
-0.180369021786
-0.180293977476
-0.180216520662
-0.180125237913
-0.18002031179
-0.179902736695
-0.179773896025
-0.213114416839
-0.18417134199
-0.180552383096
-0.180246652283
-0.180159240584
-0.180066140986
-0.179955833779
-0.179828444577
-0.179684934076
-0.179526734478
-0.213044984192
-0.184082754514
-0.180452819899
-0.180135939048
-0.180033958339
-0.179922318041
-0.179789308577
-0.17963489224
-0.179459917173
-0.179265788934
-0.213008151152
-0.184015016642
-0.180371333779
-0.18004139635
-0.179922384547
-0.179788946719
-0.179629050069
-0.17944233619
-0.179229390019
-0.178991513411
-0.213011023345
-0.183974582916
-0.180313482732
-0.179968194515
-0.17982943276
-0.179670588564
-0.179479113296
-0.179254066222
-0.178995629875
-0.17870476072
-0.213053418689
-0.18397951901
-0.180286532515
-0.179921972409
-0.179760522541
-0.179572457151
-0.179344445125
-0.179074140005
-0.178761545905
-0.178406797407
-0.213088026278
-0.184072584227
-0.180303779963
-0.179909107239
-0.179721337155
-0.179500414118
-0.179230573137
-0.178907476888
-0.178531209952
-0.178099722038
-0.213164665881
-0.184222814017
-0.180363922727
-0.179934459705
-0.179717251824
-0.179459086279
-0.179141366769
-0.17875996068
-0.178310965192
-0.177786925605
-0.21329576381
-0.184426511768
-0.180470778386
-0.18000359808
-0.17975447396
-0.179455333687
-0.179084016377
-0.178633344748
-0.178097671675
-0.1774729212
-0.213486630638
-0.184684887568
-0.180627969863
-0.180121071981
-0.179838192176
-0.179495003166
-0.179064407747
-0.179972179727
)
;
    }
    atmosphere
    {
        type            calculated;
        value           nonuniform List<scalar> 0();
    }
    floatingObject
    {
        type            calculated;
        value           nonuniform List<scalar> 0();
    }
    procBoundary4to0
    {
        type            processor;
        value           nonuniform List<scalar> 8(-0.214352436206 -0.18528573388 -0.1816878054 -0.181425974669 -0.181397414505 -0.181377985393 -0.181356075444 -0.18133153599);
    }
    procBoundary4to3
    {
        type            processor;
        value           nonuniform List<scalar> 
13
(
-0.178535108111
-0.177897809377
-0.177148840129
-0.213738099895
-0.184993949239
-0.180836411266
-0.180289401608
-0.179583024639
-0.178535108111
-0.179088224431
-0.180289401608
-0.179583024639
-0.180157693069
)
;
    }
    procBoundary4to5
    {
        type            processor;
        value           nonuniform List<scalar> 
18
(
-0.181163715034
-0.181013176018
-0.181013176018
-0.180973623917
-0.180755717482
-0.18056479211
-0.180358508686
-0.18013569569
-0.179895134945
-0.179635576285
-0.179355757555
-0.179054439395
-0.17873044692
-0.178382730211
-0.178010470528
-0.177613171456
-0.177191910181
-0.17675362603
)
;
    }
}


// ************************************************************************* //
