/*--------------------------------*- C++ -*----------------------------------*\
| =========                 |                                                 |
| \\      /  F ield         | OpenFOAM: The Open Source CFD Toolbox           |
|  \\    /   O peration     | Version:  v2012                                 |
|   \\  /    A nd           | Website:  www.openfoam.com                      |
|    \\/     M anipulation  |                                                 |
\*---------------------------------------------------------------------------*/
FoamFile
{
    version     2.0;
    format      ascii;
    class       volScalarField;
    location    "0.1";
    object      rAU;
}
// * * * * * * * * * * * * * * * * * * * * * * * * * * * * * * * * * * * * * //

dimensions      [-1 3 1 0 0 0 0];


internalField   nonuniform List<scalar> 
164
(
5.05595720858e-06
5.01019182398e-06
5.00564543295e-06
5.00559208941e-06
5.0055740073e-06
5.00555063647e-06
5.00552668539e-06
5.00550323746e-06
5.05602122895e-06
5.01025084247e-06
5.00569862131e-06
5.00563696679e-06
5.00560827786e-06
5.00557320937e-06
5.00553712279e-06
5.00550168458e-06
5.05612369777e-06
5.01034600501e-06
5.00578381308e-06
5.00570883653e-06
5.00566393017e-06
5.00561151487e-06
5.00555797668e-06
5.00550579699e-06
5.0054576315e-06
5.00541530066e-06
5.05627811236e-06
5.01048927483e-06
5.00591141117e-06
5.00581406953e-06
5.00574398179e-06
5.00566610247e-06
5.00558788676e-06
5.00551285096e-06
5.00544409343e-06
5.00538393172e-06
5.056500181e-06
5.01069437979e-06
5.00609172736e-06
5.00595857588e-06
5.00584978547e-06
5.00573462079e-06
5.00562223293e-06
5.00551685788e-06
5.00542171401e-06
5.00533914371e-06
5.05681730392e-06
5.01098259758e-06
5.00633509148e-06
5.00614472126e-06
5.00597785057e-06
5.00580902682e-06
5.00565081697e-06
5.00550659749e-06
5.00537903219e-06
5.00526949104e-06
5.05727277366e-06
5.01138489961e-06
5.00665448698e-06
5.00636851792e-06
5.00611410548e-06
5.00587199831e-06
5.00565400255e-06
5.00546326983e-06
5.00529817624e-06
5.00515837684e-06
5.05793414908e-06
5.01194056986e-06
5.00705399638e-06
5.00660910471e-06
5.0062259855e-06
5.00588858017e-06
5.00560121426e-06
5.00535836845e-06
5.00515356447e-06
5.0049823624e-06
5.05891828412e-06
5.01269570674e-06
5.0075032735e-06
5.0068021254e-06
5.00624736566e-06
5.0058012566e-06
5.00544488982e-06
5.00515335232e-06
5.00491195042e-06
5.0047116013e-06
5.06048242356e-06
5.01367962167e-06
5.0078661375e-06
5.00679520153e-06
5.00606047491e-06
5.00552848507e-06
5.00512570372e-06
5.00480337109e-06
5.00453508247e-06
5.00431173716e-06
5.06336222394e-06
5.01455873157e-06
5.00767762513e-06
5.00630385248e-06
5.00551494406e-06
5.0049848821e-06
5.00459165942e-06
5.00426649512e-06
5.00398941513e-06
5.0037488191e-06
5.06389471547e-06
5.01267104803e-06
5.00602780077e-06
5.00504467001e-06
5.00451299153e-06
5.00413747196e-06
5.0038300146e-06
5.00353626686e-06
5.00325344622e-06
5.00299327187e-06
5.04479904366e-06
5.00602825617e-06
5.00292373949e-06
5.00319816312e-06
5.00320814794e-06
5.00309401975e-06
5.00288663444e-06
5.00260230284e-06
5.00233257199e-06
5.00204936419e-06
5.03433560667e-06
5.00148384091e-06
5.00027676785e-06
5.00143133084e-06
5.00188196504e-06
5.0019494621e-06
5.00181960097e-06
5.00160053132e-06
5.00129532007e-06
5.00084103627e-06
5.0443717444e-06
5.00227259611e-06
4.99945148412e-06
5.00047743278e-06
5.00092636883e-06
5.0009677171e-06
5.0007763093e-06
5.00045915656e-06
4.99999432402e-06
4.99951571952e-06
5.04897443486e-06
5.00431175535e-06
4.99989737387e-06
5.0003778711e-06
5.00051498628e-06
5.00034092204e-06
4.99991669785e-06
4.99928308972e-06
4.99856492079e-06
4.99789965028e-06
5.05173864356e-06
5.00621569616e-06
5.00082217725e-06
5.00082023936e-06
5.00055318796e-06
5.00001357951e-06
4.99922396723e-06
5.00089397196e-06
)
;

boundaryField
{
    back
    {
        type            calculated;
        value           nonuniform List<scalar> 
164
(
5.05595720858e-06
5.01019182398e-06
5.00564543295e-06
5.00559208941e-06
5.0055740073e-06
5.00555063647e-06
5.00552668539e-06
5.00550323746e-06
5.05602122895e-06
5.01025084247e-06
5.00569862131e-06
5.00563696679e-06
5.00560827786e-06
5.00557320937e-06
5.00553712279e-06
5.00550168458e-06
5.05612369777e-06
5.01034600501e-06
5.00578381308e-06
5.00570883653e-06
5.00566393017e-06
5.00561151487e-06
5.00555797668e-06
5.00550579699e-06
5.0054576315e-06
5.00541530066e-06
5.05627811236e-06
5.01048927483e-06
5.00591141117e-06
5.00581406953e-06
5.00574398179e-06
5.00566610247e-06
5.00558788676e-06
5.00551285096e-06
5.00544409343e-06
5.00538393172e-06
5.056500181e-06
5.01069437979e-06
5.00609172736e-06
5.00595857588e-06
5.00584978547e-06
5.00573462079e-06
5.00562223293e-06
5.00551685788e-06
5.00542171401e-06
5.00533914371e-06
5.05681730392e-06
5.01098259758e-06
5.00633509148e-06
5.00614472126e-06
5.00597785057e-06
5.00580902682e-06
5.00565081697e-06
5.00550659749e-06
5.00537903219e-06
5.00526949104e-06
5.05727277366e-06
5.01138489961e-06
5.00665448698e-06
5.00636851792e-06
5.00611410548e-06
5.00587199831e-06
5.00565400255e-06
5.00546326983e-06
5.00529817624e-06
5.00515837684e-06
5.05793414908e-06
5.01194056986e-06
5.00705399638e-06
5.00660910471e-06
5.0062259855e-06
5.00588858017e-06
5.00560121426e-06
5.00535836845e-06
5.00515356447e-06
5.0049823624e-06
5.05891828412e-06
5.01269570674e-06
5.0075032735e-06
5.0068021254e-06
5.00624736566e-06
5.0058012566e-06
5.00544488982e-06
5.00515335232e-06
5.00491195042e-06
5.0047116013e-06
5.06048242356e-06
5.01367962167e-06
5.0078661375e-06
5.00679520153e-06
5.00606047491e-06
5.00552848507e-06
5.00512570372e-06
5.00480337109e-06
5.00453508247e-06
5.00431173716e-06
5.06336222394e-06
5.01455873157e-06
5.00767762513e-06
5.00630385248e-06
5.00551494406e-06
5.0049848821e-06
5.00459165942e-06
5.00426649512e-06
5.00398941513e-06
5.0037488191e-06
5.06389471547e-06
5.01267104803e-06
5.00602780077e-06
5.00504467001e-06
5.00451299153e-06
5.00413747196e-06
5.0038300146e-06
5.00353626686e-06
5.00325344622e-06
5.00299327187e-06
5.04479904366e-06
5.00602825617e-06
5.00292373949e-06
5.00319816312e-06
5.00320814794e-06
5.00309401975e-06
5.00288663444e-06
5.00260230284e-06
5.00233257199e-06
5.00204936419e-06
5.03433560667e-06
5.00148384091e-06
5.00027676785e-06
5.00143133084e-06
5.00188196504e-06
5.0019494621e-06
5.00181960097e-06
5.00160053132e-06
5.00129532007e-06
5.00084103627e-06
5.0443717444e-06
5.00227259611e-06
4.99945148412e-06
5.00047743278e-06
5.00092636883e-06
5.0009677171e-06
5.0007763093e-06
5.00045915656e-06
4.99999432402e-06
4.99951571952e-06
5.04897443486e-06
5.00431175535e-06
4.99989737387e-06
5.0003778711e-06
5.00051498628e-06
5.00034092204e-06
4.99991669785e-06
4.99928308972e-06
4.99856492079e-06
4.99789965028e-06
5.05173864356e-06
5.00621569616e-06
5.00082217725e-06
5.00082023936e-06
5.00055318796e-06
5.00001357951e-06
4.99922396723e-06
5.00089397196e-06
)
;
    }
    sides
    {
        type            calculated;
        value           nonuniform List<scalar> 0();
    }
    bottom
    {
        type            calculated;
        value           nonuniform List<scalar> 
17
(
5.05595720858e-06
5.05602122895e-06
5.05612369777e-06
5.05627811236e-06
5.056500181e-06
5.05681730392e-06
5.05727277366e-06
5.05793414908e-06
5.05891828412e-06
5.06048242356e-06
5.06336222394e-06
5.06389471547e-06
5.04479904366e-06
5.03433560667e-06
5.0443717444e-06
5.04897443486e-06
5.05173864356e-06
)
;
    }
    front
    {
        type            calculated;
        value           nonuniform List<scalar> 
164
(
5.05595720858e-06
5.01019182398e-06
5.00564543295e-06
5.00559208941e-06
5.0055740073e-06
5.00555063647e-06
5.00552668539e-06
5.00550323746e-06
5.05602122895e-06
5.01025084247e-06
5.00569862131e-06
5.00563696679e-06
5.00560827786e-06
5.00557320937e-06
5.00553712279e-06
5.00550168458e-06
5.05612369777e-06
5.01034600501e-06
5.00578381308e-06
5.00570883653e-06
5.00566393017e-06
5.00561151487e-06
5.00555797668e-06
5.00550579699e-06
5.0054576315e-06
5.00541530066e-06
5.05627811236e-06
5.01048927483e-06
5.00591141117e-06
5.00581406953e-06
5.00574398179e-06
5.00566610247e-06
5.00558788676e-06
5.00551285096e-06
5.00544409343e-06
5.00538393172e-06
5.056500181e-06
5.01069437979e-06
5.00609172736e-06
5.00595857588e-06
5.00584978547e-06
5.00573462079e-06
5.00562223293e-06
5.00551685788e-06
5.00542171401e-06
5.00533914371e-06
5.05681730392e-06
5.01098259758e-06
5.00633509148e-06
5.00614472126e-06
5.00597785057e-06
5.00580902682e-06
5.00565081697e-06
5.00550659749e-06
5.00537903219e-06
5.00526949104e-06
5.05727277366e-06
5.01138489961e-06
5.00665448698e-06
5.00636851792e-06
5.00611410548e-06
5.00587199831e-06
5.00565400255e-06
5.00546326983e-06
5.00529817624e-06
5.00515837684e-06
5.05793414908e-06
5.01194056986e-06
5.00705399638e-06
5.00660910471e-06
5.0062259855e-06
5.00588858017e-06
5.00560121426e-06
5.00535836845e-06
5.00515356447e-06
5.0049823624e-06
5.05891828412e-06
5.01269570674e-06
5.0075032735e-06
5.0068021254e-06
5.00624736566e-06
5.0058012566e-06
5.00544488982e-06
5.00515335232e-06
5.00491195042e-06
5.0047116013e-06
5.06048242356e-06
5.01367962167e-06
5.0078661375e-06
5.00679520153e-06
5.00606047491e-06
5.00552848507e-06
5.00512570372e-06
5.00480337109e-06
5.00453508247e-06
5.00431173716e-06
5.06336222394e-06
5.01455873157e-06
5.00767762513e-06
5.00630385248e-06
5.00551494406e-06
5.0049848821e-06
5.00459165942e-06
5.00426649512e-06
5.00398941513e-06
5.0037488191e-06
5.06389471547e-06
5.01267104803e-06
5.00602780077e-06
5.00504467001e-06
5.00451299153e-06
5.00413747196e-06
5.0038300146e-06
5.00353626686e-06
5.00325344622e-06
5.00299327187e-06
5.04479904366e-06
5.00602825617e-06
5.00292373949e-06
5.00319816312e-06
5.00320814794e-06
5.00309401975e-06
5.00288663444e-06
5.00260230284e-06
5.00233257199e-06
5.00204936419e-06
5.03433560667e-06
5.00148384091e-06
5.00027676785e-06
5.00143133084e-06
5.00188196504e-06
5.0019494621e-06
5.00181960097e-06
5.00160053132e-06
5.00129532007e-06
5.00084103627e-06
5.0443717444e-06
5.00227259611e-06
4.99945148412e-06
5.00047743278e-06
5.00092636883e-06
5.0009677171e-06
5.0007763093e-06
5.00045915656e-06
4.99999432402e-06
4.99951571952e-06
5.04897443486e-06
5.00431175535e-06
4.99989737387e-06
5.0003778711e-06
5.00051498628e-06
5.00034092204e-06
4.99991669785e-06
4.99928308972e-06
4.99856492079e-06
4.99789965028e-06
5.05173864356e-06
5.00621569616e-06
5.00082217725e-06
5.00082023936e-06
5.00055318796e-06
5.00001357951e-06
4.99922396723e-06
5.00089397196e-06
)
;
    }
    atmosphere
    {
        type            calculated;
        value           nonuniform List<scalar> 0();
    }
    floatingObject
    {
        type            calculated;
        value           nonuniform List<scalar> 0();
    }
    procBoundary4to0
    {
        type            processor;
        value           nonuniform List<scalar> 8(5.05592100833e-06 5.0101595298e-06 5.00561709299e-06 5.00556884497e-06 5.00555755456e-06 5.00554194594e-06 5.00552636354e-06 5.00551126329e-06);
    }
    procBoundary4to3
    {
        type            processor;
        value           nonuniform List<scalar> 
13
(
4.99820266586e-06
4.99717839959e-06
4.99605072026e-06
5.05363888949e-06
5.007772343e-06
5.00186516419e-06
5.00153188129e-06
4.99995729208e-06
4.99820266586e-06
4.99870830998e-06
5.00153188129e-06
4.99995729208e-06
5.00139307023e-06
)
;
    }
    procBoundary4to5
    {
        type            processor;
        value           nonuniform List<scalar> 
18
(
5.00548197029e-06
5.00546889491e-06
5.00546889491e-06
5.00544088629e-06
5.00538126975e-06
5.00533379752e-06
5.00526995137e-06
5.00517894831e-06
5.00504340775e-06
5.00484185829e-06
5.00454630734e-06
5.00412285987e-06
5.00353485255e-06
5.00274685284e-06
5.00172824444e-06
5.00046277687e-06
4.99898666324e-06
4.99711412726e-06
)
;
    }
}


// ************************************************************************* //
