/*--------------------------------*- C++ -*----------------------------------*\
| =========                 |                                                 |
| \\      /  F ield         | OpenFOAM: The Open Source CFD Toolbox           |
|  \\    /   O peration     | Version:  v2012                                 |
|   \\  /    A nd           | Website:  www.openfoam.com                      |
|    \\/     M anipulation  |                                                 |
\*---------------------------------------------------------------------------*/
FoamFile
{
    version     2.0;
    format      ascii;
    class       volVectorField;
    location    "5.3";
    object      U;
}
// * * * * * * * * * * * * * * * * * * * * * * * * * * * * * * * * * * * * * //

dimensions      [0 1 -1 0 0 0 0];


internalField   nonuniform List<vector> 
166
(
(0.0482586556089 -0.00911477279158 2.60609200291e-23)
(0.0498943976874 -0.0103951370456 2.03013078998e-23)
(0.0517314969279 -0.0116734028682 1.52796859304e-23)
(0.0537792109083 -0.0129426248603 -2.37175946276e-23)
(0.0560162428672 -0.0141956027442 -6.7253547633e-23)
(0.0583587578774 -0.0154275526662 -2.01988079153e-22)
(0.0606518755396 -0.0166446506854 -7.07937300471e-22)
(0.0627587346582 -0.0180565127177 -2.11251622864e-21)
(0.0641882215265 -0.0185435917031 1.7465015125e-22)
(0.0646082818589 -0.0199196139635 -4.16878255662e-21)
(0.0663467388352 -0.0159076651651 -5.56170172418e-21)
(0.0508323824851 -0.0291303020094 -3.18182480086e-21)
(0.0450799770287 -0.0623368157373 -2.03845970352e-21)
(0.0467838671518 -0.00544371960367 3.58978641034e-24)
(0.0480102041021 -0.00649414828 6.46844973407e-24)
(0.0494310282102 -0.00755809950885 -2.89012889733e-24)
(0.0510562989987 -0.00862415499194 1.41078263648e-23)
(0.0528851678174 -0.00967621463704 2.34429078657e-23)
(0.0549230089393 -0.0107154548194 -1.03030059122e-23)
(0.0571517372957 -0.0117476954083 -4.61440145755e-23)
(0.0594961111706 -0.0127828558993 -2.61631412174e-22)
(0.0617513422104 -0.0137557768029 -9.8439756013e-22)
(0.0637876964524 -0.0151717922016 -1.51124898728e-21)
(0.0652366597898 -0.015595265634 -3.59271679858e-21)
(0.0663985849583 -0.0169067191142 -7.58359168402e-21)
(0.0709812100591 -0.0135538492174 -1.14345010934e-20)
(0.0711318052622 -0.0261089652673 -1.19228018525e-20)
(0.0539947645782 -0.0518531894366 -7.38973209371e-21)
(0.0426333368395 -0.000346735665895 -3.2581767108e-23)
(0.0436376803443 -0.00111007061832 7.34484385566e-23)
(0.0466574101723 -0.00350882764143 2.86062832305e-23)
(0.0477329082369 -0.0043439230671 3.13293690848e-24)
(0.048959812031 -0.00518870001431 -4.90528411805e-25)
(0.0503740861907 -0.00603052952673 -5.28924571933e-24)
(0.0519887555568 -0.00686400312912 -9.65529502472e-24)
(0.0538122634673 -0.00767902316005 3.49897005023e-24)
(0.0558342376654 -0.00847637876732 -3.69419194418e-24)
(0.0580570949902 -0.00926080222633 -1.00047276916e-22)
(0.0604108311627 -0.0100638127991 -5.12732595561e-22)
(0.0626656547023 -0.0107315507436 -1.68847817185e-21)
(0.0646009959583 -0.0119523726586 -3.84755447016e-21)
(0.0661399718254 -0.0122602018804 -4.31586349886e-21)
(0.068297845055 -0.013679958914 -7.8971550092e-21)
(0.075682271042 -0.0110651267285 -1.1790795705e-20)
(0.0837758822939 -0.0218449241252 -1.70192467484e-20)
(0.0611024652881 -0.0369316333214 -1.03812548166e-20)
(0.0432642482758 -0.000243695557981 3.52409850014e-24)
(0.0443055786241 -0.000820475464534 7.16776627848e-23)
(0.0453772999174 -0.00139478937215 1.03839371271e-22)
(0.0464004058681 -0.00201718274603 8.53883546044e-23)
(0.0473919425398 -0.00264936732177 3.45778114835e-23)
(0.0484696599938 -0.00328653481168 7.07704865621e-24)
(0.0496879321021 -0.00391321586692 8.06137462773e-24)
(0.0510884984037 -0.00452174819705 -1.49970043084e-23)
(0.0526831819231 -0.00512066417931 -3.31496977223e-23)
(0.0544943983446 -0.00570617371297 -3.99185449608e-23)
(0.0565046914181 -0.00626760557079 -7.64446166799e-23)
(0.0587030542693 -0.00679360150075 -1.3871571175e-22)
(0.0610401285006 -0.00733734206024 -6.31048778827e-22)
(0.063312988047 -0.00770576205156 -1.95365148838e-21)
(0.0651941204483 -0.00861407778087 -3.3435304423e-21)
(0.0668146713542 -0.00870267631091 -1.69589048797e-22)
(0.0700573330379 -0.0100815069438 -5.90672652677e-21)
(0.0798632268001 -0.00811027878192 -1.3195776149e-20)
(0.0899655451201 -0.0166240136112 -1.67555000509e-20)
(0.0669642490807 -0.0234426119352 -1.21204712294e-20)
(0.0437088819435 -0.000149358619661 -2.5606025831e-22)
(0.0447826514455 -0.000541989272481 -9.10035150993e-23)
(0.0458845466679 -0.00093157157906 -9.97732891685e-24)
(0.0469319319105 -0.00136280535452 4.46439111914e-23)
(0.0479306801323 -0.00179684758217 1.74563106091e-23)
(0.0489886228974 -0.00222544119335 -5.22913110783e-25)
(0.050198448523 -0.00263592881836 2.03796884056e-24)
(0.0515832902309 -0.00302736261062 -5.92609510562e-24)
(0.0531549474969 -0.0034041286194 -1.56612128593e-23)
(0.054937254912 -0.00376102643892 -2.98400323367e-23)
(0.0569267533197 -0.00409816715307 -3.25725857517e-23)
(0.0590958990667 -0.00438488572336 -1.21066662243e-22)
(0.06139224983 -0.00465898312231 -5.16639272901e-22)
(0.0636651557244 -0.00476371513183 -1.25012487426e-21)
(0.0655514533386 -0.00535871970355 -2.84307464748e-21)
(0.0673995208028 -0.00524261710821 -1.10206064003e-22)
(0.0714793495256 -0.0064359754695 -4.78760827153e-21)
(0.0828565719927 -0.00502933559259 -9.79429626602e-21)
(0.0911095597173 -0.0106023834142 -1.30780722658e-20)
(0.0706108924643 -0.0108082210659 -8.89763995212e-21)
(0.043966773142 -5.13549116248e-05 -4.2994078083e-22)
(0.0450728738622 -0.000263064938349 -2.26253115567e-22)
(0.0462034518927 -0.000466271464621 -6.51038027034e-23)
(0.0472669814563 -0.000698237458289 3.19477607705e-23)
(0.0482630724141 -0.000935570023094 2.25013275347e-23)
(0.049305614181 -0.00116252227984 2.15629651443e-23)
(0.050494916678 -0.00136918893554 7.88800086522e-24)
(0.0518605790424 -0.00155923652088 8.63994908426e-24)
(0.0534134362168 -0.00172191017308 1.74148745142e-23)
(0.0551637255108 -0.00185353543669 -2.27198724022e-24)
(0.0571126557374 -0.00196384572404 -2.49980122127e-23)
(0.0592510524572 -0.00202817848055 -1.40231099335e-22)
(0.0615021349162 -0.00205724257935 -3.54301643838e-22)
(0.0637692071087 -0.00195948638533 -1.17385282356e-21)
(0.0657385605892 -0.00226745016673 -2.63922962576e-21)
(0.0678748201815 -0.00214418072502 -3.9497523529e-22)
(0.0722043978437 -0.00301844401488 -3.76009420674e-21)
(0.0841879720964 -0.00177215742235 -6.33818702769e-21)
(0.0913289837026 -0.0037421069474 -7.26607156267e-21)
(0.075704278259 -0.00716899631389 -5.08554548288e-21)
(0.0440382570013 4.45053607853e-05 -4.26849624852e-22)
(0.0451745596134 1.35674779417e-05 -2.3252507723e-22)
(0.0463311031134 -3.06474945218e-06 -5.69861185779e-23)
(0.0474034942584 -3.86130538513e-05 3.75108103267e-23)
(0.0483914146655 -8.1282926222e-05 1.79732421236e-23)
(0.0494253708138 -0.000114030630771 1.24209238715e-23)
(0.0505910902787 -0.00012786472339 8.87777629771e-24)
(0.0519299949343 -0.000117301917451 1.42920590206e-23)
(0.053458596904 -6.98983349684e-05 2.02209959814e-23)
(0.0551756184357 1.40260989814e-05 1.73685644279e-23)
(0.0570877553933 0.000126451163412 -9.15351209238e-24)
(0.0591702793022 0.000277407247831 -1.17520030695e-22)
(0.061395450483 0.000476221516823 -2.14279060032e-22)
(0.0636828748986 0.000737547810915 -7.23107041303e-22)
(0.0658627969989 0.000666228329404 -5.85383753216e-22)
(0.0683164798256 0.000693598965251 1.65767683367e-22)
(0.0722274413634 0.00058865805006 -3.74045235404e-21)
(0.0827399175399 0.00164318150782 -4.71083881388e-21)
(0.0926613124593 0.00304895864226 -8.07938963828e-21)
(0.0848515468344 -0.00729339889661 -5.28290030907e-21)
(0.0439302612207 0.000136427255762 -3.42064852516e-22)
(0.0450908620102 0.000285810265788 -1.52931378718e-22)
(0.0462689680022 0.000451001211744 -6.75327253187e-24)
(0.0473473413213 0.000604230314738 6.86958948348e-23)
(0.0483302287307 0.000753950477167 3.52186137707e-23)
(0.0493496976163 0.000917436117482 1.1426856367e-23)
(0.0504935900506 0.00110250626904 1.60482593388e-24)
(0.0518011402816 0.00131428276186 1.53683762718e-24)
(0.0532911112163 0.00156225304501 1.05564322557e-23)
(0.0549684529506 0.00185191001795 1.09968135241e-23)
(0.0568412244786 0.00216716688075 -1.85559452569e-23)
(0.0588852204741 0.00253285656871 -3.63464364857e-23)
(0.0610908398941 0.00295574237833 -1.33891383012e-22)
(0.0634103663412 0.00339120225405 -7.20280351638e-22)
(0.0658650988171 0.00355687244256 -8.92693489078e-22)
(0.0687177147098 0.0036717424118 9.17237389219e-22)
(0.0721078306024 0.00409529769587 -2.10466232987e-21)
(0.079402674463 0.00506109176669 -4.41946329968e-21)
(0.0936029883043 0.00784529766654 -2.90618548098e-21)
(0.10279771586 -0.0139939148498 -1.11416198556e-20)
(0.0436430053056 0.00022842565201 -2.14896487734e-22)
(0.0448260792399 0.000554507462417 -1.03945625617e-22)
(0.0460223071679 0.00089757428747 6.08314282515e-24)
(0.0471051650215 0.00123613862889 6.42123966629e-23)
(0.048079333539 0.00157465199417 3.73524600102e-23)
(0.0490757572524 0.00193450913462 9.12196310517e-24)
(0.0501938964615 0.00232350800454 -1.87147597586e-24)
(0.0514738755728 0.00273925507451 -8.53864424041e-24)
(0.0529265055425 0.00318308348896 -2.18323345725e-24)
(0.0545585834726 0.00366669743933 -4.91715233298e-24)
(0.056383232574 0.00418061838648 2.13316141457e-23)
(0.0584057436638 0.00475181383001 1.85481748542e-23)
(0.0605830225477 0.00538280178404 -5.20635696546e-23)
(0.0629328893393 0.00601457360717 -4.94425341168e-22)
(0.0656094914896 0.00644142482657 -8.37444447237e-22)
(0.0688969541625 0.00681997952186 7.25961405898e-22)
(0.0721305780408 0.00730703703242 -3.49113088361e-21)
(0.0766836838639 0.00863111927161 -6.68178986918e-21)
(0.0925574250701 0.0122723354887 -2.47633092771e-20)
(0.170072368798 -0.0317636749073 -4.17615721333e-20)
)
;

boundaryField
{
    back
    {
        type            noSlip;
    }
    sides
    {
        type            noSlip;
    }
    bottom
    {
        type            noSlip;
    }
    front
    {
        type            noSlip;
    }
    atmosphere
    {
        type            pressureInletOutletVelocity;
        value           nonuniform List<vector> 9((0 -0.0623368157373 0) (0 -0.0518531894366 0) (0 -0.0369316333214 0) (0 -0.0234426119352 0) (0 -0.0108082210659 0) (0 -0.00716899631389 0) (0 -0.00729339889661 0) (0 -0.0139939148498 0) (0 -0.0317636749073 0));
    }
    floatingObject
    {
        type            movingWallVelocity;
        value           nonuniform List<vector> 0();
    }
    procBoundary0to1
    {
        type            processor;
        value           nonuniform List<vector> 10((0.0524304547721 -0.0151096731626 -6.26120392628e-23) (0.0546834238177 -0.0165526127586 -8.54910307563e-23) (0.0570600720114 -0.0179623070179 -2.14785311441e-22) (0.0594280916046 -0.0193331007927 -2.25381881136e-22) (0.0616184343024 -0.0206795644315 -2.63143953877e-22) (0.0630821388008 -0.0212336521472 3.47589053666e-21) (0.0629637047608 -0.0227835467902 -5.25496758712e-22) (0.0622428480077 -0.0184597536297 -3.01053044265e-21) (0.0282157982502 -0.0304249224821 -3.09095787763e-21) (0.0346417439301 -0.0617664429127 5.16961428388e-22));
    }
    procBoundary0to2
    {
        type            processor;
        value           nonuniform List<vector> 
14
(
(0.0468734006791 -0.0106771458284 6.68893609139e-24)
(0.0485034088915 -0.0121558466666 3.38147652589e-23)
(0.0503541748207 -0.0136370126816 4.33310947718e-23)
(0.0456327635385 -0.0065808255186 -1.0040806873e-24)
(0.0468409330342 -0.00784261347501 2.88520276432e-23)
(0.0468409330342 -0.00784261347501 2.88520276432e-23)
(0.0418001959922 -0.000457362333029 -3.57105740419e-22)
(0.0427738433063 -0.00141373370482 -1.78250887694e-22)
(0.0457280699566 -0.00440941115046 -8.54224341722e-24)
(0.0457280699566 -0.00440941115046 -8.54224341722e-24)
(0.0446789142566 -0.00187419358752 8.93934652828e-23)
(0.0446789142566 -0.00187419358752 8.93934652828e-23)
(0.045677646946 -0.00268605160103 7.6646362196e-23)
(0.045677646946 -0.00268605160103 7.6646362196e-23)
)
;
    }
    procBoundary0to4
    {
        type            processor;
        value           nonuniform List<vector> 8((0.0431794725954 0.000318021856906 -1.87803408077e-22) (0.0443836000757 0.000817629651841 -7.77253341421e-23) (0.0455953827427 0.00133432850207 -1.32747099536e-23) (0.0466791820676 0.00185236429358 4.30229167202e-23) (0.0476377920849 0.0023694666445 2.33668303759e-23) (0.0486090337863 0.00291079529338 1.58588376974e-24) (0.0496961187254 0.00348726887503 -4.0122895602e-24) (0.0509451636372 0.0040965115522 -4.77286009116e-24));
    }
    procBoundary0to5
    {
        type            processor;
        value           nonuniform List<vector> 
12
(
(0.0523644625587 0.00473882243017 1.49792099768e-25)
(0.0539530275443 0.00542399744399 3.74100412529e-24)
(0.0557250168623 0.0061561744668 2.45608497098e-23)
(0.057706787644 0.00693547300957 4.86331813054e-23)
(0.0598712472298 0.00776828653237 2.60560779761e-23)
(0.0622533976175 0.00861370517608 -1.7437089494e-22)
(0.0651078418966 0.00932196153874 -7.18648933466e-22)
(0.0687324650718 0.0100221553951 1.20165138405e-21)
(0.0719794706056 0.0107001853108 -2.60999402648e-21)
(0.0748398073936 0.012197397113 -7.35764608688e-21)
(0.0869592483339 0.0115679811121 -4.62637693099e-21)
(0.233480449894 0.0386701647474 -3.93221378127e-21)
)
;
    }
}


// ************************************************************************* //
