/*--------------------------------*- C++ -*----------------------------------*\
| =========                 |                                                 |
| \\      /  F ield         | OpenFOAM: The Open Source CFD Toolbox           |
|  \\    /   O peration     | Version:  v2012                                 |
|   \\  /    A nd           | Website:  www.openfoam.com                      |
|    \\/     M anipulation  |                                                 |
\*---------------------------------------------------------------------------*/
FoamFile
{
    version     2.0;
    format      ascii;
    class       volVectorField;
    location    "0.5";
    object      ddt0(rho,U);
}
// * * * * * * * * * * * * * * * * * * * * * * * * * * * * * * * * * * * * * //

dimensions      [1 -2 -2 0 0 0 0];


internalField   nonuniform List<vector> 
166
(
(179.608219916 -58.4658847922 1.81997671811e-21)
(184.209879768 -68.0849909911 -2.48169696813e-21)
(189.214896689 -78.394642718 -1.44757597628e-20)
(194.545060758 -89.4819324954 4.76871444169e-22)
(200.104324344 -101.431983358 -4.43810269734e-20)
(205.776346025 -114.328136233 -5.92609783608e-21)
(211.423097994 -128.225022467 1.43934603078e-20)
(216.869467749 -143.083784308 4.20596577479e-20)
(221.801957067 -159.227641941 2.49920979828e-19)
(225.722035486 -178.054240013 -4.29695780692e-19)
(228.410771302 -194.195574282 4.86715010936e-21)
(221.401178024 -186.203049671 1.179114681e-17)
(35.5590501921 78.4857800257 -3.77110340839e-18)
(179.836733791 -37.3898592776 -2.73771717805e-20)
(183.947669738 -45.3124951036 -3.18743807111e-20)
(188.665512957 -53.7947379966 -3.74042982881e-20)
(193.943379405 -62.9352149647 -1.66611180089e-21)
(199.720184069 -72.8368295954 -4.83358538838e-20)
(205.917845912 -83.6045546052 1.24162495959e-21)
(212.437696931 -95.3443241618 -6.06305203166e-20)
(219.157257415 -108.164163752 7.75237679843e-21)
(225.926987173 -122.143503114 5.18299027162e-20)
(232.551709426 -137.260455323 1.4147290911e-20)
(238.679606293 -153.914406682 1.69832543699e-19)
(243.744314469 -173.724629604 1.5167798638e-19)
(247.460474021 -190.791163793 -1.62679421879e-18)
(240.721132609 -181.923521472 -1.84718616789e-17)
(31.7837018481 100.586351557 1.74046784053e-18)
(170.979513576 -3.71010043092 1.8468569655e-19)
(175.564859935 -7.96422021622 1.51845503062e-18)
(183.28375132 -26.6139269048 -4.29582081665e-20)
(187.181885568 -33.3674365316 -9.08601458489e-21)
(191.819139028 -40.6178083765 -5.22767684514e-21)
(197.166207737 -48.4667679024 -1.47938440844e-20)
(203.18144201 -57.0262068403 -8.96354103495e-20)
(209.808318764 -66.4153149851 -5.04179763637e-21)
(216.971907286 -76.7588038169 -1.91135769983e-20)
(224.57460322 -88.1864292833 -4.51726558e-20)
(232.491596819 -100.835382173 3.08409207625e-20)
(240.566308946 -114.815197914 -1.09034775077e-20)
(248.588700792 -130.125889424 7.26369021089e-20)
(256.177409415 -147.264560514 3.97472552389e-20)
(262.709560166 -168.129390421 1.84079454797e-18)
(267.823320461 -186.199339069 1.92420355695e-17)
(258.187294478 -172.614552288 -3.048416515e-17)
(27.6532821211 120.985897869 6.46828403403e-18)
(176.054718102 -3.25421545091 1.39730430014e-19)
(180.909389599 -6.72153392292 2.35057311612e-18)
(183.238756206 -11.9820961325 -4.8674784794e-19)
(185.945011778 -17.3440042717 -4.66220843512e-19)
(189.441955236 -22.8999498345 -9.1293142013e-20)
(193.790289966 -28.8531578541 -1.91142113375e-20)
(198.984381455 -35.3256426799 -1.41769479034e-19)
(205.002824312 -42.429226155 5.3682548382e-20)
(211.812326139 -50.2891259338 -1.14110458512e-19)
(219.36458006 -59.0416044845 -8.50712877417e-20)
(227.591910927 -68.8326663353 8.76090023804e-20)
(236.402301496 -79.8184074006 -1.02208682379e-19)
(245.67383937 -92.1690099029 9.56725927368e-20)
(255.248766616 -106.028006473 2.77432051312e-20)
(264.910046402 -121.419028533 2.47546408038e-19)
(274.259908694 -138.957534913 1.18491673019e-18)
(282.633485997 -160.86570631 -6.10781413514e-18)
(289.512134995 -179.847463877 -2.82330124677e-17)
(275.142384697 -160.433133202 -2.47321347523e-17)
(21.850344503 141.676767403 4.20013574054e-18)
(180.262007812 -2.74841888624 -3.20765976959e-19)
(185.380078632 -5.35343782838 1.23576384901e-18)
(187.912070944 -9.69861673772 -1.21396197013e-18)
(190.88565379 -14.1369852494 -1.46200462093e-19)
(194.74266507 -18.7780311921 -2.67183446771e-20)
(199.555737043 -23.8240686135 3.64189808277e-20)
(205.329270401 -29.4030021118 -3.64644380826e-20)
(212.053009747 -35.6357796772 6.20768452902e-21)
(219.705729935 -42.6605878054 -5.45253179118e-20)
(228.25161072 -50.6310209698 1.31531696629e-20)
(237.635169325 -59.7153996964 7.46559967714e-20)
(247.775467716 -70.0980786706 4.12871733046e-20)
(258.559587237 -81.9852668636 1.1820079093e-19)
(269.835166194 -95.5565511792 -3.00696305743e-21)
(281.386879889 -110.857420206 1.80557324827e-19)
(292.816296216 -128.641153555 1.97561634303e-18)
(303.433969899 -151.471513468 -4.53068685308e-18)
(312.458676674 -171.192990438 2.21100200965e-19)
(291.230192865 -144.212124763 1.38094343109e-17)
(15.0227228513 161.546882937 2.00212147199e-18)
(183.517584552 -2.19189488342 -2.03191065399e-18)
(188.889784925 -3.86002066308 -8.31545988457e-19)
(191.622935534 -7.19932229965 -4.02307663486e-19)
(194.862883427 -10.6176259074 -5.37276067425e-19)
(199.080894288 -14.2404739572 -9.3294800976e-20)
(204.363553983 -18.266186253 -8.11535588897e-21)
(210.72827865 -22.8265183539 -8.774050891e-21)
(218.179396953 -28.0500409342 7.26645852139e-20)
(226.712010846 -34.0868474018 -2.21252095126e-20)
(236.307845493 -41.1074637017 -7.19975440068e-21)
(246.929388737 -49.3029286211 3.16284197824e-20)
(258.513176748 -58.8872399482 -1.38890416651e-19)
(270.961998467 -70.1051671199 1.81826996479e-19)
(284.135189232 -83.1729739605 -3.83372247887e-20)
(297.826235488 -98.1537590577 1.7802051305e-19)
(311.647632624 -115.954369621 7.77822619278e-19)
(324.878614269 -139.397149172 -5.64269334154e-18)
(336.405487081 -159.278777155 -3.36493016904e-17)
(307.584399365 -124.880798651 9.62536820436e-18)
(6.49921205747 181.283790651 -8.13785544039e-19)
(185.738666591 -1.58497998475 -2.92694573502e-18)
(191.351777545 -2.24473074103 1.15602759031e-19)
(194.279660318 -4.4886513519 5.02948239603e-19)
(197.777482319 -6.79018990775 -3.07664903567e-20)
(202.347354522 -9.28954191621 -8.19825269135e-20)
(208.092207441 -12.1771747861 -5.80642328027e-20)
(215.045445737 -15.58596014 1.16651358712e-20)
(223.229913493 -19.6497595084 -9.27908154244e-20)
(232.661878136 -24.5286621114 -1.27215023206e-22)
(243.346405216 -30.4088865519 -7.31792511105e-20)
(255.270736219 -37.5038904091 -1.1386386877e-20)
(268.396388349 -46.0583255624 -9.68004573161e-20)
(282.649474718 -56.3582698049 4.36554613785e-21)
(297.907033732 -68.6576899773 -3.30302212023e-20)
(313.976318054 -83.037905444 -1.50166786745e-19)
(330.478809896 -100.596738669 6.07625771388e-20)
(346.525611733 -124.093609178 -1.33081945491e-18)
(360.422384388 -142.491700498 -9.55894191542e-18)
(324.315604666 -103.143550464 -4.17617543448e-17)
(-3.80920022384 200.977113772 1.97352632585e-18)
(186.846005358 -0.92944363402 -1.62616158909e-18)
(192.682311501 -0.515228326666 1.20213210087e-19)
(195.792420987 -1.57802496558 2.77526028603e-19)
(199.530487321 -2.66861633354 9.95135897873e-20)
(204.430855372 -3.93986953038 -6.75055521903e-20)
(210.615162084 -5.56968739971 -2.60057171927e-20)
(218.136013916 -7.68836202597 -2.21756270148e-20)
(227.038952695 -10.4317247458 -5.4459153582e-20)
(237.366757966 -13.9669529471 -1.03195918005e-19)
(249.154544681 -18.4936268684 -3.20253445572e-20)
(262.422221253 -24.246305933 -1.00084689409e-19)
(277.165475712 -31.5008699461 -1.68381577177e-19)
(293.343367781 -40.5880568697 8.27131030559e-20)
(310.858922296 -51.8021235 -8.29060829133e-21)
(329.54383598 -65.2618832589 5.37600737728e-19)
(349.015558884 -82.4290837615 2.61541346334e-18)
(368.292261196 -105.272133313 4.91971782559e-18)
(384.620945518 -118.787847582 2.63536504599e-17)
(332.164217135 -97.5543560974 -1.19951755975e-17)
(-23.2598831848 236.856278862 4.2621910648e-18)
(186.766888636 -0.228746868415 -2.44801451392e-18)
(192.803689469 1.31583800248 1.25377336734e-18)
(196.076482796 1.5127334333 6.12650254241e-19)
(200.026396844 1.72130413717 -2.9439722954e-19)
(205.221246111 1.77865540865 -5.84092420284e-20)
(211.803736083 1.5251547727 -2.67197455448e-20)
(219.848920243 0.837685930491 -5.1354206441e-20)
(229.429390915 -0.417184649943 -1.29017378247e-20)
(240.62009598 -2.40933690906 -3.87756562416e-20)
(253.493563699 -5.34779684462 -5.07518519337e-20)
(268.111851726 -9.485430772 1.06020139978e-19)
(284.51615045 -15.1287219121 -1.44852685439e-19)
(302.711330652 -22.655536914 1.83441340352e-19)
(322.639751021 -32.400078797 -4.57096661934e-20)
(344.171550414 -44.5697713714 4.92519282853e-19)
(366.930349422 -60.9720817682 4.68717167936e-19)
(389.871538105 -82.2595565413 -3.56495899015e-18)
(409.072936748 -96.2568051976 -2.07149431377e-17)
(334.654574534 -57.1423360929 -3.74442221734e-17)
(-55.4343941541 246.282809256 -9.15057816879e-18)
)
;

boundaryField
{
    back
    {
        type            calculated;
        value           uniform (0 0 0);
    }
    sides
    {
        type            calculated;
        value           nonuniform List<vector> 0();
    }
    bottom
    {
        type            calculated;
        value           uniform (0 0 0);
    }
    front
    {
        type            calculated;
        value           uniform (0 0 0);
    }
    atmosphere
    {
        type            calculated;
        value           nonuniform List<vector> 9((0 -0.256245715364 0) (0 -0.259008097011 0) (0 -0.26157569069 0) (0 -0.265404036907 0) (0 -0.271487824699 0) (0 -0.280508352772 0) (0 -0.288176516394 0) (0 -0.222902367404 0) (0 -0.227426402208 0));
    }
    floatingObject
    {
        type            calculated;
        value           nonuniform List<vector> 0();
    }
    procBoundary0to1
    {
        type            processor;
        value           nonuniform List<vector> 10((182.946050293 -94.499140657 3.37321650893e-20) (187.660827949 -106.581097741 -7.99321544587e-21) (192.424106516 -119.48590308 8.56476712326e-22) (197.111387076 -133.249230088 -8.36343249007e-21) (201.569413145 -147.821920113 6.02000770262e-20) (205.523472693 -163.4744897 6.74116922271e-19) (208.539957402 -181.452602736 -1.27826387744e-18) (210.45668548 -196.896814584 -1.23816645962e-17) (202.863453174 -189.681469291 -6.72716332418e-18) (37.3699021197 59.0442482394 -5.56545173114e-19));
    }
    procBoundary0to2
    {
        type            processor;
        value           nonuniform List<vector> 
14
(
(170.087949219 -62.5358454164 7.02974630178e-22)
(174.076222722 -72.5460900954 -1.34723540462e-20)
(178.38748515 -83.1766801071 -4.14070811441e-20)
(171.852294397 -40.949442603 -8.75164451792e-20)
(175.472500494 -49.4494269767 -1.63500452782e-20)
(175.472500494 -49.4494269767 -1.63500452782e-20)
(165.119378226 -4.11775656231 -1.62672582284e-18)
(169.432200326 -9.0842364151 2.18264719553e-18)
(176.367410977 -29.9353007361 -9.83315400283e-20)
(176.367410977 -29.9353007361 -9.83315400283e-20)
(177.694258168 -14.0509471962 2.8153364152e-19)
(177.694258168 -14.0509471962 2.8153364152e-19)
(180.138156698 -20.2423967755 -6.20647262898e-19)
(180.138156698 -20.2423967755 -6.20647262898e-19)
)
;
    }
    procBoundary0to4
    {
        type            processor;
        value           nonuniform List<vector> 8((185.438700848 0.511633171115 -3.27518714414e-19) (191.6479487 3.23000143471 -5.77647710153e-19) (195.055831206 4.75403389695 -7.50280349745e-19) (199.176832902 6.34006439397 -3.32674787157e-19) (204.613189507 7.81834391968 -1.06313754879e-19) (211.530897112 9.05409106279 1.70856437689e-19) (220.030561652 9.93695184645 -1.67665155865e-21) (230.215868313 10.3417833559 9.64259740039e-21));
    }
    procBoundary0to5
    {
        type            processor;
        value           nonuniform List<vector> 
12
(
(242.199787176 10.1020792116 5.75246460651e-20)
(256.100233094 9.00529656167 2.44371995987e-21)
(272.031961808 6.78545732556 -4.81295746787e-20)
(290.095748852 3.10846471417 1.54414016626e-19)
(310.359472614 -2.45014321061 3.67074762266e-20)
(332.826148404 -10.2695721426 1.05900564292e-19)
(357.431341335 -20.7059823202 8.88059926675e-19)
(383.836214934 -35.9313600201 -1.02779287808e-18)
(410.92872545 -55.3243389082 -6.34246070255e-18)
(433.906741372 -71.1107731468 -1.26220322811e-17)
(333.0665706 -8.53129693905 -3.61693953724e-17)
(-87.7560407048 252.951689801 9.65136243823e-19)
)
;
    }
}


// ************************************************************************* //
