/*--------------------------------*- C++ -*----------------------------------*\
| =========                 |                                                 |
| \\      /  F ield         | OpenFOAM: The Open Source CFD Toolbox           |
|  \\    /   O peration     | Version:  v2012                                 |
|   \\  /    A nd           | Website:  www.openfoam.com                      |
|    \\/     M anipulation  |                                                 |
\*---------------------------------------------------------------------------*/
FoamFile
{
    version     2.0;
    format      ascii;
    class       volScalarField;
    location    "0.1";
    object      k_0;
}
// * * * * * * * * * * * * * * * * * * * * * * * * * * * * * * * * * * * * * //

dimensions      [0 2 -2 0 0 0 0];


internalField   nonuniform List<scalar> 
167
(
0.0749939526117
0.0749975100109
0.0750008303655
0.0750038914526
0.0750066730602
0.0750091565798
0.075011325126
0.0750131718159
0.0750149458693
0.0750249940679
0.0752852234827
0.0815499839936
0.0797958496923
0.0797988665691
0.0798017246432
0.0798044031639
0.0798068833383
0.0798091482517
0.0798111839863
0.0798129954942
0.0798149856001
0.0798277263439
0.0800957172226
0.0851709752013
0.0800656102388
0.0800683223337
0.0800708732505
0.0800732407345
0.0800754048445
0.0800773480284
0.0800790558972
0.0800805313981
0.0800821704664
0.0800944630838
0.0803587664653
0.0853479813137
0.0800834940491
0.0800859306382
0.0800881975478
0.0800902721653
0.0800921343883
0.0800937680947
0.0800951747285
0.0800967509094
0.0801090310239
0.0803738517077
0.085359698802
0.0800880974036
0.0800902792381
0.080092284307
0.080094089402
0.0800956763088
0.0800970449497
0.0800985950059
0.0801109457916
0.0803769828523
0.0853649054073
0.0800900090922
0.0800920988531
0.080094027593
0.0800957700787
0.0800973061955
0.0800986345005
0.0801001594716
0.0801126108995
0.0803802228176
0.0853710125491
0.0800922510105
0.0800942420294
0.0800960882332
0.0800977624661
0.0800992429001
0.0801005269268
0.0801020256
0.0801146038009
0.080384133604
0.0853783882959
0.0800948453965
0.0800967350405
0.0800984955374
0.0801000982399
0.0801015199125
0.080102757045
0.0801042290246
0.0801169615634
0.0803887647489
0.085387104287
0.0800977934309
0.0800995824707
0.0801012569591
0.0801027872408
0.0801041490257
0.0801053382288
0.0801067842232
0.0801197014437
0.0803941509101
0.085397225335
0.0801010992022
0.080102791233
0.0801043819385
0.0801058411053
0.080107143727
0.0801082854742
0.0801097074401
0.0801228429186
0.0804003323121
0.0854088228557
0.0801047709228
0.080106371854
0.0801078832113
0.0801092745716
0.080110520496
0.0801116167133
0.0801130179713
0.0801264089881
0.0804073560886
0.0854219783325
0.0801088209263
0.0801103386707
0.0801117770922
0.0801131058149
0.0801142991794
0.0801153532356
0.080116738546
0.0801304266376
0.0804152771479
0.0854367855306
0.0801132657364
0.0801147099674
0.0801160837057
0.0801173567492
0.0801185033435
0.0801195200756
0.0801208957179
0.0801349273159
0.0804241591078
0.08545335219
0.0801181258453
0.0801195080184
0.0801208271695
0.0801220533063
0.0801231606221
0.0801241464042
0.0801255202976
0.0801399474692
0.0804340754167
0.0854718019468
0.0801234257527
0.0801247591334
0.0801260357406
0.0801272256894
0.0801283030684
0.0801292659683
0.0801306478513
0.0801455291865
0.0804451109766
0.0854922766578
0.0801291934572
0.0801304936736
0.0801317420415
0.0801329087551
0.0801339676573
0.0801349176667
0.0801363193564
0.0801517213336
0.0804573639373
0.0855149391902
)
;

boundaryField
{
    back
    {
        type            kqRWallFunction;
        value           nonuniform List<scalar> 
167
(
0.0749939526117
0.0749975100109
0.0750008303655
0.0750038914526
0.0750066730602
0.0750091565798
0.075011325126
0.0750131718159
0.0750149458693
0.0750249940679
0.0752852234827
0.0815499839936
0.0797958496923
0.0797988665691
0.0798017246432
0.0798044031639
0.0798068833383
0.0798091482517
0.0798111839863
0.0798129954942
0.0798149856001
0.0798277263439
0.0800957172226
0.0851709752013
0.0800656102388
0.0800683223337
0.0800708732505
0.0800732407345
0.0800754048445
0.0800773480284
0.0800790558972
0.0800805313981
0.0800821704664
0.0800944630838
0.0803587664653
0.0853479813137
0.0800834940491
0.0800859306382
0.0800881975478
0.0800902721653
0.0800921343883
0.0800937680947
0.0800951747285
0.0800967509094
0.0801090310239
0.0803738517077
0.085359698802
0.0800880974036
0.0800902792381
0.080092284307
0.080094089402
0.0800956763088
0.0800970449497
0.0800985950059
0.0801109457916
0.0803769828523
0.0853649054073
0.0800900090922
0.0800920988531
0.080094027593
0.0800957700787
0.0800973061955
0.0800986345005
0.0801001594716
0.0801126108995
0.0803802228176
0.0853710125491
0.0800922510105
0.0800942420294
0.0800960882332
0.0800977624661
0.0800992429001
0.0801005269268
0.0801020256
0.0801146038009
0.080384133604
0.0853783882959
0.0800948453965
0.0800967350405
0.0800984955374
0.0801000982399
0.0801015199125
0.080102757045
0.0801042290246
0.0801169615634
0.0803887647489
0.085387104287
0.0800977934309
0.0800995824707
0.0801012569591
0.0801027872408
0.0801041490257
0.0801053382288
0.0801067842232
0.0801197014437
0.0803941509101
0.085397225335
0.0801010992022
0.080102791233
0.0801043819385
0.0801058411053
0.080107143727
0.0801082854742
0.0801097074401
0.0801228429186
0.0804003323121
0.0854088228557
0.0801047709228
0.080106371854
0.0801078832113
0.0801092745716
0.080110520496
0.0801116167133
0.0801130179713
0.0801264089881
0.0804073560886
0.0854219783325
0.0801088209263
0.0801103386707
0.0801117770922
0.0801131058149
0.0801142991794
0.0801153532356
0.080116738546
0.0801304266376
0.0804152771479
0.0854367855306
0.0801132657364
0.0801147099674
0.0801160837057
0.0801173567492
0.0801185033435
0.0801195200756
0.0801208957179
0.0801349273159
0.0804241591078
0.08545335219
0.0801181258453
0.0801195080184
0.0801208271695
0.0801220533063
0.0801231606221
0.0801241464042
0.0801255202976
0.0801399474692
0.0804340754167
0.0854718019468
0.0801234257527
0.0801247591334
0.0801260357406
0.0801272256894
0.0801283030684
0.0801292659683
0.0801306478513
0.0801455291865
0.0804451109766
0.0854922766578
0.0801291934572
0.0801304936736
0.0801317420415
0.0801329087551
0.0801339676573
0.0801349176667
0.0801363193564
0.0801517213336
0.0804573639373
0.0855149391902
)
;
    }
    sides
    {
        type            kqRWallFunction;
        value           nonuniform List<scalar> 
12
(
0.0749939526117
0.0749975100109
0.0750008303655
0.0750038914526
0.0750066730602
0.0750091565798
0.075011325126
0.0750131718159
0.0750149458693
0.0750249940679
0.0752852234827
0.0815499839936
)
;
    }
    bottom
    {
        type            kqRWallFunction;
        value           nonuniform List<scalar> 0();
    }
    front
    {
        type            kqRWallFunction;
        value           nonuniform List<scalar> 
167
(
0.0749939526117
0.0749975100109
0.0750008303655
0.0750038914526
0.0750066730602
0.0750091565798
0.075011325126
0.0750131718159
0.0750149458693
0.0750249940679
0.0752852234827
0.0815499839936
0.0797958496923
0.0797988665691
0.0798017246432
0.0798044031639
0.0798068833383
0.0798091482517
0.0798111839863
0.0798129954942
0.0798149856001
0.0798277263439
0.0800957172226
0.0851709752013
0.0800656102388
0.0800683223337
0.0800708732505
0.0800732407345
0.0800754048445
0.0800773480284
0.0800790558972
0.0800805313981
0.0800821704664
0.0800944630838
0.0803587664653
0.0853479813137
0.0800834940491
0.0800859306382
0.0800881975478
0.0800902721653
0.0800921343883
0.0800937680947
0.0800951747285
0.0800967509094
0.0801090310239
0.0803738517077
0.085359698802
0.0800880974036
0.0800902792381
0.080092284307
0.080094089402
0.0800956763088
0.0800970449497
0.0800985950059
0.0801109457916
0.0803769828523
0.0853649054073
0.0800900090922
0.0800920988531
0.080094027593
0.0800957700787
0.0800973061955
0.0800986345005
0.0801001594716
0.0801126108995
0.0803802228176
0.0853710125491
0.0800922510105
0.0800942420294
0.0800960882332
0.0800977624661
0.0800992429001
0.0801005269268
0.0801020256
0.0801146038009
0.080384133604
0.0853783882959
0.0800948453965
0.0800967350405
0.0800984955374
0.0801000982399
0.0801015199125
0.080102757045
0.0801042290246
0.0801169615634
0.0803887647489
0.085387104287
0.0800977934309
0.0800995824707
0.0801012569591
0.0801027872408
0.0801041490257
0.0801053382288
0.0801067842232
0.0801197014437
0.0803941509101
0.085397225335
0.0801010992022
0.080102791233
0.0801043819385
0.0801058411053
0.080107143727
0.0801082854742
0.0801097074401
0.0801228429186
0.0804003323121
0.0854088228557
0.0801047709228
0.080106371854
0.0801078832113
0.0801092745716
0.080110520496
0.0801116167133
0.0801130179713
0.0801264089881
0.0804073560886
0.0854219783325
0.0801088209263
0.0801103386707
0.0801117770922
0.0801131058149
0.0801142991794
0.0801153532356
0.080116738546
0.0801304266376
0.0804152771479
0.0854367855306
0.0801132657364
0.0801147099674
0.0801160837057
0.0801173567492
0.0801185033435
0.0801195200756
0.0801208957179
0.0801349273159
0.0804241591078
0.08545335219
0.0801181258453
0.0801195080184
0.0801208271695
0.0801220533063
0.0801231606221
0.0801241464042
0.0801255202976
0.0801399474692
0.0804340754167
0.0854718019468
0.0801234257527
0.0801247591334
0.0801260357406
0.0801272256894
0.0801283030684
0.0801292659683
0.0801306478513
0.0801455291865
0.0804451109766
0.0854922766578
0.0801291934572
0.0801304936736
0.0801317420415
0.0801329087551
0.0801339676573
0.0801349176667
0.0801363193564
0.0801517213336
0.0804573639373
0.0855149391902
)
;
    }
    atmosphere
    {
        type            inletOutlet;
        inletValue      uniform 0.1;
        value           uniform 0.1;
    }
    floatingObject
    {
        type            kqRWallFunction;
        value           nonuniform List<scalar> 0();
    }
    procBoundary1to0
    {
        type            processor;
        value           nonuniform List<scalar> 10(0.0801354608795 0.0801367462649 0.0801379833644 0.0801391424016 0.0801401967553 0.0801411461313 0.0801425821025 0.0801585803812 0.0804709479853 0.0855399768762);
    }
    procBoundary1to2
    {
        type            processor;
        value           nonuniform List<scalar> 
18
(
0.074990179013
0.0797926942901
0.0800627619228
0.0800809124458
0.0800809124458
0.0800857621957
0.0800857621957
0.0800877844741
0.080090143583
0.0800928565116
0.0800959205188
0.0800993367609
0.0801031111154
0.0801072541195
0.0801117806266
0.0801167096882
0.0801220640117
0.0801278699744
)
;
    }
}


// ************************************************************************* //
