/*--------------------------------*- C++ -*----------------------------------*\
| =========                 |                                                 |
| \\      /  F ield         | OpenFOAM: The Open Source CFD Toolbox           |
|  \\    /   O peration     | Version:  v2012                                 |
|   \\  /    A nd           | Website:  www.openfoam.com                      |
|    \\/     M anipulation  |                                                 |
\*---------------------------------------------------------------------------*/
FoamFile
{
    version     2.0;
    format      ascii;
    class       surfaceScalarField;
    location    "0.1";
    object      alphaPhi0.water;
}
// * * * * * * * * * * * * * * * * * * * * * * * * * * * * * * * * * * * * * //

dimensions      [0 3 -1 0 0 0 0];
oriented        oriented;


internalField   nonuniform List<scalar> 
305
(
-6.04894322613e-06
6.04891249137e-06
-1.22560522721e-05
6.20707466839e-06
-1.83920540129e-05
6.1359663033e-06
-2.44065714728e-05
6.01448201005e-06
-3.02775542854e-05
5.87094813645e-06
-3.59754040002e-05
5.69780203778e-06
-4.14688075488e-05
5.49334253657e-06
5.25751748605e-06
-6.26930898924e-06
1.23181873722e-05
-1.2518530036e-05
1.24562587803e-05
-1.87073444547e-05
1.23247430104e-05
-2.48025995669e-05
1.2109699995e-05
-3.07613974277e-05
1.18297103077e-05
-3.65477344128e-05
1.14840923025e-05
-4.21277831426e-05
1.10733260638e-05
1.05986039281e-05
-6.33429722743e-06
1.86524500427e-05
-1.26604013589e-05
1.87823258937e-05
-1.89219471348e-05
1.85862514544e-05
-2.50844477266e-05
1.82721641336e-05
-3.11095375665e-05
1.78547656639e-05
-3.69613913201e-05
1.73359010292e-05
-4.26057049417e-05
1.67175926633e-05
1.6002175493e-05
-6.41960712348e-06
2.50720235516e-05
-1.28614265834e-05
2.52241096965e-05
-1.92332128603e-05
2.4958002304e-05
-2.54999740404e-05
2.4538891458e-05
-3.16264165477e-05
2.39811771451e-05
-3.75773732214e-05
2.32868248372e-05
-4.33183786552e-05
2.24585474756e-05
-4.88158292458e-05
2.14995742791e-05
2.0413753286e-05
-6.55214043839e-06
3.16241318392e-05
-1.313677004e-05
3.18087056015e-05
-1.96505782121e-05
3.14717776772e-05
-2.60565438589e-05
3.09448267475e-05
-3.23195036116e-05
3.02441102116e-05
-3.84041325476e-05
2.93714293377e-05
-4.42755253233e-05
2.83299084917e-05
-4.98994546693e-05
2.71234485347e-05
-5.5242581904e-05
2.5756802225e-05
2.42357103451e-05
-6.7242328462e-06
3.83483341915e-05
-1.34856308778e-05
3.85700721563e-05
-2.01757706687e-05
3.81618876734e-05
-2.67560980092e-05
3.75251276874e-05
-3.31907955767e-05
3.66787856707e-05
-3.94439304323e-05
3.56245457295e-05
-4.54798763414e-05
3.43658339611e-05
-5.12635574219e-05
3.29070849675e-05
-5.67606373367e-05
3.12538122929e-05
2.94127472672e-05
-6.93403374359e-06
4.52823391797e-05
-1.39082641324e-05
4.55442733904e-05
-2.08105517874e-05
4.50641486735e-05
-2.76011812757e-05
4.43157349761e-05
-3.42434816278e-05
4.33210689044e-05
-4.07006710211e-05
4.20817220511e-05
-4.69361785077e-05
4.0601327776e-05
-5.29138502609e-05
3.88847231699e-05
-5.85981341391e-05
3.69380349248e-05
3.47688540585e-05
-7.18126500061e-06
5.24635772137e-05
-1.44054206309e-05
5.27684021923e-05
-2.1556733011e-05
5.2215437477e-05
-2.85944999583e-05
5.13534838018e-05
-3.5481142142e-05
5.02076991228e-05
-4.21788874839e-05
4.87794599137e-05
-4.86500406462e-05
4.70724735152e-05
-5.48571583003e-05
4.50918159008e-05
-6.07632280858e-05
4.28440552349e-05
4.03374726043e-05
-7.4661848908e-06
5.99297369698e-05
-1.49781171965e-05
6.02803099584e-05
-2.24162211723e-05
5.96535207596e-05
-2.97388888119e-05
5.86761370339e-05
-3.69076174402e-05
5.73764204342e-05
-4.38835519256e-05
5.57553924976e-05
-5.06277232453e-05
5.38166431784e-05
-5.71011970529e-05
5.15652736236e-05
-6.32652524476e-05
4.9008069309e-05
4.61537951877e-05
-7.78924364684e-06
6.77189573376e-05
-1.56274742606e-05
6.81185182412e-05
-2.33909520898e-05
6.7416980538e-05
-3.10372263108e-05
6.63224000587e-05
-3.85268811931e-05
6.48660720391e-05
-4.58199190765e-05
6.30484331214e-05
-5.28759697337e-05
6.08726976005e-05
-5.96544149438e-05
5.83437090987e-05
-6.61145618316e-05
5.54681854196e-05
5.22550954385e-05
-8.15091542761e-06
7.58698513027e-05
-1.63545678151e-05
7.63221503593e-05
-2.44827570023e-05
7.554515398e-05
-3.24922815828e-05
7.43319160923e-05
-4.03428590301e-05
7.27166493077e-05
-4.7993323128e-05
7.06989038779e-05
-5.54017977781e-05
6.82811802844e-05
-6.25257919185e-05
6.54677001981e-05
-6.93223682502e-05
6.2264737616e-05
5.86811126605e-05
-8.55158821256e-06
8.44214197253e-05
-1.71602778697e-05
8.49308215315e-05
-2.56931810344e-05
8.40780432174e-05
-3.4106499068e-05
8.2745227431e-05
-4.23591815137e-05
8.09693336978e-05
-5.04089106334e-05
7.87486420426e-05
-5.82122262078e-05
7.60845071046e-05
-6.57245832868e-05
7.29800584772e-05
-7.29005089381e-05
6.9440648095e-05
6.54744762576e-05
-8.99146532496e-06
9.34128666736e-05
-1.80451176406e-05
9.39844567436e-05
-2.70232531712e-05
9.3056165961e-05
-3.58817169369e-05
9.16036853767e-05
-4.45788618191e-05
8.96664812896e-05
-5.30712917475e-05
8.72410823235e-05
-6.13139206223e-05
8.43271492138e-05
-6.92599791987e-05
8.09261232576e-05
-7.68611541509e-05
7.70418145445e-05
7.26812049022e-05
-9.47045760069e-06
0.000102883306998
-1.90090295572e-05
0.000103523012542
-2.84731984452e-05
0.000102520322515
-3.78188084146e-05
0.000100949289462
-4.70038819077e-05
9.8851557533e-05
-5.5984092522e-05
9.62213042192e-05
-6.47127349179e-05
9.30558076401e-05
-7.31406632669e-05
8.93540638622e-05
-8.12164053973e-05
8.51175591409e-05
8.03512676375e-05
-9.98805519346e-06
0.000112871345846
-2.00511356839e-05
0.000113586077675
-3.00420792044e-05
0.000112511253953
-3.991722996e-05
0.000110824434502
-4.96346694574e-05
0.000108569001132
-5.914938519e-05
0.000105736030715
-6.84131236159e-05
0.000102319564623
-7.73742434916e-05
9.83152095477e-05
-8.59777849523e-05
9.37211080509e-05
8.85392590118e-05
-1.05431731263e-05
0.000123414501601
-2.11694321931e-05
0.000124212319523
-3.17273505845e-05
0.000123069160305
-4.21744598429e-05
0.000121271540336
-5.2469442867e-05
0.000118863975336
-6.25669605107e-05
0.00011583356336
-7.24173881713e-05
0.000112170028239
-8.19665188654e-05
-9.11555460156e-05
-1.11339561801e-05
0.000134548437154
-2.23604061264e-05
0.00013543875388
-3.3524310103e-05
0.000134233052163
-4.45852967674e-05
0.000132332498489
-5.55033593052e-05
0.000129782051449
-6.62334199131e-05
-1.17575448923e-05
-2.36185795049e-05
-3.54254154466e-05
0.000146039860452
-4.71409493695e-05
0.000144048038682
-3.74194393162e-05
)
;

boundaryField
{
    back
    {
        type            calculated;
        value           uniform 0;
    }
    sides
    {
        type            calculated;
        value           uniform 0;
    }
    bottom
    {
        type            calculated;
        value           uniform 0;
    }
    front
    {
        type            calculated;
        value           uniform 0;
    }
    atmosphere
    {
        type            calculated;
        value           nonuniform List<scalar> 0();
    }
    floatingObject
    {
        type            calculated;
        value           nonuniform List<scalar> 0();
    }
    procBoundary2to0
    {
        type            processor;
        value           nonuniform List<scalar> 
14
(
0.000107864366937
0.000102910163504
9.73051119239e-05
0.000126563639052
-7.67247399465e-05
0.000122661371983
0.000146305965644
0.00014729976831
-5.87275467436e-05
0.000141368635918
2.49359390528e-05
0.000158523343363
-4.98280680029e-05
0.000156456649134
)
;
    }
    procBoundary2to1
    {
        type            processor;
        value           nonuniform List<scalar> 
18
(
-4.67263954885e-05
-4.74689331626e-05
-4.80093667121e-05
-1.51925473402e-05
-5.40371935105e-05
-1.92057955526e-05
-6.02726563978e-05
-6.19377649248e-05
-6.39543189476e-05
-6.6331914899e-05
-6.90816311198e-05
-7.22159100472e-05
-7.57484226567e-05
-7.96939019967e-05
-8.40679018838e-05
-8.88864808031e-05
-9.41657667032e-05
-9.99214041548e-05
)
;
    }
}


// ************************************************************************* //
