/*--------------------------------*- C++ -*----------------------------------*\
| =========                 |                                                 |
| \\      /  F ield         | OpenFOAM: The Open Source CFD Toolbox           |
|  \\    /   O peration     | Version:  v2012                                 |
|   \\  /    A nd           | Website:  www.openfoam.com                      |
|    \\/     M anipulation  |                                                 |
\*---------------------------------------------------------------------------*/
FoamFile
{
    version     2.0;
    format      ascii;
    class       volScalarField;
    location    "0.1";
    object      p;
}
// * * * * * * * * * * * * * * * * * * * * * * * * * * * * * * * * * * * * * //

dimensions      [1 -1 -2 0 0 0 0];


internalField   nonuniform List<scalar> 
167
(
9520.84975351
9031.17761159
8541.57235193
8051.98481847
7562.41442136
7072.8628042
6583.33205974
6093.82495069
9520.90215011
9031.22865706
8541.62500758
8052.03878459
7562.46599355
7072.9103596
6583.37450302
6093.86141598
9520.88658826
9031.20759672
8541.60170836
8052.01326436
7562.43684217
7072.8764527
6583.33486742
6093.81522309
9520.8546296
9031.16862531
8541.55847826
8051.96535614
7562.38296726
7072.81529879
6583.26519457
6093.73592546
5604.23113541
9520.80993735
9031.11874933
8541.50360627
8051.9039953
7562.31331099
7072.73560602
6583.17383499
6093.63143375
5604.11224957
5114.62048009
9520.75495596
9031.05833135
8541.4371912
8051.82935206
7562.22804962
7072.63749096
6583.06079614
6093.501616
5603.96405203
5114.4525895
9520.69263054
9030.98978561
8541.36148536
8051.74359677
7562.1292363
7072.52283963
6582.92774924
6093.34788784
5603.78767144
5114.25193719
9520.62622984
9030.916153
8541.27937406
8051.64946651
7562.01942723
7072.39398212
6582.77675178
6093.17199085
5603.58449666
5114.01952959
9520.55954739
9030.84108923
8541.19435904
8051.55027701
7561.90170734
7072.25372171
6582.61027374
6092.9760135
5603.35619039
5113.75656868
9520.49700684
9030.76891156
8541.11059847
8051.44997023
7561.77974277
7072.10538767
6582.4312475
6092.76243423
5603.10472669
5113.46447838
9520.44374587
9030.70465836
8541.03295937
8051.35316712
7561.65783446
7071.95288791
6582.24311683
6092.53416598
5602.83242569
5113.14493409
9520.405698
9030.65416135
8540.96708512
8051.26523333
7561.5409825
7071.8007707
6582.04989476
6092.29460703
5602.54199905
5112.79989552
9520.38967913
9030.62412894
8540.91947587
8051.19235765
7561.43496255
7071.65429829
6581.85623226
6092.04770405
5602.23660187
5112.43165016
9520.40348216
9030.62224037
8540.89758124
8051.14164332
7561.34641536
7071.51953333
6581.66750013
6091.79802594
5601.91989878
5112.04286447
9520.45598114
9030.65725096
8540.90990537
8051.12121266
7561.28295063
7071.40344065
6581.48988622
6091.55085469
5601.59614239
5111.6366487
9520.55724555
9030.73910877
8540.96612468
8051.14032614
7561.25326657
7071.31400447
6581.33050957
6091.31229269
5601.27026961
5111.21663784
9520.7186619
9030.87908046
8541.07721805
8051.20951523
7561.26728172
7071.26036757
6581.19755774
9520.95306851
9031.08989204
8541.25560804
8051.34072592
7561.33630031
8541.51531893
8051.54750011
)
;

boundaryField
{
    back
    {
        type            calculated;
        value           nonuniform List<scalar> 
167
(
9520.84975351
9031.17761159
8541.57235193
8051.98481847
7562.41442136
7072.8628042
6583.33205974
6093.82495069
9520.90215011
9031.22865706
8541.62500758
8052.03878459
7562.46599355
7072.9103596
6583.37450302
6093.86141598
9520.88658826
9031.20759672
8541.60170836
8052.01326436
7562.43684217
7072.8764527
6583.33486742
6093.81522309
9520.8546296
9031.16862531
8541.55847826
8051.96535614
7562.38296726
7072.81529879
6583.26519457
6093.73592546
5604.23113541
9520.80993735
9031.11874933
8541.50360627
8051.9039953
7562.31331099
7072.73560602
6583.17383499
6093.63143375
5604.11224957
5114.62048009
9520.75495596
9031.05833135
8541.4371912
8051.82935206
7562.22804962
7072.63749096
6583.06079614
6093.501616
5603.96405203
5114.4525895
9520.69263054
9030.98978561
8541.36148536
8051.74359677
7562.1292363
7072.52283963
6582.92774924
6093.34788784
5603.78767144
5114.25193719
9520.62622984
9030.916153
8541.27937406
8051.64946651
7562.01942723
7072.39398212
6582.77675178
6093.17199085
5603.58449666
5114.01952959
9520.55954739
9030.84108923
8541.19435904
8051.55027701
7561.90170734
7072.25372171
6582.61027374
6092.9760135
5603.35619039
5113.75656868
9520.49700684
9030.76891156
8541.11059847
8051.44997023
7561.77974277
7072.10538767
6582.4312475
6092.76243423
5603.10472669
5113.46447838
9520.44374587
9030.70465836
8541.03295937
8051.35316712
7561.65783446
7071.95288791
6582.24311683
6092.53416598
5602.83242569
5113.14493409
9520.405698
9030.65416135
8540.96708512
8051.26523333
7561.5409825
7071.8007707
6582.04989476
6092.29460703
5602.54199905
5112.79989552
9520.38967913
9030.62412894
8540.91947587
8051.19235765
7561.43496255
7071.65429829
6581.85623226
6092.04770405
5602.23660187
5112.43165016
9520.40348216
9030.62224037
8540.89758124
8051.14164332
7561.34641536
7071.51953333
6581.66750013
6091.79802594
5601.91989878
5112.04286447
9520.45598114
9030.65725096
8540.90990537
8051.12121266
7561.28295063
7071.40344065
6581.48988622
6091.55085469
5601.59614239
5111.6366487
9520.55724555
9030.73910877
8540.96612468
8051.14032614
7561.25326657
7071.31400447
6581.33050957
6091.31229269
5601.27026961
5111.21663784
9520.7186619
9030.87908046
8541.07721805
8051.20951523
7561.26728172
7071.26036757
6581.19755774
9520.95306851
9031.08989204
8541.25560804
8051.34072592
7561.33630031
8541.51531893
8051.54750011
)
;
    }
    sides
    {
        type            calculated;
        value           nonuniform List<scalar> 8(9520.84975351 9031.17761159 8541.57235193 8051.98481847 7562.41442136 7072.8628042 6583.33205974 6093.82495069);
    }
    bottom
    {
        type            calculated;
        value           nonuniform List<scalar> 
18
(
9765.65830616
9765.71070305
9765.69514127
9765.66318257
9765.61849024
9765.56350877
9765.50118325
9765.43478245
9765.36809989
9765.3055592
9765.25229809
9765.21425007
9765.19823106
9765.21203397
9765.26453284
9765.36579734
9765.5272139
9765.76162033
)
;
    }
    front
    {
        type            calculated;
        value           nonuniform List<scalar> 
167
(
9520.84975351
9031.17761159
8541.57235193
8051.98481847
7562.41442136
7072.8628042
6583.33205974
6093.82495069
9520.90215011
9031.22865706
8541.62500758
8052.03878459
7562.46599355
7072.9103596
6583.37450302
6093.86141598
9520.88658826
9031.20759672
8541.60170836
8052.01326436
7562.43684217
7072.8764527
6583.33486742
6093.81522309
9520.8546296
9031.16862531
8541.55847826
8051.96535614
7562.38296726
7072.81529879
6583.26519457
6093.73592546
5604.23113541
9520.80993735
9031.11874933
8541.50360627
8051.9039953
7562.31331099
7072.73560602
6583.17383499
6093.63143375
5604.11224957
5114.62048009
9520.75495596
9031.05833135
8541.4371912
8051.82935206
7562.22804962
7072.63749096
6583.06079614
6093.501616
5603.96405203
5114.4525895
9520.69263054
9030.98978561
8541.36148536
8051.74359677
7562.1292363
7072.52283963
6582.92774924
6093.34788784
5603.78767144
5114.25193719
9520.62622984
9030.916153
8541.27937406
8051.64946651
7562.01942723
7072.39398212
6582.77675178
6093.17199085
5603.58449666
5114.01952959
9520.55954739
9030.84108923
8541.19435904
8051.55027701
7561.90170734
7072.25372171
6582.61027374
6092.9760135
5603.35619039
5113.75656868
9520.49700684
9030.76891156
8541.11059847
8051.44997023
7561.77974277
7072.10538767
6582.4312475
6092.76243423
5603.10472669
5113.46447838
9520.44374587
9030.70465836
8541.03295937
8051.35316712
7561.65783446
7071.95288791
6582.24311683
6092.53416598
5602.83242569
5113.14493409
9520.405698
9030.65416135
8540.96708512
8051.26523333
7561.5409825
7071.8007707
6582.04989476
6092.29460703
5602.54199905
5112.79989552
9520.38967913
9030.62412894
8540.91947587
8051.19235765
7561.43496255
7071.65429829
6581.85623226
6092.04770405
5602.23660187
5112.43165016
9520.40348216
9030.62224037
8540.89758124
8051.14164332
7561.34641536
7071.51953333
6581.66750013
6091.79802594
5601.91989878
5112.04286447
9520.45598114
9030.65725096
8540.90990537
8051.12121266
7561.28295063
7071.40344065
6581.48988622
6091.55085469
5601.59614239
5111.6366487
9520.55724555
9030.73910877
8540.96612468
8051.14032614
7561.25326657
7071.31400447
6581.33050957
6091.31229269
5601.27026961
5111.21663784
9520.7186619
9030.87908046
8541.07721805
8051.20951523
7561.26728172
7071.26036757
6581.19755774
9520.95306851
9031.08989204
8541.25560804
8051.34072592
7561.33630031
8541.51531893
8051.54750011
)
;
    }
    atmosphere
    {
        type            calculated;
        value           nonuniform List<scalar> 0();
    }
    floatingObject
    {
        type            calculated;
        value           nonuniform List<scalar> 0();
    }
    procBoundary2to0
    {
        type            processor;
        value           nonuniform List<scalar> 
14
(
6091.08938914
5600.94801723
5110.78708288
7071.25298708
6091.08938914
6581.10044074
9521.2748985
9031.38587424
7071.25298708
7561.47317238
9031.38587424
8541.87214462
7561.47317238
8051.84513959
)
;
    }
    procBoundary2to1
    {
        type            processor;
        value           nonuniform List<scalar> 
18
(
5604.34468492
5604.37444423
5604.3209995
5604.3209995
5114.75479229
5114.75479229
4625.1606108
4624.97202176
4624.74585943
4624.48272583
4624.18333185
4623.84851698
4623.47926665
4623.07673653
4622.64228079
4622.17748864
4621.68423127
4621.16471503
)
;
    }
}


// ************************************************************************* //
