/*--------------------------------*- C++ -*----------------------------------*\
| =========                 |                                                 |
| \\      /  F ield         | OpenFOAM: The Open Source CFD Toolbox           |
|  \\    /   O peration     | Version:  v2012                                 |
|   \\  /    A nd           | Website:  www.openfoam.com                      |
|    \\/     M anipulation  |                                                 |
\*---------------------------------------------------------------------------*/
FoamFile
{
    version     2.0;
    format      ascii;
    class       volVectorField;
    location    "2.6";
    object      ddtCorrDdt0(U);
}
// * * * * * * * * * * * * * * * * * * * * * * * * * * * * * * * * * * * * * //

dimensions      [0 1 -2 0 0 0 0];


internalField   nonuniform List<vector> 
166
(
(0.138314395948 -0.0616085191848 7.28822768727e-24)
(0.141873016653 -0.0724812293522 2.05754654284e-23)
(0.146001193032 -0.0849139942321 -1.36605567975e-23)
(0.150774911618 -0.0992992350596 1.25171376798e-23)
(0.156287045523 -0.116204019828 -1.00116215408e-22)
(0.162564282049 -0.136379716616 -5.09646654454e-23)
(0.169667654671 -0.161036773471 -4.69247988845e-22)
(0.177701897832 -0.192238306801 -7.56705791231e-22)
(0.187188433867 -0.234588577749 -4.16703353919e-21)
(0.197979600563 -0.284925027129 -1.16746927738e-20)
(0.203830351396 -0.256248924402 -1.55078551071e-21)
(0.0134978811177 -0.336972316559 5.11923423756e-19)
(-13.8596424289 -6.43570245818 -5.99132973751e-19)
(0.14130965897 -0.0402585907559 -1.96338391914e-23)
(0.144557596192 -0.0486428299634 1.65408906614e-24)
(0.148473662785 -0.0578036422828 -3.27766657255e-23)
(0.153095478943 -0.0680178523815 3.14058601668e-24)
(0.15863668124 -0.0796140811804 -2.19693235887e-23)
(0.165281200514 -0.0929982339139 2.60456687003e-23)
(0.173312635924 -0.108681771258 -1.73628459204e-22)
(0.183109149687 -0.127353470814 -4.7954440387e-23)
(0.195239113586 -0.150065263267 -1.76627651639e-22)
(0.210579779889 -0.178387756998 -1.44761460303e-21)
(0.231369759304 -0.21670256655 1.83197973597e-22)
(0.259777729639 -0.259578763636 3.563915807e-20)
(0.277473640063 -0.241642254492 -1.43516357209e-20)
(0.218409939468 -0.248231051075 -1.86888102977e-18)
(-4.61879343075 -4.41502200962 8.42626058439e-19)
(0.1409798895 -0.0030485345125 8.30184433704e-23)
(0.140795504739 -0.00987271860105 -1.13711436579e-21)
(0.14617092983 -0.0298153911241 3.42067637095e-23)
(0.149306522261 -0.0370388161819 1.1500321135e-23)
(0.15314198759 -0.0447337577078 1.26721887774e-23)
(0.157798780454 -0.0530768069498 1.11283163982e-23)
(0.163438395174 -0.0623061919476 -6.88722069662e-23)
(0.170283222953 -0.0726938516753 2.71777399919e-23)
(0.178622650292 -0.0845669948822 -8.0371056594e-23)
(0.188869726785 -0.0982981695876 -1.32076703107e-22)
(0.201620635999 -0.114365432075 1.0583237233e-22)
(0.217782471047 -0.133458120386 -1.74661253653e-22)
(0.238757789871 -0.156240603621 9.95176858268e-23)
(0.267582700913 -0.18617714485 5.38685739152e-22)
(0.3090862074 -0.217779221597 4.81117735339e-20)
(0.347541516392 -0.201205702597 -1.61848087671e-22)
(0.596750554807 -0.221914362559 -9.06960089879e-20)
(1.04288811943 -2.37256462722 -4.58951938229e-19)
(0.147114716927 -0.00271030844014 9.0867531701e-23)
(0.146942667837 -0.00893344748583 -1.16639943264e-21)
(0.148046017253 -0.0146631782545 2.17167515559e-23)
(0.150184171999 -0.0207121102665 1.44307069274e-22)
(0.152984553572 -0.0268731290884 2.46798081072e-23)
(0.156487921745 -0.0333415612895 -6.41725327747e-24)
(0.160825570224 -0.0401736552153 -4.19540251437e-23)
(0.166136019347 -0.0475114260416 6.13683189053e-23)
(0.172604347678 -0.0555272604216 -4.15500696768e-23)
(0.180487023929 -0.0644159749343 -8.69692448237e-23)
(0.190128006921 -0.0743893443811 1.97300012832e-22)
(0.202015415635 -0.085653295432 -2.90219554011e-22)
(0.216825763073 -0.0984146507166 3.04173164643e-22)
(0.235564823339 -0.112913139653 -4.57554056832e-22)
(0.259722017556 -0.128762736613 1.29441170814e-21)
(0.291695301241 -0.147930623862 -5.00150920833e-21)
(0.335306776097 -0.161239034717 5.33290441292e-20)
(0.378366687675 -0.140878464044 -5.03752851258e-21)
(0.701193451724 -0.175973051125 8.34232892915e-21)
(2.7866451323 -0.223598014959 -1.48565046641e-19)
(0.152656875564 -0.00235048451902 3.40326278354e-22)
(0.15246569634 -0.00790098711386 4.02898877123e-22)
(0.153679470247 -0.0129384986742 1.45949589277e-22)
(0.155986166567 -0.0182569187989 1.15139056935e-22)
(0.158999684443 -0.0236391568316 3.53342740251e-23)
(0.162799990643 -0.0292424132007 2.72768074057e-23)
(0.167523143694 -0.0350971325133 -2.01825981626e-24)
(0.173316710825 -0.0412988340667 6.17520764083e-24)
(0.180380820853 -0.0479504971627 -4.95829375357e-23)
(0.188966755408 -0.0551595005564 -2.5991068005e-23)
(0.199445930762 -0.0630193394733 4.48462192514e-23)
(0.212301178252 -0.0715784868635 -6.13170168061e-23)
(0.228199473743 -0.080803974877 2.90570190972e-22)
(0.248035847348 -0.0906470212967 1.23607803873e-22)
(0.273132559783 -0.100265248557 -1.32123981312e-21)
(0.304812680904 -0.111881021992 -1.2044647363e-21)
(0.344955361455 -0.118033367707 -1.63459981132e-20)
(0.381263881756 -0.106622885846 -8.40801463471e-21)
(0.582485290193 -0.157225207599 -9.94914288828e-20)
(1.63610565526 0.258879148885 -1.7503026097e-19)
(0.157503677146 -0.00197399685102 7.31954152527e-22)
(0.157278759201 -0.00679804602802 2.12322239491e-24)
(0.158560449679 -0.0110922920179 4.14222804949e-23)
(0.16098275589 -0.0156355939975 1.5121274935e-22)
(0.164158239606 -0.0201860371627 4.38085099237e-23)
(0.168163658926 -0.0248608481651 -8.7734793411e-24)
(0.173137644296 -0.0296709916094 5.64100237315e-24)
(0.179219044472 -0.034657578892 1.38816442302e-23)
(0.186618538265 -0.0398744419079 -5.62595121351e-23)
(0.195573664015 -0.0453406428427 1.33055764877e-23)
(0.206424516914 -0.0510377365666 1.66371160352e-23)
(0.21960415641 -0.0568791821749 -1.953533477e-22)
(0.235705896925 -0.0626779363075 2.20253623458e-22)
(0.255439958571 -0.0681613726102 3.83508127944e-22)
(0.279968757523 -0.0722764216405 1.82922690367e-22)
(0.310428670527 -0.0767532078858 -1.07771357981e-21)
(0.348534161098 -0.0737544114124 -7.96722199964e-21)
(0.386649196199 -0.0651904501663 -7.55343581415e-21)
(0.533097022723 -0.0885203655648 2.81073246663e-20)
(0.968754651906 0.390972696529 2.48402920613e-20)
(0.161611510478 -0.00158878641806 6.01718595938e-22)
(0.161343040581 -0.00565948956894 -2.80365545452e-22)
(0.162654904567 -0.00918248517322 -1.54837453082e-22)
(0.165142845679 -0.0129074079734 6.48570105749e-23)
(0.168407414481 -0.0165896140303 3.36711361749e-23)
(0.172515249926 -0.020309755545 2.67903723317e-25)
(0.17759822709 -0.0240592331127 5.83779304403e-24)
(0.183793668462 -0.027822774888 -2.10440533384e-23)
(0.19128757375 -0.0315933024255 -6.44957451947e-24)
(0.200300456465 -0.0353446692269 -1.41144647145e-23)
(0.211101728397 -0.0389751333739 -1.2468099767e-23)
(0.22405348456 -0.0422720401376 -1.02281909545e-22)
(0.23959622646 -0.0449748648537 -2.0698755546e-23)
(0.258286890635 -0.0466006580635 6.55358762308e-23)
(0.281006691809 -0.0459706070605 2.52262373468e-22)
(0.308541000516 -0.0436319245598 2.39334609544e-21)
(0.344022269533 -0.0325200237856 9.2957200837e-21)
(0.378956480512 -0.0245144683355 -3.4286469544e-21)
(0.456674934828 -0.0145176165401 -1.02919052853e-19)
(0.68397861838 0.318260697969 -1.26603127252e-20)
(0.164955732118 -0.00119835864108 3.91490270191e-22)
(0.16463322601 -0.00450117380676 -6.51863763033e-23)
(0.165945205666 -0.00724233247413 -2.39414381503e-24)
(0.168451695061 -0.0101405359972 1.16512938492e-22)
(0.17173127113 -0.0129516236697 2.18263858813e-23)
(0.175844338426 -0.0157209774742 1.64325741972e-23)
(0.180909142119 -0.0184113470778 6.59756766939e-24)
(0.187064871299 -0.0209763491454 5.76359736407e-24)
(0.194444609701 -0.0233672966415 -2.16362021492e-24)
(0.20324198825 -0.0255191837703 -5.4712451744e-25)
(0.213667227675 -0.0272655009202 -1.82222508971e-23)
(0.225976103321 -0.0283577081573 -1.2223349016e-23)
(0.240415903507 -0.0284582636542 -5.51748204154e-23)
(0.257351505845 -0.0269514053891 -2.22037474841e-22)
(0.277233036121 -0.022706653198 -1.11713184594e-22)
(0.300385044432 -0.0145844911384 2.68683679171e-21)
(0.32993282003 0.00242361905166 2.05212831322e-22)
(0.356131552276 0.0105384653535 1.95829166202e-21)
(0.324244500329 0.0475930441056 2.09433696868e-21)
(0.503350506735 0.181874676164 -6.27717968554e-19)
(0.167511910268 -0.000806572999999 3.65735347813e-22)
(0.16712092461 -0.0033481819155 -3.87965902047e-22)
(0.168421175657 -0.00531668572748 -1.81753435772e-23)
(0.170898480953 -0.00738776466168 9.32126162522e-23)
(0.17413345371 -0.00934071818739 7.64613271232e-24)
(0.178169844167 -0.0111855324955 8.69778161151e-24)
(0.183115174155 -0.0128585962633 -4.08046176984e-24)
(0.189082405162 -0.0142954089248 3.94175324107e-24)
(0.196182880415 -0.015418371549 8.26217920496e-24)
(0.204564127373 -0.016114836545 3.20450857704e-23)
(0.214388000877 -0.0162222854434 -7.89689098082e-24)
(0.225779372334 -0.0155048691336 5.76907611644e-23)
(0.238855143629 -0.0136110225761 -7.75974752213e-23)
(0.253703312561 -0.00996575146257 2.55441637498e-22)
(0.270250831479 -0.00367360724556 -5.35375048199e-22)
(0.28811030811 0.00762102966897 1.70441576514e-21)
(0.308855975808 0.0299083017503 -6.0138214106e-21)
(0.317733045241 0.0409941858953 9.13301253237e-21)
(0.130026469036 0.0765408517748 -1.37180166614e-19)
(0.612442264959 0.577439706854 4.19751852182e-19)
)
;

boundaryField
{
    back
    {
        type            calculated;
        value           uniform (0 0 0);
    }
    sides
    {
        type            calculated;
        value           nonuniform List<vector> 0();
    }
    bottom
    {
        type            calculated;
        value           uniform (0 0 0);
    }
    front
    {
        type            calculated;
        value           uniform (0 0 0);
    }
    atmosphere
    {
        type            calculated;
        value           nonuniform List<vector> 9((0.111532679665 -6.43570245818 1.05933883097e-19) (-1.71390561091 -4.41502200962 2.6854634233e-18) (2.01605202097 -2.37256462722 -7.66983903599e-19) (-0.653022535312 -0.223598014959 -8.24558312503e-19) (0.570384056586 0.258879148885 1.20119082982e-19) (0.0352066904909 0.390972696529 1.81720867751e-21) (0.00144298424752 0.318260697969 3.67931140196e-23) (-1.98018703325e-06 0.181874676164 -5.36778449464e-26) (3.73224291914 0.577439706854 -6.26718605289e-19));
    }
    floatingObject
    {
        type            calculated;
        value           nonuniform List<vector> 0();
    }
    procBoundary0to1
    {
        type            processor;
        value           nonuniform List<vector> 10((0.13570051173 -0.103321345332 6.67138878312e-23) (0.138649210634 -0.120508290562 -1.30285765463e-23) (0.141315338568 -0.140761178279 1.71880305829e-22) (0.143212383017 -0.165208557363 2.82691561118e-23) (0.143441699862 -0.195888057324 1.60612487858e-22) (0.140070047507 -0.237341267257 -3.37999626077e-21) (0.129675265254 -0.291031774987 -1.42934956023e-20) (0.0990399739737 -0.274368910385 -3.93491201209e-21) (-0.289654537818 -0.362481534456 1.65041932569e-19) (-40.1954135133 -16.3503344804 -1.11077931859e-18));
    }
    procBoundary0to2
    {
        type            processor;
        value           nonuniform List<vector> 
14
(
(0.127665955565 -0.0644210958437 8.88268716846e-24)
(0.130120391201 -0.0757173778611 -2.70992301225e-23)
(0.132827311192 -0.0885416036835 -3.58702556207e-23)
(0.132692533051 -0.0429086119537 -3.07220387392e-23)
(0.135262144105 -0.0518800203804 -2.42082780847e-23)
(0.135262144105 -0.0518800203804 -2.42082780847e-23)
(0.134293379479 -0.00333401401061 6.73047866099e-22)
(0.134078788683 -0.010693949763 -8.33725612963e-22)
(0.138650854231 -0.0323916119688 1.67667241086e-23)
(0.138650854231 -0.0323916119688 1.67667241086e-23)
(0.141766282896 -0.016234648409 -3.45975444905e-24)
(0.141766282896 -0.016234648409 -3.45975444905e-24)
(0.143666458159 -0.0229604925277 2.88555731465e-23)
(0.143666458159 -0.0229604925277 2.88555731465e-23)
)
;
    }
    procBoundary0to4
    {
        type            processor;
        value           nonuniform List<vector> 8((0.169296303898 -0.000437501304027 1.03596032164e-22) (0.168826577164 -0.00221305053094 5.76374112895e-23) (0.170100123105 -0.0034247536815 7.00274512747e-23) (0.172516572407 -0.00470164940422 1.36884713692e-22) (0.175658724569 -0.00582789203579 1.82364244145e-23) (0.179554614634 -0.00679365008233 -2.07245721366e-24) (0.184297067469 -0.00751801337473 1.24512844414e-24) (0.189974997744 -0.00791497836277 2.76215723055e-24));
    }
    procBoundary0to5
    {
        type            processor;
        value           nonuniform List<vector> 
12
(
(0.19666942778 -0.00788719658052 8.99883549182e-24)
(0.20449749836 -0.00730678138563 1.36807336818e-23)
(0.21356039981 -0.00604008464632 -1.04009120753e-23)
(0.223927389999 -0.00388326456302 3.0609677084e-23)
(0.23561844228 -0.00057245227924 -1.19926765228e-22)
(0.248503834191 0.0042528536646 -4.16430200852e-23)
(0.262147745492 0.0108654764296 -7.26139025928e-22)
(0.275259132346 0.0219487704997 5.22731533537e-22)
(0.286423835041 0.0450825031127 3.25276841991e-21)
(0.272203894028 0.0603998668463 2.76229269388e-21)
(0.00898905238261 0.0983745255747 2.69347652755e-19)
(-0.523874407302 1.45032882528 1.93333006002e-19)
)
;
    }
}


// ************************************************************************* //
