/*--------------------------------*- C++ -*----------------------------------*\
| =========                 |                                                 |
| \\      /  F ield         | OpenFOAM: The Open Source CFD Toolbox           |
|  \\    /   O peration     | Version:  v2012                                 |
|   \\  /    A nd           | Website:  www.openfoam.com                      |
|    \\/     M anipulation  |                                                 |
\*---------------------------------------------------------------------------*/
FoamFile
{
    version     2.0;
    format      ascii;
    class       volScalarField;
    location    "2.6";
    object      epsilon;
}
// * * * * * * * * * * * * * * * * * * * * * * * * * * * * * * * * * * * * * //

dimensions      [0 2 -3 0 0 0 0];


internalField   nonuniform List<scalar> 
166
(
0.00356216332957
0.00357383110786
0.00358767977601
0.0036062971666
0.00363746511978
0.0037027759084
0.00385286849255
0.00418786381498
0.00488018263381
0.00624647833392
0.00926642105887
0.0217734830465
0.136252960094
0.00355247533896
0.00356260264842
0.00357274301262
0.00358411658494
0.00359764832152
0.00361574705555
0.00364595884327
0.00370933089095
0.0038562356717
0.00419122349852
0.00491954571976
0.00648540550189
0.0100873278159
0.021618771197
0.0905102653043
0.00303324271246
0.00313652471253
0.0035487200318
0.00356292907599
0.00357288790935
0.00358285304696
0.00359405660364
0.00360736053574
0.00362504972872
0.00365435206506
0.00371560909487
0.00385841458815
0.00419089405851
0.00495044977565
0.00671075597021
0.010909261402
0.0218429219399
0.0679536698132
0.00304272625959
0.00314635405916
0.00342939820909
0.00352588200026
0.00355870223203
0.00357276311564
0.00358262999787
0.00359251022494
0.00360361528996
0.00361676051805
0.00363410800019
0.00366255517388
0.00372170748593
0.00386035441595
0.00418962405668
0.00497116252116
0.00686564694273
0.0115483078137
0.0249395872194
0.0997865196437
0.00305137343747
0.00315551693304
0.00343894821733
0.00353534098377
0.00356802119031
0.00358200245977
0.00359183232541
0.00360168773574
0.00361276145507
0.00362581810428
0.00364289761943
0.00367055679633
0.00372770076415
0.00386247690288
0.00418903630183
0.00498796114947
0.00697697190348
0.01201641483
0.0277486211642
0.129357465345
0.003059087099
0.00316396741463
0.00344775538792
0.00354406973997
0.00357666432242
0.00359062124923
0.0036004661743
0.00361034825565
0.00362144951642
0.00363449228243
0.0036513820556
0.00367832131273
0.00373353416161
0.00386462029395
0.00418868633969
0.00500171062772
0.00706583614171
0.0124981789492
0.0321155319007
0.152348480385
0.0030658144266
0.00317164350857
0.00345579008406
0.00355205405685
0.00358460313151
0.00359857739766
0.0036084863096
0.00361846245012
0.00362965901197
0.00364276207468
0.00365953442955
0.00368581720123
0.00373911533103
0.00386649191869
0.00418761374512
0.00501077418466
0.00713189329955
0.0128584256366
0.0345402760983
0.156051979387
0.00307152071911
0.00317850924998
0.00346300706655
0.00355925437525
0.00359179849371
0.00360583525347
0.00361586189406
0.0036260007879
0.00363736573417
0.00365059624296
0.00366733394209
0.0036930440312
0.00374446550119
0.00386799510983
0.00418520783308
0.00501412725378
0.00717691882294
0.0131877624226
0.0367495540944
0.15580732755
0.00307613835258
0.00318443587457
0.00346929658934
0.00356558637836
0.00359818296251
0.00361234093651
0.00362254795909
0.00363291344094
0.00364452834413
0.00365797633061
0.00367477976003
0.00370001012779
0.00374965386083
0.00386929522412
0.00418205413387
0.00501389171699
0.00720473392006
0.013387717223
0.0378346710079
0.138537432194
)
;

boundaryField
{
    back
    {
        lowReCorrection 0;
        blending        stepwise;
        n               2;
        type            epsilonWallFunction;
        value           nonuniform List<scalar> 
166
(
0.00356216332957
0.00357383110786
0.00358767977601
0.0036062971666
0.00363746511978
0.0037027759084
0.00385286849255
0.00418786381498
0.00488018263381
0.00624647833392
0.00926642105887
0.0217734830465
0.136252960094
0.00355247533896
0.00356260264842
0.00357274301262
0.00358411658494
0.00359764832152
0.00361574705555
0.00364595884327
0.00370933089095
0.0038562356717
0.00419122349852
0.00491954571976
0.00648540550189
0.0100873278159
0.021618771197
0.0905102653043
0.00303324271246
0.00313652471253
0.0035487200318
0.00356292907599
0.00357288790935
0.00358285304696
0.00359405660364
0.00360736053574
0.00362504972872
0.00365435206506
0.00371560909487
0.00385841458815
0.00419089405851
0.00495044977565
0.00671075597021
0.010909261402
0.0218429219399
0.0679536698132
0.00304272625959
0.00314635405916
0.00342939820909
0.00352588200026
0.00355870223203
0.00357276311564
0.00358262999787
0.00359251022494
0.00360361528996
0.00361676051805
0.00363410800019
0.00366255517388
0.00372170748593
0.00386035441595
0.00418962405668
0.00497116252116
0.00686564694273
0.0115483078137
0.0249395872194
0.0997865196437
0.00305137343747
0.00315551693304
0.00343894821733
0.00353534098377
0.00356802119031
0.00358200245977
0.00359183232541
0.00360168773574
0.00361276145507
0.00362581810428
0.00364289761943
0.00367055679633
0.00372770076415
0.00386247690288
0.00418903630183
0.00498796114947
0.00697697190348
0.01201641483
0.0277486211642
0.129357465345
0.003059087099
0.00316396741463
0.00344775538792
0.00354406973997
0.00357666432242
0.00359062124923
0.0036004661743
0.00361034825565
0.00362144951642
0.00363449228243
0.0036513820556
0.00367832131273
0.00373353416161
0.00386462029395
0.00418868633969
0.00500171062772
0.00706583614171
0.0124981789492
0.0321155319007
0.152348480385
0.0030658144266
0.00317164350857
0.00345579008406
0.00355205405685
0.00358460313151
0.00359857739766
0.0036084863096
0.00361846245012
0.00362965901197
0.00364276207468
0.00365953442955
0.00368581720123
0.00373911533103
0.00386649191869
0.00418761374512
0.00501077418466
0.00713189329955
0.0128584256366
0.0345402760983
0.156051979387
0.00307152071911
0.00317850924998
0.00346300706655
0.00355925437525
0.00359179849371
0.00360583525347
0.00361586189406
0.0036260007879
0.00363736573417
0.00365059624296
0.00366733394209
0.0036930440312
0.00374446550119
0.00386799510983
0.00418520783308
0.00501412725378
0.00717691882294
0.0131877624226
0.0367495540944
0.15580732755
0.00307613835258
0.00318443587457
0.00346929658934
0.00356558637836
0.00359818296251
0.00361234093651
0.00362254795909
0.00363291344094
0.00364452834413
0.00365797633061
0.00367477976003
0.00370001012779
0.00374965386083
0.00386929522412
0.00418205413387
0.00501389171699
0.00720473392006
0.013387717223
0.0378346710079
0.138537432194
)
;
    }
    sides
    {
        lowReCorrection 0;
        blending        stepwise;
        n               2;
        type            epsilonWallFunction;
        value           nonuniform List<scalar> 0();
    }
    bottom
    {
        lowReCorrection 0;
        blending        stepwise;
        n               2;
        type            epsilonWallFunction;
        value           nonuniform List<scalar> 7(0.00303324271246 0.00304272625959 0.00305137343747 0.003059087099 0.0030658144266 0.00307152071911 0.00307613835258);
    }
    front
    {
        lowReCorrection 0;
        blending        stepwise;
        n               2;
        type            epsilonWallFunction;
        value           nonuniform List<scalar> 
166
(
0.00356216332957
0.00357383110786
0.00358767977601
0.0036062971666
0.00363746511978
0.0037027759084
0.00385286849255
0.00418786381498
0.00488018263381
0.00624647833392
0.00926642105887
0.0217734830465
0.136252960094
0.00355247533896
0.00356260264842
0.00357274301262
0.00358411658494
0.00359764832152
0.00361574705555
0.00364595884327
0.00370933089095
0.0038562356717
0.00419122349852
0.00491954571976
0.00648540550189
0.0100873278159
0.021618771197
0.0905102653043
0.00303324271246
0.00313652471253
0.0035487200318
0.00356292907599
0.00357288790935
0.00358285304696
0.00359405660364
0.00360736053574
0.00362504972872
0.00365435206506
0.00371560909487
0.00385841458815
0.00419089405851
0.00495044977565
0.00671075597021
0.010909261402
0.0218429219399
0.0679536698132
0.00304272625959
0.00314635405916
0.00342939820909
0.00352588200026
0.00355870223203
0.00357276311564
0.00358262999787
0.00359251022494
0.00360361528996
0.00361676051805
0.00363410800019
0.00366255517388
0.00372170748593
0.00386035441595
0.00418962405668
0.00497116252116
0.00686564694273
0.0115483078137
0.0249395872194
0.0997865196437
0.00305137343747
0.00315551693304
0.00343894821733
0.00353534098377
0.00356802119031
0.00358200245977
0.00359183232541
0.00360168773574
0.00361276145507
0.00362581810428
0.00364289761943
0.00367055679633
0.00372770076415
0.00386247690288
0.00418903630183
0.00498796114947
0.00697697190348
0.01201641483
0.0277486211642
0.129357465345
0.003059087099
0.00316396741463
0.00344775538792
0.00354406973997
0.00357666432242
0.00359062124923
0.0036004661743
0.00361034825565
0.00362144951642
0.00363449228243
0.0036513820556
0.00367832131273
0.00373353416161
0.00386462029395
0.00418868633969
0.00500171062772
0.00706583614171
0.0124981789492
0.0321155319007
0.152348480385
0.0030658144266
0.00317164350857
0.00345579008406
0.00355205405685
0.00358460313151
0.00359857739766
0.0036084863096
0.00361846245012
0.00362965901197
0.00364276207468
0.00365953442955
0.00368581720123
0.00373911533103
0.00386649191869
0.00418761374512
0.00501077418466
0.00713189329955
0.0128584256366
0.0345402760983
0.156051979387
0.00307152071911
0.00317850924998
0.00346300706655
0.00355925437525
0.00359179849371
0.00360583525347
0.00361586189406
0.0036260007879
0.00363736573417
0.00365059624296
0.00366733394209
0.0036930440312
0.00374446550119
0.00386799510983
0.00418520783308
0.00501412725378
0.00717691882294
0.0131877624226
0.0367495540944
0.15580732755
0.00307613835258
0.00318443587457
0.00346929658934
0.00356558637836
0.00359818296251
0.00361234093651
0.00362254795909
0.00363291344094
0.00364452834413
0.00365797633061
0.00367477976003
0.00370001012779
0.00374965386083
0.00386929522412
0.00418205413387
0.00501389171699
0.00720473392006
0.013387717223
0.0378346710079
0.138537432194
)
;
    }
    atmosphere
    {
        type            inletOutlet;
        inletValue      uniform 0.1;
        value           uniform 0.1;
    }
    floatingObject
    {
        lowReCorrection 0;
        blending        stepwise;
        n               2;
        type            epsilonWallFunction;
        value           nonuniform List<scalar> 0();
    }
    procBoundary0to1
    {
        type            processor;
        value           nonuniform List<scalar> 10(0.00359646227094 0.00362851506665 0.00369549585342 0.00384789842113 0.00418162256997 0.00484848163733 0.0061128418938 0.00892679370051 0.0192218458401 0.102534155707);
    }
    procBoundary0to2
    {
        type            processor;
        value           nonuniform List<scalar> 
14
(
0.00355129766589
0.00356316449798
0.00357735405088
0.0035416079329
0.00355189377678
0.00355189377678
0.0030229806727
0.00312612989865
0.00353818406694
0.00353818406694
0.00341920657307
0.00341920657307
0.00351578133324
0.00351578133324
)
;
    }
    procBoundary0to4
    {
        type            processor;
        value           nonuniform List<scalar> 8(0.00307969897971 0.00318931771434 0.00347455608437 0.00357096351359 0.00360368600468 0.00361803177643 0.0036284913719 0.00363915426639);
    }
    procBoundary0to5
    {
        type            processor;
        value           nonuniform List<scalar> 
12
(
0.00365109873566
0.00366488429863
0.00368186703046
0.00370677467324
0.00375485131626
0.00387092269904
0.00418005744335
0.00501867065662
0.00722119008393
0.0130171171554
0.0332667462005
0.106126837859
)
;
    }
}


// ************************************************************************* //
