/*--------------------------------*- C++ -*----------------------------------*\
| =========                 |                                                 |
| \\      /  F ield         | OpenFOAM: The Open Source CFD Toolbox           |
|  \\    /   O peration     | Version:  v2012                                 |
|   \\  /    A nd           | Website:  www.openfoam.com                      |
|    \\/     M anipulation  |                                                 |
\*---------------------------------------------------------------------------*/
FoamFile
{
    version     2.0;
    format      ascii;
    class       volScalarField;
    location    "0.7";
    object      k_0;
}
// * * * * * * * * * * * * * * * * * * * * * * * * * * * * * * * * * * * * * //

dimensions      [0 2 -2 0 0 0 0];


internalField   nonuniform List<scalar> 
167
(
0.0290377298689
0.0290584634553
0.0290912774443
0.0291903660321
0.0296055367039
0.0312562048525
0.0366940068982
0.0507805909402
0.079340110547
0.0290260453144
0.0290575262458
0.0291509637721
0.0295448096817
0.0311338704792
0.0364562914908
0.0504609815553
0.0791846903577
0.0289954133913
0.0290258385662
0.0291142664785
0.0294885665413
0.0310199565183
0.0362321383116
0.0501563075035
0.0790393497424
0.0289463724946
0.0289665585033
0.0289961714517
0.0290801954697
0.029436704251
0.0309144901795
0.0360220963631
0.0498678857337
0.0789040341862
0.0289191687581
0.0289394838985
0.0289684987231
0.0290486841865
0.0293891092123
0.0308174374773
0.0358266897629
0.049596719871
0.0787784828836
0.0288936257338
0.0289141924799
0.028942803358
0.0290196743714
0.0293456581443
0.0307286760711
0.0356460895501
0.0493435232664
0.0786623846838
0.0288501340752
0.0288697744578
0.028890701337
0.0289190798563
0.0289931180202
0.0293062305754
0.0306480586155
0.0354804589334
0.0491090906199
0.0785560234822
0.0288076400996
0.0288274070179
0.0288476670284
0.0288690406668
0.0288973343216
0.0289689800148
0.0292707192761
0.0305754453296
0.0353299231383
0.0488941299993
0.0784593961073
0.0287858487666
0.0288064185486
0.0288273605169
0.0288492503958
0.0288775832316
0.0289472368667
0.0292390323271
0.0305107253302
0.0351947407884
0.0486994232511
0.0783723783339
0.0287872431779
0.0288089137013
0.0288313698831
0.0288598421875
0.0289278655515
0.0292110743648
0.0304537198258
0.0350747995317
0.0485253842377
0.0782954495509
0.028769873618
0.0287923037495
0.028815356294
0.0288440459903
0.0289107683394
0.0291866960861
0.0304042790271
0.0349702901151
0.0483724658823
0.0782279082933
0.0287536587946
0.028776857196
0.0288005217832
0.0288294948901
0.0288952281027
0.0291651548379
0.0303616994285
0.0348808197406
0.0482409414653
0.0781696795301
0.0287336911526
0.0287576796178
0.0287819957928
0.0288113501462
0.0288764413991
0.0291417028754
0.0303215126367
0.0348031219404
0.0481289851605
0.0781187206552
0.0286809879538
0.0287058949746
0.0287310328338
0.0287610174896
0.0288259735006
0.0290881050706
0.0302562120531
0.0347131453859
0.04802137966
0.0780713418911
0.0284226467733
0.0284490628467
0.0284751837243
0.028501524881
0.0285326197629
0.0285981006073
0.0288585720675
0.0300208769021
0.0344755186082
0.0478151350042
0.0779961524793
0.0273842677934
0.0274117534077
0.0274389928709
0.0274664922131
0.027498541643
0.0275635220172
0.0278180408672
0.0289658821662
0.0334356916275
0.0469520908465
0.0776566792507
0.0227888599543
0.0228163019946
0.0228431652362
0.0228696553391
0.0228982021494
0.0229473724377
0.0231327969387
0.0240380004822
0.027942993595
0.0411661972623
0.0747642928687
)
;

boundaryField
{
    back
    {
        type            kqRWallFunction;
        value           nonuniform List<scalar> 
167
(
0.0290377298689
0.0290584634553
0.0290912774443
0.0291903660321
0.0296055367039
0.0312562048525
0.0366940068982
0.0507805909402
0.079340110547
0.0290260453144
0.0290575262458
0.0291509637721
0.0295448096817
0.0311338704792
0.0364562914908
0.0504609815553
0.0791846903577
0.0289954133913
0.0290258385662
0.0291142664785
0.0294885665413
0.0310199565183
0.0362321383116
0.0501563075035
0.0790393497424
0.0289463724946
0.0289665585033
0.0289961714517
0.0290801954697
0.029436704251
0.0309144901795
0.0360220963631
0.0498678857337
0.0789040341862
0.0289191687581
0.0289394838985
0.0289684987231
0.0290486841865
0.0293891092123
0.0308174374773
0.0358266897629
0.049596719871
0.0787784828836
0.0288936257338
0.0289141924799
0.028942803358
0.0290196743714
0.0293456581443
0.0307286760711
0.0356460895501
0.0493435232664
0.0786623846838
0.0288501340752
0.0288697744578
0.028890701337
0.0289190798563
0.0289931180202
0.0293062305754
0.0306480586155
0.0354804589334
0.0491090906199
0.0785560234822
0.0288076400996
0.0288274070179
0.0288476670284
0.0288690406668
0.0288973343216
0.0289689800148
0.0292707192761
0.0305754453296
0.0353299231383
0.0488941299993
0.0784593961073
0.0287858487666
0.0288064185486
0.0288273605169
0.0288492503958
0.0288775832316
0.0289472368667
0.0292390323271
0.0305107253302
0.0351947407884
0.0486994232511
0.0783723783339
0.0287872431779
0.0288089137013
0.0288313698831
0.0288598421875
0.0289278655515
0.0292110743648
0.0304537198258
0.0350747995317
0.0485253842377
0.0782954495509
0.028769873618
0.0287923037495
0.028815356294
0.0288440459903
0.0289107683394
0.0291866960861
0.0304042790271
0.0349702901151
0.0483724658823
0.0782279082933
0.0287536587946
0.028776857196
0.0288005217832
0.0288294948901
0.0288952281027
0.0291651548379
0.0303616994285
0.0348808197406
0.0482409414653
0.0781696795301
0.0287336911526
0.0287576796178
0.0287819957928
0.0288113501462
0.0288764413991
0.0291417028754
0.0303215126367
0.0348031219404
0.0481289851605
0.0781187206552
0.0286809879538
0.0287058949746
0.0287310328338
0.0287610174896
0.0288259735006
0.0290881050706
0.0302562120531
0.0347131453859
0.04802137966
0.0780713418911
0.0284226467733
0.0284490628467
0.0284751837243
0.028501524881
0.0285326197629
0.0285981006073
0.0288585720675
0.0300208769021
0.0344755186082
0.0478151350042
0.0779961524793
0.0273842677934
0.0274117534077
0.0274389928709
0.0274664922131
0.027498541643
0.0275635220172
0.0278180408672
0.0289658821662
0.0334356916275
0.0469520908465
0.0776566792507
0.0227888599543
0.0228163019946
0.0228431652362
0.0228696553391
0.0228982021494
0.0229473724377
0.0231327969387
0.0240380004822
0.027942993595
0.0411661972623
0.0747642928687
)
;
    }
    sides
    {
        type            kqRWallFunction;
        value           nonuniform List<scalar> 
11
(
0.0227888599543
0.0228163019946
0.0228431652362
0.0228696553391
0.0228982021494
0.0229473724377
0.0231327969387
0.0240380004822
0.027942993595
0.0411661972623
0.0747642928687
)
;
    }
    bottom
    {
        type            kqRWallFunction;
        value           nonuniform List<scalar> 0();
    }
    front
    {
        type            kqRWallFunction;
        value           nonuniform List<scalar> 
167
(
0.0290377298689
0.0290584634553
0.0290912774443
0.0291903660321
0.0296055367039
0.0312562048525
0.0366940068982
0.0507805909402
0.079340110547
0.0290260453144
0.0290575262458
0.0291509637721
0.0295448096817
0.0311338704792
0.0364562914908
0.0504609815553
0.0791846903577
0.0289954133913
0.0290258385662
0.0291142664785
0.0294885665413
0.0310199565183
0.0362321383116
0.0501563075035
0.0790393497424
0.0289463724946
0.0289665585033
0.0289961714517
0.0290801954697
0.029436704251
0.0309144901795
0.0360220963631
0.0498678857337
0.0789040341862
0.0289191687581
0.0289394838985
0.0289684987231
0.0290486841865
0.0293891092123
0.0308174374773
0.0358266897629
0.049596719871
0.0787784828836
0.0288936257338
0.0289141924799
0.028942803358
0.0290196743714
0.0293456581443
0.0307286760711
0.0356460895501
0.0493435232664
0.0786623846838
0.0288501340752
0.0288697744578
0.028890701337
0.0289190798563
0.0289931180202
0.0293062305754
0.0306480586155
0.0354804589334
0.0491090906199
0.0785560234822
0.0288076400996
0.0288274070179
0.0288476670284
0.0288690406668
0.0288973343216
0.0289689800148
0.0292707192761
0.0305754453296
0.0353299231383
0.0488941299993
0.0784593961073
0.0287858487666
0.0288064185486
0.0288273605169
0.0288492503958
0.0288775832316
0.0289472368667
0.0292390323271
0.0305107253302
0.0351947407884
0.0486994232511
0.0783723783339
0.0287872431779
0.0288089137013
0.0288313698831
0.0288598421875
0.0289278655515
0.0292110743648
0.0304537198258
0.0350747995317
0.0485253842377
0.0782954495509
0.028769873618
0.0287923037495
0.028815356294
0.0288440459903
0.0289107683394
0.0291866960861
0.0304042790271
0.0349702901151
0.0483724658823
0.0782279082933
0.0287536587946
0.028776857196
0.0288005217832
0.0288294948901
0.0288952281027
0.0291651548379
0.0303616994285
0.0348808197406
0.0482409414653
0.0781696795301
0.0287336911526
0.0287576796178
0.0287819957928
0.0288113501462
0.0288764413991
0.0291417028754
0.0303215126367
0.0348031219404
0.0481289851605
0.0781187206552
0.0286809879538
0.0287058949746
0.0287310328338
0.0287610174896
0.0288259735006
0.0290881050706
0.0302562120531
0.0347131453859
0.04802137966
0.0780713418911
0.0284226467733
0.0284490628467
0.0284751837243
0.028501524881
0.0285326197629
0.0285981006073
0.0288585720675
0.0300208769021
0.0344755186082
0.0478151350042
0.0779961524793
0.0273842677934
0.0274117534077
0.0274389928709
0.0274664922131
0.027498541643
0.0275635220172
0.0278180408672
0.0289658821662
0.0334356916275
0.0469520908465
0.0776566792507
0.0227888599543
0.0228163019946
0.0228431652362
0.0228696553391
0.0228982021494
0.0229473724377
0.0231327969387
0.0240380004822
0.027942993595
0.0411661972623
0.0747642928687
)
;
    }
    atmosphere
    {
        type            inletOutlet;
        inletValue      uniform 0.1;
        value           uniform 0.1;
    }
    floatingObject
    {
        type            kqRWallFunction;
        value           nonuniform List<scalar> 0();
    }
    procBoundary11to9
    {
        type            processor;
        value           nonuniform List<scalar> 9(0.0290713776745 0.0290926605684 0.0291270992582 0.0292325129935 0.0296707989382 0.0313868096893 0.0369443657563 0.0511133160021 0.0795053378148);
    }
    procBoundary11to10
    {
        type            processor;
        value           nonuniform List<scalar> 
23
(
0.0290194365203
0.0290056608732
0.0290056608732
0.0289752017007
0.0289752017007
0.0289279787812
0.0289004680912
0.0288745058529
0.0288745058529
0.0288310780787
0.0288310780787
0.0287884863527
0.0287657931876
0.0287658136628
0.0287658136628
0.0287475441011
0.0287304184085
0.0287095223591
0.0286558024466
0.0286558024466
0.028395969358
0.0273565376406
0.0227608916488
)
;
    }
}


// ************************************************************************* //
