/*--------------------------------*- C++ -*----------------------------------*\
| =========                 |                                                 |
| \\      /  F ield         | OpenFOAM: The Open Source CFD Toolbox           |
|  \\    /   O peration     | Version:  v2012                                 |
|   \\  /    A nd           | Website:  www.openfoam.com                      |
|    \\/     M anipulation  |                                                 |
\*---------------------------------------------------------------------------*/
FoamFile
{
    version     2.0;
    format      ascii;
    class       volVectorField;
    location    "2.8";
    object      U;
}
// * * * * * * * * * * * * * * * * * * * * * * * * * * * * * * * * * * * * * //

dimensions      [0 1 -1 0 0 0 0];


internalField   nonuniform List<vector> 
164
(
(0.0220236241683 0.00411913874246 1.03662355282e-23)
(0.0228852619023 0.00509904123241 -3.29137664987e-24)
(0.0239024331937 0.00628979615927 -1.55719967654e-23)
(0.0251085279997 0.00773302485658 1.81199020175e-23)
(0.0265119816897 0.00942786074696 1.33956024009e-22)
(0.0280532709009 0.0113856845109 2.02514261578e-22)
(0.0296889579729 0.0136391885315 -2.20988040984e-22)
(0.0318698692102 0.0157183306229 -1.64657848782e-21)
(0.0367135701383 0.0185338561213 -4.05352908657e-21)
(0.0478810788307 0.018462001641 -5.63466502595e-21)
(0.131729577612 0.0140779864699 1.9905310808e-21)
(0.158423798871 0.145534362497 -1.91833506354e-20)
(0.0210796372063 0.00483796464033 2.22630706214e-23)
(0.021736063575 0.00594618449023 2.1450207799e-23)
(0.0225148597406 0.00729317891235 2.28411400276e-24)
(0.023438387701 0.00892315377796 5.54491361614e-23)
(0.0245403885439 0.0108607502782 2.46260209709e-22)
(0.0258749002484 0.0130937808534 5.26033020045e-22)
(0.0275119549063 0.0156149436797 -3.44169063072e-22)
(0.0300957057626 0.0179413511245 -2.33529677515e-21)
(0.0357708598662 0.0207486695257 -1.05174429312e-20)
(0.0450356702472 0.0196389700115 -6.80969422207e-21)
(0.103914654506 0.019848529017 3.07218056062e-20)
(-0.0145576651488 0.0630173665193 6.89389625202e-20)
(0.0209701594517 0.00802603593077 2.1040321108e-23)
(0.0215713275467 0.00982210856761 9.57525786712e-23)
(0.022326672532 0.0120188288574 2.56255862823e-22)
(0.0233327125402 0.0146547407298 4.33947634657e-22)
(0.0248905177941 0.0177549007341 -5.97992107095e-22)
(0.0277839399706 0.0212234370787 -3.48536857167e-21)
(0.0341726626628 0.024396698204 -1.27568057496e-20)
(0.0414950493774 0.0239502067634 -1.07255438662e-20)
(0.0995136990891 0.0281451277982 -4.23268559483e-20)
(-0.0889461435998 0.0527343951595 -2.84965881992e-20)
(0.0193074801539 0.00843083863825 1.42610062334e-23)
(0.0195107256432 0.0103389361971 1.42395357295e-22)
(0.0197771078985 0.0127495400281 3.17704915863e-22)
(0.0202233845877 0.0158161083764 4.42819367939e-22)
(0.021328118537 0.0196084872632 -1.4638327206e-21)
(0.0242718620801 0.0246803532651 -3.77412383373e-21)
(0.0312633507787 0.0287327451427 -1.19978281326e-20)
(0.040161849871 0.0288829714176 -1.0797026446e-20)
(0.100768853715 0.0387175874299 -3.35272545481e-20)
(-0.0257739204307 0.0113990700786 -8.03028458021e-20)
(0.0176079275578 0.00844314820497 2.08003515395e-23)
(0.0173407506131 0.0103374983993 1.80168077458e-22)
(0.0169576190862 0.0128125334496 1.98850057362e-22)
(0.0165467024532 0.0161236366583 -1.66863004261e-22)
(0.0167097994819 0.0204493122184 -2.19110075033e-21)
(0.01935323806 0.026756781243 -2.85432076226e-21)
(0.02669507098 0.0316341278207 -1.5319757496e-20)
(0.0378438211088 0.0319105358485 -2.8769649992e-20)
(0.0896502562783 0.0438038077473 -4.63779244457e-20)
(0.0332380507827 0.0277225910604 -8.52873448249e-20)
(0.0160036898347 0.00803232221275 5.71133114131e-23)
(0.0152534165576 0.00971940407112 2.16959123333e-22)
(0.014136909863 0.0119667112892 -2.76916981216e-23)
(0.0126374894164 0.0150509350788 -4.83145067968e-22)
(0.0115771018437 0.0191943798841 -2.36368304446e-21)
(0.0138149416041 0.025500920422 -5.50716672171e-21)
(0.0216196160926 0.0304658432848 -8.15439380138e-21)
(0.0324846869601 0.0314281926462 -5.18236679282e-22)
(0.0617797947933 0.0441149702756 -1.81390563422e-20)
(0.0990440160581 0.0639585569805 -1.10960342044e-20)
(0.0146839203102 0.00722971135418 7.07679072351e-23)
(0.0135402476272 0.00849152075047 6.94398832064e-23)
(0.0117832492026 0.0101298947539 1.58215848159e-22)
(0.00927508502681 0.0123111761815 -3.33468197177e-22)
(0.00713436121021 0.0151700325211 1.20196199314e-21)
(0.00899273712681 0.0197934457428 -3.60574922942e-21)
(0.0170675095071 0.0232220666185 5.45857656716e-21)
(0.0246902570361 0.0267940317355 2.21474505449e-20)
(0.0296580602554 0.0262405246642 4.0108330649e-20)
(0.0489306068409 0.1062706248 -7.92180948356e-20)
(0.0137835661179 0.00617690780543 -8.68970051905e-23)
(0.0124508694623 0.00685299140429 -2.59671680751e-22)
(0.0104155363832 0.00758544939225 -5.17708691792e-22)
(0.00758253029301 0.00828839490343 2.06090294171e-23)
(0.00533854273338 0.00851710070965 6.9736451346e-21)
(0.00710017930423 0.00993750605037 2.67821704672e-20)
(0.01381206103 0.0114590647069 5.1243142825e-20)
(0.0167574062493 0.0203626249666 6.63566940728e-20)
(0.028036644523 0.0139799402504 7.16529417238e-20)
(-0.0880263956978 0.0170718970737 7.16789818235e-20)
(0.013367775733 0.00505344315397 -9.41169998787e-23)
(0.0120970148549 0.00512007655585 -2.07792897906e-22)
(0.010254885637 0.0049238708561 -4.38258925954e-23)
(0.00793779539326 0.00420013254775 4.67857012682e-21)
(0.00659831112783 0.00199908639439 2.88494237609e-20)
(0.00811917847175 0.000779439636464 7.85701231414e-20)
(0.011933340589 0.00070519526086 1.43750592202e-19)
(0.00975193144559 0.0118772158036 1.76903280602e-19)
(0.063813645391 0.000282641223331 1.78991807491e-19)
(-0.0342169402716 -0.0736744624527 1.18164499414e-19)
(0.0134825501862 0.00407495083281 -4.7413233922e-23)
(0.0125500757057 0.00358835262442 1.43642380056e-22)
(0.0112232444632 0.00260176765936 1.88450278871e-21)
(0.00964879857969 0.000992014573926 1.33931725954e-20)
(0.00890255252212 -0.00216948144523 5.68495613871e-20)
(0.00909795569592 -0.00397448144754 1.4907465948e-19)
(0.00896709136778 -0.00481177835204 2.42316246737e-19)
(0.00738526860562 0.00514852255151 3.13307766731e-19)
(0.113511585086 -0.00624727986001 3.05440760581e-19)
(-0.0197548273504 -0.0701006507071 1.33099918104e-19)
(0.0139623634909 0.00355499024675 1.85915819979e-22)
(0.0135490029691 0.00276626780898 2.72397036155e-22)
(0.0129497707189 0.00139881017016 2.35212635399e-21)
(0.0122495612043 -0.000498900893661 1.35481392486e-20)
(0.0116906968159 -0.00371986753434 5.2284665682e-20)
(0.010804365032 -0.00549585721255 1.28914127791e-19)
(0.00646435751825 -0.00703886275397 2.15109521361e-19)
(0.00973369110995 -1.71462145611e-05 2.63823143413e-19)
(0.149032441515 -0.00777136632336 2.50803663164e-19)
(0.00201465633334 -0.0521901908506 9.18159636187e-20)
(0.0145646042766 0.00354998103756 5.45821679906e-22)
(0.0146572405579 0.00281125028019 3.15056107595e-22)
(0.0147257938835 0.00162118518446 5.65123385013e-22)
(0.0147847282267 -0.000120433087698 1.1279096097e-21)
(0.0142647192497 -0.0028667512774 9.28865214301e-21)
(0.0131726762552 -0.00483250190372 2.66002465682e-20)
(0.00523756637762 -0.0075140403559 5.75235614426e-20)
(0.010047890741 -0.00413021450588 7.28500549011e-20)
(0.127879127353 0.00368770476438 9.15549690754e-20)
(0.0201118444285 0.109303567292 1.07597705217e-19)
(0.0151117985552 0.00376027241832 -3.55387729256e-23)
(0.015494567376 0.00291729562126 -5.13035008139e-22)
(0.0158437302052 0.00162167386362 -6.54662948977e-22)
(0.016128595429 -9.87279294295e-05 -1.88484595695e-21)
(0.0160162332608 -0.00239775221116 9.23037599735e-22)
(0.0153059725611 -0.00314096209453 -2.73980968251e-21)
(0.00705725877761 -0.00586920938782 -2.34232099997e-20)
(0.0102201306713 -0.00514673936625 -6.81440317455e-20)
(0.0431127942899 -0.00405337432482 -6.51620713227e-20)
(-0.00771415141098 0.0828380019436 -1.23621149953e-19)
(0.0158314183233 0.00434833662465 3.46190110349e-22)
(0.0167190464697 0.00338705048496 2.40071055835e-22)
(0.0176306626803 0.00182174312765 1.82908915301e-21)
(0.0183192425728 -0.00041371789298 3.20522204677e-21)
(0.0176936235073 -0.00323711110623 5.10109049481e-21)
(0.0142186570609 -0.00326269409203 2.17084463054e-22)
(0.00697194303133 -0.00560796803748 -1.51641986858e-20)
(0.0161205736112 -0.00566353503486 -1.85138918853e-20)
(0.0157626288994 -0.00942350206747 -1.98230237361e-20)
(-0.0297187818318 -0.0177240693776 -1.261126165e-20)
(0.0165031975209 0.00555357929286 2.42037193881e-22)
(0.0180385081566 0.00476611832646 4.66980281166e-23)
(0.0199300107638 0.0033832618188 1.19461442971e-21)
(0.0217530799106 0.00128192470547 1.96331875527e-21)
(0.0209299444142 -0.00186282981235 4.55432353613e-21)
(0.0140756131287 -0.00342027174236 1.15102590694e-20)
(0.00710785374716 -0.00816415070287 2.37472556041e-20)
(0.0272255768971 -0.009508171083 3.029605212e-20)
(0.0278570694833 -0.0145292015803 3.08834757001e-20)
(-0.0169056620059 -0.0526685730968 1.33091807903e-20)
(0.0168274732478 0.00737247478436 7.77925883888e-22)
(0.0188123855416 0.00715016498252 9.62263316885e-22)
(0.0213319009019 0.00663466917339 2.17279835705e-21)
(0.0241389349702 0.00548820667387 1.16459074163e-21)
(0.0244089389731 0.00233596225183 3.79560976595e-21)
(0.0187281002817 -0.00241191824426 9.57195102164e-21)
(0.0129308753519 -0.0127035001714 2.6857208866e-20)
(0.0404576562523 -0.017199274895 5.30324935473e-20)
(0.0441425575316 -0.0251938506153 5.17159571982e-20)
(-0.0112426709907 -0.0641349753397 -1.06960663064e-20)
)
;

boundaryField
{
    back
    {
        type            noSlip;
    }
    sides
    {
        type            noSlip;
    }
    bottom
    {
        type            noSlip;
    }
    front
    {
        type            noSlip;
    }
    atmosphere
    {
        type            pressureInletOutletVelocity;
        value           nonuniform List<vector> 
16
(
(0.158423798871 0.145534362497 -1.91833506354e-20)
(-0.0145576651488 0.0630173665193 6.89389625202e-20)
(-0.0889461435998 0.0527343951595 -2.84965881992e-20)
(0 0.0113990700786 0)
(0 0.0277225910604 0)
(0.0990440160581 0.0639585569805 -1.10960342044e-20)
(0.0489306068409 0.1062706248 -7.92180948356e-20)
(-0.0880263956978 0.0170718970737 7.16789818235e-20)
(0 -0.0736744624527 0)
(0 -0.0701006507071 0)
(0 -0.0521901908506 0)
(0.0201118444285 0.109303567292 1.07597705217e-19)
(-0.00771415141098 0.0828380019436 -1.23621149953e-19)
(0 -0.0177240693776 0)
(0 -0.0526685730968 0)
(0 -0.0641349753397 0)
)
;
    }
    floatingObject
    {
        type            movingWallVelocity;
        value           nonuniform List<vector> 0();
    }
    procBoundary5to0
    {
        type            processor;
        value           nonuniform List<vector> 
12
(
(0.0228322029114 0.0032255951419 -1.32998926553e-23)
(0.0238817941225 0.00404149940293 -8.23153181126e-24)
(0.0251162319794 0.00503662491615 -1.26249562466e-23)
(0.0265628124204 0.00624937377442 2.92030293381e-23)
(0.0282356888808 0.00774325701609 9.6306830302e-23)
(0.0300327487826 0.00952411534818 4.75322997474e-22)
(0.0318460007023 0.0116112094715 -2.82887575835e-22)
(0.0339811204445 0.0139513602167 -1.81438798514e-21)
(0.0379931293499 0.0169376268815 -7.74209709275e-21)
(0.0482619267771 0.0194273890549 -8.89269241527e-21)
(0.147687700752 0.0170191215478 1.11827962931e-20)
(0.216277859336 0.00648028793281 6.57408272046e-21)
)
;
    }
    procBoundary5to3
    {
        type            processor;
        value           nonuniform List<vector> 10((0.0166768809928 0.00929077183272 2.67041631745e-21) (0.0187903860117 0.00938256325622 2.38652423238e-21) (0.0216119552778 0.00935278980283 1.70764149756e-21) (0.0253238914667 0.00864675167839 1.46484078236e-21) (0.0275254506458 0.00620140508242 8.4260697378e-23) (0.0277326345471 9.62088602728e-05 -1.04115262256e-21) (0.0251535065095 -0.0152039793344 5.94692959557e-21) (0.0603388448601 -0.0241725434148 1.57085923962e-20) (0.0620532843241 -0.0442264668591 1.57045543533e-20) (-0.0102542681785 -0.0940811131652 -3.91234933878e-21));
    }
    procBoundary5to4
    {
        type            processor;
        value           nonuniform List<vector> 
18
(
(0.0212966955203 0.00331465475522 -7.25421736598e-24)
(0.020516948834 0.00392252243903 -7.86718316874e-25)
(0.0200354773109 0.0053630843707 3.80930095706e-23)
(0.0204675523338 0.00656134270416 4.03323328885e-23)
(0.0204675523338 0.00656134270416 4.03323328885e-23)
(0.0191209694336 0.00690759589697 4.31981947926e-23)
(0.0177615738615 0.00695916755906 4.83971564342e-23)
(0.0164880947889 0.0067098377145 1.35059427454e-23)
(0.0154185374266 0.00619566289272 2.58699261784e-23)
(0.0146394094367 0.00552489125948 7.35854335221e-23)
(0.0141863653205 0.00482535356463 9.28242831092e-23)
(0.0140706893812 0.00422878669785 9.88488342784e-23)
(0.014214361185 0.00391523786359 6.31878321568e-23)
(0.0144575590234 0.00394213691347 1.53057591521e-22)
(0.014705378508 0.00420984937864 1.43565512744e-22)
(0.0150118537873 0.00481510543011 1.62128592897e-22)
(0.0152265022108 0.00585458912035 2.08863316248e-22)
(0.0151691206219 0.00731990885732 4.63901439092e-22)
)
;
    }
}


// ************************************************************************* //
