/*--------------------------------*- C++ -*----------------------------------*\
| =========                 |                                                 |
| \\      /  F ield         | OpenFOAM: The Open Source CFD Toolbox           |
|  \\    /   O peration     | Version:  v2012                                 |
|   \\  /    A nd           | Website:  www.openfoam.com                      |
|    \\/     M anipulation  |                                                 |
\*---------------------------------------------------------------------------*/
FoamFile
{
    version     2.0;
    format      ascii;
    class       surfaceVectorField;
    location    "6";
    object      ddtCorrDdt0(Uf);
}
// * * * * * * * * * * * * * * * * * * * * * * * * * * * * * * * * * * * * * //

dimensions      [0 1 -2 0 0 0 0];


internalField   nonuniform List<vector> 
306
(
(0.000644088217401 0.0032256692074 -1.84293336688e-22)
(0.00132240611177 0.00445119208234 -1.29673065595e-22)
(0.00106042402594 0.00119150799038 -6.00739200326e-23)
(0.00204486790219 0.00285419668174 -8.3160761694e-23)
(0.00156869667209 -0.00174962638974 6.16088709082e-23)
(0.00295624019513 0.000470010881671 9.66402344211e-23)
(0.00223262339176 -0.00570331878796 1.84406749708e-22)
(0.00397468965465 -0.00282517805828 -4.88641618053e-24)
(0.00314541688471 -0.010847757231 -8.98879668505e-23)
(0.00516917788638 -0.00727287005977 2.88922440765e-22)
(0.00459451146118 -0.0172071604368 -5.86527682636e-22)
(0.00637930452299 -0.0127969330822 2.97617674939e-22)
(0.00542654377627 -0.0240240827381 -3.1283147429e-21)
(0.00682975323183 -0.01829421796 -2.23912155946e-22)
(0.00428655331891 -0.0300484801603 -8.18080349936e-21)
(0.00602907949822 -0.0316631332368 -5.73521785724e-22)
(-0.000217068204529 -0.034688066108 -2.45928435558e-20)
(0.00464701152609 -0.023686041887 -5.08481628976e-21)
(0.0220551488613 -0.0390160925503 -8.07212453008e-20)
(0.00408865950164 -0.0366607884061 -1.54977453761e-20)
(0.205607146623 -0.0712326750708 -4.72626952149e-20)
(0.0322420146927 -0.0144117480491 -3.55771217308e-20)
(0.125499200622 0.0758947951874 3.53801652155e-20)
(0.00248395201351 0.00442397058813 -2.8540490601e-23)
(0.0024174499634 0.00573120754752 -7.83216178404e-23)
(0.00372345159699 0.00257780163172 7.35533927598e-23)
(0.00391747098463 0.00437074547846 5.1283637935e-23)
(0.00516594955489 -0.000146427614762 3.01449473324e-23)
(0.00570284874012 0.00221403285883 9.40999350416e-23)
(0.00683670062167 -0.00386594282203 9.96292748766e-23)
(0.00771430088029 -0.000831662408351 4.46626717724e-23)
(0.00870231743363 -0.00872503895939 6.76428082554e-22)
(0.0100449773003 -0.00494922903158 3.44521209936e-22)
(0.0106648719141 -0.0146850257397 6.60233201629e-22)
(0.0123520316713 -0.0104304945724 2.70441231994e-22)
(0.0115556107926 -0.0229605395014 2.33088080123e-21)
(0.0151097786882 -0.0161239184059 1.84358080593e-21)
(0.0125492003109 -0.0350102187717 2.52246542388e-21)
(0.0180792889285 -0.0306697709137 5.44003798858e-21)
(0.017025662953 -0.0511570200884 4.01028188993e-21)
(0.0207905757926 -0.0242595648096 7.79015214978e-21)
(0.0142713479965 -0.0751333838938 2.96463781939e-20)
(0.0281852621404 -0.0376640562199 2.13345936778e-20)
(-0.0828369493825 -0.273609956341 4.70657386995e-20)
(0.230387509154 -0.0233401126339 1.46133800444e-19)
(-1.17013025936 1.02687589205 1.05477394834e-20)
(0.00385668138427 0.00601313759905 1.50251069553e-24)
(0.00587672903246 0.00437171425697 7.18301802168e-23)
(0.00554283277747 0.00645342162723 3.41088189157e-24)
(0.00823235387319 0.0019866442627 1.08617659482e-22)
(0.00810614555599 0.00465019083058 7.45291293032e-23)
(0.0109541896279 -0.00140151334671 2.89554606832e-22)
(0.0111154345932 0.00198286673438 1.2391746739e-22)
(0.0140044684079 -0.00593711884421 -6.14656406243e-23)
(0.0145885985207 -0.00173411637811 3.25799341503e-22)
(0.0174597489457 -0.0120746143898 1.4537888363e-21)
(0.0184897461659 -0.0069228354434 -1.7228447925e-22)
(0.0213803811567 -0.0200825354544 4.95273799328e-21)
(0.023113820284 -0.0121353228841 9.04958590991e-22)
(0.0255094231313 -0.030794507437 1.07077247145e-20)
(0.028785874466 -0.0258490359784 2.05465992658e-21)
(0.034108191259 -0.0443272035514 2.51144639377e-20)
(0.0343194724723 -0.0175636239652 9.89283520821e-21)
(-0.0377431212229 -0.068236815308 1.37822015928e-19)
(0.0521578121671 -0.0321050016262 2.32942677845e-20)
(-0.916279299687 0.507422401852 1.09615801228e-19)
(-0.345536970707 -0.0285960710883 1.22260741731e-19)
(-2.64562138932 1.02983291294 -9.87050535915e-20)
(0.00767259372635 0.00709773834338 6.10983097802e-24)
(0.0108997729994 0.00510160963424 8.98289372111e-23)
(0.010094191084 0.00794369197023 5.4970648209e-23)
(0.0146539397762 0.00216590500621 1.60162202061e-22)
(0.0140494159571 0.00581579665344 7.76932207344e-23)
(0.0189701074589 -0.00184539319898 2.14980502877e-22)
(0.0185919890508 0.00269608004811 2.3408224067e-22)
(0.0240913336219 -0.00721977285236 -7.2111472456e-22)
(0.0238518578285 -0.00185023666197 -4.64498680662e-22)
(0.030764358101 -0.0144729489209 -1.99311947571e-21)
(0.0303521413843 -0.00620007308025 -9.84574198693e-22)
(0.038215761744 -0.0255220715603 1.23977042032e-21)
(0.0398238642387 -0.0188884638644 -1.6520229887e-21)
(0.0517687234263 -0.038997577253 8.07263905502e-21)
(0.0477937886407 -0.00908095196774 2.73829411181e-21)
(-0.193995814749 -0.0465208370828 7.73299358709e-21)
(0.059489284282 -0.0288556579464 1.08383493414e-20)
(-1.30934282509 0.370799127788 -8.60601130888e-20)
(-0.761578766289 -0.038641847082 2.1904516417e-19)
(-1.69511166645 -1.52299762041 6.93197147856e-20)
(0.0130397763385 0.00911524137151 4.28349317323e-23)
(0.0115058805623 0.0120596274671 4.29067557269e-23)
(0.0177690298855 0.00685033532606 1.51613259343e-22)
(0.0162937090986 0.0105986573507 7.17833226731e-23)
(0.0232713450436 0.00352404455901 -4.4539694287e-22)
(0.0218941277849 0.00823749039594 3.79557447854e-22)
(0.0299453832804 -0.0010966187029 -7.27958154796e-22)
(0.0284453062551 0.00462967847917 -6.73052290175e-22)
(0.0391210705199 -0.00758862857653 -6.43477711687e-22)
(0.0368188468841 0.00137416658754 -2.92399653078e-22)
(0.0502873292034 -0.0168361395308 -1.53499297206e-22)
(0.0490547096511 -0.00862178582756 -2.81778320027e-21)
(0.0633590237928 -0.0314793570843 5.5040043982e-21)
(0.062429954219 0.00422367912516 -9.42527983152e-22)
(0.000371979456178 -0.0476673787747 2.22150519925e-19)
(0.0756057839385 -0.012694102148 -2.64557504128e-21)
(-0.416895606495 -1.70348145425 3.74424992045e-19)
(0.896303152244 0.0180714752193 1.71801151916e-19)
(0.433911183763 -2.18268737754 1.49375906064e-19)
(0.0144749675266 0.013973041961 7.18551466676e-23)
(0.0121737857571 0.0169340398312 4.90408354356e-23)
(0.0201102267456 0.012479971718 2.99727511184e-22)
(0.0177431073925 0.0162692339578 1.36296842122e-22)
(0.026682934188 0.0100359563634 1.51902100549e-22)
(0.0242933018142 0.0147820107119 5.53437763659e-22)
(0.0346395896207 0.00653113763778 -2.37493788457e-22)
(0.031906860757 0.0122627293047 1.26645833307e-23)
(0.0451907022411 0.00214511795914 -2.46670514166e-21)
(0.0411686269262 0.0100964405979 1.01941549895e-21)
(0.0578489634374 -0.00206447141918 -3.60681188621e-21)
(0.0532418145212 0.00345424306918 -2.94190220094e-21)
(0.0696222654578 -0.00434386568409 -9.09210742264e-21)
(0.0647007497 0.0197789247827 -1.21709388572e-20)
(0.376788005181 -0.00518558158514 -5.29949430499e-20)
(0.0763386117964 0.0120544985046 -3.56000443483e-20)
(1.36267544173 0.300937755377 -5.3247934065e-20)
(0.593180756717 0.0513119511048 -4.67727201475e-20)
(2.94569398544 0.629767325067 -3.3593307625e-19)
(0.0150812431155 0.0196275808692 1.1348253089e-22)
(0.0119646390172 0.0224749827262 6.0929252786e-23)
(0.0215591352923 0.0190268290791 3.90007094596e-22)
(0.0182725905478 0.0227539359837 1.54454274968e-22)
(0.0291669751693 0.0175748183605 4.1420024644e-22)
(0.0256771721618 0.0223378244674 5.3222685476e-22)
(0.0380910889277 0.0151552351523 1.26957387073e-21)
(0.0342649337767 0.0209543271667 2.07568022891e-23)
(0.0485674780178 0.012088386436 5.44218439661e-22)
(0.0441867076352 0.019672637183 2.66237820839e-21)
(0.0594117264015 0.0111859180619 -1.1506029172e-20)
(0.0541149455985 0.0147652263744 -3.82835596587e-22)
(0.071802137547 0.0129055057101 -3.86788757829e-20)
(0.0629737597003 0.0313935298302 -2.51983630384e-20)
(0.168474802511 0.0108259220596 -2.93778214458e-20)
(0.0782712207756 0.0250472091101 -4.38635299772e-20)
(1.33579031262 0.698175388789 -3.29457862332e-19)
(-0.0940093943667 0.0163761320806 -6.94256624829e-20)
(1.27235396333 1.6404268503 -3.47353309693e-19)
(0.0147057196985 0.0259639720846 1.01900996864e-22)
(0.0107239800391 0.0285628889792 3.70868424278e-23)
(0.021941182644 0.0264780699885 2.96674035132e-22)
(0.0176527505978 0.0299591854268 1.70822596121e-22)
(0.030482163394 0.0263172893827 1.38783410609e-22)
(0.0257415285432 0.0308174285737 3.90351406566e-22)
(0.0402989713272 0.0250938704608 1.41356113994e-21)
(0.0354049699277 0.0307621703325 1.71060495412e-22)
(0.0508495922231 0.0230742596918 1.73532417214e-21)
(0.0461423651973 0.0304491982236 2.66326164285e-21)
(0.0609978673511 0.0204481056145 -1.4075169463e-20)
(0.056703312877 0.0264507770384 6.7270917892e-21)
(0.0754156840255 0.0160800811787 -3.03830172327e-20)
(0.0673300882712 0.0421663008432 -1.41471948265e-20)
(0.0244013876951 0.00346527837481 -8.39113710143e-20)
(0.0908566814009 0.031582042601 -1.43880411386e-20)
(0.11200950776 -0.0566405517759 -8.73211098443e-20)
(-0.0336499132953 -0.00850528597461 -6.72754272704e-20)
(-0.675398761256 1.38206603523 5.56644141e-21)
(0.0131700447596 0.0328288549437 1.06008441685e-22)
(0.00838782915146 0.0350472159524 2.87483181876e-23)
(0.0209712768696 0.0347267619719 2.64499967555e-22)
(0.0156105188544 0.037680169607 2.06987679268e-22)
(0.0302551568369 0.0359451580407 4.22628491369e-22)
(0.0243948696663 0.0399959742253 2.59022087161e-22)
(0.0410587556328 0.0364043007178 1.42076099831e-21)
(0.034837512893 0.0416384125686 3.27107635001e-22)
(0.0529527655421 0.0355522586978 7.6550292599e-21)
(0.0469128665216 0.0428413012122 1.40148118268e-21)
(0.0660895295477 0.032054102306 6.65506642568e-21)
(0.0601539210671 0.0410427606577 6.977350212e-21)
(0.0889985129636 0.0225878374089 1.84778126756e-21)
(0.0767713020752 0.0583008746246 -1.26235049689e-20)
(5.64974881185e-05 -0.00332855544704 2.24790260521e-21)
(0.117572022695 0.0438776216136 2.91914156842e-21)
(-0.623476462775 0.385493309825 2.56121239838e-20)
(-0.423979971771 -0.0915869025598 -2.93114472243e-19)
(-1.86821119011 -0.843415573371 4.14417593231e-20)
(0.0102665156155 0.0400947762856 1.29727555771e-22)
(0.00474180872942 0.0417145830612 4.45375408861e-23)
(0.0184062863128 0.0433473931018 2.01509798874e-22)
(0.0121719941221 0.045714425801 2.57274542047e-22)
(0.0282478726968 0.046394523962 1.63501230792e-22)
(0.0211854856082 0.0497010746239 1.17560414518e-22)
(0.040021992909 0.048871627799 3.07827819366e-22)
(0.0322255355051 0.0534505417235 2.1703415204e-22)
(0.0537904957315 0.0501256659083 7.23802134774e-22)
(0.0455585208722 0.0568427892049 -1.96176678447e-21)
(0.0707100874891 0.0486400431883 -1.23012211826e-20)
(0.0615815422285 0.0591253214387 2.86201852391e-21)
(0.100091774152 0.0427973341428 -1.15521446681e-20)
(0.0825929566483 0.0791816463697 -9.11534642476e-21)
(0.0731088599793 0.0387908814379 -2.9244323328e-19)
(0.121953521124 0.0662218187521 1.09552634187e-20)
(-0.252252887104 -0.726974758938 -2.77284836904e-19)
(0.340915030356 -0.0526596684017 -2.54609177166e-19)
(0.872210377646 -1.74498129316 -3.29333636307e-21)
(0.00594178134669 0.047426030082 1.72084527162e-22)
(-0.000227734334833 0.0483642356327 4.2602396253e-23)
(0.0141342928717 0.0523166186674 1.73325157692e-22)
(0.00705712683404 0.0538058148464 3.5156919718e-22)
(0.0241350835937 0.0572930875601 1.71093335766e-22)
(0.0160149121239 0.0595854034147 1.38978870441e-22)
(0.0363828241349 0.0623490848697 -2.0525604518e-21)
(0.0270094891737 0.0656711983661 2.70583808344e-22)
(0.0516584512877 0.0672295242384 1.76449604665e-22)
(0.0405599306975 0.0719229203479 -1.75071215572e-21)
(0.0710327591891 0.0701916631936 6.04789328175e-21)
(0.0585514294348 0.079093260828 3.74282571436e-21)
(0.102639293791 0.0719860407444 1.3392061662e-20)
(0.0807745038141 0.100714987486 5.05557605209e-21)
(0.33354378447 0.0661989819954 4.87893195321e-20)
(0.127706872237 0.0957543374124 1.24701486145e-20)
(0.788086685359 -0.256246477765 1.93823233743e-20)
(0.666832429576 0.0614481957864 1.00018221743e-19)
(1.45221048226 0.207550556612 1.54892016904e-19)
(0.000140742884626 0.0546793477678 2.22087066271e-22)
(-0.00655660320305 0.0547653292042 3.13718131708e-23)
(0.00802785173462 0.0611554648008 3.17222909929e-22)
(0.000325858490062 0.0616197903342 3.4767163267e-22)
(0.017714131117 0.0681720939613 2.38469343019e-22)
(0.00877868918148 0.069192066536 1.90708171234e-22)
(0.0297116914805 0.0757912132899 5.72432104418e-22)
(0.0192098185149 0.0775955334799 2.48341248914e-22)
(0.0450239935201 0.0839540276816 1.81566395397e-21)
(0.0322647661205 0.086752056991 1.9217548384e-21)
(0.0646098676571 0.0935115978065 2.7505084847e-21)
(0.0489179481399 0.0983758861312 -1.51630825033e-21)
(0.100956503559 0.103646751657 4.13366300462e-21)
(0.0706159565634 0.119589337476 -2.74531427188e-20)
(0.359335730161 0.110229881144 6.36990508253e-20)
(0.121161763058 0.120479355452 -9.07035741415e-22)
(0.984488121657 0.283481814269 2.35527915272e-19)
(0.493859834428 0.0850749892769 6.83873246871e-20)
(0.886010053571 0.36895798543 1.6725888947e-19)
(-0.00713850647487 0.0614792046576 1.5695637957e-22)
(-0.0141420164108 0.0606225131129 -2.06567746172e-23)
(0.000117604048882 0.0695226682476 2.21156893976e-22)
(-0.00799126626177 0.0688052625979 2.05946395321e-22)
(0.00904742873804 0.0784864962547 2.0058007713e-22)
(-0.000421376323533 0.0780463432797 4.55575281756e-23)
(0.0200900073041 0.0885935268283 1.5976639829e-21)
(0.00890879759705 0.0885638782094 4.31691853323e-22)
(0.0341044183372 0.100280196076 -1.4102173659e-21)
(0.0204365283506 0.100350209422 1.40036509684e-21)
(0.0522192493858 0.113311126193 -3.17199594539e-20)
(0.0358068937482 0.115421898754 3.01860073706e-21)
(0.0883142228814 0.129814596738 -3.24938414649e-20)
(0.0540801103856 0.134480198334 -2.34168704611e-20)
(0.300498358709 0.148510254244 3.78123812043e-21)
(0.103230641316 0.138300596595 -1.68358668835e-20)
(0.931978829233 0.148833268686 1.18298884278e-22)
(0.494722344432 0.133916929797 2.63693797808e-20)
(0.95366504655 1.28325789163 -1.81476624881e-20)
(-0.0157367451777 0.0675513012469 2.83332411337e-23)
(-0.0228533570227 0.0656982217872 -6.89628517827e-24)
(-0.00945811866228 0.0769633612683 3.0347029521e-23)
(-0.0177102696589 0.0750202927835 1.05911536737e-22)
(-0.00172827111852 0.0876542364067 2.76669304368e-22)
(-0.0113843826005 0.0857130525141 -3.72386800547e-24)
(0.00781043125747 0.0998975235879 2.34392967266e-22)
(-0.00356523690375 0.0980612388052 2.51975547922e-22)
(0.0199360649121 0.114047063385 5.8291831998e-21)
(0.00612133777075 0.112094855786 -4.66280201533e-22)
(0.0349872844007 0.131469244106 1.13216897299e-20)
(0.0182879327625 0.129505936985 5.7538934696e-21)
(0.0645428367522 0.1525762884 -7.75889587975e-21)
(0.0329416265101 0.145854635233 -2.94768427395e-21)
(0.173502444608 0.187611121041 5.75227477681e-21)
(0.0683490018899 0.153448695512 -5.04370596344e-21)
(0.104993941912 0.682642593065 8.10341840842e-21)
(0.00320135947026 0.181543275688 -9.84581231949e-21)
(-1.58762626154 1.09123993871 -1.17153143637e-19)
(-0.0255191104214 0.0726118783287 7.06820104247e-23)
(-0.032541906846 0.0697799580131 -2.78575842066e-24)
(-0.0205045118391 0.0831826477053 7.18406392102e-23)
(-0.0286338851157 0.0800080557272 3.77645395369e-23)
(-0.0143404371942 0.09533793156 -2.84176244519e-23)
(-0.0238777524075 0.0918514887922 -3.36947520583e-23)
(-0.00670840523278 0.109515534492 -4.48697620878e-22)
(-0.018004945314 0.10570783771 -2.67904282232e-22)
(0.00301748402954 0.126089326916 -5.41569931731e-22)
(-0.0106550220472 0.121610405849 -1.48802303432e-21)
(0.0133373863296 0.144819708344 -8.51548053421e-21)
(-0.00054222768829 0.141210096972 3.80061763755e-21)
(0.0294448836079 0.172943328334 -2.32494357644e-22)
(0.0047800818579 0.153873777922 -1.8852410277e-21)
(0.0230238121075 0.226189338958 -2.06417930597e-20)
(0.0159302557862 0.16300059322 8.87095156265e-21)
(-0.639683320634 0.225115282912 -1.35102374365e-19)
(0.00620151460306 0.194255422942 -1.83246313075e-20)
(-0.723512976424 -0.135842553873 -1.14077278277e-19)
(-0.0362079231005 0.0764938748246 -3.57032293084e-23)
(-0.0327034831939 0.0878877637397 -6.77708517316e-23)
(-0.0284757105409 0.101147484789 -2.73181409838e-22)
(-0.0232598553959 0.116832476366 -1.30722969568e-21)
(-0.0162319237839 0.135585441855 2.85416453496e-21)
(-0.010760630179 0.157783488165 1.04308571441e-20)
(-0.0058561460455 0.18468677891 7.21820489259e-21)
(0.00138397342464 0.219908951572 1.11881133149e-20)
(-0.257555190473 0.214943479097 2.70046478082e-21)
)
;

boundaryField
{
    back
    {
        type            calculated;
        value           uniform (0 0 0);
    }
    sides
    {
        type            calculated;
        value           uniform (0 0 0);
    }
    bottom
    {
        type            calculated;
        value           nonuniform List<vector> 0();
    }
    front
    {
        type            calculated;
        value           uniform (0 0 0);
    }
    atmosphere
    {
        type            calculated;
        value           nonuniform List<vector> 
16
(
(0.363671712724 -0.196612060198 2.8555909e-20)
(-0.0177712299173 1.02219638521 -3.04481931918e-22)
(0.00410759485579 1.9839791079 6.2998021468e-22)
(-10.4024302961 -0.580919693271 -4.83273457488e-19)
(-0.763861433164 -3.83578999432 3.1487159021e-19)
(2.04585909348 -2.21508677459 -1.60710492902e-20)
(0.0712376255496 2.37338061819 -3.72368553732e-21)
(-0.00479073614087 1.89126726806 -3.14489889757e-22)
(-0.130492932583 1.57981423482 -6.10899565825e-20)
(-0.531031185043 -3.46797837714 3.25534563965e-20)
(1.03427449764 -0.839627898454 -3.89100832298e-20)
(-0.266704284825 0.85214273019 1.38812991252e-21)
(0.457687370574 0.0787658182544 2.45986076273e-20)
(-0.070721995366 3.2201519931 -2.92074821016e-20)
(2.0500727603 -0.641247766509 9.8413471331e-20)
(-0.577750364054 -0.14323284267 -3.13670501639e-20)
)
;
    }
    floatingObject
    {
        type            calculated;
        value           nonuniform List<vector> 0();
    }
    procBoundary1to0
    {
        type            processor;
        value           nonuniform List<vector> 10((-0.0428814081446 0.0727091981328 -1.7657940893e-23) (-0.0403980514213 0.0835548735129 7.07684491178e-24) (-0.0374578378646 0.0961398227986 -9.18319819024e-23) (-0.0339729247561 0.111046729216 -3.78148729345e-22) (-0.0295896694368 0.128573984008 -2.81200450367e-21) (-0.0228435910197 0.150184578188 3.2024834627e-21) (-0.0221504516213 0.158810110005 1.00350674754e-20) (-0.018490796212 0.166248474307 5.96796196488e-22) (0.0116154841008 0.224134390081 1.16302574069e-20) (-0.364210019298 0.142318611163 -9.86023715923e-20));
    }
    procBoundary1to2
    {
        type            processor;
        value           nonuniform List<vector> 
18
(
(0.000292453185077 0.00454995650904 -2.14539455053e-22)
(0.00143973986413 0.00555049341186 -9.28996968122e-23)
(0.00214408679154 0.00688723111708 -4.98611927119e-23)
(0.00334803428266 0.00749086212129 -1.65419156661e-23)
(0.00490229531739 0.00826040630351 -1.46335444701e-23)
(0.00677200704994 0.00926448597879 -1.62958830194e-23)
(0.00898532842178 0.0105241001972 3.25649342116e-23)
(0.00965491181784 0.0146970664951 2.64582204169e-23)
(0.00957434912039 0.0195194931121 3.67167622748e-23)
(0.00862139982501 0.0248905038555 3.73557478696e-23)
(0.00664522763952 0.0307254790664 2.69432388955e-23)
(0.00351512400175 0.0367623018603 6.45379988996e-23)
(-0.000801008710546 0.0428380535493 5.30418280617e-23)
(-0.00632621871162 0.0487923979611 5.48613976222e-23)
(-0.0130483246802 0.054366466048 6.78730316447e-23)
(-0.0208632629692 0.0593289010638 4.12444328677e-25)
(-0.0296147406494 0.0634956360357 2.88142660343e-23)
(-0.0390981544557 0.0666374708786 1.38212148055e-24)
)
;
    }
}


// ************************************************************************* //
