/*--------------------------------*- C++ -*----------------------------------*\
| =========                 |                                                 |
| \\      /  F ield         | OpenFOAM: The Open Source CFD Toolbox           |
|  \\    /   O peration     | Version:  v2012                                 |
|   \\  /    A nd           | Website:  www.openfoam.com                      |
|    \\/     M anipulation  |                                                 |
\*---------------------------------------------------------------------------*/
FoamFile
{
    version     2.0;
    format      ascii;
    class       volScalarField;
    location    "6";
    object      epsilon_0;
}
// * * * * * * * * * * * * * * * * * * * * * * * * * * * * * * * * * * * * * //

dimensions      [0 2 -3 0 0 0 0];


internalField   nonuniform List<scalar> 
167
(
0.000363104889972
0.000369004699804
0.000377735597575
0.000394141570089
0.000434754510916
0.000559691657841
0.000985805948253
0.00237122685631
0.00598395155139
0.0133475251993
0.0278406991767
0.0674676555591
0.000375141415193
0.000380399007329
0.000388920047913
0.000406552444503
0.000453048003635
0.000599649196096
0.00109445236
0.00259485854479
0.00608083897926
0.0128320837845
0.0315526889456
0.147045805206
0.000413406536174
0.000419069264764
0.000428465697351
0.000448288325962
0.000500534230391
0.000663601834663
0.0012051778444
0.00281856314437
0.00651592795163
0.0136438194094
0.0335402063137
0.159793266973
0.000435480962993
0.000445173278568
0.000465562687709
0.000518651127365
0.000681461472062
0.00121511112963
0.00281169620682
0.00657297618303
0.0139602797086
0.0329228813179
0.133199730902
0.000452408971314
0.000472361767563
0.000523098293503
0.00067417358076
0.00116326948163
0.00267033582234
0.00647081858635
0.0141339003584
0.0288041385828
0.0743853222247
0.000455805956296
0.000474801167986
0.000521701873866
0.000656548992276
0.00108854112211
0.00248628199943
0.0063249238838
0.0146699459419
0.0315837637697
0.0828467391265
0.000457770468385
0.00047585163785
0.000519765362625
0.000643651151164
0.00103881991529
0.00235465122137
0.00617543332871
0.0150730276364
0.0375638769575
0.156414989619
0.000459272974474
0.000476700800458
0.000519391756227
0.000641329376273
0.00103203035473
0.002320846878
0.00604603373307
0.0149876115982
0.0383880369601
0.151052538992
0.000460644273021
0.000477518831082
0.000519488001546
0.000641807968657
0.00103636352783
0.00230977008887
0.00590154511209
0.0145492738773
0.0351246250385
0.113494485958
0.00046195822049
0.000478171559827
0.000518731000363
0.000637998054709
0.00102345732729
0.00225791195819
0.00574054581176
0.0142763823858
0.0333227898009
0.0697902993591
0.000463246299604
0.000478658072738
0.000516986768368
0.000628980603923
0.000990340602535
0.00216407094693
0.00558858197274
0.0143689885413
0.0349239498624
0.0758763874583
0.000464498739491
0.000479029090859
0.000514625872534
0.000616926725459
0.000945674730779
0.00204594324749
0.00544563510523
0.0146302082047
0.0381333677495
0.1247993298
0.000465697844837
0.000479318516983
0.000512170494618
0.000605011166367
0.000902740795949
0.00193358706675
0.00531941858415
0.0149306208751
0.0396251118961
0.112310527684
0.000466852278851
0.000479588233684
0.00050990306298
0.000594635863554
0.000866485236976
0.00183574251194
0.005204628481
0.0152271490174
0.04158311928
0.0989072996194
0.000467954177032
0.000479861139775
0.000507916440106
0.000585880345091
0.000836451248134
0.00174745143423
0.00505062225901
0.015335941025
0.043593542846
0.111328148289
0.000469000322288
0.000480145299576
0.000506171305654
0.000578119763607
0.000809147244527
0.001658029694
0.00483550769854
0.0151091377049
0.0447791027725
0.126520731438
)
;

boundaryField
{
    back
    {
        lowReCorrection 0;
        blending        stepwise;
        n               2;
        type            epsilonWallFunction;
        value           nonuniform List<scalar> 
167
(
0.000363104889972
0.000369004699804
0.000377735597575
0.000394141570089
0.000434754510916
0.000559691657841
0.000985805948253
0.00237122685631
0.00598395155139
0.0133475251993
0.0278406991767
0.0674676555591
0.000375141415193
0.000380399007329
0.000388920047913
0.000406552444503
0.000453048003635
0.000599649196096
0.00109445236
0.00259485854479
0.00608083897926
0.0128320837845
0.0315526889456
0.147045805206
0.000413406536174
0.000419069264764
0.000428465697351
0.000448288325962
0.000500534230391
0.000663601834663
0.0012051778444
0.00281856314437
0.00651592795163
0.0136438194094
0.0335402063137
0.159793266973
0.000435480962993
0.000445173278568
0.000465562687709
0.000518651127365
0.000681461472062
0.00121511112963
0.00281169620682
0.00657297618303
0.0139602797086
0.0329228813179
0.133199730902
0.000452408971314
0.000472361767563
0.000523098293503
0.00067417358076
0.00116326948163
0.00267033582234
0.00647081858635
0.0141339003584
0.0288041385828
0.0743853222247
0.000455805956296
0.000474801167986
0.000521701873866
0.000656548992276
0.00108854112211
0.00248628199943
0.0063249238838
0.0146699459419
0.0315837637697
0.0828467391265
0.000457770468385
0.00047585163785
0.000519765362625
0.000643651151164
0.00103881991529
0.00235465122137
0.00617543332871
0.0150730276364
0.0375638769575
0.156414989619
0.000459272974474
0.000476700800458
0.000519391756227
0.000641329376273
0.00103203035473
0.002320846878
0.00604603373307
0.0149876115982
0.0383880369601
0.151052538992
0.000460644273021
0.000477518831082
0.000519488001546
0.000641807968657
0.00103636352783
0.00230977008887
0.00590154511209
0.0145492738773
0.0351246250385
0.113494485958
0.00046195822049
0.000478171559827
0.000518731000363
0.000637998054709
0.00102345732729
0.00225791195819
0.00574054581176
0.0142763823858
0.0333227898009
0.0697902993591
0.000463246299604
0.000478658072738
0.000516986768368
0.000628980603923
0.000990340602535
0.00216407094693
0.00558858197274
0.0143689885413
0.0349239498624
0.0758763874583
0.000464498739491
0.000479029090859
0.000514625872534
0.000616926725459
0.000945674730779
0.00204594324749
0.00544563510523
0.0146302082047
0.0381333677495
0.1247993298
0.000465697844837
0.000479318516983
0.000512170494618
0.000605011166367
0.000902740795949
0.00193358706675
0.00531941858415
0.0149306208751
0.0396251118961
0.112310527684
0.000466852278851
0.000479588233684
0.00050990306298
0.000594635863554
0.000866485236976
0.00183574251194
0.005204628481
0.0152271490174
0.04158311928
0.0989072996194
0.000467954177032
0.000479861139775
0.000507916440106
0.000585880345091
0.000836451248134
0.00174745143423
0.00505062225901
0.015335941025
0.043593542846
0.111328148289
0.000469000322288
0.000480145299576
0.000506171305654
0.000578119763607
0.000809147244527
0.001658029694
0.00483550769854
0.0151091377049
0.0447791027725
0.126520731438
)
;
    }
    sides
    {
        lowReCorrection 0;
        blending        stepwise;
        n               2;
        type            epsilonWallFunction;
        value           nonuniform List<scalar> 
12
(
0.000363104889972
0.000369004699804
0.000377735597575
0.000394141570089
0.000434754510916
0.000559691657841
0.000985805948253
0.00237122685631
0.00598395155139
0.0133475251993
0.0278406991767
0.0674676555591
)
;
    }
    bottom
    {
        lowReCorrection 0;
        blending        stepwise;
        n               2;
        type            epsilonWallFunction;
        value           nonuniform List<scalar> 0();
    }
    front
    {
        lowReCorrection 0;
        blending        stepwise;
        n               2;
        type            epsilonWallFunction;
        value           nonuniform List<scalar> 
167
(
0.000363104889972
0.000369004699804
0.000377735597575
0.000394141570089
0.000434754510916
0.000559691657841
0.000985805948253
0.00237122685631
0.00598395155139
0.0133475251993
0.0278406991767
0.0674676555591
0.000375141415193
0.000380399007329
0.000388920047913
0.000406552444503
0.000453048003635
0.000599649196096
0.00109445236
0.00259485854479
0.00608083897926
0.0128320837845
0.0315526889456
0.147045805206
0.000413406536174
0.000419069264764
0.000428465697351
0.000448288325962
0.000500534230391
0.000663601834663
0.0012051778444
0.00281856314437
0.00651592795163
0.0136438194094
0.0335402063137
0.159793266973
0.000435480962993
0.000445173278568
0.000465562687709
0.000518651127365
0.000681461472062
0.00121511112963
0.00281169620682
0.00657297618303
0.0139602797086
0.0329228813179
0.133199730902
0.000452408971314
0.000472361767563
0.000523098293503
0.00067417358076
0.00116326948163
0.00267033582234
0.00647081858635
0.0141339003584
0.0288041385828
0.0743853222247
0.000455805956296
0.000474801167986
0.000521701873866
0.000656548992276
0.00108854112211
0.00248628199943
0.0063249238838
0.0146699459419
0.0315837637697
0.0828467391265
0.000457770468385
0.00047585163785
0.000519765362625
0.000643651151164
0.00103881991529
0.00235465122137
0.00617543332871
0.0150730276364
0.0375638769575
0.156414989619
0.000459272974474
0.000476700800458
0.000519391756227
0.000641329376273
0.00103203035473
0.002320846878
0.00604603373307
0.0149876115982
0.0383880369601
0.151052538992
0.000460644273021
0.000477518831082
0.000519488001546
0.000641807968657
0.00103636352783
0.00230977008887
0.00590154511209
0.0145492738773
0.0351246250385
0.113494485958
0.00046195822049
0.000478171559827
0.000518731000363
0.000637998054709
0.00102345732729
0.00225791195819
0.00574054581176
0.0142763823858
0.0333227898009
0.0697902993591
0.000463246299604
0.000478658072738
0.000516986768368
0.000628980603923
0.000990340602535
0.00216407094693
0.00558858197274
0.0143689885413
0.0349239498624
0.0758763874583
0.000464498739491
0.000479029090859
0.000514625872534
0.000616926725459
0.000945674730779
0.00204594324749
0.00544563510523
0.0146302082047
0.0381333677495
0.1247993298
0.000465697844837
0.000479318516983
0.000512170494618
0.000605011166367
0.000902740795949
0.00193358706675
0.00531941858415
0.0149306208751
0.0396251118961
0.112310527684
0.000466852278851
0.000479588233684
0.00050990306298
0.000594635863554
0.000866485236976
0.00183574251194
0.005204628481
0.0152271490174
0.04158311928
0.0989072996194
0.000467954177032
0.000479861139775
0.000507916440106
0.000585880345091
0.000836451248134
0.00174745143423
0.00505062225901
0.015335941025
0.043593542846
0.111328148289
0.000469000322288
0.000480145299576
0.000506171305654
0.000578119763607
0.000809147244527
0.001658029694
0.00483550769854
0.0151091377049
0.0447791027725
0.126520731438
)
;
    }
    atmosphere
    {
        type            inletOutlet;
        inletValue      uniform 0.1;
        value           nonuniform List<scalar> 
16
(
0.0674676555591
0.1
0.1
0.133199730902
0.0743853222247
0.0828467391265
0.1
0.1
0.1
0.0697902993591
0.0758763874583
0.1
0.1
0.0989072996194
0.1
0.126520731438
)
;
    }
    floatingObject
    {
        lowReCorrection 0;
        blending        stepwise;
        n               2;
        type            epsilonWallFunction;
        value           nonuniform List<scalar> 0();
    }
    procBoundary1to0
    {
        type            processor;
        value           nonuniform List<scalar> 10(0.000469966213426 0.000480411280582 0.000504588854411 0.000571075469905 0.000783853701784 0.00156818947149 0.00455349856341 0.0144232737656 0.0443501523333 0.1435902714);
    }
    procBoundary1to2
    {
        type            processor;
        value           nonuniform List<scalar> 
18
(
0.000358275602821
0.000371132484342
0.000409173828967
0.000429664850157
0.000429664850157
0.000442805591202
0.000442805591202
0.000446515571046
0.000448840575181
0.000450681886987
0.000452374425536
0.000454026724202
0.00045566495407
0.000457278519562
0.000458847271753
0.000460359897295
0.000461808090744
0.000463169171738
)
;
    }
}


// ************************************************************************* //
