/*--------------------------------*- C++ -*----------------------------------*\
| =========                 |                                                 |
| \\      /  F ield         | OpenFOAM: The Open Source CFD Toolbox           |
|  \\    /   O peration     | Version:  v2012                                 |
|   \\  /    A nd           | Website:  www.openfoam.com                      |
|    \\/     M anipulation  |                                                 |
\*---------------------------------------------------------------------------*/
FoamFile
{
    version     2.0;
    format      ascii;
    class       surfaceScalarField;
    location    "6";
    object      phi;
}
// * * * * * * * * * * * * * * * * * * * * * * * * * * * * * * * * * * * * * //

dimensions      [0 3 -1 0 0 0 0];
oriented        oriented;


internalField   nonuniform List<scalar> 
306
(
0.00010730866819
-1.17121360317e-05
0.000118754288582
-1.14332701304e-05
0.000130001681737
-1.12338129887e-05
0.000140658372524
-1.06426607011e-05
0.000150431615537
-9.76004074434e-06
0.000158578477759
-8.13498339745e-06
0.000162406721783
-3.8188774083e-06
0.000160463684186
1.94884675825e-06
0.000161717731519
-1.25228051878e-06
0.000179481970749
-1.77621013859e-05
0.000209820450197
-3.03332808272e-05
-8.24212412257e-06
0.000104976757883
-2.30295578113e-05
0.000116247667761
-2.26914259582e-05
0.000127433285286
-2.24058367403e-05
0.000138301765329
-2.14973031947e-05
0.000148749194398
-2.01944526049e-05
0.000158015065221
-1.73900210741e-05
0.000166966766771
-1.27622674454e-05
0.00017683664403
-7.91637396318e-06
0.000181625382578
-6.03957145694e-06
0.00017118577644
-7.32321457685e-06
0.000108735987539
3.21181479307e-05
0.000286978877941
0.000103267283981
0.000114834078274
-3.42405704585e-05
0.000125875329119
-3.34342163367e-05
0.000136809326001
-3.2418923201e-05
0.000147253795981
-3.06280698323e-05
0.000157069062769
-2.71962869686e-05
0.000166374416291
-2.20613751362e-05
0.000179220971275
-2.07594138626e-05
0.000190045665952
-1.68632178085e-05
0.000187254010016
-4.53126427503e-06
9.44786298282e-05
0.000124893768413
0.000755423833467
0.000114020742123
0.000125653987838
-4.5054427994e-05
0.000137204561643
-4.39593714886e-05
0.00014821280632
-4.16277575366e-05
0.000158557733565
-3.75346658792e-05
0.000169515564826
-3.3014489879e-05
0.00018462722376
-3.58683137672e-05
0.00019882614284
-3.10612150532e-05
0.000207225299888
-1.29282995354e-05
0.000186800167355
0.000145310230117
0.00105706738787
0.000126572493597
-5.73432457747e-05
0.000138866126318
-5.62453239547e-05
0.000151301926017
-5.40571850605e-05
0.00016388370099
-5.01110966624e-05
0.000177430155278
-4.6556626388e-05
0.000190832330718
-4.92674259463e-05
0.000202336765932
-4.25642286597e-05
0.000222179414932
-3.2775151791e-05
0.000399506711319
-3.20111734039e-05
-0.000778728797629
0.000127945330337
-7.04894876356e-05
0.000141439149599
-6.97327453601e-05
0.000155708560573
-6.83203205422e-05
0.000171233191743
-6.56294932665e-05
0.000187837764407
-6.31552068923e-05
0.000201046644303
-6.24715231569e-05
0.000211655831644
-5.31713841329e-05
0.000229486004748
-5.06008411229e-05
0.000257833729587
-6.03819814172e-05
-0.000744440341746
0.000128721202199
-8.41515508219e-05
0.000143342568472
-8.4346097082e-05
0.000159248446196
-8.42171109198e-05
0.000177102040226
-8.34730566647e-05
0.000196728768134
-8.27718789942e-05
0.00021173845426
-7.74733154573e-05
0.00022604854532
-6.7478199075e-05
0.00023860524782
-6.31547472212e-05
0.000189345196219
-1.11258812077e-05
-0.000247492990564
0.000128625438519
-9.81682784858e-05
0.000143835980449
-9.95433776671e-05
0.000160013187814
-0.000100379167169
0.00017837777289
-0.000101821115137
0.000198076888613
-0.000102454995671
0.000217879563581
-9.72641352166e-05
0.000237607294666
-8.72012804657e-05
0.000251649445671
-7.71966568329e-05
0.000213894846637
2.66359080777e-05
0.000283277017205
0.000127398769873
-0.000112542937792
0.000142339492067
-0.00011446265101
0.000158996521117
-0.000117012742319
0.000176632828426
-0.0001194329658
0.000195998996117
-0.000121798638541
0.000219913167351
-0.000121162590036
0.000247257986624
-0.000114540321029
0.000273393250727
-0.000103332818545
0.000232987817513
6.70307752969e-05
0.00118247526296
0.000124635239593
-0.000126576927997
0.000139969043524
-0.000129765764334
0.000156365946001
-0.000133377640814
0.000174216336232
-0.000137251521094
0.000194311136011
-0.000141865494918
0.000221361639721
-0.000148194640146
0.000254849332864
-0.00014802163194
0.000302284260543
-0.000150780558266
0.000547351900307
-0.000177818284422
-0.00128714191349
0.000120933950848
-0.000140611621616
0.000136121449605
-0.000144914940971
0.000152929478277
-0.000150147273632
0.000171196237485
-0.000155481665456
0.000192063263551
-0.000162701772022
0.000220579241554
-0.000176691323466
0.000255962378376
-0.000183398648568
0.000305745205425
-0.000200560288087
0.000309986206887
-0.000182079057757
-0.000693623841992
0.000115855963319
-0.000154285689525
0.000131112365618
-0.000160129312606
0.000147966519315
-0.000166960694195
0.000167077824537
-0.000174555529989
0.000189655950936
-0.000185249753205
0.000217147598676
-0.000204164920534
0.00025277251888
-0.000219018138465
0.000298156854945
-0.000245947945263
0.000274521357347
-0.000158443081022
-0.00027796069415
0.000109719007436
-0.000167342663632
0.00012426807778
-0.000174637680145
0.000140675228263
-0.000183329438826
0.000159741216254
-0.000193587422994
0.000182172175772
-0.000207654369977
0.000208813601434
-0.000230791349763
0.000240126853898
-0.000250327328
0.000279025152682
-0.000284849467633
0.000265923503351
-0.00014533316667
-9.99936464624e-05
0.000101918676845
-0.000179450238549
0.000115483929566
-0.000188166612748
0.000130886812105
-0.000198698761551
0.000149044697591
-0.000211716002189
0.00017060390111
-0.000229192346991
0.000194127500121
-0.000254303070964
0.00022232015351
-0.000278517032056
0.000255665920459
-0.000318193636136
0.000378776717292
-0.000268570684382
-0.000448024342097
9.27916740176e-05
-0.000190316136284
0.00010485960772
-0.000200204088191
0.000118535864522
-0.000212345226105
0.00013442723307
-0.000227584856733
0.000153076383488
-0.000247823732335
0.000173926867214
-0.000275145817798
0.00019773118756
-0.000302319344898
0.000221053909731
-0.000341532764386
0.000226689557297
-0.000274304891449
-0.000289580046493
8.2610630384e-05
9.28352231627e-05
0.00010429939673
0.000117498927047
0.000132858600129
0.000150094724006
0.000167956441738
0.000178289600199
0.000181565768581
)
;

boundaryField
{
    back
    {
        type            calculated;
        value           uniform 0;
    }
    sides
    {
        type            calculated;
        value           uniform 0;
    }
    bottom
    {
        type            calculated;
        value           nonuniform List<scalar> 0();
    }
    front
    {
        type            calculated;
        value           uniform 0;
    }
    atmosphere
    {
        type            calculated;
        value           nonuniform List<scalar> 
16
(
0.000218058298133
-0.000186482879988
-0.000373972400442
-0.000114835320092
0.00223530848075
0.000223589468144
-0.000307611360961
-0.000316869049816
-0.000666066378187
0.00301652307637
-0.000283384958701
-0.000141143099335
8.78938560143e-05
0.000726922554054
6.81643841207e-05
5.04988933942e-05
)
;
    }
    floatingObject
    {
        type            calculated;
        value           nonuniform List<scalar> 0();
    }
    procBoundary1to0
    {
        type            processor;
        value           nonuniform List<scalar> 10(-0.000199584491649 -0.000210402816044 -0.000223788115648 -0.000240764751246 -0.00026317232726 -0.000292375530858 -0.000320180157627 -0.000351890122655 -0.000277691528197 -0.000158613075775);
    }
    procBoundary1to2
    {
        type            processor;
        value           nonuniform List<scalar> 
18
(
-9.55789649252e-05
-9.36367595206e-05
-9.17243416828e-05
-3.45596478385e-05
-0.000102361606159
-4.58873993681e-05
-0.000114270914811
-0.000114788497412
-0.000115048952279
-0.000114592564741
-0.000112996729709
-0.000110559112289
-0.000106843608848
-0.000102118060364
-9.65983121e-05
-8.97551711331e-05
-8.18760440507e-05
-7.33097202993e-05
)
;
    }
}


// ************************************************************************* //
