/*--------------------------------*- C++ -*----------------------------------*\
| =========                 |                                                 |
| \\      /  F ield         | OpenFOAM: The Open Source CFD Toolbox           |
|  \\    /   O peration     | Version:  v2012                                 |
|   \\  /    A nd           | Website:  www.openfoam.com                      |
|    \\/     M anipulation  |                                                 |
\*---------------------------------------------------------------------------*/
FoamFile
{
    version     2.0;
    format      ascii;
    class       surfaceVectorField;
    location    "6";
    object      Uf;
}
// * * * * * * * * * * * * * * * * * * * * * * * * * * * * * * * * * * * * * //

dimensions      [0 1 -1 0 0 0 0];


internalField   nonuniform List<vector> 
306
(
(-0.00120499388552 0.0214617336379 3.716539346e-22)
(-0.00234242720634 0.020054849715 2.36151723912e-22)
(-0.00118164130752 0.0237508577164 2.5344526099e-22)
(-0.00228665402608 0.0223600278834 2.40597616229e-22)
(-0.00113399791951 0.0260003363474 -2.65191608077e-24)
(-0.00224676259774 0.0246156138371 2.87219903708e-23)
(-0.00105367466032 0.0281316745049 -2.89008607314e-22)
(-0.00212853214022 0.0267733718201 -1.99358460553e-22)
(-0.00095583121276 0.0300863231073 -1.03844971133e-21)
(-0.00195200814887 0.0288133749228 -4.85470375693e-22)
(-0.000627122660928 0.0317156955518 -1.31358279935e-21)
(-0.00162699667949 0.0309390103413 -1.7423592636e-21)
(0.00017416123244 0.0324813443566 9.63704000343e-22)
(-0.000763775481661 0.0314508618978 -3.26493205463e-21)
(0.000288716413951 0.0320927368371 5.79098366909e-21)
(0.00038976935165 0.0353592368608 -4.4237463784e-21)
(-0.00195805173414 0.0323435463039 1.47077293782e-20)
(-0.000250456103757 0.0313510967521 -1.42915123842e-21)
(-0.0121298260995 0.0358963941498 2.10107010264e-20)
(-0.00355242027718 0.0366930514126 5.64843200531e-21)
(-0.0256335831347 0.0419640900394 1.84868129235e-20)
(-0.00606665616543 0.0360136350747 4.18253293383e-21)
(-0.00164842482451 0.0119633347746 1.67676097096e-20)
(-0.00348511183206 0.0209953515766 1.05095405542e-22)
(-0.00460591156226 0.0196585854453 4.88605792929e-23)
(-0.00343876179959 0.0232495335522 1.58743456098e-23)
(-0.00453828519165 0.0219361344312 4.97209131425e-23)
(-0.00334927128684 0.0254866570572 -1.67984554101e-22)
(-0.00448116734806 0.0241950320163 -1.04591521962e-22)
(-0.00318449665403 0.0276603530657 -3.95820228932e-22)
(-0.00429946063894 0.0263940670233 -2.86004998603e-22)
(-0.0028609383943 0.0297498388797 -1.18937992796e-21)
(-0.00403889052098 0.028488288801 -6.43014796504e-22)
(-0.00205088545104 0.0316030130443 -3.69370851888e-21)
(-0.00347800421483 0.0306902156451 -2.23491167437e-21)
(-0.000659587545568 0.0333933533542 -8.65238243337e-21)
(-0.00255245348909 0.0315722505465 -5.61799696559e-21)
(-7.93791687981e-05 0.0353673288059 -1.16438812859e-20)
(-0.00158327479264 0.0362910419917 -1.65107106535e-20)
(-0.00141235398375 0.0363250765156 -1.04884486113e-20)
(-0.00120791429139 0.033628512079 -1.99059544692e-20)
(-0.000202910305949 0.0342371552879 -1.11797360872e-20)
(-0.00146464291537 0.0395500164094 -2.19855858958e-20)
(0.0130526138525 0.0217471975078 2.46332971997e-21)
(0.00642362958614 0.0420003249001 -3.32456117672e-20)
(0.0573957755882 -0.0309706452815 3.65894161248e-21)
(-0.00574279549877 0.0206534567962 -6.51391310627e-24)
(-0.00565767104564 0.0229668156548 -7.07449544292e-23)
(-0.0068481140917 0.0217006756663 -2.01671852486e-23)
(-0.0055127240848 0.0251750658238 -2.22611966463e-22)
(-0.00668684326734 0.0239979205422 -1.11743573911e-22)
(-0.00526683028532 0.0273618652001 -5.33199566175e-22)
(-0.0064837846402 0.0262532208205 -2.91239116053e-22)
(-0.0048139545122 0.0294507591961 -1.68854654291e-21)
(-0.00612561396646 0.0284262465313 -7.37217002864e-22)
(-0.00402166664369 0.0314138125538 -4.15920012108e-21)
(-0.00543925739372 0.0306852869493 -1.94150259875e-21)
(-0.00322272148596 0.0332748832583 -1.34763251857e-20)
(-0.00441227502723 0.0317049977445 -4.20686793791e-21)
(-0.00251475442632 0.0358441942551 -2.47727838368e-20)
(-0.00415188277253 0.0367068736723 -1.32548057413e-20)
(-0.00150591614163 0.0380091331905 -3.14030917537e-20)
(-0.0033726435617 0.0346658971904 -2.06499515545e-20)
(0.00664330064942 0.0374508020032 -4.40514615758e-20)
(-0.000906252855006 0.0406318362969 -2.62367112168e-20)
(0.0452399572868 0.0188957259656 -3.20499998747e-20)
(0.0249787536827 0.0430645468621 -3.56010261122e-20)
(0.151084766693 -0.0204504587693 -6.97805929549e-21)
(-0.00795548173403 0.0228041484247 -6.11658047306e-23)
(-0.00777060984368 0.0251307975675 -1.80370723501e-22)
(-0.0090108855988 0.0240311551516 -8.72820350443e-23)
(-0.00745037119479 0.0274409123286 -4.95256552742e-22)
(-0.00879187429773 0.0264000525468 -2.83711356768e-22)
(-0.00686236371337 0.0296425612639 -9.90173058704e-22)
(-0.00832555150731 0.028732456433 -7.32017658982e-22)
(-0.00599936870059 0.031711546713 -1.98917041558e-21)
(-0.00750693317584 0.031194148264 -1.55656470501e-21)
(-0.00562084956316 0.0339031129651 -3.98534849344e-21)
(-0.0066028979758 0.0326100996995 -2.37405669091e-21)
(-0.00531836859421 0.0369254447519 -9.13197345899e-21)
(-0.00717366275343 0.0378839084878 -4.11944425387e-21)
(-0.00313729464836 0.0397652285679 -1.54835710176e-20)
(-0.00621224301063 0.0357849062082 -1.02896601219e-20)
(0.0148019143197 0.0414450599776 -1.77862757531e-20)
(-0.00258565990707 0.0405662244881 -1.14446233747e-20)
(0.14485944603 0.037360033471 -1.05290855329e-20)
(0.0290620460234 0.0358774221436 2.31389365101e-20)
(0.211413477574 0.15387492524 5.68425548478e-21)
(-0.0101463696661 0.0253144987194 -1.90622668311e-22)
(-0.0114686491549 0.0241780452802 -8.59484058163e-23)
(-0.00979306754886 0.0277732252636 -5.20472463008e-22)
(-0.0112490647909 0.026727439797 -2.88062202971e-22)
(-0.00912913744119 0.0302603852035 -1.29840930529e-21)
(-0.0108114370121 0.0293187794723 -8.59910628735e-22)
(-0.0082774197028 0.032776740198 -1.94145098035e-21)
(-0.0100222193325 0.032127474458 -2.07055688806e-21)
(-0.00820517837146 0.0354860310555 -2.50815245134e-21)
(-0.0093113252776 0.0342235281407 -2.40686874281e-21)
(-0.00811782526542 0.0381664661436 -5.27713091678e-21)
(-0.00985348518925 0.0397631010565 -2.72355937663e-21)
(-0.00617152305389 0.0404673531864 -6.25071247899e-21)
(-0.00851284573195 0.0370545010846 -4.53490902389e-21)
(0.00329397300333 0.0444358829865 2.94805888885e-20)
(-0.0065550303582 0.0406642235586 7.17022837272e-23)
(0.0299058345742 0.0799013422639 3.93522775278e-20)
(-0.00640223468079 0.0361349424198 3.77437416321e-20)
(-0.155745759526 0.183092436389 8.84235268369e-21)
(-0.0127034751057 0.0255890660673 -1.83387940477e-22)
(-0.0140978975271 0.0243216054318 -1.00322666828e-22)
(-0.0124176072975 0.0282878299198 -6.27500368699e-22)
(-0.013946549072 0.027052061215 -3.20657582307e-22)
(-0.0118631328306 0.0311417121147 -1.63205821151e-21)
(-0.0136640641084 0.0299335948794 -1.01556709001e-21)
(-0.0111734330935 0.0342466383486 -2.53597465053e-21)
(-0.0131258986533 0.0331389572316 -2.49759992668e-21)
(-0.0110002663785 0.0375675528813 -2.6222756681e-21)
(-0.0126310413785 0.035958756244 -3.72516090511e-21)
(-0.0105024454527 0.0402093288605 -1.98133748374e-21)
(-0.0124943046314 0.0418904571687 -7.61484493421e-21)
(-0.00955419056534 0.0423311663287 1.78750573883e-21)
(-0.0106342768266 0.0387171308923 -3.2392910572e-21)
(-0.011983562355 0.0458972009496 8.33485502729e-21)
(-0.0101201682246 0.0426491910369 7.50187855757e-21)
(-0.131143266658 0.0515667459175 7.23381678796e-21)
(-0.0120763962834 0.0492236584507 9.34219715227e-21)
(-0.148888068349 0.0185301331999 -9.05773976777e-21)
(-0.0154677206809 0.0257442404398 -2.37592308658e-22)
(-0.0168303101644 0.0243494688383 -1.2570997137e-22)
(-0.015372187264 0.0286685136943 -7.08724303615e-22)
(-0.0168692194164 0.027212510049 -3.88903650416e-22)
(-0.0151668293385 0.0318496892391 -1.88110880518e-21)
(-0.016843422184 0.0302763152051 -9.83262624301e-22)
(-0.0148689782876 0.0354204080451 -3.68678618126e-21)
(-0.0166946113329 0.0337183140206 -2.41550050776e-21)
(-0.014364307478 0.0393457536269 -8.71773017121e-21)
(-0.0165543757988 0.036902494873 -3.63101473469e-21)
(-0.0130474666117 0.042347690852 -8.87279850767e-21)
(-0.0154946630915 0.0431960127745 -1.17165466476e-20)
(-0.0118851483998 0.0452097090639 2.47508176154e-21)
(-0.013495639815 0.0402524770665 -8.52481728371e-21)
(-0.00915225818922 0.047721049564 8.50922068255e-21)
(-0.0126309494442 0.0452235225183 -8.43370773104e-22)
(-0.0510368404129 0.0378690392437 -6.94935940347e-21)
(-0.00222517624153 0.0572769722886 -9.20349842946e-21)
(-0.0494985981127 -0.0228159341248 -1.29293911902e-20)
(-0.0183796896144 0.0257250877037 -2.77021313128e-22)
(-0.0196336556972 0.0241879557251 -1.32334172714e-22)
(-0.0185318014499 0.0287671960899 -6.63441971102e-22)
(-0.0199086755334 0.0271125586674 -3.76358135765e-22)
(-0.0186867036941 0.0320026375629 -1.51765432688e-21)
(-0.0200758334339 0.0302474886496 -8.24821893464e-22)
(-0.0187720030903 0.0356755545781 -2.35972906119e-21)
(-0.0203642230273 0.0337401489724 -1.66914669801e-21)
(-0.0181838025312 0.0396153777226 -6.6298312111e-21)
(-0.0204909991341 0.0369224991078 -2.34037550165e-21)
(-0.016440621903 0.0435759127161 -1.13685654237e-20)
(-0.0194528270433 0.0434164547559 -5.93638408267e-21)
(-0.0144593315469 0.0475214589331 -1.18432698184e-20)
(-0.0174402560931 0.0412982652006 -9.02888619969e-21)
(-0.00590099783905 0.0503298891342 -1.85560898851e-20)
(-0.0154393313666 0.0470852464204 -9.86393350612e-21)
(0.000543004904268 0.0427789693275 -1.51835302162e-20)
(0.00532718161554 0.0564693171248 -1.68662029059e-20)
(0.0566554034411 -0.0366785010999 -5.23082207007e-21)
(-0.0213258827036 0.0254797539746 -2.31670995351e-22)
(-0.0225085875583 0.0237994339518 -1.17482476745e-22)
(-0.021696823321 0.0284678984134 -5.37738058127e-22)
(-0.0228925302021 0.0267430202286 -3.05297113148e-22)
(-0.0220930828569 0.0317993042234 -9.76314264594e-22)
(-0.0234025484638 0.0299151553974 -6.55456978424e-22)
(-0.0224665523009 0.0353265656852 -1.64979313847e-21)
(-0.02388659316 0.0334090458255 -1.13564370954e-21)
(-0.0222913420725 0.0391997992235 -1.64692837322e-21)
(-0.0243597277082 0.0365746156993 -2.04200773245e-21)
(-0.0210167988284 0.0439826334702 -3.5967048587e-21)
(-0.0242325180072 0.043259183722 -2.48855050441e-21)
(-0.0188010647754 0.0494515973247 -7.04954988745e-21)
(-0.0229080642058 0.041961154051 -9.24201611529e-21)
(-0.00225649018417 0.0546786501453 -8.17404652686e-21)
(-0.020666563709 0.0481464101795 -9.42372997137e-21)
(0.10296352681 0.0465975635026 -6.91349475975e-21)
(0.0134061550594 0.0545030644156 -3.94282333061e-21)
(0.236495052592 0.174158036537 -3.29098519977e-21)
(-0.0242255829172 0.0249270479186 -1.91108594541e-22)
(-0.0253153855993 0.0231747569088 -1.08459566637e-22)
(-0.0248124604 0.0279938087049 -4.23016033444e-22)
(-0.0259531528669 0.0261135809308 -2.72247547916e-22)
(-0.0254370307539 0.0312731892003 -8.14786423371e-22)
(-0.0266755281628 0.0293140187338 -5.91348012408e-22)
(-0.0261110135861 0.0348432672465 -1.52785830352e-21)
(-0.0274503042188 0.0328466901514 -1.00032565726e-21)
(-0.0267416836872 0.0388622272022 -2.88362986364e-21)
(-0.0283730989837 0.0362051869467 -2.10393600004e-21)
(-0.0266512337115 0.0442723279441 -8.133861761e-21)
(-0.0296389280292 0.0431010724756 -1.84796676009e-21)
(-0.0257535366842 0.0509698665727 -1.16161961992e-20)
(-0.0296043263881 0.0420084542095 -9.72727744555e-21)
(-0.0159493519327 0.0604568521086 -5.19250677512e-21)
(-0.0301561116532 0.0483284221081 -1.01647182249e-20)
(0.0030879255223 0.109470380061 -3.20313770623e-22)
(-0.0355636568844 0.0540706305292 -3.84470509402e-21)
(-0.257428382699 0.208630213001 1.84661704123e-21)
(-0.0271338369446 0.0241867901695 -1.89598520011e-22)
(-0.0281223243232 0.0223138212448 -1.0778515379e-22)
(-0.0279619892369 0.027224289921 -4.40579526879e-22)
(-0.0289829881942 0.0252333066326 -2.19291467431e-22)
(-0.0288406466021 0.0305858956554 -7.76887246293e-22)
(-0.0300294547264 0.0284507670914 -5.36002468554e-22)
(-0.0298786109785 0.034239247497 -1.57640335378e-21)
(-0.0310963330913 0.0320359642206 -9.79339874163e-22)
(-0.0315200791134 0.0384126527103 -1.0682728965e-21)
(-0.0325403544045 0.0356741502289 -2.18636909118e-21)
(-0.0329529474054 0.0441158483107 -3.44138244464e-21)
(-0.0353382646932 0.0427357936851 -1.34952814067e-21)
(-0.034430842233 0.0511924756752 -8.27579947127e-21)
(-0.0366797297136 0.0412800334686 -7.2843698039e-21)
(-0.0360287824523 0.0611490410851 -8.81691654383e-21)
(-0.0401120576173 0.0476658515729 -9.18810817e-21)
(-0.148771099653 0.0619972413774 -1.67777428217e-21)
(-0.0364158115515 0.0574739105628 -9.07595039695e-21)
(-0.138724768398 0.012979976913 8.58759952213e-21)
(-0.0300268445355 0.0231711926638 -1.3747810121e-22)
(-0.030857137905 0.0212396710744 -9.53592982013e-23)
(-0.0311331891322 0.0262224731236 -3.14714409106e-22)
(-0.0320258625213 0.024081502797 -1.4994951149e-22)
(-0.0323541290078 0.0295933038629 -7.38455096424e-22)
(-0.0333921388389 0.0272375065068 -4.25768440364e-22)
(-0.0338732469404 0.0334155649073 -1.58930561157e-21)
(-0.0349111059977 0.0308107280245 -9.53446557898e-22)
(-0.0364469196314 0.0379311901871 -2.46762433536e-21)
(-0.037049950641 0.0346507150862 -1.91041909009e-21)
(-0.0392938011955 0.0434295197351 -5.19251549994e-21)
(-0.0408329841068 0.0417136667282 -4.79137316639e-21)
(-0.0427387604283 0.050554503776 -8.19667850263e-21)
(-0.043803627693 0.039687897896 -9.18164279112e-21)
(-0.0397847927272 0.0596313709889 -9.44714202312e-21)
(-0.0491895890527 0.0455194298759 -8.76118774094e-21)
(-0.0628038069129 0.0549042714694 1.18942340735e-21)
(-0.0316886162044 0.0578916227195 -1.02876636127e-20)
(-0.05559213883 0.0189207359952 4.50064396634e-21)
(-0.0328320592051 0.0219438014872 -1.07830708482e-22)
(-0.0334685327263 0.0199249776271 -9.5622509652e-23)
(-0.0342601544312 0.024853615556 -2.61003542749e-22)
(-0.034927536029 0.0226000087536 -1.45462792904e-22)
(-0.0359191621672 0.0281350456525 -6.40759901839e-22)
(-0.0366658877653 0.025588706612 -4.00794010163e-22)
(-0.0380324227109 0.0319482432509 -1.27456003642e-21)
(-0.0387174845988 0.0290219962828 -8.18673019743e-22)
(-0.0413889987781 0.0364344351544 -4.23416792112e-21)
(-0.0415308739954 0.0328166497679 -1.89511431691e-21)
(-0.0452974045916 0.0417627202868 -8.78050045757e-21)
(-0.0461582699526 0.0395895114034 -2.69516502588e-21)
(-0.0502109094921 0.0480253707796 -9.74615202942e-21)
(-0.0500654656 0.0371495187635 -6.44740371899e-21)
(-0.0422550978301 0.0558050305365 -9.60170933053e-21)
(-0.0569698935266 0.0417514976531 -1.0484290906e-20)
(-0.0179550415131 0.0531847006702 -6.97644305372e-21)
(-0.029066633334 0.052419533272 -1.12558866931e-20)
(-0.0199987292925 0.0862909919449 -5.71863914919e-21)
(-0.0354893364577 0.020383735369 -1.33254594074e-22)
(-0.0358900477098 0.0183415804174 -9.34331042646e-23)
(-0.0372481205708 0.0230967859132 -2.85253260318e-22)
(-0.0376333225497 0.0207811131936 -1.22070262991e-22)
(-0.0393670733916 0.0261773624209 -5.78707128068e-22)
(-0.0397397523102 0.0235045053559 -2.84043140291e-22)
(-0.0421055617345 0.0298089395182 -1.43922730024e-21)
(-0.0423432004378 0.0266353336993 -4.25520789504e-22)
(-0.0460980494316 0.0341207802219 -3.56111421675e-22)
(-0.0458384693983 0.0301221371926 -8.4515140032e-22)
(-0.0507440990946 0.0388255000242 -3.620682873e-22)
(-0.0508606141928 0.036275836381 2.93310336514e-21)
(-0.056774526056 0.044464030702 -7.1855425956e-21)
(-0.0557034064113 0.033683146924 -2.32092176028e-21)
(-0.0511160421368 0.0511331840918 -1.21384682687e-20)
(-0.0636387272272 0.0369321856921 -1.15682494632e-20)
(-0.0423585813249 0.0757553434583 -9.99808278862e-21)
(-0.0537141368764 0.047230124542 -1.2768688134e-20)
(-0.0896048684194 0.0844767099465 -1.03523826959e-20)
(-0.0379087343477 0.0185583348035 -8.22487731823e-23)
(-0.0380632272569 0.0165504383046 -6.69957817068e-23)
(-0.0399756967817 0.020971921544 -1.20860142965e-22)
(-0.0400408176381 0.0186808219328 -9.12234898438e-23)
(-0.0425246439819 0.0237071729044 -1.30856801727e-22)
(-0.042469045221 0.0210450430086 -1.63555764352e-22)
(-0.0458293311529 0.0268854466141 1.68555110416e-22)
(-0.0455169713466 0.0237346085551 -1.67592162063e-22)
(-0.0503376261582 0.0306152766977 2.44406338649e-21)
(-0.049564746467 0.0267396020719 1.18026506455e-22)
(-0.05552045555 0.0347853734429 9.74249892158e-22)
(-0.0550291635596 0.0320099598832 3.66123513703e-21)
(-0.0621547291566 0.039546237512 -6.70362862786e-21)
(-0.0604638689797 0.0293287796821 -2.01197426938e-21)
(-0.0604304442752 0.0442107819461 -1.21984693285e-20)
(-0.0683065528772 0.0311801942509 -1.07588664197e-20)
(-0.0717657492915 0.0453379114595 -1.31229880412e-20)
(-0.0548609782899 0.0418083739271 -1.1562140409e-20)
(-0.0579160092985 0.0245303491292 -5.07728055699e-21)
(-0.0400245133125 0.0165221260768 -7.59704983683e-23)
(-0.0423444385072 0.0185670446325 -1.33919111231e-22)
(-0.0452368297896 0.0208598793461 -2.00291124687e-22)
(-0.0489869925478 0.0234997854095 -2.18120766024e-22)
(-0.0539466730475 0.0265717200259 1.33519825699e-21)
(-0.0595064702806 0.0300189448013 6.7501097549e-22)
(-0.0658571198583 0.0335912883476 -6.06721206125e-21)
(-0.0625535790458 0.0356579200398 -1.01225375002e-20)
(-0.0484639172279 0.0363131537161 -3.51643292477e-21)
)
;

boundaryField
{
    back
    {
        type            calculated;
        value           uniform (0 0 0);
    }
    sides
    {
        type            calculated;
        value           uniform (0 0 0);
    }
    bottom
    {
        type            calculated;
        value           nonuniform List<vector> 0();
    }
    front
    {
        type            calculated;
        value           uniform (0 0 0);
    }
    atmosphere
    {
        type            calculated;
        value           nonuniform List<vector> 
16
(
(-0.0308048954545 0.0436116596266 1.57034988889e-20)
(0 -0.0372965759977 0)
(0 -0.0747944800885 0)
(0 -0.0229670640184 0)
(0.0485631240861 0.44706169615 1.48107922552e-20)
(-0.247581804272 0.0447178936288 2.87391311222e-21)
(0 -0.0615222721923 0)
(0 -0.0633738099632 0)
(0 -0.133213275637 0)
(0.012852547423 0.603304615274 -9.89715991984e-22)
(0 -0.0566769917401 0)
(0 -0.028228619867 0)
(-0.00474815466906 0.0175787712029 -3.49096103714e-21)
(-0.0430599116334 0.145384510811 -7.94631726125e-21)
(-0.0888957016056 0.0136328768241 -1.27584481305e-20)
(-0.0412925257074 0.0100997786788 2.60388701655e-21)
)
;
    }
    floatingObject
    {
        type            calculated;
        value           nonuniform List<vector> 0();
    }
    procBoundary1to0
    {
        type            processor;
        value           nonuniform List<vector> 10((-0.0399168983297 0.0146256970342 -4.36168408934e-23) (-0.0420805632089 0.0163970812769 -1.00015008682e-22) (-0.0447576231295 0.0183368857702 -2.37850433943e-22) (-0.0481529502491 0.0204926030504 -5.76545717604e-22) (-0.052634465452 0.0228608233489 -1.08785134262e-21) (-0.0584751061715 0.0271442163153 1.16768589631e-21) (-0.0640360315255 0.0243940249888 -2.84741830726e-21) (-0.0703780245309 0.024736837663 -8.26691692224e-21) (-0.0555383056394 0.0352611021762 -7.71914512928e-21) (-0.0317226151549 0.0228615588522 -2.68837947789e-22));
    }
    procBoundary1to2
    {
        type            processor;
        value           nonuniform List<vector> 
18
(
(-0.00121375715496 0.019115792985 1.96197952246e-22)
(-0.00352180019899 0.0187273519041 -2.1946063563e-23)
(-0.00580025265651 0.0183448683366 -5.91397430794e-23)
(-0.0069119295677 0.0194015199139 -1.25425097929e-23)
(-0.00806040634977 0.0204723212317 -2.61957819352e-23)
(-0.00917747987363 0.0216412814867 -2.29652467197e-23)
(-0.0103298951794 0.0228541829622 -4.90814770334e-23)
(-0.0128310409204 0.0229576994824 -4.87572523051e-23)
(-0.01546995671 0.0230097904558 -5.75999844727e-23)
(-0.0182072668258 0.0229185129482 -8.36563084144e-23)
(-0.0209615824155 0.0225993459417 -7.61444429863e-23)
(-0.0236845257791 0.0221118224578 -6.38832207972e-23)
(-0.0263872984898 0.0213687217697 -6.87979617652e-23)
(-0.0290436097537 0.0204236120729 -6.80372287891e-23)
(-0.0315985141924 0.01931966242 -4.77644695017e-23)
(-0.0339969162759 0.0179510342266 -5.96409293068e-23)
(-0.0361895151802 0.0163752088101 -3.74208957954e-23)
(-0.0381146208007 0.0146619440599 -1.3585779941e-23)
)
;
    }
}


// ************************************************************************* //
