/*--------------------------------*- C++ -*----------------------------------*\
| =========                 |                                                 |
| \\      /  F ield         | OpenFOAM: The Open Source CFD Toolbox           |
|  \\    /   O peration     | Version:  v2012                                 |
|   \\  /    A nd           | Website:  www.openfoam.com                      |
|    \\/     M anipulation  |                                                 |
\*---------------------------------------------------------------------------*/
FoamFile
{
    version     2.0;
    format      ascii;
    class       volVectorField;
    location    "3.5";
    object      U;
}
// * * * * * * * * * * * * * * * * * * * * * * * * * * * * * * * * * * * * * //

dimensions      [0 1 -1 0 0 0 0];


internalField   nonuniform List<vector> 
167
(
(-0.0302555486526 -0.00320604296955 3.77343568172e-23)
(-0.0308564857212 -0.00422273590987 -2.81379819219e-23)
(-0.0314882598385 -0.00525764794451 -9.5382582232e-24)
(-0.0322063114983 -0.00631244474815 2.62814781561e-24)
(-0.0330197845669 -0.00739733327311 1.60827522288e-23)
(-0.0339230426477 -0.00851934835492 3.30832266464e-23)
(-0.0348965939338 -0.00968480427601 9.66229139914e-24)
(-0.0359116515175 -0.01089867095 -1.77709986699e-23)
(-0.0276259182316 -0.00145260046785 1.62961677198e-22)
(-0.0285211284786 -0.00252575101539 -2.09180173451e-23)
(-0.0292005929118 -0.00362681581523 -9.83920577633e-24)
(-0.0297770735937 -0.00475779118856 -4.09529017395e-23)
(-0.0303856815788 -0.00590248282335 -6.39776028378e-24)
(-0.0310789233929 -0.00706332139896 -2.46827577455e-24)
(-0.0318670963591 -0.00824452872196 -3.86994456846e-24)
(-0.032740091285 -0.00944538260913 2.68973897617e-23)
(-0.0336802852439 -0.0106663240422 7.24210245461e-24)
(-0.0346569982786 -0.0119037539856 -1.97029922601e-23)
(-0.035614748308 -0.0131583295385 -3.02950970931e-23)
(-0.0265298066399 -0.00163113836492 1.848763812e-22)
(-0.0273786738211 -0.00282010763673 3.89541718386e-23)
(-0.0280270425411 -0.00403598901672 6.79305667054e-23)
(-0.0285838950651 -0.00527734793523 -1.00030840561e-23)
(-0.029177588741 -0.00653155648306 -1.38590630451e-23)
(-0.0298569844819 -0.00779545095885 -6.79375720628e-24)
(-0.0306304168632 -0.00907036497459 -3.28614360205e-24)
(-0.031489799863 -0.0103524496295 2.00892716303e-24)
(-0.0324228979562 -0.0116337760088 -1.07851701462e-24)
(-0.033404813956 -0.0129006003947 -1.44993109402e-23)
(-0.0343929190233 -0.0141414469873 -4.55688036652e-23)
(-0.0253164220571 -0.00180515653681 4.16731506725e-22)
(-0.0261205131041 -0.00310546334411 2.14822831334e-22)
(-0.0267402160952 -0.00443598268686 1.32327673372e-22)
(-0.0272819389142 -0.0057899027677 1.10812618492e-23)
(-0.0278655760482 -0.00715244353688 -2.0831593394e-23)
(-0.0285376837988 -0.00851954337568 -7.61853334234e-24)
(-0.0293068810114 -0.00989120546131 -4.31037996122e-24)
(-0.0301652393551 -0.0112608466509 -6.53676192759e-24)
(-0.0311097574431 -0.0126159440286 -7.2467313348e-24)
(-0.0321242556717 -0.0139387420612 -1.34965023752e-23)
(-0.0229467645471 -0.000753286642006 6.38350455467e-22)
(-0.0239929084619 -0.00197234547503 6.26846116046e-22)
(-0.0247498469281 -0.00338479277505 3.14461885203e-22)
(-0.0253431692163 -0.00482920932545 1.26576813333e-22)
(-0.02587139974 -0.00629444386175 8.80250732924e-24)
(-0.0264470403921 -0.00776785137179 -1.4543464376e-23)
(-0.0271145766974 -0.00924271375489 -4.45850387469e-24)
(-0.0278832755217 -0.0107151553022 1.42399874996e-23)
(-0.028752458039 -0.0121822893547 -3.60188010354e-25)
(-0.0297214516362 -0.0136295821486 1.08530510089e-24)
(-0.0307826206817 -0.0150341830692 -4.86454851802e-25)
(-0.0215904494851 -0.000808035643931 5.8750782123e-22)
(-0.0225600743342 -0.00213604689165 6.40647955174e-22)
(-0.0232677635429 -0.00365864755497 2.99150776948e-22)
(-0.023834418353 -0.0052155582433 1.47580713073e-22)
(-0.0243499104342 -0.00679270931953 6.39158355688e-24)
(-0.0249178905474 -0.00837756128932 -8.20308724306e-24)
(-0.02558174146 -0.00996320968347 -1.99998901116e-24)
(-0.0263541913228 -0.0115493984882 2.20404920332e-24)
(-0.027241695647 -0.0131288590973 -6.36812678032e-24)
(-0.0282405297071 -0.0146830216045 6.50581586262e-24)
(-0.02935372064 -0.0161933033436 3.59887120439e-24)
(-0.020122373901 -0.000863183691002 3.61088775813e-22)
(-0.0210150122725 -0.00229645900552 6.30463254281e-22)
(-0.0216749611909 -0.00392653267509 3.23469179664e-22)
(-0.0222155841878 -0.00559589710643 1.40078006976e-22)
(-0.0227158903369 -0.00728461238048 1.50364616422e-23)
(-0.023274828414 -0.00898301389742 -5.74239897925e-24)
(-0.02393606354 -0.0106876536387 6.9266135907e-25)
(-0.024713325306 -0.0123957737454 1.96332600778e-23)
(-0.0256143979248 -0.0140958766167 -4.18486462007e-24)
(-0.0266448183187 -0.0157756373207 5.3233837147e-24)
(-0.0185464192236 -0.000918363359084 5.77458263611e-22)
(-0.0193611631971 -0.00245413824825 8.61576123609e-22)
(-0.0199749412406 -0.00419012037707 5.39041949932e-22)
(-0.0204857639745 -0.00596813706073 2.27146543342e-22)
(-0.0209685361596 -0.00776581204743 4.483200409e-23)
(-0.0215166523177 -0.00958150994933 -6.62436653957e-25)
(-0.0221713175243 -0.0114083925913 5.48077571223e-24)
(-0.0229456218759 -0.0132433766617 3.37412031223e-24)
(-0.0238546407665 -0.0150810891619 -1.46387009567e-25)
(-0.0168697325027 -0.000969194787199 9.21741737681e-22)
(-0.0176049488683 -0.0026084136641 1.09428036581e-21)
(-0.0181692297563 -0.00444548310877 7.22284629776e-22)
(-0.0186464009254 -0.00632766935531 3.17078827786e-22)
(-0.0191094175072 -0.00823617733672 4.82102486722e-23)
(-0.0196411922919 -0.0101694508796 2.00373918504e-23)
(-0.0202771155557 -0.0121177871483 1.75548775562e-23)
(-0.0210396304429 -0.0140851841882 1.21943369784e-23)
(-0.0219454341939 -0.0160680756017 1.07118290191e-23)
(-0.0150945785352 -0.00102024147043 8.71842573071e-22)
(-0.0157509728333 -0.00275608490326 1.19165425344e-21)
(-0.0162609086636 -0.00468966948057 8.42591918372e-22)
(-0.0167029021746 -0.00667352799309 3.88656561163e-22)
(-0.017139290757 -0.00868866632608 1.10835997794e-22)
(-0.0176432238156 -0.0107315134093 2.66662880869e-23)
(-0.0182507430254 -0.0128029064222 8.51387665902e-24)
(-0.0189873849523 -0.0149105390056 1.26609071297e-23)
(-0.0198733256049 -0.0170540541393 4.93260214482e-24)
(-0.0209275795584 -0.0192265505761 -1.10268669156e-23)
(-0.0132243422511 -0.00107207957845 5.74923055937e-22)
(-0.0138035711185 -0.00289628738492 9.94448327551e-22)
(-0.0142595148655 -0.00491985633869 7.78968854371e-22)
(-0.0146605353541 -0.00699804403741 3.95742890726e-22)
(-0.0150623273108 -0.00911083784304 1.23587635378e-22)
(-0.0155286282934 -0.0112617824113 4.02649017889e-23)
(-0.0160985622834 -0.0134547651232 7.49880614631e-24)
(-0.0167885424057 -0.0157009879028 2.03785049692e-23)
(-0.0176293115376 -0.0180001092933 1.51518340174e-23)
(-0.0186419859626 -0.020356428019 7.15731364038e-24)
(-0.0112606353604 -0.00112670667758 3.8977662081e-22)
(-0.0117650854844 -0.00303107044926 9.43194196346e-22)
(-0.0121719445437 -0.00513046261958 7.70060822767e-22)
(-0.0125278588671 -0.00729178801673 3.9949669543e-22)
(-0.012886380605 -0.00949466955801 1.66414878678e-22)
(-0.0133052746206 -0.0117453584048 7.4511253544e-23)
(-0.0138195738408 -0.0140491468516 4.99426238622e-23)
(-0.0144492773257 -0.0164277213565 4.43415088029e-23)
(-0.0152138575728 -0.0188887396084 2.85574616941e-23)
(-0.0161478679136 -0.0214330587314 3.17836080519e-23)
(-0.00920235509251 -0.00118424171572 3.96711857658e-22)
(-0.00964544432268 -0.00315568723952 9.74764299041e-22)
(-0.0100093247702 -0.00531573935909 7.62560020106e-22)
(-0.0103210866287 -0.0075407420947 3.97512220175e-22)
(-0.0106237540434 -0.00981894688411 1.88563276206e-22)
(-0.0109808625085 -0.0121565447218 1.42257735753e-22)
(-0.0114197154945 -0.0145639957655 1.08296906246e-22)
(-0.0119676389125 -0.0170577822025 1.22806042051e-22)
(-0.0126358137137 -0.019656930458 1.0826911648e-22)
(-0.0134518036104 -0.0223783304099 6.15301005573e-23)
(-0.00705578040462 -0.0012416999004 8.15719668804e-22)
(-0.00747187593632 -0.00325107927997 1.1902287238e-21)
(-0.0077962026102 -0.00545255075498 7.80352887559e-22)
(-0.00805147750548 -0.00771365508991 3.8014922726e-22)
(-0.00828728107827 -0.010040344055 1.93293245418e-22)
(-0.00856722040308 -0.0124429536792 2.32905869984e-22)
(-0.00891583769163 -0.0149300821587 1.78199313175e-22)
(-0.00935684291052 -0.0175214306365 2.67373192056e-22)
(-0.00990442074718 -0.020232461413 2.42215492773e-22)
(-0.010573035866 -0.0230909832642 1.18786148496e-22)
(-0.00486063896579 -0.0012553456892 1.18552134853e-21)
(-0.00528118493147 -0.00326255604262 1.45285572287e-21)
(-0.00556097146469 -0.00546678975805 8.89791615764e-22)
(-0.0057398692302 -0.00774094886239 4.31300472839e-22)
(-0.00589650616513 -0.010092168623 3.6464037974e-22)
(-0.0060872601289 -0.0125270183594 4.22658577595e-22)
(-0.006338415822 -0.0150569860713 3.53225595962e-22)
(-0.00665770672184 -0.0177033206628 4.62468442596e-22)
(-0.00705675136291 -0.0204829624683 4.42300163856e-22)
(-0.00268345979915 -0.00115486226745 6.56861312283e-22)
(-0.00312323543816 -0.00310538140498 9.06526252606e-22)
(-0.00334134310329 -0.00528837923716 5.77652823175e-22)
(-0.00344158376875 -0.00756200857465 3.64595612225e-22)
(-0.0035169452737 -0.00991261460325 4.34536569194e-22)
(-0.00362359361189 -0.0123434998923 5.90056843801e-22)
(-0.00377567406816 -0.0148652922477 4.05535246731e-22)
(-0.00396950663989 -0.0175032591833 6.49116352185e-22)
(-0.00421558238049 -0.0202841887492 6.59537689448e-22)
(-0.000810109054792 -0.000819337979726 2.50989002966e-22)
(-0.00115103280034 -0.00267448812253 4.30525103028e-22)
(-0.00127186982205 -0.00489051407886 3.38425254546e-22)
(-0.00129222239639 -0.00716499370564 4.04170727371e-22)
(-0.00128721730045 -0.00948370377184 4.81970010733e-22)
(-0.00130953926362 -0.0118535544934 6.66938271494e-22)
(-0.00135231188265 -0.0142921856838 5.35802873702e-22)
(-0.00141288360335 -0.0168457720594 1.02035945329e-21)
(-0.00149824039348 -0.0195455130891 9.70088465173e-22)
)
;

boundaryField
{
    back
    {
        type            noSlip;
    }
    sides
    {
        type            noSlip;
    }
    bottom
    {
        type            noSlip;
    }
    front
    {
        type            noSlip;
    }
    atmosphere
    {
        type            pressureInletOutletVelocity;
        value           nonuniform List<vector> 0();
    }
    floatingObject
    {
        type            movingWallVelocity;
        value           nonuniform List<vector> 0();
    }
    procBoundary10to9
    {
        type            processor;
        value           nonuniform List<vector> 
15
(
(-0.0311908911436 -0.00276797073077 7.80064995308e-23)
(-0.0318181846801 -0.00366263228338 -2.87303089732e-23)
(-0.0324771041075 -0.00458036003563 -1.62782869423e-23)
(-0.0332288092027 -0.00552942472044 -1.06706366751e-24)
(-0.0340815166345 -0.00651691994421 1.78569443907e-23)
(-0.0350334543734 -0.00755155283962 4.52133262019e-23)
(-0.0360680935255 -0.00864949828539 1.36051149643e-23)
(-0.0371656289917 -0.00982709876641 -1.37961803333e-23)
(-0.0286000529848 -0.00126957893284 2.04398100416e-22)
(-0.0295445114985 -0.00222361964692 8.95519931544e-23)
(-0.0295445114985 -0.00222361964692 8.95519931544e-23)
(-0.0263647330523 -0.00056954088367 -1.85901078466e-23)
(-0.0253378111122 -0.000633196975015 1.06692793888e-22)
(-0.0241958817888 -0.000694896626222 2.79897754263e-22)
(-0.0241958817888 -0.000694896626222 2.79897754263e-22)
)
;
    }
    procBoundary10to11
    {
        type            processor;
        value           nonuniform List<vector> 
23
(
(-0.0369119292493 -0.012179654989 -3.64972401578e-23)
(-0.0369119292493 -0.012179654989 -3.64972401578e-23)
(-0.0364502882127 -0.0144241622031 -2.15055847642e-22)
(-0.0353101403269 -0.0153153750056 -2.71077008951e-22)
(-0.0331812038568 -0.0152158736953 -2.47911154281e-23)
(-0.0331812038568 -0.0152158736953 -2.47911154281e-23)
(-0.0319179093586 -0.0163860912143 -5.59480521855e-23)
(-0.0305699400833 -0.0176502211241 -1.29997932456e-22)
(-0.0278098242649 -0.0174156977397 -4.99063218025e-23)
(-0.0278098242649 -0.0174156977397 -4.99063218025e-23)
(-0.0249089419099 -0.016903100917 -1.85658266448e-23)
(-0.0249089419099 -0.016903100917 -1.85658266448e-23)
(-0.0230101005354 -0.0180545634319 8.90912372213e-25)
(-0.0230101005354 -0.0180545634319 8.90912372213e-25)
(-0.0221737943773 -0.0214182506292 -4.47304630076e-23)
(-0.0198537304995 -0.0227790979008 -3.54565141092e-23)
(-0.0172802181206 -0.0240787398284 1.78407325917e-24)
(-0.0144502170667 -0.025243660249 7.3965173157e-23)
(-0.0113919452447 -0.026130021009 1.87930445431e-22)
(-0.00754888843917 -0.0234275644236 2.91301474112e-22)
(-0.00754888843917 -0.0234275644236 2.91301474112e-22)
(-0.00451975159355 -0.0232441653487 4.64731279547e-22)
(-0.00160457390649 -0.0224219040885 7.31804892276e-22)
)
;
    }
}


// ************************************************************************* //
