/*--------------------------------*- C++ -*----------------------------------*\
| =========                 |                                                 |
| \\      /  F ield         | OpenFOAM: The Open Source CFD Toolbox           |
|  \\    /   O peration     | Version:  v2012                                 |
|   \\  /    A nd           | Website:  www.openfoam.com                      |
|    \\/     M anipulation  |                                                 |
\*---------------------------------------------------------------------------*/
FoamFile
{
    version     2.0;
    format      ascii;
    class       volScalarField;
    location    "0.2";
    object      ddt0(k);
}
// * * * * * * * * * * * * * * * * * * * * * * * * * * * * * * * * * * * * * //

dimensions      [0 2 -3 0 0 0 0];


internalField   nonuniform List<scalar> 
164
(
-0.132104394083
-0.132075785284
-0.132045240792
-0.132013257276
-0.131980381047
-0.1319470422
-0.131910981213
-0.131836616096
-0.131359295399
-0.127641445187
-0.105537125692
-0.0293381273366
-0.13202274615
-0.13198969686
-0.131954304906
-0.131917082148
-0.13187863861
-0.131839455038
-0.131796781474
-0.131709181456
-0.131168015288
-0.127129750283
-0.104156236508
-0.0285103068625
-0.131858199885
-0.131814509284
-0.131769144521
-0.131722636708
-0.13167159804
-0.131567333975
-0.130948837003
-0.126539697796
-0.102610882526
-0.0275937755002
-0.131756921917
-0.13170528603
-0.131651382242
-0.13159574394
-0.131534145266
-0.131408798278
-0.130695890197
-0.125854899611
-0.100873578739
-0.0265728434367
-0.131650485584
-0.131589173911
-0.131524784749
-0.131457820331
-0.131382905424
-0.131230747635
-0.130401633259
-0.125054591015
-0.0989106228297
-0.0254262692886
-0.131539032976
-0.131466013624
-0.131388808771
-0.131307856462
-0.131216170196
-0.131029739127
-0.130056396281
-0.124112457231
-0.096680779223
-0.0241237494614
-0.13142284394
-0.131335761628
-0.131242985228
-0.131144822395
-0.131032056707
-0.130801590566
-0.129647774604
-0.122995290754
-0.0941341867998
-0.0226193824795
-0.131302388184
-0.131198540473
-0.131086989185
-0.130967747632
-0.130828537196
-0.130541244866
-0.129159909506
-0.121661677381
-0.0912121900982
-0.0208397756238
-0.131178380397
-0.13105472201
-0.130920725729
-0.13077583946
-0.13060351644
-0.130242645941
-0.128572684779
-0.1200608167
-0.0878481721574
-0.0186661509426
-0.131051842541
-0.13090502191
-0.130744467522
-0.130568678994
-0.130355028142
-0.129898663941
-0.127860898919
-0.118130088157
-0.0839590688787
-0.0159253372242
-0.13092417345
-0.130750627458
-0.130559077326
-0.130346523266
-0.130081635447
-0.12950131578
-0.126994234356
-0.115795866384
-0.0794071168433
-0.0124280171778
-0.130797224341
-0.130593353234
-0.130366296928
-0.130110800696
-0.12978326568
-0.129042828693
-0.12593662606
-0.112946998042
-0.0739866370233
-0.00883936545009
-0.13067337197
-0.13043581738
-0.130169131046
-0.129864899212
-0.129462736537
-0.128519063833
-0.124647277171
-0.109440264626
-0.0679598936987
-0.00700428860755
-0.130555957698
-0.130281732526
-0.129972407383
-0.129615404207
-0.129129095037
-0.127940548027
-0.123116758691
-0.105300032912
-0.0620937031298
-0.00720019442682
-0.130456097959
-0.130143602984
-0.129783362714
-0.129372103926
-0.128799394278
-0.127346458919
-0.121459440049
-0.101301724348
-0.0607233020455
-0.0217751367656
-0.130348616006
-0.13001243638
-0.129643071022
-0.129156790049
-0.128516228212
-0.126844082649
-0.120067850158
-0.0997068023037
-0.0663552546966
-0.0269800192631
)
;

boundaryField
{
    back
    {
        type            calculated;
        value           nonuniform List<scalar> 
164
(
-0.132104394083
-0.132075785284
-0.132045240792
-0.132013257276
-0.131980381047
-0.1319470422
-0.131910981213
-0.131836616096
-0.131359295399
-0.127641445187
-0.105537125692
-0.0293381273366
-0.13202274615
-0.13198969686
-0.131954304906
-0.131917082148
-0.13187863861
-0.131839455038
-0.131796781474
-0.131709181456
-0.131168015288
-0.127129750283
-0.104156236508
-0.0285103068625
-0.131858199885
-0.131814509284
-0.131769144521
-0.131722636708
-0.13167159804
-0.131567333975
-0.130948837003
-0.126539697796
-0.102610882526
-0.0275937755002
-0.131756921917
-0.13170528603
-0.131651382242
-0.13159574394
-0.131534145266
-0.131408798278
-0.130695890197
-0.125854899611
-0.100873578739
-0.0265728434367
-0.131650485584
-0.131589173911
-0.131524784749
-0.131457820331
-0.131382905424
-0.131230747635
-0.130401633259
-0.125054591015
-0.0989106228297
-0.0254262692886
-0.131539032976
-0.131466013624
-0.131388808771
-0.131307856462
-0.131216170196
-0.131029739127
-0.130056396281
-0.124112457231
-0.096680779223
-0.0241237494614
-0.13142284394
-0.131335761628
-0.131242985228
-0.131144822395
-0.131032056707
-0.130801590566
-0.129647774604
-0.122995290754
-0.0941341867998
-0.0226193824795
-0.131302388184
-0.131198540473
-0.131086989185
-0.130967747632
-0.130828537196
-0.130541244866
-0.129159909506
-0.121661677381
-0.0912121900982
-0.0208397756238
-0.131178380397
-0.13105472201
-0.130920725729
-0.13077583946
-0.13060351644
-0.130242645941
-0.128572684779
-0.1200608167
-0.0878481721574
-0.0186661509426
-0.131051842541
-0.13090502191
-0.130744467522
-0.130568678994
-0.130355028142
-0.129898663941
-0.127860898919
-0.118130088157
-0.0839590688787
-0.0159253372242
-0.13092417345
-0.130750627458
-0.130559077326
-0.130346523266
-0.130081635447
-0.12950131578
-0.126994234356
-0.115795866384
-0.0794071168433
-0.0124280171778
-0.130797224341
-0.130593353234
-0.130366296928
-0.130110800696
-0.12978326568
-0.129042828693
-0.12593662606
-0.112946998042
-0.0739866370233
-0.00883936545008
-0.13067337197
-0.13043581738
-0.130169131046
-0.129864899212
-0.129462736537
-0.128519063833
-0.124647277171
-0.109440264626
-0.0679598936987
-0.00700428860755
-0.130555957698
-0.130281732526
-0.129972407383
-0.129615404207
-0.129129095037
-0.127940548027
-0.123116758691
-0.105300032912
-0.0620937031298
-0.00720019442681
-0.130456097959
-0.130143602984
-0.129783362714
-0.129372103926
-0.128799394278
-0.127346458919
-0.121459440049
-0.101301724348
-0.0607233020455
-0.0217751367656
-0.130348616006
-0.13001243638
-0.129643071022
-0.129156790049
-0.128516228212
-0.126844082649
-0.120067850158
-0.0997068023037
-0.0663552546966
-0.0269800192631
)
;
    }
    sides
    {
        type            calculated;
        value           nonuniform List<scalar> 0();
    }
    bottom
    {
        type            calculated;
        value           nonuniform List<scalar> 0();
    }
    front
    {
        type            calculated;
        value           nonuniform List<scalar> 
164
(
-0.132104394083
-0.132075785284
-0.132045240792
-0.132013257276
-0.131980381047
-0.1319470422
-0.131910981213
-0.131836616096
-0.131359295399
-0.127641445187
-0.105537125692
-0.0293381273366
-0.13202274615
-0.13198969686
-0.131954304906
-0.131917082148
-0.13187863861
-0.131839455038
-0.131796781474
-0.131709181456
-0.131168015288
-0.127129750283
-0.104156236508
-0.0285103068625
-0.131858199885
-0.131814509284
-0.131769144521
-0.131722636708
-0.13167159804
-0.131567333975
-0.130948837003
-0.126539697796
-0.102610882526
-0.0275937755002
-0.131756921917
-0.13170528603
-0.131651382242
-0.13159574394
-0.131534145266
-0.131408798278
-0.130695890197
-0.125854899611
-0.100873578739
-0.0265728434367
-0.131650485584
-0.131589173911
-0.131524784749
-0.131457820331
-0.131382905424
-0.131230747635
-0.130401633259
-0.125054591015
-0.0989106228297
-0.0254262692886
-0.131539032976
-0.131466013624
-0.131388808771
-0.131307856462
-0.131216170196
-0.131029739127
-0.130056396281
-0.124112457231
-0.096680779223
-0.0241237494614
-0.13142284394
-0.131335761628
-0.131242985228
-0.131144822395
-0.131032056707
-0.130801590566
-0.129647774604
-0.122995290754
-0.0941341867998
-0.0226193824795
-0.131302388184
-0.131198540473
-0.131086989185
-0.130967747632
-0.130828537196
-0.130541244866
-0.129159909506
-0.121661677381
-0.0912121900982
-0.0208397756238
-0.131178380397
-0.13105472201
-0.130920725729
-0.13077583946
-0.13060351644
-0.130242645941
-0.128572684779
-0.1200608167
-0.0878481721574
-0.0186661509426
-0.131051842541
-0.13090502191
-0.130744467522
-0.130568678994
-0.130355028142
-0.129898663941
-0.127860898919
-0.118130088157
-0.0839590688787
-0.0159253372242
-0.13092417345
-0.130750627458
-0.130559077326
-0.130346523266
-0.130081635447
-0.12950131578
-0.126994234356
-0.115795866384
-0.0794071168433
-0.0124280171778
-0.130797224341
-0.130593353234
-0.130366296928
-0.130110800696
-0.12978326568
-0.129042828693
-0.12593662606
-0.112946998042
-0.0739866370233
-0.00883936545008
-0.13067337197
-0.13043581738
-0.130169131046
-0.129864899212
-0.129462736537
-0.128519063833
-0.124647277171
-0.109440264626
-0.0679598936987
-0.00700428860755
-0.130555957698
-0.130281732526
-0.129972407383
-0.129615404207
-0.129129095037
-0.127940548027
-0.123116758691
-0.105300032912
-0.0620937031298
-0.00720019442681
-0.130456097959
-0.130143602984
-0.129783362714
-0.129372103926
-0.128799394278
-0.127346458919
-0.121459440049
-0.101301724348
-0.0607233020455
-0.0217751367656
-0.130348616006
-0.13001243638
-0.129643071022
-0.129156790049
-0.128516228212
-0.126844082649
-0.120067850158
-0.0997068023037
-0.0663552546966
-0.0269800192631
)
;
    }
    atmosphere
    {
        type            calculated;
        value           uniform 0;
    }
    floatingObject
    {
        type            calculated;
        value           nonuniform List<scalar> 0();
    }
    procBoundary5to0
    {
        type            processor;
        value           nonuniform List<scalar> 
12
(
-0.132182852352
-0.13215782471
-0.132131208257
-0.132103448753
-0.132075031096
-0.132046342366
-0.132015502775
-0.131951690038
-0.131527422314
-0.128087856792
-0.106776061198
-0.0300893107431
)
;
    }
    procBoundary5to3
    {
        type            processor;
        value           nonuniform List<scalar> 10(-0.130256123767 -0.129880199351 -0.129467923655 -0.129029820083 -0.128340755296 -0.126586657378 -0.119803636123 -0.0999284789637 -0.0679852777203 -0.0279386314622);
    }
    procBoundary5to4
    {
        type            processor;
        value           nonuniform List<scalar> 
18
(
-0.132130699029
-0.132053008041
-0.131938002131
-0.131899551769
-0.131899551769
-0.131805554075
-0.131707908587
-0.131607007871
-0.131503390556
-0.131397793173
-0.131291187043
-0.131184815417
-0.131080227481
-0.130979288399
-0.130884208082
-0.130801307803
-0.130723106404
-0.130654355763
)
;
    }
}


// ************************************************************************* //
