/*--------------------------------*- C++ -*----------------------------------*\
| =========                 |                                                 |
| \\      /  F ield         | OpenFOAM: The Open Source CFD Toolbox           |
|  \\    /   O peration     | Version:  v2012                                 |
|   \\  /    A nd           | Website:  www.openfoam.com                      |
|    \\/     M anipulation  |                                                 |
\*---------------------------------------------------------------------------*/
FoamFile
{
    version     2.0;
    format      ascii;
    class       surfaceVectorField;
    location    "4.1";
    object      Uf;
}
// * * * * * * * * * * * * * * * * * * * * * * * * * * * * * * * * * * * * * //

dimensions      [0 1 -1 0 0 0 0];


internalField   nonuniform List<vector> 
302
(
(-0.0482502407773 0.0154179161715 1.79058481131e-23)
(-0.0486231821514 0.0136162564656 1.5199390439e-23)
(-0.0498684955447 0.0176964884676 1.28550015001e-23)
(-0.0501654008169 0.0157213185185 1.88053773637e-23)
(-0.0517181418051 0.020143880132 8.83580569286e-25)
(-0.0519800500433 0.0179707060298 1.5842907806e-23)
(-0.0538370478902 0.0227617273035 -3.82672306845e-23)
(-0.0540691941802 0.0203796963044 -9.13986879657e-24)
(-0.056283799125 0.0256380631951 -8.45355797994e-23)
(-0.0564445263565 0.0229855411286 -5.39960565654e-23)
(-0.0591843069587 0.028774452656 -1.61167349603e-22)
(-0.0591978370533 0.0258159578679 -1.15777066616e-22)
(-0.062814556666 0.0322612480568 -8.25515493837e-22)
(-0.0625688283012 0.0289429758148 -3.30473149562e-22)
(-0.0672586801663 0.0362866571092 5.02428441179e-24)
(-0.0668942825224 0.0323066682927 -1.32215368904e-21)
(-0.0716398807333 0.041073346587 1.06614294731e-21)
(-0.0721178668071 0.0374754879056 -1.35483060302e-21)
(-0.078646749213 0.0467718549804 -1.14782265287e-21)
(-0.0766629533532 0.0394403284363 -6.08567976201e-21)
(-0.134942122181 0.0530287286256 -1.7443263158e-20)
(-0.0869307955918 0.0412089700464 -6.90727526825e-21)
(-0.116583579722 0.101479261544 -2.5245845023e-20)
(-0.212327345654 0.0468938143748 -3.07393396491e-20)
(-0.0955552886639 0.127299561363 -2.19118075326e-20)
(-0.0475694749999 0.0101030720308 -2.77115133001e-24)
(-0.0478825185332 0.00867128141716 -6.36497109513e-24)
(-0.0488412116474 0.0119388274624 4.92096825075e-24)
(-0.0490842375752 0.010356214815 1.26420900367e-24)
(-0.0503471877175 0.0138452610372 1.60989196895e-23)
(-0.0505297090439 0.0121165074037 2.60240377609e-24)
(-0.0521048972214 0.015909269664 2.17932836697e-23)
(-0.0522294971464 0.0139802026253 1.79132461986e-23)
(-0.0541288644581 0.0181043922735 5.81945844019e-24)
(-0.0541754611622 0.0159788170614 1.08026457542e-23)
(-0.0564390517157 0.0204537592346 -2.48686946776e-23)
(-0.056419319474 0.018124229613 2.98363280936e-24)
(-0.0591038293769 0.0230209961212 -8.52375433819e-23)
(-0.059013376981 0.0204319620206 -4.62493585038e-23)
(-0.0622704260058 0.0258068549983 -2.85082866575e-22)
(-0.0619863831112 0.0229338957377 -2.15455027255e-22)
(-0.066259342275 0.0288118592941 -8.27111344761e-22)
(-0.0655774631603 0.0256959974501 -7.6455868167e-22)
(-0.0713772378769 0.0323529185191 -2.68200857647e-21)
(-0.0704392001222 0.0285524856896 -2.87906405342e-21)
(-0.0767841648106 0.0367078079452 -8.50665331234e-21)
(-0.076475584031 0.0332107034552 -4.31647901549e-21)
(-0.0843930282197 0.0422753055026 -1.18451323774e-20)
(-0.0822315076999 0.0353780542541 -1.47254807772e-20)
(-0.146907756303 0.0474613425552 -2.02033517593e-20)
(-0.0921174585362 0.0386361326256 -1.25675465508e-20)
(-0.189745047353 0.0396929386456 -2.74053021587e-20)
(-0.204563383552 0.0439070077959 -3.09707949271e-20)
(-0.116224191971 0.0319648144178 -5.0157612098e-20)
(-0.0476062460096 0.00149829501425 1.11297042219e-22)
(-0.0487650161862 0.000746597395797 1.25815556608e-23)
(-0.0479392881054 0.00209341849613 2.47759002096e-22)
(-0.0481517345239 0.00735106354423 7.48041099045e-24)
(-0.0484227386453 0.00612580922472 2.22491600701e-23)
(-0.0492550587814 0.00888817497199 -2.32961076145e-24)
(-0.0494195535746 0.00752508323102 -3.52484713029e-25)
(-0.0506132582684 0.0104943193284 -1.05435547099e-24)
(-0.0506903264826 0.00898136651798 6.10742183638e-24)
(-0.0522211675545 0.0121860123971 4.41673028519e-24)
(-0.0522213790953 0.010509180207 -1.34848080279e-23)
(-0.0540935230561 0.0139752048136 6.92260828314e-24)
(-0.0540187311684 0.0121233842988 -4.36555500845e-24)
(-0.0562578886417 0.0159163626032 7.96682012336e-24)
(-0.056116874538 0.0138449532848 -6.02466993495e-24)
(-0.0587337784568 0.0179887371897 -1.83970310169e-23)
(-0.0584923819792 0.0157017853502 -3.51405176249e-23)
(-0.0615757444144 0.0201971384902 -1.76466842377e-22)
(-0.061223134114 0.0177042772405 -4.60922817174e-23)
(-0.0649615564666 0.0226916698477 -6.9493084235e-22)
(-0.0644830248887 0.019854297262 -3.39533318204e-22)
(-0.0692638108448 0.0253677707277 -2.81651139033e-21)
(-0.0682562272068 0.0222438733701 -1.21919018425e-21)
(-0.0749665755982 0.0282743359518 -4.51353449244e-21)
(-0.0733484268472 0.02460773581 -4.20189485117e-21)
(-0.0813934764548 0.0319440533345 -1.05353064803e-20)
(-0.0801471512725 0.0287128418696 -2.14432801636e-22)
(-0.0892862142462 0.036701069577 -1.54478949506e-20)
(-0.086989176734 0.0305883397004 -1.48228863315e-20)
(-0.146928663892 0.0409151523358 -2.33349897186e-20)
(-0.0963317839784 0.0353278890591 -1.58283670942e-20)
(-0.131874855985 0.0404810984277 -5.37231048664e-20)
(-0.204131026486 0.0364780763059 -2.67465822001e-20)
(-0.0643598286106 0.0129324233575 -3.54333296252e-20)
(-0.0489795964658 0.0012952837241 1.49043515538e-22)
(-0.0500602017073 0.000644851424196 -1.59552247288e-22)
(-0.0483585329452 0.0025479888903 1.94197007719e-22)
(-0.0491919055672 0.00177417536722 6.69376378765e-23)
(-0.0482604467129 0.00378285114478 1.2006804169e-22)
(-0.0487848833864 0.00288937943517 4.42202901479e-23)
(-0.048700886841 0.00502294486419 6.69794689715e-23)
(-0.0489895151001 0.00401975316346 8.16541805686e-23)
(-0.0495513869892 0.00628199282008 1.44162643667e-23)
(-0.0496816895171 0.00515121979352 1.62063196887e-23)
(-0.0507112608393 0.0075912445351 8.0845478848e-24)
(-0.0507287119729 0.00631900360336 -3.44813961208e-24)
(-0.0521429860039 0.00896221794488 -6.32303072052e-24)
(-0.0520611992576 0.00753539360558 7.89575580211e-24)
(-0.0538435778434 0.010406215556 -2.22670933215e-23)
(-0.0536652952839 0.00881096252918 -1.58259085375e-23)
(-0.0558222040625 0.011938478513 -1.73128332265e-23)
(-0.0555509800293 0.0101576668027 -1.46675487653e-23)
(-0.0581034810951 0.0135592608169 -4.91320076832e-23)
(-0.0577378293207 0.0115869298847 -1.84080698839e-23)
(-0.0607274734969 0.0153430314268 -6.28357683254e-23)
(-0.0602766605437 0.013120089236 -5.57643249944e-23)
(-0.0637482541002 0.0172593485879 -2.09158757545e-22)
(-0.0631404264783 0.0147823480913 -5.38598277223e-23)
(-0.0673264498529 0.0192834014629 -8.63792660101e-22)
(-0.0665085171838 0.016559021149 -3.54450450468e-22)
(-0.0718761928075 0.0215981206649 -2.60457364509e-21)
(-0.0705726484268 0.0185087415203 -1.16930713087e-21)
(-0.0779239416925 0.0240533291534 9.72068396343e-23)
(-0.0758052056421 0.0203417173509 -3.57087168288e-21)
(-0.0850387716955 0.0267080871625 -4.50201265278e-21)
(-0.0828028977473 0.0237912691462 2.68533046876e-21)
(-0.0933791600508 0.0301821176677 -1.52033584751e-20)
(-0.090463494329 0.0248604686912 -7.10026476552e-21)
(-0.149437471978 0.0342097560843 -1.92399595757e-20)
(-0.100359495813 0.0309028887835 -1.40538728762e-20)
(-0.10984120059 0.0338315579597 -8.45680695883e-21)
(-0.203753678116 0.0246694123587 -6.49869784895e-21)
(-0.0707896531179 0.0682576889467 1.57656806678e-21)
(-0.0501472358232 0.00107428507813 -2.41658124949e-22)
(-0.0511344277717 0.000539017518294 -4.77260614674e-22)
(-0.0494962013975 0.00211594762411 -8.30390796941e-23)
(-0.0502335178529 0.00144273606314 -1.96771401992e-22)
(-0.0493866134436 0.0031295950721 5.80642902669e-24)
(-0.0497984818176 0.00233652350367 -6.15463421087e-23)
(-0.0498391549035 0.00414120345847 3.08810312858e-23)
(-0.0500010714786 0.00324278871002 5.59936596951e-23)
(-0.0507218969759 0.00517477912105 -1.65808429e-24)
(-0.0507152016857 0.00414389313738 1.72857310668e-23)
(-0.0519298688068 0.00624605492499 -3.63693169477e-24)
(-0.0517999075984 0.00507186362371 8.73420535809e-24)
(-0.0534213600308 0.00736177823458 -1.60712201482e-24)
(-0.0531768211472 0.00603558126156 4.09685422167e-24)
(-0.0551949929825 0.00853635761363 -8.22636398122e-24)
(-0.0548397674352 0.00704093284251 -4.68101590064e-24)
(-0.0572646880783 0.00977734526091 -1.57627854227e-23)
(-0.0567918944824 0.0080984730515 1.33854950527e-23)
(-0.0596515667324 0.0111025726253 -2.50403871952e-23)
(-0.0590630943541 0.00921882053253 -8.28599493378e-24)
(-0.0623971644167 0.0125071111728 -4.67883843913e-23)
(-0.061681436322 0.0104094312903 -2.46828847812e-23)
(-0.0655750858219 0.014049668555 -1.99151520646e-22)
(-0.0646834757644 0.0116890329401 -5.75484307331e-23)
(-0.0693191349416 0.0157137483595 -6.59964921233e-22)
(-0.0681733024443 0.0130623354952 -3.23186158549e-22)
(-0.0739855285971 0.017480776689 -2.13560516866e-21)
(-0.0723404339763 0.0145397801942 -9.29528500661e-22)
(-0.0800047147229 0.0192835327956 -9.82748053759e-22)
(-0.0776085364517 0.0158219509351 -3.35676870613e-21)
(-0.0872067338882 0.020826392331 8.70783560136e-23)
(-0.0843459759198 0.0185232058916 9.32493887271e-22)
(-0.0956335134773 0.0220327784405 -5.95077916661e-21)
(-0.0916698312567 0.0184774664882 -2.42825430764e-21)
(-0.1516115234 0.0223291395757 -1.31261114945e-21)
(-0.100655829098 0.025961865875 -9.72965289141e-21)
(-0.175989395618 0.0269570943029 3.53467717667e-21)
(-0.208381883267 0.0148014516201 -6.23292508107e-21)
(-0.242530151283 0.0421878300019 -9.80480264585e-21)
(-0.0510976976461 0.000850614035582 -4.32373891716e-22)
(-0.0519850127942 0.000429827623144 -5.73028184782e-22)
(-0.0504137834975 0.00166916994875 -1.75278664407e-22)
(-0.0510520515847 0.00110318088973 -2.52952611904e-22)
(-0.0502870672719 0.00245766910714 -1.13591114403e-23)
(-0.0505869664554 0.00177055188995 -4.16710935318e-23)
(-0.0507455613175 0.0032392667508 4.23983594761e-23)
(-0.0507826557884 0.00244660072269 5.83235785023e-23)
(-0.0516517947517 0.00403374359883 2.76780207149e-23)
(-0.0515096557566 0.00311059273125 2.75299575591e-23)
(-0.0528955183097 0.00485662333496 1.64679912745e-23)
(-0.0526227430729 0.00378911093697 1.76729166217e-23)
(-0.0544315643458 0.00570572265561 1.02296033585e-24)
(-0.0540258448326 0.00448986533339 1.1310262712e-23)
(-0.0562579319371 0.00659312668878 1.69308431333e-23)
(-0.0557270641663 0.00521593185895 1.52201981649e-23)
(-0.0583918586857 0.00752720198195 2.08622855416e-23)
(-0.0577258475553 0.00597328688836 3.38476481287e-23)
(-0.0608605721965 0.00851707286328 -7.92849251984e-24)
(-0.0600528629291 0.00676706512829 1.42496047689e-23)
(-0.0636996007986 0.0095664477213 -3.54429311231e-23)
(-0.0627307652596 0.00760308238438 -8.38436534609e-24)
(-0.0669789104311 0.0106941459634 -1.81583068636e-22)
(-0.0658111893683 0.00848712548549 -3.84817856292e-23)
(-0.0708396143345 0.0119080857104 -5.92749737977e-22)
(-0.0693872645369 0.00941641167474 -2.32693193928e-22)
(-0.0755288532075 0.013205462743 -2.15069203813e-21)
(-0.0736377327714 0.0104084968877 -7.00205354795e-22)
(-0.0812820704947 0.0143555437993 -1.4415267651e-21)
(-0.0787583392381 0.0111362815682 -1.6590700093e-21)
(-0.0879573665988 0.0148751736199 -1.58283877638e-21)
(-0.0848651637204 0.013160970054 4.90458727869e-22)
(-0.0957999856355 0.014533517698 -6.20712803244e-21)
(-0.0913278220094 0.0121138425523 -4.64323647337e-21)
(-0.151017352793 0.0133575145933 -1.4649966823e-20)
(-0.0994797071337 0.021413375954 -7.31482329692e-21)
(-0.21876648591 0.00240585512307 -1.95724049036e-20)
(-0.197430168579 0.0106250284877 -2.04644050802e-20)
(-0.19359906272 -0.031351362186 -1.85694426854e-20)
(-0.0518206126475 0.000623220994624 -3.93606904969e-22)
(-0.0526082145114 0.000314183380691 -4.9291704586e-22)
(-0.0511046843224 0.00121298809699 -1.19345041029e-22)
(-0.0516418105372 0.00075523132753 -1.88081121951e-22)
(-0.0509575060276 0.00177152491972 2.80115964108e-23)
(-0.0511455131641 0.00119495991477 1.3427706414e-23)
(-0.0514150195555 0.00231726800143 4.34551765853e-23)
(-0.0513284254712 0.00163686896188 8.54824730708e-23)
(-0.0523339295954 0.00286887341147 1.7524853466e-23)
(-0.0520612939213 0.00205933332892 3.49485941842e-23)
(-0.0535987754376 0.00342575950782 1.25151880592e-23)
(-0.0531796521018 0.0024836140725 8.39326574576e-24)
(-0.0551619588707 0.00400475486002 2.5507500541e-23)
(-0.0546048326398 0.00291683223146 8.65248340803e-24)
(-0.0570203403633 0.0046016122349 3.21370031603e-23)
(-0.0563238656039 0.00335943777174 1.43225013256e-23)
(-0.0591916610357 0.00522156085194 2.7234967356e-23)
(-0.0583456804519 0.00381178128128 2.40744044181e-23)
(-0.0617041954989 0.00586121140685 1.37937319427e-23)
(-0.0606923261105 0.00427305270004 1.59112884087e-23)
(-0.0645976716818 0.00652922896839 -1.14232198523e-23)
(-0.0633985087857 0.00474299689738 1.17530384173e-23)
(-0.0679385495322 0.00723309357045 -8.95919109219e-23)
(-0.0665146519629 0.00521945608307 3.50903776086e-24)
(-0.0718485991175 0.00796685684346 -3.40148810746e-22)
(-0.0701204189597 0.00569290202171 -1.04635223043e-22)
(-0.0764895483071 0.00868074839754 -2.08583325959e-22)
(-0.0743507164654 0.00618796305184 -3.75740938131e-22)
(-0.0818860219993 0.00926392305859 2.7291548367e-22)
(-0.0793402912637 0.00633520807243 -1.12487573238e-21)
(-0.0877856018565 0.00914350655422 -2.56993896912e-21)
(-0.0847434293587 0.00777037433802 1.78416354372e-21)
(-0.0950118418016 0.00815981738435 -5.75093173784e-21)
(-0.0903432164354 0.00568189330222 -3.50617965662e-21)
(-0.144764979084 0.00778047356099 -1.31292615541e-20)
(-0.0991001086244 0.0159651897978 -4.00690280661e-21)
(-0.181301765752 -0.00263001778805 -1.9461442862e-20)
(-0.187019632019 0.00376542794564 -1.22421954252e-20)
(-0.154886364253 -0.0329732340884 -1.25543764915e-20)
(-0.0523142463935 0.000393665523263 -2.87391262841e-22)
(-0.0530018564636 0.000195932244839 -3.45020052656e-22)
(-0.0515646442204 0.000750916300313 -5.53083745076e-23)
(-0.0519990597818 0.000404595834243 -1.04025712475e-22)
(-0.0513943222641 0.00107651858408 7.0898583074e-23)
(-0.051471152486 0.000615567863004 2.67071765741e-23)
(-0.051844483304 0.0013847101207 7.69758906696e-23)
(-0.0516366951782 0.000821117337568 1.02361055619e-22)
(-0.0527669740244 0.00168540616362 2.5817006464e-23)
(-0.0523621005849 0.0010004897525 4.27490598589e-23)
(-0.0540392795083 0.00198585959045 4.53056109463e-24)
(-0.0534802256547 0.00117213535477 7.09089986065e-24)
(-0.0556104718153 0.00228901739616 -2.53251580739e-24)
(-0.0549080887228 0.00133947609071 -1.58165571968e-24)
(-0.0574769885878 0.00258944717664 6.2599025834e-24)
(-0.0566243552841 0.00149837055888 -1.20870857564e-23)
(-0.0596578174154 0.00289078419236 1.27507254708e-23)
(-0.0586469583046 0.00164396922217 4.86103633032e-24)
(-0.0621807828151 0.00318120523778 1.38705948833e-23)
(-0.0609825218247 0.00177158567781 8.74944636063e-24)
(-0.0650858503589 0.0034645161081 2.66852960304e-23)
(-0.0636813611137 0.00187307160276 9.36745824351e-24)
(-0.0684370963946 0.00372982731519 -1.15342743607e-23)
(-0.066779164248 0.00193777372879 4.22275487333e-23)
(-0.0723390706652 0.00397123869352 -1.40227350428e-22)
(-0.0703605504085 0.00195010247589 -2.39270430882e-23)
(-0.0768931725884 0.00416287086653 -1.29203334455e-21)
(-0.0745404807486 0.00192706670213 -1.30044923563e-22)
(-0.0818743101933 0.00418230971999 3.86372327671e-22)
(-0.0793573649416 0.00151156324595 -1.94685973869e-21)
(-0.0869723860238 0.00357885025531 8.47922856219e-22)
(-0.0841376376131 0.00239034666515 2.30894569581e-21)
(-0.0938111107528 0.0020551820627 -1.7621507254e-21)
(-0.0888182519364 -0.00105173362394 -3.42630702949e-21)
(-0.137898392792 0.000575930646204 -3.11983667767e-21)
(-0.0976205075318 0.00923494330512 -5.17103424522e-21)
(-0.158772963717 -0.0141950862385 -5.33512905465e-21)
(-0.17224698689 -0.00606471814403 -1.16991437185e-20)
(-0.136654962217 -0.0322549021386 -1.06493006347e-20)
(-0.0525736948469 0.000160962989889 -1.61654502289e-22)
(-0.0517914972861 0.000288345035703 -2.20101613928e-23)
(-0.0515948028831 0.000379827931049 5.81696491192e-23)
(-0.0520306862234 0.000448531372111 6.81342248084e-23)
(-0.0529461318766 0.000503054701964 2.40229532555e-23)
(-0.0542125639405 0.000546934587584 9.78683046345e-25)
(-0.0557759750274 0.000576642684326 -1.11362256687e-23)
(-0.0576304619071 0.000587111860802 -1.34859520095e-23)
(-0.0597921241994 0.000566527316944 8.59757220126e-25)
(-0.0622881657326 0.000511133776638 4.24630972081e-24)
(-0.0651579503717 0.000403246641799 2.49097109464e-23)
(-0.0684635604887 0.000228411867458 2.98347800059e-23)
(-0.0723029733121 -2.1594621273e-05 -1.37446162232e-23)
(-0.0767270425748 -0.000380065895472 -7.84871317702e-22)
(-0.081389488574 -0.000954429968265 -2.42863705521e-23)
(-0.0860259509226 -0.0017642185111 -1.9652841899e-21)
(-0.0924705744662 -0.00261824947439 -6.83519054931e-21)
(-0.131041190695 -0.00447333419517 -1.3750341286e-20)
(-0.148605934248 -0.0167614290079 -1.70133152985e-20)
)
;

boundaryField
{
    back
    {
        type            calculated;
        value           uniform (0 0 0);
    }
    sides
    {
        type            calculated;
        value           nonuniform List<vector> 0();
    }
    bottom
    {
        type            calculated;
        value           uniform (0 0 0);
    }
    front
    {
        type            calculated;
        value           uniform (0 0 0);
    }
    atmosphere
    {
        type            calculated;
        value           nonuniform List<vector> 9((-0.0469564909159 0.222968765202 -1.85897115908e-20) (-0.175130322293 0.0603637783532 -2.52339034743e-20) (0 -0.0113837046304 0) (-0.0188708102099 0.0402615297658 4.21466147125e-21) (-0.149002710995 0.198697951474 -1.06152533768e-21) (0 -0.0465247048931 0) (0 -0.0413381406232 0) (0 -0.0324192238567 0) (0 -0.0276682016135 0));
    }
    floatingObject
    {
        type            calculated;
        value           nonuniform List<vector> 0();
    }
    procBoundary0to1
    {
        type            processor;
        value           nonuniform List<vector> 10((-0.0514505252592 0.0224667262203 -2.56415971178e-23) (-0.0535658840731 0.0253555427371 -6.17101796543e-23) (-0.0560570773957 0.0284975120606 -1.49981662284e-22) (-0.0590753226513 0.0320170078439 -2.13360524674e-22) (-0.0628609371128 0.0358909792587 -9.30169882379e-22) (-0.0673243778272 0.0415954476024 3.08804944578e-21) (-0.0709612851109 0.0429539850231 2.00124928121e-21) (-0.0806722023043 0.0437705885524 -4.53216765815e-21) (-0.163867455773 0.0542864195657 -2.24963886658e-20) (0.0259726490851 0.139030077579 -1.15732224319e-20));
    }
    procBoundary0to2
    {
        type            processor;
        value           nonuniform List<vector> 
14
(
(-0.0464554275972 0.0149957210688 1.40140543575e-23)
(-0.0478866469683 0.0173226571684 1.38014185788e-23)
(-0.0495321526679 0.0197998742506 2.36164144942e-23)
(-0.0461238601224 0.00973312612308 -6.55279245023e-24)
(-0.0468539440132 0.0132507165932 2.17811627549e-23)
(-0.0472483431257 0.0116300163807 1.15027405667e-23)
(-0.0472669775064 0.000839563124368 -2.52948603671e-22)
(-0.046477422514 0.00239488873728 4.53581113974e-23)
(-0.0465301978832 0.00834446411769 -1.69767127287e-23)
(-0.0469312600921 0.00705064887766 -3.13133064312e-24)
(-0.0470098366754 0.00296039807047 1.91472749616e-22)
(-0.0475502290542 0.00342122742709 1.37910755239e-22)
(-0.0473387846568 0.00585944734746 6.31157857076e-23)
(-0.0477495507882 0.00476918339082 1.07846094609e-22)
)
;
    }
    procBoundary0to4
    {
        type            processor;
        value           nonuniform List<vector> 8((-0.0531627929756 8.01662710629e-05 -2.45600152967e-22) (-0.0521264420112 5.65062807261e-05 -6.68790781952e-23) (-0.0515626842789 3.93976177728e-05 -1.19448529757e-24) (-0.0517055058824 8.86257123728e-06 7.78960552429e-23) (-0.0524167814454 -5.34963560914e-05 3.43154216725e-23) (-0.0535242901734 -0.000131751390599 7.06223980466e-25) (-0.0549380122895 -0.0002270219177 -4.41944467611e-24) (-0.0566350066995 -0.000347023811865 -1.21025489276e-23));
    }
    procBoundary0to5
    {
        type            processor;
        value           nonuniform List<vector> 
12
(
(-0.0586264745313 -0.000501480702153 -7.63470475335e-25)
(-0.0609270322079 -0.000701518102927 5.14028655099e-24)
(-0.0635729923261 -0.000962410942566 -4.22251186885e-24)
(-0.0666033607888 -0.00130401574587 4.43650733401e-23)
(-0.0701089226326 -0.00175641657442 1.68602625555e-23)
(-0.0741796465404 -0.00231566249118 3.40200819e-23)
(-0.0787801162281 -0.0033484737961 -1.4489865058e-21)
(-0.0833252280893 -0.00318331141792 1.22116045956e-21)
(-0.0879627802865 -0.00819069307785 -4.38076252248e-21)
(-0.0957648676772 0.00212963496375 -8.00260073129e-21)
(-0.159957081052 -0.0140355431414 -1.52122143649e-20)
(-0.125739927832 -0.0343950356809 -1.20857673105e-20)
)
;
    }
}


// ************************************************************************* //
