/*--------------------------------*- C++ -*----------------------------------*\
| =========                 |                                                 |
| \\      /  F ield         | OpenFOAM: The Open Source CFD Toolbox           |
|  \\    /   O peration     | Version:  v2012                                 |
|   \\  /    A nd           | Website:  www.openfoam.com                      |
|    \\/     M anipulation  |                                                 |
\*---------------------------------------------------------------------------*/
FoamFile
{
    version     2.0;
    format      ascii;
    class       volScalarField;
    location    "1.4";
    object      p_rgh;
}
// * * * * * * * * * * * * * * * * * * * * * * * * * * * * * * * * * * * * * //

dimensions      [1 -1 -2 0 0 0 0];


internalField   nonuniform List<scalar> 
166
(
8759.38725728
8759.46380731
8759.71783368
8760.08804893
8760.60667594
8761.29143897
8762.16717232
8763.26784554
8764.63796605
8766.33501974
8768.4335724
8771.02991059
8774.24881777
8778.25956369
8783.25721657
8789.39264978
8797.52026993
7687.92516798
1391.21081411
-0.0655991524778
8746.51570558
8746.52642686
8746.67882901
8746.8891463
8747.19062606
8747.60061815
8748.14138108
8748.84287947
8749.74400383
8750.89455924
8752.35790096
8754.21416709
8756.56530194
8759.54126416
8763.2788783
8767.87743481
8774.23118958
7414.90690922
1127.88409763
-0.0425820765722
8733.57546083
8733.51712235
8733.55950805
8733.59726512
8733.66429733
8733.77626023
8733.95163714
8734.21495646
8734.59768778
8735.13933849
8735.88879115
8736.9055909
8738.26138538
8740.04113059
8742.32020144
8745.18072567
8749.40297992
7109.47759068
880.307713181
-0.0268351870847
8720.62290064
8720.49292109
8720.41805068
8720.27258608
8720.0907329
8719.88541884
8719.67059138
8719.4644455
8719.28991941
8719.17503967
8719.15310031
8719.26215096
8719.54355095
8720.03757376
8720.76415329
8721.79951438
8723.87371855
6777.16728723
655.627223957
-0.014753655152
8707.71761954
8707.51407106
8707.3161846
8706.97932734
8706.53756449
8706.00050479
8705.37713628
8704.67890111
8703.91987413
8703.11649301
8702.28684143
8701.44862017
8700.61595261
8699.79392531
8698.97057795
8698.18084878
8698.12504566
6424.92724177
457.358948681
-0.00466788613125
8694.92160041
8694.64331158
8694.31833222
8693.78465384
8693.07572877
8692.19758615
8691.15414263
8689.95008324
8688.59085809
8687.08196136
8685.42766351
8683.62796506
8681.67563069
8679.55248984
8677.2325866
8674.72520022
8672.54086743
6060.13851762
287.130912021
0.00201609289539
8682.29836613
8681.94498872
8681.49061452
8680.75746842
8679.77798384
8678.5545678
8677.08622827
8675.37114801
8673.40681039
8671.18881825
8668.70950498
8665.9543204
8662.90118018
8659.51998729
8655.7881479
8651.72345851
8647.52265852
5692.20937156
146.002417745
0.000386220542234
8669.9121057
8669.48411936
8668.89970565
8667.96727324
8666.71755949
8665.14970411
8663.25791977
8661.03462584
8658.46986092
8655.5507575
8652.25872754
8648.56891031
8644.44707215
8639.8597867
8634.79492481
8629.30405321
8623.23443114
5326.71300766
30.4223788773
-0.0128401805477
8657.82677216
8657.32541225
8656.61220695
8646.10533689
8634.80896924
8623.99646725
)
;

boundaryField
{
    back
    {
        type            fixedFluxPressure;
        gradient        uniform 0;
        value           nonuniform List<scalar> 
166
(
8759.38725728
8759.46380731
8759.71783368
8760.08804893
8760.60667594
8761.29143897
8762.16717232
8763.26784554
8764.63796605
8766.33501974
8768.4335724
8771.02991059
8774.24881777
8778.25956369
8783.25721657
8789.39264978
8797.52026993
7687.92516798
1391.21081411
-0.0655991524778
8746.51570558
8746.52642686
8746.67882901
8746.8891463
8747.19062606
8747.60061815
8748.14138108
8748.84287947
8749.74400383
8750.89455924
8752.35790096
8754.21416709
8756.56530194
8759.54126416
8763.2788783
8767.87743481
8774.23118958
7414.90690922
1127.88409763
-0.0425820765722
8733.57546083
8733.51712235
8733.55950805
8733.59726512
8733.66429733
8733.77626023
8733.95163714
8734.21495646
8734.59768778
8735.13933849
8735.88879115
8736.9055909
8738.26138538
8740.04113059
8742.32020144
8745.18072567
8749.40297992
7109.47759068
880.307713181
-0.0268351870847
8720.62290064
8720.49292109
8720.41805068
8720.27258608
8720.0907329
8719.88541884
8719.67059138
8719.4644455
8719.28991941
8719.17503967
8719.15310031
8719.26215096
8719.54355095
8720.03757376
8720.76415329
8721.79951438
8723.87371855
6777.16728723
655.627223957
-0.014753655152
8707.71761954
8707.51407106
8707.3161846
8706.97932734
8706.53756449
8706.00050479
8705.37713628
8704.67890111
8703.91987413
8703.11649301
8702.28684143
8701.44862017
8700.61595261
8699.79392531
8698.97057795
8698.18084878
8698.12504566
6424.92724177
457.358948681
-0.00466788613125
8694.92160041
8694.64331158
8694.31833222
8693.78465384
8693.07572877
8692.19758615
8691.15414263
8689.95008324
8688.59085809
8687.08196136
8685.42766351
8683.62796506
8681.67563069
8679.55248984
8677.2325866
8674.72520022
8672.54086743
6060.13851762
287.130912021
0.00201609289539
8682.29836613
8681.94498872
8681.49061452
8680.75746842
8679.77798384
8678.5545678
8677.08622827
8675.37114801
8673.40681039
8671.18881825
8668.70950498
8665.9543204
8662.90118018
8659.51998729
8655.7881479
8651.72345851
8647.52265852
5692.20937156
146.002417745
0.000386220542234
8669.9121057
8669.48411936
8668.89970565
8667.96727324
8666.71755949
8665.14970411
8663.25791977
8661.03462584
8658.46986092
8655.5507575
8652.25872754
8648.56891031
8644.44707215
8639.8597867
8634.79492481
8629.30405321
8623.23443114
5326.71300766
30.4223788773
-0.0128401805477
8657.82677216
8657.32541225
8656.61220695
8646.10533689
8634.80896924
8623.99646725
)
;
    }
    sides
    {
        type            fixedFluxPressure;
        gradient        nonuniform List<scalar> 0();
        value           nonuniform List<scalar> 0();
    }
    bottom
    {
        type            fixedFluxPressure;
        gradient        uniform 0;
        value           nonuniform List<scalar> 
12
(
8759.38725728
8746.51570558
8733.57546083
8720.62290064
8707.71761954
8694.92160041
8682.29836613
8669.9121057
8657.82677216
8646.10533689
8634.80896924
8623.99646725
)
;
    }
    front
    {
        type            fixedFluxPressure;
        gradient        uniform 0;
        value           nonuniform List<scalar> 
166
(
8759.38725728
8759.46380731
8759.71783368
8760.08804893
8760.60667594
8761.29143897
8762.16717232
8763.26784554
8764.63796605
8766.33501974
8768.4335724
8771.02991059
8774.24881777
8778.25956369
8783.25721657
8789.39264978
8797.52026993
7687.92516798
1391.21081411
-0.0655991524778
8746.51570558
8746.52642686
8746.67882901
8746.8891463
8747.19062606
8747.60061815
8748.14138108
8748.84287947
8749.74400383
8750.89455924
8752.35790096
8754.21416709
8756.56530194
8759.54126416
8763.2788783
8767.87743481
8774.23118958
7414.90690922
1127.88409763
-0.0425820765722
8733.57546083
8733.51712235
8733.55950805
8733.59726512
8733.66429733
8733.77626023
8733.95163714
8734.21495646
8734.59768778
8735.13933849
8735.88879115
8736.9055909
8738.26138538
8740.04113059
8742.32020144
8745.18072567
8749.40297992
7109.47759068
880.307713181
-0.0268351870847
8720.62290064
8720.49292109
8720.41805068
8720.27258608
8720.0907329
8719.88541884
8719.67059138
8719.4644455
8719.28991941
8719.17503967
8719.15310031
8719.26215096
8719.54355095
8720.03757376
8720.76415329
8721.79951438
8723.87371855
6777.16728723
655.627223957
-0.014753655152
8707.71761954
8707.51407106
8707.3161846
8706.97932734
8706.53756449
8706.00050479
8705.37713628
8704.67890111
8703.91987413
8703.11649301
8702.28684143
8701.44862017
8700.61595261
8699.79392531
8698.97057795
8698.18084878
8698.12504566
6424.92724177
457.358948681
-0.00466788613125
8694.92160041
8694.64331158
8694.31833222
8693.78465384
8693.07572877
8692.19758615
8691.15414263
8689.95008324
8688.59085809
8687.08196136
8685.42766351
8683.62796506
8681.67563069
8679.55248984
8677.2325866
8674.72520022
8672.54086743
6060.13851762
287.130912021
0.00201609289539
8682.29836613
8681.94498872
8681.49061452
8680.75746842
8679.77798384
8678.5545678
8677.08622827
8675.37114801
8673.40681039
8671.18881825
8668.70950498
8665.9543204
8662.90118018
8659.51998729
8655.7881479
8651.72345851
8647.52265852
5692.20937156
146.002417745
0.000386220542234
8669.9121057
8669.48411936
8668.89970565
8667.96727324
8666.71755949
8665.14970411
8663.25791977
8661.03462584
8658.46986092
8655.5507575
8652.25872754
8648.56891031
8644.44707215
8639.8597867
8634.79492481
8629.30405321
8623.23443114
5326.71300766
30.4223788773
-0.0128401805477
8657.82677216
8657.32541225
8656.61220695
8646.10533689
8634.80896924
8623.99646725
)
;
    }
    atmosphere
    {
        type            totalPressure;
        rho             rho;
        psi             none;
        gamma           1;
        p0              uniform 0;
        value           nonuniform List<scalar> 8(-0.000903728383694 -0.000542313494736 -0.000423937266429 -0.000412974988596 -0.000476245093587 -0.000631809210894 -0.000570738248155 0);
    }
    floatingObject
    {
        type            fixedFluxPressure;
        gradient        nonuniform List<scalar> 0();
        value           nonuniform List<scalar> 0();
    }
    procBoundary9to6
    {
        type            processor;
        value           nonuniform List<scalar> 4(8818.85295655 7924.53889261 1648.91241129 -0.0949661260757);
    }
    procBoundary9to7
    {
        type            processor;
        value           nonuniform List<scalar> 
16
(
8772.13757557
8772.27609876
8772.6227949
8773.13920637
8773.85536544
8774.78843021
8775.96464641
8777.41967755
8779.20091717
8781.36981452
8784.00704892
8787.21858188
8791.14212187
8795.97329452
8801.94505387
8809.29668132
)
;
    }
    procBoundary9to10
    {
        type            processor;
        value           nonuniform List<scalar> 
15
(
8655.4830973
8653.96719354
8652.06025804
8649.75249128
8647.03070439
8643.87878804
8640.27549734
8636.19496714
8645.53269403
8655.4830973
8644.69332607
8645.53269403
8634.16763401
8623.28968804
8613.7234987
)
;
    }
    procBoundary9to11
    {
        type            processor;
        value           nonuniform List<scalar> 9(8631.59931517 8626.44786288 8620.69981592 8614.34223894 8607.42327022 8593.78628239 4908.2252248 0.107191542108 -0.0437654598202);
    }
}


// ************************************************************************* //
