/*--------------------------------*- C++ -*----------------------------------*\
| =========                 |                                                 |
| \\      /  F ield         | OpenFOAM: The Open Source CFD Toolbox           |
|  \\    /   O peration     | Version:  v2012                                 |
|   \\  /    A nd           | Website:  www.openfoam.com                      |
|    \\/     M anipulation  |                                                 |
\*---------------------------------------------------------------------------*/
FoamFile
{
    version     2.0;
    format      ascii;
    class       volScalarField;
    location    "1.6";
    object      p;
}
// * * * * * * * * * * * * * * * * * * * * * * * * * * * * * * * * * * * * * //

dimensions      [1 -1 -2 0 0 0 0];


internalField   nonuniform List<scalar> 
164
(
2843.68780743
2362.46503036
1883.45975023
1406.72666119
929.172016663
448.368522796
48.4601640678
-52.9039328796
2849.25208262
2365.32742629
1885.92452715
1409.08394393
926.947255775
454.667966268
-137.829583655
-175.927560602
2849.25250602
2365.32793988
1885.92515185
1409.08452698
926.947595365
454.668034069
-137.830274712
-175.931042675
2843.68895652
2362.4664104
1883.46132778
1406.72822711
929.173162384
448.369104637
48.4601481943
-52.9053655817
1878.92013065
1404.74250864
936.37903711
477.087228681
109.348462875
-42.3457553612
1871.89148417
1393.21670654
911.733274529
440.665296229
-123.36905478
-106.361113182
1865.40259299
1386.60936956
907.151259605
427.19882175
60.9815145789
-30.477481499
1858.59256316
1379.68557109
900.024159873
417.446052733
79.4562282188
-16.5386700904
1851.45286862
1372.81847298
894.075453205
415.568561193
83.6920865573
-12.7451642032
1843.74866573
1365.26526682
886.902457635
411.178185973
84.1309691498
-12.2727932988
1835.40280354
1357.38523294
877.744786352
401.780600968
74.5769422213
-14.014720827
1826.26984801
1349.9411286
867.794692606
408.883457572
70.4392789528
-20.1975907703
1815.56821731
1339.60166674
854.445541584
413.540835227
-79.344455214
-59.5397060556
1803.20753243
1324.53332579
841.217135268
370.142535333
41.2140008002
-21.2277353724
1789.89784857
1310.1331038
826.389018276
340.691713383
38.3108278632
-16.1043353591
1776.45770935
1298.13776636
816.649292499
339.4125698
39.3738800224
-16.0180427791
1763.62640831
1284.98203892
809.966337359
349.402672463
-26.3776661412
-36.8355418936
1746.9180738
1264.92845216
782.18747993
304.229236697
16.6235186384
-14.9480857881
1729.44621857
1244.91592859
759.230031648
283.744901922
18.4095398943
-11.6860230584
1711.84005759
1224.46457128
735.138807734
267.736542404
18.2543559171
-10.3838857511
1694.94498497
1205.70369483
714.215999477
252.990831133
15.257899492
-9.88796859247
1679.14390181
1188.77890664
695.956644547
240.120147995
12.0937561805
-9.69840797705
1664.61971049
1173.90520932
680.833832033
230.102989704
9.55227071603
-9.63115330427
1651.30985051
1160.98339952
668.822848473
223.55969212
8.16663138185
-9.61545218998
659.116809294
219.470749871
7.64895996245
-9.61764241847
650.483076421
216.04648308
7.34373115055
-9.62166098206
641.57480831
212.143936117
6.86571139582
-9.62414139611
)
;

boundaryField
{
    back
    {
        type            calculated;
        value           nonuniform List<scalar> 
164
(
2843.68780743
2362.46503036
1883.45975023
1406.72666119
929.172016663
448.368522796
48.4601640678
-52.9039328796
2849.25208262
2365.32742629
1885.92452715
1409.08394393
926.947255775
454.667966268
-137.829583655
-175.927560602
2849.25250602
2365.32793988
1885.92515185
1409.08452698
926.947595365
454.668034069
-137.830274712
-175.931042675
2843.68895652
2362.4664104
1883.46132778
1406.72822711
929.173162384
448.369104637
48.4601481943
-52.9053655817
1878.92013065
1404.74250864
936.37903711
477.087228681
109.348462875
-42.3457553612
1871.89148417
1393.21670654
911.733274529
440.665296229
-123.36905478
-106.361113182
1865.40259299
1386.60936956
907.151259605
427.19882175
60.9815145789
-30.477481499
1858.59256316
1379.68557109
900.024159873
417.446052733
79.4562282188
-16.5386700904
1851.45286862
1372.81847298
894.075453205
415.568561193
83.6920865573
-12.7451642032
1843.74866573
1365.26526682
886.902457635
411.178185973
84.1309691498
-12.2727932988
1835.40280354
1357.38523294
877.744786352
401.780600968
74.5769422213
-14.014720827
1826.26984801
1349.9411286
867.794692606
408.883457572
70.4392789528
-20.1975907703
1815.56821731
1339.60166674
854.445541584
413.540835227
-79.344455214
-59.5397060556
1803.20753243
1324.53332579
841.217135268
370.142535333
41.2140008002
-21.2277353724
1789.89784857
1310.1331038
826.389018276
340.691713383
38.3108278632
-16.1043353591
1776.45770935
1298.13776636
816.649292499
339.4125698
39.3738800224
-16.0180427791
1763.62640831
1284.98203892
809.966337359
349.402672463
-26.3776661412
-36.8355418936
1746.9180738
1264.92845216
782.18747993
304.229236697
16.6235186384
-14.9480857881
1729.44621857
1244.91592859
759.230031648
283.744901922
18.4095398943
-11.6860230584
1711.84005759
1224.46457128
735.138807734
267.736542404
18.2543559171
-10.3838857511
1694.94498497
1205.70369483
714.215999477
252.990831133
15.257899492
-9.88796859247
1679.14390181
1188.77890664
695.956644547
240.120147995
12.0937561805
-9.69840797705
1664.61971049
1173.90520932
680.833832033
230.102989704
9.55227071603
-9.63115330427
1651.30985051
1160.98339952
668.822848473
223.55969212
8.16663138185
-9.61545218998
659.116809294
219.470749871
7.64895996245
-9.61764241847
650.483076421
216.04648308
7.34373115055
-9.62166098206
641.57480831
212.143936117
6.86571139582
-9.62414139611
)
;
    }
    sides
    {
        type            calculated;
        value           nonuniform List<scalar> 0();
    }
    bottom
    {
        type            calculated;
        value           nonuniform List<scalar> 0();
    }
    front
    {
        type            calculated;
        value           nonuniform List<scalar> 
164
(
2843.68780743
2362.46503036
1883.45975023
1406.72666119
929.172016663
448.368522796
48.4601640678
-52.9039328796
2849.25208262
2365.32742629
1885.92452715
1409.08394393
926.947255775
454.667966268
-137.829583655
-175.927560602
2849.25250602
2365.32793988
1885.92515185
1409.08452698
926.947595365
454.668034069
-137.830274712
-175.931042675
2843.68895652
2362.4664104
1883.46132778
1406.72822711
929.173162384
448.369104637
48.4601481943
-52.9053655817
1878.92013065
1404.74250864
936.37903711
477.087228681
109.348462875
-42.3457553612
1871.89148417
1393.21670654
911.733274529
440.665296229
-123.36905478
-106.361113182
1865.40259299
1386.60936956
907.151259605
427.19882175
60.9815145789
-30.477481499
1858.59256316
1379.68557109
900.024159873
417.446052733
79.4562282188
-16.5386700904
1851.45286862
1372.81847298
894.075453205
415.568561193
83.6920865573
-12.7451642032
1843.74866573
1365.26526682
886.902457635
411.178185973
84.1309691498
-12.2727932988
1835.40280354
1357.38523294
877.744786352
401.780600968
74.5769422213
-14.014720827
1826.26984801
1349.9411286
867.794692606
408.883457572
70.4392789528
-20.1975907703
1815.56821731
1339.60166674
854.445541584
413.540835227
-79.344455214
-59.5397060556
1803.20753243
1324.53332579
841.217135268
370.142535333
41.2140008002
-21.2277353724
1789.89784857
1310.1331038
826.389018276
340.691713383
38.3108278632
-16.1043353591
1776.45770935
1298.13776636
816.649292499
339.4125698
39.3738800224
-16.0180427791
1763.62640831
1284.98203892
809.966337359
349.402672463
-26.3776661412
-36.8355418936
1746.9180738
1264.92845216
782.18747993
304.229236697
16.6235186384
-14.9480857881
1729.44621857
1244.91592859
759.230031648
283.744901922
18.4095398943
-11.6860230584
1711.84005759
1224.46457128
735.138807734
267.736542404
18.2543559171
-10.3838857511
1694.94498497
1205.70369483
714.215999477
252.990831133
15.257899492
-9.88796859247
1679.14390181
1188.77890664
695.956644547
240.120147995
12.0937561805
-9.69840797705
1664.61971049
1173.90520932
680.833832033
230.102989704
9.55227071603
-9.63115330427
1651.30985051
1160.98339952
668.822848473
223.55969212
8.16663138185
-9.61545218998
659.116809294
219.470749871
7.64895996245
-9.61764241847
650.483076421
216.04648308
7.34373115055
-9.62166098206
641.57480831
212.143936117
6.86571139582
-9.62414139611
)
;
    }
    atmosphere
    {
        type            calculated;
        value           nonuniform List<scalar> 
27
(
-10.8521766604
-2052.58801076
-2052.62083232
-10.8522126608
-10.344553914
-1688.17919987
-10.0516454283
-9.94434722812
-9.86160604589
-9.85550782495
-9.91141645257
-9.91286299229
-1004.04528966
-9.98045967794
-10.1606506159
-9.92928789886
-378.716353623
-9.9580532801
-9.90762794654
-9.84488161209
-9.82180251711
-9.81577033744
-9.81508538402
-9.81647278731
-9.81797811937
-9.81852566774
-9.81855460799
)
;
    }
    floatingObject
    {
        type            calculated;
        value           nonuniform List<scalar> 4(3088.49735001 3094.06169759 3094.06226399 3088.49874501);
    }
    procBoundary6to3
    {
        type            processor;
        value           nonuniform List<scalar> 8(2834.83050167 2356.39542237 1878.91889787 1404.74088555 936.377543327 477.086021186 109.349114803 -42.343565048);
    }
    procBoundary6to7
    {
        type            processor;
        value           nonuniform List<scalar> 
11
(
2214.77924424
2198.74304946
2183.10764713
2168.12892844
2153.9316616
2140.47896594
1638.9087883
1149.48549805
1149.48549805
1138.68079361
1127.86307777
)
;
    }
    procBoundary6to8
    {
        type            processor;
        value           nonuniform List<scalar> 
16
(
2834.83079977
2356.39614688
2356.39614688
2350.20338788
2344.04246388
2337.43120423
2330.41233167
2322.83584756
2314.57505416
2305.47576106
2295.23367082
2284.02427122
2272.37085617
2260.84485161
2246.00902645
2230.67764044
)
;
    }
    procBoundary6to9
    {
        type            processor;
        value           nonuniform List<scalar> 4(631.505523067 207.079839438 6.00048121304 -9.62260071425);
    }
}


// ************************************************************************* //
