/*--------------------------------*- C++ -*----------------------------------*\
| =========                 |                                                 |
| \\      /  F ield         | OpenFOAM: The Open Source CFD Toolbox           |
|  \\    /   O peration     | Version:  v2012                                 |
|   \\  /    A nd           | Website:  www.openfoam.com                      |
|    \\/     M anipulation  |                                                 |
\*---------------------------------------------------------------------------*/
FoamFile
{
    version     2.0;
    format      ascii;
    class       volScalarField;
    location    "1.6";
    object      rAU;
}
// * * * * * * * * * * * * * * * * * * * * * * * * * * * * * * * * * * * * * //

dimensions      [-1 3 1 0 0 0 0];


internalField   nonuniform List<scalar> 
164
(
8.21090616493e-06
8.17739481052e-06
8.19332864353e-06
8.16740319386e-06
8.04846998554e-06
8.00753755347e-06
1.45890330857e-05
0.00160573950818
8.23186090206e-06
8.20587694161e-06
8.201972891e-06
8.16533418987e-06
8.06013058019e-06
7.8470488901e-06
7.43235739082e-06
2.56414433532e-05
8.23185659082e-06
8.20587427883e-06
8.20196752897e-06
8.16532788233e-06
8.06012359583e-06
7.84704698618e-06
7.43233672547e-06
2.56410414557e-05
8.21089889466e-06
8.17738406924e-06
8.19331308458e-06
8.16738478831e-06
8.04845221403e-06
8.00753669368e-06
1.4588837197e-05
0.00160571569468
8.18182564285e-06
8.15312066137e-06
8.04762946129e-06
8.05717612687e-06
1.14004617867e-05
0.00152446314805
8.16057206409e-06
8.15245960588e-06
8.03662783479e-06
7.84770452288e-06
7.76639019182e-06
3.15040328326e-05
8.19877870262e-06
8.16491910866e-06
8.12668250684e-06
8.04710149072e-06
1.70627147602e-05
0.00168127841899
8.1951681883e-06
8.17990207957e-06
8.1617805047e-06
8.09586292014e-06
1.96058476641e-05
0.00181206431389
8.19499371779e-06
8.18047444359e-06
8.15046809954e-06
8.08459646138e-06
1.98934470301e-05
0.00276718568053
8.19591188415e-06
8.17861118655e-06
8.18525130949e-06
8.07016070717e-06
1.99213532641e-05
0.00295860284562
8.18368182018e-06
8.13788300376e-06
8.13069259098e-06
8.04486139179e-06
2.07968307841e-05
0.00296035146157
8.19623328699e-06
8.10029774373e-06
8.16678949793e-06
8.08738727312e-06
1.9401680844e-05
0.00242875173097
8.21784999827e-06
8.13560927854e-06
8.15829146388e-06
8.09576960071e-06
9.08246048718e-06
5.35873095027e-05
8.22297001959e-06
8.17931116799e-06
8.11177531167e-06
8.09109852413e-06
2.68045462489e-05
0.00271395797759
8.19942491485e-06
8.19109683069e-06
8.15883884601e-06
8.11287284945e-06
3.34379693701e-05
0.00335363055951
8.17538525965e-06
8.16499334166e-06
8.09085931092e-06
8.30370674865e-06
3.48916349206e-05
0.00339931073199
8.17849773222e-06
8.12989233641e-06
8.02527121799e-06
7.93394816285e-06
1.19648877048e-05
0.000141621557331
8.19593476357e-06
8.14848372109e-06
8.07687392261e-06
8.08877066418e-06
5.51207188234e-05
0.00391452856498
8.2165401817e-06
8.21401376585e-06
8.11066392722e-06
8.28566904334e-06
6.42838529966e-05
0.00455297199103
8.21876001302e-06
8.23196289455e-06
8.16356749671e-06
9.01153231975e-06
6.71136952282e-05
0.00491045863706
8.21906530442e-06
8.22455825278e-06
8.18694247314e-06
9.42085112034e-06
7.69360136693e-05
0.00525718827645
8.21952127557e-06
8.21880826352e-06
8.1724685755e-06
9.68400859515e-06
8.72907725099e-05
0.00551742174543
8.21902100082e-06
8.21224474509e-06
8.16076362928e-06
9.8936046482e-06
9.89335014837e-05
0.00570495574487
8.21788666194e-06
8.20237959712e-06
8.14674914865e-06
1.00341426674e-05
0.000105907774889
0.00580047379032
8.13586363231e-06
1.01295926674e-05
0.000107990852412
0.00581228741067
8.2086805628e-06
1.03491893965e-05
0.000108763522914
0.00584215004636
8.20778546437e-06
1.04655051994e-05
0.000110677325811
0.00589396683166
)
;

boundaryField
{
    back
    {
        type            calculated;
        value           nonuniform List<scalar> 
164
(
8.21090616493e-06
8.17739481052e-06
8.19332864353e-06
8.16740319386e-06
8.04846998554e-06
8.00753755347e-06
1.45890330857e-05
0.00160573950818
8.23186090206e-06
8.20587694161e-06
8.201972891e-06
8.16533418987e-06
8.06013058019e-06
7.8470488901e-06
7.43235739082e-06
2.56414433532e-05
8.23185659082e-06
8.20587427883e-06
8.20196752897e-06
8.16532788233e-06
8.06012359583e-06
7.84704698618e-06
7.43233672547e-06
2.56410414557e-05
8.21089889466e-06
8.17738406924e-06
8.19331308458e-06
8.16738478831e-06
8.04845221403e-06
8.00753669368e-06
1.4588837197e-05
0.00160571569468
8.18182564285e-06
8.15312066137e-06
8.04762946129e-06
8.05717612687e-06
1.14004617867e-05
0.00152446314805
8.16057206409e-06
8.15245960588e-06
8.03662783479e-06
7.84770452288e-06
7.76639019182e-06
3.15040328326e-05
8.19877870262e-06
8.16491910866e-06
8.12668250684e-06
8.04710149072e-06
1.70627147602e-05
0.00168127841899
8.1951681883e-06
8.17990207957e-06
8.1617805047e-06
8.09586292014e-06
1.96058476641e-05
0.00181206431389
8.19499371779e-06
8.18047444359e-06
8.15046809954e-06
8.08459646138e-06
1.98934470301e-05
0.00276718568053
8.19591188415e-06
8.17861118655e-06
8.18525130949e-06
8.07016070717e-06
1.99213532641e-05
0.00295860284562
8.18368182018e-06
8.13788300376e-06
8.13069259098e-06
8.04486139179e-06
2.07968307841e-05
0.00296035146157
8.19623328699e-06
8.10029774373e-06
8.16678949793e-06
8.08738727312e-06
1.9401680844e-05
0.00242875173097
8.21784999827e-06
8.13560927854e-06
8.15829146388e-06
8.09576960071e-06
9.08246048718e-06
5.35873095027e-05
8.22297001959e-06
8.17931116799e-06
8.11177531167e-06
8.09109852413e-06
2.68045462489e-05
0.00271395797759
8.19942491485e-06
8.19109683069e-06
8.15883884601e-06
8.11287284945e-06
3.34379693701e-05
0.00335363055951
8.17538525965e-06
8.16499334166e-06
8.09085931092e-06
8.30370674865e-06
3.48916349206e-05
0.00339931073199
8.17849773222e-06
8.12989233641e-06
8.02527121799e-06
7.93394816285e-06
1.19648877048e-05
0.000141621557331
8.19593476357e-06
8.14848372109e-06
8.07687392261e-06
8.08877066418e-06
5.51207188234e-05
0.00391452856498
8.2165401817e-06
8.21401376585e-06
8.11066392722e-06
8.28566904334e-06
6.42838529966e-05
0.00455297199103
8.21876001302e-06
8.23196289455e-06
8.16356749671e-06
9.01153231975e-06
6.71136952282e-05
0.00491045863706
8.21906530442e-06
8.22455825278e-06
8.18694247314e-06
9.42085112034e-06
7.69360136693e-05
0.00525718827645
8.21952127557e-06
8.21880826352e-06
8.1724685755e-06
9.68400859515e-06
8.72907725099e-05
0.00551742174543
8.21902100082e-06
8.21224474509e-06
8.16076362928e-06
9.8936046482e-06
9.89335014837e-05
0.00570495574487
8.21788666194e-06
8.20237959712e-06
8.14674914865e-06
1.00341426674e-05
0.000105907774889
0.00580047379032
8.13586363231e-06
1.01295926674e-05
0.000107990852412
0.00581228741067
8.2086805628e-06
1.03491893965e-05
0.000108763522914
0.00584215004636
8.20778546437e-06
1.04655051994e-05
0.000110677325811
0.00589396683166
)
;
    }
    sides
    {
        type            calculated;
        value           nonuniform List<scalar> 0();
    }
    bottom
    {
        type            calculated;
        value           nonuniform List<scalar> 0();
    }
    front
    {
        type            calculated;
        value           nonuniform List<scalar> 
164
(
8.21090616493e-06
8.17739481052e-06
8.19332864353e-06
8.16740319386e-06
8.04846998554e-06
8.00753755347e-06
1.45890330857e-05
0.00160573950818
8.23186090206e-06
8.20587694161e-06
8.201972891e-06
8.16533418987e-06
8.06013058019e-06
7.8470488901e-06
7.43235739082e-06
2.56414433532e-05
8.23185659082e-06
8.20587427883e-06
8.20196752897e-06
8.16532788233e-06
8.06012359583e-06
7.84704698618e-06
7.43233672547e-06
2.56410414557e-05
8.21089889466e-06
8.17738406924e-06
8.19331308458e-06
8.16738478831e-06
8.04845221403e-06
8.00753669368e-06
1.4588837197e-05
0.00160571569468
8.18182564285e-06
8.15312066137e-06
8.04762946129e-06
8.05717612687e-06
1.14004617867e-05
0.00152446314805
8.16057206409e-06
8.15245960588e-06
8.03662783479e-06
7.84770452288e-06
7.76639019182e-06
3.15040328326e-05
8.19877870262e-06
8.16491910866e-06
8.12668250684e-06
8.04710149072e-06
1.70627147602e-05
0.00168127841899
8.1951681883e-06
8.17990207957e-06
8.1617805047e-06
8.09586292014e-06
1.96058476641e-05
0.00181206431389
8.19499371779e-06
8.18047444359e-06
8.15046809954e-06
8.08459646138e-06
1.98934470301e-05
0.00276718568053
8.19591188415e-06
8.17861118655e-06
8.18525130949e-06
8.07016070717e-06
1.99213532641e-05
0.00295860284562
8.18368182018e-06
8.13788300376e-06
8.13069259098e-06
8.04486139179e-06
2.07968307841e-05
0.00296035146157
8.19623328699e-06
8.10029774373e-06
8.16678949793e-06
8.08738727312e-06
1.9401680844e-05
0.00242875173097
8.21784999827e-06
8.13560927854e-06
8.15829146388e-06
8.09576960071e-06
9.08246048718e-06
5.35873095027e-05
8.22297001959e-06
8.17931116799e-06
8.11177531167e-06
8.09109852413e-06
2.68045462489e-05
0.00271395797759
8.19942491485e-06
8.19109683069e-06
8.15883884601e-06
8.11287284945e-06
3.34379693701e-05
0.00335363055951
8.17538525965e-06
8.16499334166e-06
8.09085931092e-06
8.30370674865e-06
3.48916349206e-05
0.00339931073199
8.17849773222e-06
8.12989233641e-06
8.02527121799e-06
7.93394816285e-06
1.19648877048e-05
0.000141621557331
8.19593476357e-06
8.14848372109e-06
8.07687392261e-06
8.08877066418e-06
5.51207188234e-05
0.00391452856498
8.2165401817e-06
8.21401376585e-06
8.11066392722e-06
8.28566904334e-06
6.42838529966e-05
0.00455297199103
8.21876001302e-06
8.23196289455e-06
8.16356749671e-06
9.01153231975e-06
6.71136952282e-05
0.00491045863706
8.21906530442e-06
8.22455825278e-06
8.18694247314e-06
9.42085112034e-06
7.69360136693e-05
0.00525718827645
8.21952127557e-06
8.21880826352e-06
8.1724685755e-06
9.68400859515e-06
8.72907725099e-05
0.00551742174543
8.21902100082e-06
8.21224474509e-06
8.16076362928e-06
9.8936046482e-06
9.89335014837e-05
0.00570495574487
8.21788666194e-06
8.20237959712e-06
8.14674914865e-06
1.00341426674e-05
0.000105907774889
0.00580047379032
8.13586363231e-06
1.01295926674e-05
0.000107990852412
0.00581228741067
8.2086805628e-06
1.03491893965e-05
0.000108763522914
0.00584215004636
8.20778546437e-06
1.04655051994e-05
0.000110677325811
0.00589396683166
)
;
    }
    atmosphere
    {
        type            calculated;
        value           nonuniform List<scalar> 
27
(
0.00160573950818
2.56414433532e-05
2.56410414557e-05
0.00160571569468
0.00152446314805
3.15040328326e-05
0.00168127841899
0.00181206431389
0.00276718568053
0.00295860284562
0.00296035146157
0.00242875173097
5.35873095027e-05
0.00271395797759
0.00335363055951
0.00339931073199
0.000141621557331
0.00391452856498
0.00455297199103
0.00491045863706
0.00525718827645
0.00551742174543
0.00570495574487
0.00580047379032
0.00581228741067
0.00584215004636
0.00589396683166
)
;
    }
    floatingObject
    {
        type            calculated;
        value           nonuniform List<scalar> 4(8.21090616493e-06 8.23186090206e-06 8.23185659082e-06 8.21089889466e-06);
    }
    procBoundary6to3
    {
        type            processor;
        value           nonuniform List<scalar> 8(8.20455472005e-06 8.16862173861e-06 8.18183789845e-06 8.15313955021e-06 8.04764985372e-06 8.05717584989e-06 1.14005455612e-05 0.00152448534243);
    }
    procBoundary6to7
    {
        type            processor;
        value           nonuniform List<scalar> 
11
(
8.20229917167e-06
8.21046839578e-06
8.21382863841e-06
8.21539560674e-06
8.21614863179e-06
8.21697800539e-06
8.21621331862e-06
8.19137681673e-06
8.19137681673e-06
8.182053427e-06
8.18326044055e-06
)
;
    }
    procBoundary6to8
    {
        type            processor;
        value           nonuniform List<scalar> 
16
(
8.20454063721e-06
8.16857397214e-06
8.16857397214e-06
8.17664789413e-06
8.19615242517e-06
8.1978042385e-06
8.19882131758e-06
8.20014836754e-06
8.20060757054e-06
8.2070821668e-06
8.21506974795e-06
8.21362500747e-06
8.2115223272e-06
8.2079997387e-06
8.20042422423e-06
8.20099741831e-06
)
;
    }
    procBoundary6to9
    {
        type            processor;
        value           nonuniform List<scalar> 4(8.21524553731e-06 1.06380853302e-05 0.000116607775448 0.0059734422522);
    }
}


// ************************************************************************* //
