/*--------------------------------*- C++ -*----------------------------------*\
| =========                 |                                                 |
| \\      /  F ield         | OpenFOAM: The Open Source CFD Toolbox           |
|  \\    /   O peration     | Version:  v2012                                 |
|   \\  /    A nd           | Website:  www.openfoam.com                      |
|    \\/     M anipulation  |                                                 |
\*---------------------------------------------------------------------------*/
FoamFile
{
    version     2.0;
    format      ascii;
    class       volScalarField;
    location    "0.3";
    object      epsilon;
}
// * * * * * * * * * * * * * * * * * * * * * * * * * * * * * * * * * * * * * //

dimensions      [0 2 -3 0 0 0 0];


internalField   nonuniform List<scalar> 
167
(
0.105445491073
0.105479588303
0.105511948368
0.105542387995
0.105570733489
0.105596825489
0.105620689061
0.105645671748
0.105727567186
0.106624834888
0.116755774032
0.210495481905
0.0965793829121
0.0966063043082
0.0966323411288
0.0966573416689
0.0966811719162
0.0967037423192
0.0967253499873
0.096751356687
0.0968514241496
0.0977949751767
0.106485583447
0.170472743552
0.0989390175791
0.0989632094979
0.0989864038577
0.0990084297742
0.0990291323408
0.0990483976031
0.0990664871897
0.0990888705504
0.0991869639468
0.10013661238
0.108772311605
0.171633735507
0.0992417799135
0.0992634705422
0.0992840432896
0.0993033225997
0.099321173982
0.0993378476999
0.0993588800159
0.0994564650513
0.100410991007
0.109063155948
0.17178500341
0.0993003242317
0.0993200487055
0.0993385910607
0.0993557919283
0.0993718918681
0.0993925229053
0.09949093066
0.100454723169
0.109149845985
0.17185921777
0.0993172043199
0.0993361445089
0.0993540278117
0.0993706765979
0.099386326491
0.0994067404896
0.099506536641
0.100482779389
0.109235345191
0.171942269794
0.0993350222346
0.0993531458347
0.0993703408562
0.0993864143151
0.0994016022092
0.099421836156
0.0995234327126
0.100515057564
0.109337741952
0.172041569426
0.0993553990696
0.0993726902913
0.0993891768325
0.0994046543683
0.0994193655178
0.0994394505586
0.0995432661284
0.100553264598
0.10945867284
0.172158212509
0.099378412219
0.0993948828174
0.0994106637227
0.099425543799
0.0994397789608
0.0994597617191
0.099566254324
0.100597773977
0.109598820543
0.172292892756
0.099404056602
0.0994197416517
0.0994348415413
0.0994491418383
0.0994629186243
0.0994828646994
0.099592544427
0.100648941495
0.109758996516
0.172446351404
0.0994323476978
0.0994473029937
0.0994617659118
0.09947552205
0.0994888746664
0.0995088703329
0.0996223097634
0.100707192641
0.109940176128
0.172619421851
0.0994633312346
0.0994776290564
0.0994915164503
0.099504780895
0.0995177599596
0.0995379140432
0.0996557591428
0.100773032942
0.110143499803
0.172813048518
0.0994970793727
0.0995108083918
0.09952419826
0.0995370399349
0.0995497127837
0.0995701589306
0.0996931415419
0.100847057072
0.110370286416
0.173028306897
0.0995336934915
0.0995469576396
0.0995599444467
0.0995724490099
0.0995849000725
0.0996057994499
0.0997347513331
0.100929960613
0.110622054413
0.173266424992
0.0995733004413
0.0995862180153
0.0995989138335
0.0996111836098
0.0996235173172
0.09964506231
0.0997809350561
0.101022555754
0.110900553051
0.173528809502
0.0996160404795
0.0996287538073
0.099641288532
0.0996534498198
0.0996657910937
0.0996882163948
0.0998320993524
0.101125794701
0.111207794911
0.17381707453
)
;

boundaryField
{
    back
    {
        lowReCorrection 0;
        blending        stepwise;
        n               2;
        type            epsilonWallFunction;
        value           nonuniform List<scalar> 
167
(
0.105445491073
0.105479588303
0.105511948368
0.105542387995
0.105570733489
0.105596825489
0.105620689061
0.105645671748
0.105727567186
0.106624834888
0.116755774032
0.210495481905
0.0965793829121
0.0966063043082
0.0966323411288
0.0966573416689
0.0966811719162
0.0967037423192
0.0967253499873
0.096751356687
0.0968514241496
0.0977949751767
0.106485583447
0.170472743552
0.0989390175791
0.0989632094979
0.0989864038577
0.0990084297742
0.0990291323408
0.0990483976031
0.0990664871897
0.0990888705504
0.0991869639468
0.10013661238
0.108772311605
0.171633735507
0.0992417799135
0.0992634705422
0.0992840432896
0.0993033225997
0.099321173982
0.0993378476999
0.0993588800159
0.0994564650513
0.100410991007
0.109063155948
0.17178500341
0.0993003242317
0.0993200487055
0.0993385910607
0.0993557919283
0.0993718918681
0.0993925229053
0.09949093066
0.100454723169
0.109149845985
0.17185921777
0.0993172043199
0.0993361445089
0.0993540278117
0.0993706765979
0.099386326491
0.0994067404896
0.099506536641
0.100482779389
0.109235345191
0.171942269794
0.0993350222346
0.0993531458347
0.0993703408562
0.0993864143151
0.0994016022092
0.099421836156
0.0995234327126
0.100515057564
0.109337741952
0.172041569426
0.0993553990696
0.0993726902913
0.0993891768325
0.0994046543683
0.0994193655178
0.0994394505586
0.0995432661284
0.100553264598
0.10945867284
0.172158212509
0.099378412219
0.0993948828174
0.0994106637227
0.099425543799
0.0994397789608
0.0994597617191
0.099566254324
0.100597773977
0.109598820543
0.172292892756
0.099404056602
0.0994197416517
0.0994348415413
0.0994491418383
0.0994629186243
0.0994828646994
0.099592544427
0.100648941495
0.109758996516
0.172446351404
0.0994323476978
0.0994473029937
0.0994617659118
0.09947552205
0.0994888746664
0.0995088703329
0.0996223097634
0.100707192641
0.109940176128
0.172619421851
0.0994633312346
0.0994776290564
0.0994915164503
0.099504780895
0.0995177599596
0.0995379140432
0.0996557591428
0.100773032942
0.110143499803
0.172813048518
0.0994970793727
0.0995108083918
0.09952419826
0.0995370399349
0.0995497127837
0.0995701589306
0.0996931415419
0.100847057072
0.110370286416
0.173028306897
0.0995336934915
0.0995469576396
0.0995599444467
0.0995724490099
0.0995849000725
0.0996057994499
0.0997347513331
0.100929960613
0.110622054413
0.173266424992
0.0995733004413
0.0995862180153
0.0995989138335
0.0996111836098
0.0996235173172
0.09964506231
0.0997809350561
0.101022555754
0.110900553051
0.173528809502
0.0996160404795
0.0996287538073
0.099641288532
0.0996534498198
0.0996657910937
0.0996882163948
0.0998320993524
0.101125794701
0.111207794911
0.17381707453
)
;
    }
    sides
    {
        lowReCorrection 0;
        blending        stepwise;
        n               2;
        type            epsilonWallFunction;
        value           nonuniform List<scalar> 
12
(
0.105445491073
0.105479588303
0.105511948368
0.105542387995
0.105570733489
0.105596825489
0.105620689061
0.105645671748
0.105727567186
0.106624834888
0.116755774032
0.210495481905
)
;
    }
    bottom
    {
        lowReCorrection 0;
        blending        stepwise;
        n               2;
        type            epsilonWallFunction;
        value           nonuniform List<scalar> 0();
    }
    front
    {
        lowReCorrection 0;
        blending        stepwise;
        n               2;
        type            epsilonWallFunction;
        value           nonuniform List<scalar> 
167
(
0.105445491073
0.105479588303
0.105511948368
0.105542387995
0.105570733489
0.105596825489
0.105620689061
0.105645671748
0.105727567186
0.106624834888
0.116755774032
0.210495481905
0.0965793829121
0.0966063043082
0.0966323411288
0.0966573416689
0.0966811719162
0.0967037423192
0.0967253499873
0.096751356687
0.0968514241496
0.0977949751767
0.106485583447
0.170472743552
0.0989390175791
0.0989632094979
0.0989864038577
0.0990084297742
0.0990291323408
0.0990483976031
0.0990664871897
0.0990888705504
0.0991869639468
0.10013661238
0.108772311605
0.171633735507
0.0992417799135
0.0992634705422
0.0992840432896
0.0993033225997
0.099321173982
0.0993378476999
0.0993588800159
0.0994564650513
0.100410991007
0.109063155948
0.17178500341
0.0993003242317
0.0993200487055
0.0993385910607
0.0993557919283
0.0993718918681
0.0993925229053
0.09949093066
0.100454723169
0.109149845985
0.17185921777
0.0993172043199
0.0993361445089
0.0993540278117
0.0993706765979
0.099386326491
0.0994067404896
0.099506536641
0.100482779389
0.109235345191
0.171942269794
0.0993350222346
0.0993531458347
0.0993703408562
0.0993864143151
0.0994016022092
0.099421836156
0.0995234327126
0.100515057564
0.109337741952
0.172041569426
0.0993553990696
0.0993726902913
0.0993891768325
0.0994046543683
0.0994193655178
0.0994394505586
0.0995432661284
0.100553264598
0.10945867284
0.172158212509
0.099378412219
0.0993948828174
0.0994106637227
0.099425543799
0.0994397789608
0.0994597617191
0.099566254324
0.100597773977
0.109598820543
0.172292892756
0.099404056602
0.0994197416517
0.0994348415413
0.0994491418383
0.0994629186243
0.0994828646994
0.099592544427
0.100648941495
0.109758996516
0.172446351404
0.0994323476978
0.0994473029937
0.0994617659118
0.09947552205
0.0994888746664
0.0995088703329
0.0996223097634
0.100707192641
0.109940176128
0.172619421851
0.0994633312346
0.0994776290564
0.0994915164503
0.099504780895
0.0995177599596
0.0995379140432
0.0996557591428
0.100773032942
0.110143499803
0.172813048518
0.0994970793727
0.0995108083918
0.09952419826
0.0995370399349
0.0995497127837
0.0995701589306
0.0996931415419
0.100847057072
0.110370286416
0.173028306897
0.0995336934915
0.0995469576396
0.0995599444467
0.0995724490099
0.0995849000725
0.0996057994499
0.0997347513331
0.100929960613
0.110622054413
0.173266424992
0.0995733004413
0.0995862180153
0.0995989138335
0.0996111836098
0.0996235173172
0.09964506231
0.0997809350561
0.101022555754
0.110900553051
0.173528809502
0.0996160404795
0.0996287538073
0.099641288532
0.0996534498198
0.0996657910937
0.0996882163948
0.0998320993524
0.101125794701
0.111207794911
0.17381707453
)
;
    }
    atmosphere
    {
        type            inletOutlet;
        inletValue      uniform 0.1;
        value           uniform 0.1;
    }
    floatingObject
    {
        lowReCorrection 0;
        blending        stepwise;
        n               2;
        type            epsilonWallFunction;
        value           nonuniform List<scalar> 0();
    }
    procBoundary1to0
    {
        type            processor;
        value           nonuniform List<scalar> 10(0.0996620893777 0.0996747606461 0.0996872910019 0.0996994886125 0.0997119915562 0.0997355698337 0.0998887229193 0.101240783183 0.111546098852 0.174133072734);
    }
    procBoundary1to2
    {
        type            processor;
        value           nonuniform List<scalar> 
18
(
0.105409837325
0.0965517305471
0.0989140332807
0.0992191756753
0.0992191756753
0.0992796071307
0.0992796071307
0.0992974156408
0.0993161976087
0.0993375432138
0.0993615000415
0.0993880363639
0.0994171496316
0.0994488679498
0.0994832514769
0.099520386719
0.0995603840848
0.099603378171
)
;
    }
}


// ************************************************************************* //
