/*--------------------------------*- C++ -*----------------------------------*\
| =========                 |                                                 |
| \\      /  F ield         | OpenFOAM: The Open Source CFD Toolbox           |
|  \\    /   O peration     | Version:  v2012                                 |
|   \\  /    A nd           | Website:  www.openfoam.com                      |
|    \\/     M anipulation  |                                                 |
\*---------------------------------------------------------------------------*/
FoamFile
{
    version     2.0;
    format      ascii;
    class       volVectorField;
    location    "6";
    object      ddt0(rho,U);
}
// * * * * * * * * * * * * * * * * * * * * * * * * * * * * * * * * * * * * * //

dimensions      [1 -2 -2 0 0 0 0];


internalField   nonuniform List<vector> 
164
(
(-100.534228835 1.82776539542 5.02512607324e-20)
(-101.711540241 5.57868409714 1.56639543366e-21)
(-102.723697565 9.38408006886 -3.81958159177e-21)
(-104.215938309 13.330782771 -2.71968847438e-20)
(-106.207520903 17.4724871996 -1.68186731772e-20)
(-108.731282664 21.8624340794 -9.56820382821e-21)
(-111.802605009 26.5535263952 -3.96062560399e-21)
(-115.434522311 31.6040955252 1.62655770663e-21)
(-103.98099417 1.55308301167 8.37327960585e-21)
(-105.211169886 4.78891270576 2.82412117407e-20)
(-106.3328355 8.06423296106 1.79502065382e-20)
(-107.988857035 11.4715508803 -1.33385618632e-20)
(-110.196086483 15.0632300871 -1.10892505967e-20)
(-112.991698324 18.8891186707 -8.78913461315e-21)
(-116.3932465 22.9986414984 1.92588006357e-21)
(-120.413237497 27.4487929796 2.85059918093e-21)
(-106.869589717 1.25203133965 3.56474722106e-20)
(-108.149185094 3.92255528011 4.03877621855e-20)
(-109.374559367 6.61825388775 2.76849771796e-20)
(-111.184357 9.43303172789 1.95325372564e-20)
(-113.594312355 12.4226372504 1.34079251484e-20)
(-116.643193606 15.633232058 -3.83616066624e-21)
(-120.351569928 19.1115664862 7.26889074286e-21)
(-124.736269845 22.9060893963 5.12766191001e-21)
(-129.81035093 27.0628784018 -9.91911446527e-22)
(-135.601593403 31.6304949349 1.82134387181e-21)
(-109.157250001 0.929822489945 7.21972572405e-20)
(-110.478748507 2.98612446905 2.34519709805e-20)
(-111.803631986 5.05156852803 3.3883428522e-20)
(-113.758036901 7.22513641018 1.93681332827e-20)
(-116.358836719 9.56358802514 1.65233967979e-20)
(-119.64436577 12.1072285586 1.10142636168e-20)
(-123.636968661 14.8987801555 8.75190175473e-21)
(-128.355507222 17.9813960685 5.82882063733e-21)
(-133.821122241 21.3954233139 -1.86189738641e-20)
(-140.04203366 25.1941109694 -3.45969866212e-21)
(-110.798540287 0.584075807515 6.4136331544e-20)
(-112.157181167 1.98339607344 4.44940542721e-20)
(-113.573627897 3.37344818073 1.61687969203e-20)
(-115.662455761 4.86068416048 1.97007408583e-20)
(-118.440312458 6.50127342758 1.05225523779e-20)
(-121.945728696 8.33183401276 1.19886004879e-20)
(-126.201630081 10.3925816493 1.23993225628e-20)
(-131.22684511 12.7208751193 1.4920008375e-20)
(-137.046862445 15.362592237 -1.23798814989e-20)
(-143.673503418 18.3668797396 -1.73212692644e-20)
(-111.750301623 0.218229226106 1.93146963935e-20)
(-113.143196674 0.920823470811 1.4198933907e-21)
(-114.642911274 1.59374149067 3.83456466996e-21)
(-116.855032472 2.35258805733 1.71705425111e-22)
(-119.794647129 3.25311942158 1.30043335904e-20)
(-123.502073726 4.3262741762 1.79285197727e-20)
(-128.001730664 5.60992139105 1.90480333301e-20)
(-133.314589453 7.14113076444 1.47824635375e-20)
(-139.459573936 8.96738703915 5.93683508166e-21)
(-146.457190365 11.1263573304 -9.27916657548e-21)
(-111.976611588 -0.162002578454 -1.27893888841e-20)
(-113.398192711 -0.194107037186 -2.5265802572e-20)
(-114.973185283 -0.275058466836 -2.22236523582e-20)
(-117.294808215 -0.283558124027 -1.15492600126e-20)
(-120.37990302 -0.163162812307 8.02500294781e-21)
(-124.269345551 0.110523934629 1.21743050292e-20)
(-128.989162708 0.571423246098 9.09310131544e-21)
(-134.566403757 1.25648603052 1.62290001547e-20)
(-141.01110539 2.20789344613 1.75251504382e-20)
(-148.344421672 3.46475990042 1.91522875687e-20)
(-111.449588486 -0.55753234538 -2.08864477152e-20)
(-112.886209341 -1.35588029835 -2.92534488697e-20)
(-114.527251744 -2.22178674004 -2.03472941893e-20)
(-116.946155375 -3.03123394967 -1.58146326494e-20)
(-120.157101295 -3.72770341059 -9.30601398364e-21)
(-124.20624318 -4.29062767742 -8.89077707241e-21)
(-129.120711829 -4.69449541636 1.71841292459e-20)
(-134.925912543 -4.90023793252 1.6977821546e-20)
(-141.639222388 -4.87083599507 3.40495122425e-20)
(-149.278823861 -4.57358413903 2.5550956213e-20)
(-110.136033843 -0.965788377472 -1.18704376326e-20)
(-111.584030619 -2.55486567392 1.77420717484e-22)
(-113.277291909 -4.23678608087 -2.7977048773e-20)
(-115.77360308 -5.87586388882 -2.54107268952e-20)
(-119.090625387 -7.41932244324 -1.9405178999e-20)
(-123.274240508 -8.85541947683 3.40528284723e-21)
(-128.355934567 -10.1543784446 9.31980554185e-21)
(-134.359743214 -11.2838713147 8.15851886612e-21)
(-141.310702181 -12.208379523 1.85314716529e-20)
(-149.230494766 -12.8818362208 7.10410385618e-20)
(-108.014567089 -1.38512674847 -3.19575328388e-20)
(-109.465106697 -3.78747209249 -6.07282895219e-20)
(-111.19778227 -6.30126385222 -3.86919473335e-20)
(-113.750338896 -8.79591913762 -3.32051865326e-20)
(-117.149506044 -11.2166520382 -1.20899790204e-20)
(-121.441353417 -13.5539965674 2.85472864757e-21)
(-126.663201265 -15.7837798536 1.709574714e-21)
(-132.843108086 -17.8705038185 -1.03799323016e-21)
(-140.006836347 -19.7667267626 9.40160196971e-21)
(-148.174768477 -21.4394397382 1.42119652964e-19)
(-105.071762369 -1.80814935891 -6.97720714069e-20)
(-106.511373145 -5.03684035858 -6.93017843248e-20)
(-108.265544443 -8.4020883954 -5.21454804229e-20)
(-110.855019321 -11.7706130093 -2.68294634178e-20)
(-114.30816441 -15.0918186375 -1.09722829186e-20)
(-118.67878141 -18.3628711146 8.8453034719e-21)
(-124.011085991 -21.5570816953 7.38356769671e-21)
(-130.33763395 -24.6385110808 9.77365830081e-21)
(-137.689318506 -27.561339666 1.16844173351e-20)
(-146.083493786 -30.2825525961 1.14734049051e-19)
(-101.300811074 -2.23538051707 -5.8756758987e-20)
(-102.712946857 -6.29370517996 -6.79597315701e-20)
(-104.470751119 -10.516177893 -4.51277443225e-20)
(-107.068409869 -14.7735575226 -2.78480668914e-20)
(-110.542616066 -19.0166678295 -1.08244978646e-20)
(-114.955054228 -23.2472606524 5.85352510532e-21)
(-120.357383385 -27.4416218933 1.67265845125e-20)
(-126.796331406 -31.5628907274 2.87404146009e-20)
(-134.30532802 -35.5614784812 4.86164068035e-20)
(-142.910586663 -39.381311268 1.14528370813e-19)
(-96.6973915211 -2.65560553199 -2.46629124005e-20)
(-98.0730660936 -7.53951740458 -5.23904988795e-21)
(-99.8072137271 -12.6219682101 1.03239691327e-20)
(-102.378077236 -17.7716569267 2.39659389823e-21)
(-105.830634542 -22.9502044513 -6.96495669146e-21)
(-110.237652391 -28.1655977708 -4.82368148933e-21)
(-115.665724155 -33.3973702898 9.62338756705e-21)
(-122.174004994 -38.6048885826 1.83093758418e-21)
(-129.811366445 -43.7304696183 8.08565054352e-20)
(-138.618072971 -48.6997605045 6.87023267021e-20)
(-91.2776223417 -3.0677700865 6.09246672297e-20)
(-92.5987853626 -8.75928018695 6.3344761379e-20)
(-94.2768147828 -14.6813635451 7.97070231413e-20)
(-96.7782329398 -20.7209678969 3.14216304136e-20)
(-100.154328039 -26.8431857547 6.89767101773e-21)
(-104.497113472 -33.0674116968 8.91376015313e-21)
(-109.891869886 -39.3761560773 6.36582374665e-20)
(-116.418496842 -45.7247083756 1.1199841159e-19)
(-124.147651725 -52.0424003193 1.33189919274e-19)
(-133.131218975 -58.2394287268 1.39515558601e-19)
(-85.0812054292 -3.45893952781 1.2445846228e-19)
(-86.3117118125 -9.91841443356 1.23352597745e-19)
(-87.8987871055 -16.6561083323 1.28910666625e-19)
(-90.2709703571 -23.5674556466 8.24320275659e-20)
(-93.5012164586 -30.6321002447 6.28593894049e-20)
(-97.700815296 -37.8883253326 1.15950456177e-19)
(-102.983016712 -45.3217168569 2.73854328772e-19)
(-109.460783565 -52.8809350214 4.6428064324e-19)
(-117.229398313 -60.478453246 6.71576587014e-19)
(-126.360166133 -68.0055773872 7.90702608244e-19)
(-78.1462281883 -3.81742755001 -3.13386833451e-20)
(-79.2687699444 -10.9879864451 8.63359241085e-20)
(-80.7104306884 -18.4908214723 1.11658287297e-19)
(-82.8769027844 -26.2363290116 1.36506597759e-19)
(-85.8688419028 -34.2331192674 2.50860524434e-19)
(-89.8195233467 -42.5348589032 6.594047153e-19)
(-94.8816555765 -51.1398539915 1.48106373112e-18)
(-101.211814794 -59.9894558351 2.70205726007e-18)
(-108.947257768 -68.9782585072 3.61523433543e-18)
(-118.186430521 -77.9610510361 4.10958192289e-18)
(-70.5523120963 -4.13285668565 -1.41842313097e-19)
(-71.5343263411 -11.9301002944 5.26754547837e-20)
(-72.7668203384 -20.1137495475 1.73286482711e-19)
(-74.6391827582 -28.6346389 3.79983042462e-19)
(-77.2665483532 -37.5272136922 1.17053278501e-18)
(-80.8214240787 -46.8801140822 3.24682228132e-18)
(-85.5121863047 -56.7131273053 7.2194633715e-18)
(-67.7254172788 -40.3601500314 4.90235591453e-18)
)
;

boundaryField
{
    back
    {
        type            calculated;
        value           uniform (0 0 0);
    }
    sides
    {
        type            calculated;
        value           nonuniform List<vector> 0();
    }
    bottom
    {
        type            calculated;
        value           uniform (0 0 0);
    }
    front
    {
        type            calculated;
        value           uniform (0 0 0);
    }
    atmosphere
    {
        type            calculated;
        value           nonuniform List<vector> 0();
    }
    floatingObject
    {
        type            calculated;
        value           nonuniform List<vector> 0();
    }
    procBoundary4to0
    {
        type            processor;
        value           nonuniform List<vector> 8((-96.6042638569 2.08068435652 4.70770153579e-20) (-97.717101652 6.29070720159 4.5262453001e-20) (-98.604933312 10.5670929154 -1.38393961228e-20) (-99.9209688179 14.9967524017 -2.25757117647e-20) (-101.681107274 19.6333216815 -6.54372824017e-21) (-103.915520422 24.5393970228 -1.86748353072e-21) (-106.642197686 29.7675600282 -6.0319203732e-21) (-109.883095859 35.362939851 1.00065379757e-20));
    }
    procBoundary4to3
    {
        type            processor;
        value           nonuniform List<vector> 
13
(
(-91.5584615827 -66.9668812337 1.27249809659e-17)
(-99.162275882 -77.501687177 1.71157584003e-17)
(-108.462251584 -88.1037349491 1.94723890681e-17)
(-62.4112179384 -4.38474400689 -6.93920661228e-20)
(-63.2070313214 -12.6918933674 7.02479796741e-20)
(-64.1608014309 -21.4458388543 4.62486347172e-19)
(-65.6227370131 -30.6398711533 1.52910001314e-18)
(-70.6797351318 -50.7591904402 1.36010575406e-17)
(-91.5584615827 -66.9668812337 1.27249809659e-17)
(-74.7703606206 -61.8929346003 3.0088070159e-17)
(-65.6227370131 -30.6398711533 1.52910001314e-18)
(-70.6797351318 -50.7591904402 1.36010575406e-17)
(-57.3023327141 -42.5529287092 1.78078657983e-17)
)
;
    }
    procBoundary4to5
    {
        type            processor;
        value           nonuniform List<vector> 
18
(
(-119.665687054 37.0485620337 -9.43668463768e-21)
(-125.073616643 32.2838978426 -1.85298497458e-20)
(-125.073616643 32.2838978426 -1.85298497458e-20)
(-130.429192291 37.5448409072 -5.76498011404e-21)
(-142.160389429 36.6388657892 8.67557118184e-21)
(-147.056725126 29.4261936024 1.24789044137e-20)
(-151.132379471 21.7765762264 -1.13343049714e-20)
(-154.32903867 13.6467674508 -7.70087080599e-21)
(-156.585066898 5.06303734974 6.04584008911e-21)
(-157.865954437 -3.96305806323 9.99004203509e-20)
(-158.14254331 -13.2585458971 2.84232944912e-19)
(-157.35752993 -22.8595610776 4.37395240615e-19)
(-155.514030808 -32.76388945 4.84454191183e-19)
(-152.626281721 -42.9505636092 2.8477728057e-19)
(-148.621777371 -53.4262342305 1.23438879668e-19)
(-143.406816706 -64.2119687041 2.27547066844e-19)
(-136.904526215 -75.3240138935 8.71832827564e-19)
(-128.986422561 -86.7483495244 4.75636314979e-18)
)
;
    }
}


// ************************************************************************* //
