/*--------------------------------*- C++ -*----------------------------------*\
| =========                 |                                                 |
| \\      /  F ield         | OpenFOAM: The Open Source CFD Toolbox           |
|  \\    /   O peration     | Version:  v2012                                 |
|   \\  /    A nd           | Website:  www.openfoam.com                      |
|    \\/     M anipulation  |                                                 |
\*---------------------------------------------------------------------------*/
FoamFile
{
    version     2.0;
    format      ascii;
    class       volVectorField;
    location    "6";
    object      ddtCorrDdt0(U);
}
// * * * * * * * * * * * * * * * * * * * * * * * * * * * * * * * * * * * * * //

dimensions      [0 1 -2 0 0 0 0];


internalField   nonuniform List<vector> 
164
(
(-0.100715381104 0.00183105761001 5.03414858167e-23)
(-0.10189479354 0.00558873270164 1.56912881563e-24)
(-0.10290877401 0.00940098663186 -3.82646539495e-24)
(-0.104403709769 0.0133548059389 -2.72459199552e-23)
(-0.106398899983 0.0175039812448 -1.68490165036e-23)
(-0.108927295701 0.0219018608142 -9.58546669124e-24)
(-0.112004408173 0.0266014831322 -3.96776828452e-24)
(-0.115643726955 0.0316613340125 1.62949028335e-24)
(-0.104168275942 0.00155587976293 8.3882570269e-24)
(-0.10540063866 0.00479753581973 2.82920218089e-23)
(-0.10652432216 0.00807875551124 1.79825331965e-23)
(-0.1081833402 0.0114922138889 -1.33625937376e-23)
(-0.110394580083 0.0150903694391 -1.11092299357e-23)
(-0.113195325251 0.0189231660946 -8.80496793927e-24)
(-0.1166031305 0.0230401138203 1.92935343446e-24)
(-0.120630638841 0.0274983622955 2.85574745469e-24)
(-0.107062018508 0.00125428537028 3.57115904128e-23)
(-0.108343878335 0.00392961608848 4.04604492972e-23)
(-0.10957144623 0.00663016777024 2.77348133136e-23)
(-0.111384511812 0.00945001558991 1.95676895318e-23)
(-0.113798850425 0.0124450100683 1.34320592958e-23)
(-0.116853327718 0.0156613998273 -3.84307312681e-24)
(-0.120568546057 0.0191460195724 7.28199511494e-24)
(-0.124961407806 0.0229474177253 5.13692339077e-24)
(-0.130045778739 0.027111916609 -9.93636873555e-25)
(-0.135850672464 0.0316882510923 1.82534139684e-24)
(-0.109353737643 0.00093149590616 7.23271858583e-23)
(-0.110677567533 0.00299149771457 2.3494183654e-23)
(-0.112004816291 0.00506065856804 3.39443993779e-23)
(-0.113962746812 0.00723813974597 1.94029623283e-23)
(-0.116568282367 0.00958080524353 1.65531204603e-23)
(-0.119859855966 0.0121290363918 1.10340968207e-23)
(-0.123859863112 0.0149256345023 8.76768297559e-24)
(-0.128587263594 0.0180138430721 5.83936011365e-24)
(-0.134063504183 0.0214341301869 -1.86526357143e-23)
(-0.140297930072 0.0252400644157 -3.46585695625e-24)
(-0.110997927042 0.000585126586006 6.42517850636e-23)
(-0.11235896106 0.00198696366029 4.45741189166e-23)
(-0.113777933195 0.0033795162645 1.61978969627e-23)
(-0.115870528157 0.00486942898949 1.97361604241e-23)
(-0.118653448133 0.00651297378409 1.05414694221e-23)
(-0.122165327636 0.00834683744467 1.20101900987e-23)
(-0.126429157395 0.0104113112736 1.2421690907e-23)
(-0.131463823216 0.0127438310912 1.49469792836e-23)
(-0.137295169857 0.015390376572 -1.24022453671e-23)
(-0.143935302394 0.0184002402098 -1.7352470705e-23)
(-0.111951359251 0.000218621549161 1.93495639042e-23)
(-0.113346707631 0.000922478908848 1.42254685566e-24)
(-0.114849094797 0.00159660706223 3.84150895544e-24)
(-0.117065205441 0.00235681920828 1.72014730809e-25)
(-0.120010181886 0.0032589724117 1.30277262059e-23)
(-0.123724452243 0.00433406229737 1.79608164051e-23)
(-0.128232509439 0.00562002882024 1.90824046962e-23)
(-0.133555306096 0.00715401271656 1.48091834777e-23)
(-0.139712446289 0.00898360498467 5.94770374072e-24)
(-0.146724797344 0.0111465678992 -9.29566760179e-24)
(-0.112178054514 -0.000162294353324 -1.28122479123e-23)
(-0.113602142762 -0.00019445715001 -2.53111418501e-23)
(-0.115179942243 -0.000275554221233 -2.226353409e-23)
(-0.117505752379 -0.00028406887931 -1.15699986324e-23)
(-0.120596475677 -0.000163457203091 8.03945547013e-24)
(-0.124493098365 0.00011072055476 1.21962597641e-23)
(-0.129221723941 0.000572447530304 9.10955404909e-24)
(-0.134809352496 0.0012587459136 1.62583471837e-23)
(-0.141266734727 0.0022118642421 1.75570462964e-23)
(-0.148615339261 0.00347100289499 1.91876238487e-23)
(-0.111650086203 -0.000558535707001 -2.09238405866e-23)
(-0.113089246702 -0.00135832013091 -2.93059270085e-23)
(-0.114733215559 -0.00222578378625 -2.03837782365e-23)
(-0.117156482417 -0.00303668689474 -1.58430140541e-23)
(-0.120373285576 -0.00373441157724 -9.32272168986e-24)
(-0.12442989526 -0.00429835604889 -8.9067402996e-24)
(-0.129353514459 -0.0047029640594 1.72151661159e-23)
(-0.135169491221 -0.00490909016338 1.70085236009e-23)
(-0.14189584993 -0.00487967945513 3.41113369304e-23)
(-0.149549995316 -0.00458186447204 2.55971294493e-23)
(-0.11033419858 -0.000967526470689 -1.18916050393e-23)
(-0.111784763532 -0.00255946297324 1.77848423033e-25)
(-0.113481048367 -0.00424440862693 -2.80272438077e-23)
(-0.11598186351 -0.00588643538969 -2.54563531771e-23)
(-0.119304933248 -0.00743267541782 -1.94400506173e-23)
(-0.123496249494 -0.00887136973086 3.41145299093e-24)
(-0.128587366452 -0.010172690321 9.3366545764e-24)
(-0.134602275625 -0.0113042429299 8.17328386855e-24)
(-0.141566419504 -0.0122304676741 1.8564917864e-23)
(-0.149500751088 -0.0129051468228 7.11694521516e-23)
(-0.108208971349 -0.00138762006916 -3.20147776345e-23)
(-0.109662093245 -0.00379428910091 -6.08373712345e-23)
(-0.111397868815 -0.00631260402404 -3.87614431443e-23)
(-0.113955031912 -0.00881174923039 -3.32648459818e-23)
(-0.117360389102 -0.0112368451373 -1.21116874509e-23)
(-0.121660115415 -0.0135784143357 2.85990846556e-24)
(-0.126891593934 -0.0158122424139 1.71269461118e-24)
(-0.133082845547 -0.01790275242 -1.03990864465e-24)
(-0.140259896218 -0.0198024469202 9.41841893611e-24)
(-0.148443683782 -0.021478405122 1.42378388365e-22)
(-0.105260948493 -0.00181140536288 -6.98974815073e-23)
(-0.106703131422 -0.00504590977572 -6.94264905425e-23)
(-0.108460447099 -0.00841721596769 -5.22393145191e-23)
(-0.111054594394 -0.0117918059767 -2.68776940286e-23)
(-0.114514016242 -0.0151189986724 -1.09919784312e-23)
(-0.118892629749 -0.0183959611594 8.86128422236e-24)
(-0.124234720363 -0.0215959577223 7.39690294679e-24)
(-0.13057281356 -0.0246829662887 9.79124546872e-24)
(-0.137938081782 -0.0276111312767 1.1705459874e-23)
(-0.146348345802 -0.0303374702934 1.14942295203e-22)
(-0.101483296757 -0.00223940769186 -5.88625437545e-23)
(-0.102897963827 -0.00630504328447 -6.80823550517e-23)
(-0.104658921624 -0.0105351212789 -4.52091753631e-23)
(-0.107261264981 -0.0148001702452 -2.78982179827e-23)
(-0.110741772974 -0.0190509309468 -1.0843919189e-23)
(-0.11516225667 -0.0232891649899 5.86415118139e-24)
(-0.120574439986 -0.0274911114814 1.67567558881e-23)
(-0.127025112424 -0.0316198401156 2.87922622946e-23)
(-0.134547828246 -0.035625680117 4.87040204495e-23)
(-0.143168757919 -0.0394524172647 1.14734328105e-22)
(-0.0968716692162 -0.00266039198246 -2.47074071132e-23)
(-0.0982498158938 -0.0075531064296 -5.24894921278e-24)
(-0.099987074588 -0.0126447157995 1.03421544271e-23)
(-0.102562570823 -0.017803685 2.40081911271e-24)
(-0.10602137853 -0.0229915710538 -6.97743131778e-24)
(-0.110436406599 -0.0282163814507 -4.8322741407e-24)
(-0.115874345535 -0.0334576091871 9.64080252733e-24)
(-0.122394357109 -0.0386745128806 1.83412613952e-24)
(-0.130045382996 -0.0438092896314 8.10017668374e-23)
(-0.138867950638 -0.0487875341761 6.8825627916e-23)
(-0.0914422021713 -0.00307330167103 6.10345745007e-23)
(-0.0927657408806 -0.00877507413359 6.34583776193e-23)
(-0.0944467799578 -0.0147078332056 7.98500935549e-23)
(-0.0969527014756 -0.020758325027 3.14780302655e-23)
(-0.100334898736 -0.0268915843092 6.91016011601e-24)
(-0.104685554525 -0.033127044842 8.92996364327e-24)
(-0.110090060609 -0.0394471713015 6.37730518704e-23)
(-0.11662838139 -0.0458071400098 1.12200189889e-22)
(-0.124371279001 -0.0521361343723 1.3342932478e-22)
(-0.13337082682 -0.0583442350389 1.39766085684e-22)
(-0.0852346760038 -0.00346517892068 1.24683690544e-22)
(-0.0864673962307 -0.00993630564574 1.23574753232e-22)
(-0.0880573130846 -0.0166861493394 1.29142504199e-22)
(-0.0904337596914 -0.023609958055 8.2580387345e-23)
(-0.0936698300321 -0.0306873423259 6.29728193309e-23)
(-0.0978770104662 -0.0379566554219 1.16159703156e-22)
(-0.103168688014 -0.0454034303323 2.74348201032e-22)
(-0.109657940468 -0.052976177975 4.65116438073e-22)
(-0.117440175392 -0.0605871880097 6.72783449353e-22)
(-0.126587202533 -0.0681277397319 7.92120698955e-22)
(-0.0782872489332 -0.00382431643352 -3.13924051938e-23)
(-0.0794117919291 -0.0110078124159 8.64922633844e-23)
(-0.0808560263232 -0.0185241790609 1.11859479736e-22)
(-0.0830263981427 -0.0262836564966 1.36752779774e-22)
(-0.0860237120943 -0.0342948633154 2.51313257421e-22)
(-0.08998149497 -0.0426115647652 6.60594359191e-22)
(-0.0950526681219 -0.0512320273806 1.48373320639e-21)
(-0.101393965355 -0.0600974180431 2.70691954083e-21)
(-0.109143089879 -0.0691022333059 3.6217252419e-21)
(-0.11839832351 -0.0781008074006 4.11693954907e-21)
(-0.0706796702913 -0.00414031708305 -1.4209363245e-22)
(-0.0716634281694 -0.0119516318675 5.27722976969e-23)
(-0.0728981382041 -0.0201500489559 1.73599559991e-22)
(-0.0747738475157 -0.0286863045351 3.80669396873e-22)
(-0.0774059629221 -0.0375949273495 1.17264588732e-21)
(-0.0809671760655 -0.0469646588132 3.25267987126e-21)
(-0.0856662804963 -0.056815325866 7.23247411407e-21)
(-0.0678476746615 -0.0404330112541 4.91121750295e-21)
)
;

boundaryField
{
    back
    {
        type            calculated;
        value           uniform (0 0 0);
    }
    sides
    {
        type            calculated;
        value           nonuniform List<vector> 0();
    }
    bottom
    {
        type            calculated;
        value           uniform (0 0 0);
    }
    front
    {
        type            calculated;
        value           uniform (0 0 0);
    }
    atmosphere
    {
        type            calculated;
        value           nonuniform List<vector> 0();
    }
    floatingObject
    {
        type            calculated;
        value           nonuniform List<vector> 0();
    }
    procBoundary4to0
    {
        type            processor;
        value           nonuniform List<vector> 8((-0.096778362731 0.00208443332318 4.71616197048e-23) (-0.0978932069717 0.00630204297043 4.53439451893e-23) (-0.0987826570506 0.0105861393729 -1.38643403089e-23) (-0.100101091403 0.0150237907019 -2.26164529777e-23) (-0.101864420399 0.0196687262909 -6.55556796674e-24) (-0.10410296384 0.0245836742093 -1.87086710407e-24) (-0.106835203068 0.0298214039181 -6.04283823629e-24) (-0.11008236509 0.035426980338 1.00246559447e-23));
    }
    procBoundary4to3
    {
        type            processor;
        value           nonuniform List<vector> 
13
(
(-0.0917232418306 -0.0670874014637 1.27478747767e-20)
(-0.0993402226856 -0.0776407581732 1.71464435202e-20)
(-0.108656559189 -0.0882615539811 1.95072055112e-20)
(-0.0625239181241 -0.0043926616346 -6.95120780512e-23)
(-0.0633211664921 -0.0127148120409 7.0377780123e-23)
(-0.0642766355601 -0.0214845582888 4.63323327289e-22)
(-0.0657412201779 -0.0306951937352 1.53186324555e-21)
(-0.0708072813235 -0.0508507902288 1.36256128523e-20)
(-0.0917232418306 -0.0670874014637 1.27478747767e-20)
(-0.0749050939011 -0.0620044630598 3.01422812338e-20)
(-0.0657412201779 -0.0306951937352 1.53186324555e-21)
(-0.0708072813235 -0.0508507902288 1.36256128523e-20)
(-0.0574057548487 -0.0426297312582 1.78400239995e-20)
)
;
    }
    procBoundary4to5
    {
        type            processor;
        value           nonuniform List<vector> 
18
(
(-0.119883333321 0.0371157708943 -9.45385523481e-24)
(-0.125301099165 0.032342475796 -1.85634834452e-23)
(-0.125301099165 0.032342475796 -1.85634834452e-23)
(-0.130666565014 0.0376129515901 -5.77519801041e-24)
(-0.142421760534 0.036705754419 8.69269659255e-24)
(-0.147326722226 0.0294801024119 1.25021936032e-23)
(-0.151409843598 0.0218164485073 -1.13547485799e-23)
(-0.154612358219 0.0136717225773 -7.71464774313e-24)
(-0.156872520978 0.00507224207557 6.05739537153e-24)
(-0.15815384382 -0.00397021897758 1.00082412245e-22)
(-0.158429691281 -0.0132826480335 2.84749327999e-22)
(-0.157644111808 -0.0229011106492 4.38189657264e-22)
(-0.155797461933 -0.0328236711765 4.85339935266e-22)
(-0.152902149696 -0.0430280880162 2.85285682044e-22)
(-0.148889629432 -0.0535224698395 1.2365926025e-22)
(-0.143664933656 -0.0643274971367 2.27954231187e-22)
(-0.137149958807 -0.0754590243988 8.73393206872e-22)
(-0.129217345749 -0.0869036321644 4.76486668107e-21)
)
;
    }
}


// ************************************************************************* //
