/*--------------------------------*- C++ -*----------------------------------*\
| =========                 |                                                 |
| \\      /  F ield         | OpenFOAM: The Open Source CFD Toolbox           |
|  \\    /   O peration     | Version:  v2012                                 |
|   \\  /    A nd           | Website:  www.openfoam.com                      |
|    \\/     M anipulation  |                                                 |
\*---------------------------------------------------------------------------*/
FoamFile
{
    version     2.0;
    format      ascii;
    class       volScalarField;
    location    "6";
    object      nut;
}
// * * * * * * * * * * * * * * * * * * * * * * * * * * * * * * * * * * * * * //

dimensions      [0 2 -1 0 0 0 0];


internalField   nonuniform List<scalar> 
164
(
0.000270631228345
0.000402568637185
0.000415534068933
0.000420441809029
0.000422425617829
0.000423400359437
0.000424083408059
0.000424737541189
0.000270620370147
0.000402537476018
0.000415516347805
0.00042043880077
0.000422434181471
0.000423417355423
0.000424106712842
0.000424765495417
0.000270568243928
0.000402450119545
0.00041544118384
0.000420379105078
0.000422387877054
0.000423381451728
0.000424079195504
0.000424744796399
0.000425483280041
0.00042638200312
0.000270472697247
0.000402304729611
0.000415306935791
0.00042026131315
0.000422285594869
0.000423292024229
0.000424000692758
0.000424676234133
0.000425424305442
0.000426330203589
0.000270333799007
0.000402099628872
0.00041511159028
0.000420083839924
0.000422126243407
0.000423148499383
0.0004238711721
0.000424559937601
0.000425321398383
0.000426240846879
0.000270152824435
0.000401834020692
0.000414853887923
0.000419845267734
0.000421908738938
0.000422950309117
0.000423690579019
0.000424396512096
0.00042517637151
0.000426118336114
0.000269927606247
0.000401504635694
0.000414531241186
0.000419543657897
0.000421631779372
0.000422696778462
0.000423458994387
0.000424187117729
0.000424992140647
0.000425969027829
0.000269652757163
0.000401106280325
0.000414140945402
0.000419177245874
0.000421294190377
0.00042238724111
0.000423176300063
0.000423932242732
0.000424770110747
0.000425796759985
0.000269324205193
0.000400638170819
0.000413681370648
0.000418744633661
0.00042089486501
0.000422020901525
0.000422842056314
0.000423631544868
0.000424509531522
0.000425599125806
0.000268948227287
0.000400099286821
0.000413150410732
0.000418244180702
0.000420432513685
0.000421596880032
0.000422455542709
0.00042328411225
0.000424208260713
0.000425367730646
0.000268516475843
0.000399488700302
0.000412547987161
0.000417675036336
0.000419906208274
0.000421114315455
0.000422016274371
0.000422889669413
0.00042386458989
0.000425093897637
0.000268032746692
0.000398804919692
0.0004118731713
0.000417036601517
0.000419315314422
0.000420572994112
0.000421524519278
0.000422448436708
0.000423477722688
0.000424772187611
0.000267492344766
0.000398048619874
0.000411126484203
0.000416329144919
0.00041866007874
0.000419973280655
0.000420980771355
0.000421961576183
0.000423049475318
0.000424405060433
0.000266901242788
0.00039722141207
0.000410309701962
0.000415554007648
0.000417941530083
0.000419316041863
0.000420386495398
0.000421431411188
0.000422583620117
0.000423999436826
0.000266251730124
0.000396325618158
0.000409425843984
0.000414713699758
0.000417161446474
0.000418603075213
0.000419744139274
0.000420861421303
0.000422084376763
0.000423559184304
0.000265547215132
0.000395366662051
0.000408479915021
0.000413812417302
0.000416322701159
0.000417836901279
0.000419055549545
0.000420253977331
0.000421555639006
0.00042309318791
0.000264799508922
0.000394354762404
0.000407481404283
0.000412856602576
0.000415430093208
0.000417017792237
0.000418319764392
0.000414484992106
)
;

boundaryField
{
    back
    {
        type            nutkWallFunction;
        blending        stepwise;
        Cmu             0.09;
        kappa           0.41;
        E               9.8;
        value           nonuniform List<scalar> 
164
(
3.93187575405e-05
4.3451186202e-05
4.47253683062e-05
4.52063441878e-05
4.54002150636e-05
4.54951452302e-05
4.5561511799e-05
4.56250390435e-05
3.93168394439e-05
4.34480171966e-05
4.47239602459e-05
4.52066277389e-05
4.54017459179e-05
4.54975369856e-05
4.55645165974e-05
4.56284753026e-05
3.93095633545e-05
4.34394233021e-05
4.4717003339e-05
4.52014310883e-05
4.53979712275e-05
4.54948126285e-05
4.55626057099e-05
4.56272122981e-05
4.56988795474e-05
4.57858736443e-05
3.92966945646e-05
4.34252089822e-05
4.47043311506e-05
4.51906128397e-05
4.53887774442e-05
4.54869021616e-05
4.5555748175e-05
4.5621286118e-05
4.56938036505e-05
4.57813824161e-05
3.92781865994e-05
4.34051922172e-05
4.46857220333e-05
4.51739979553e-05
4.53740380486e-05
4.54737283382e-05
4.55439193566e-05
4.56107013955e-05
4.56844464032e-05
4.57732014689e-05
3.92542080792e-05
4.33792935789e-05
4.46610475622e-05
4.51514376787e-05
4.53536340742e-05
4.54552217932e-05
4.55270956175e-05
4.55954886183e-05
4.56709185551e-05
4.57616574022e-05
3.92244935888e-05
4.33471940947e-05
4.46300409847e-05
4.5122724052e-05
4.53274229287e-05
4.54313038204e-05
4.55052721432e-05
4.55757412024e-05
4.56534754857e-05
4.57473270142e-05
3.91883272754e-05
4.33083238938e-05
4.45924152577e-05
4.50876678268e-05
4.5295276671e-05
4.54019003026e-05
4.54784351109e-05
4.55515149177e-05
4.56322788182e-05
4.57306109717e-05
3.91451333161e-05
4.32626053208e-05
4.45479956747e-05
4.50461203541e-05
4.5257076842e-05
4.53669248274e-05
4.54465406149e-05
4.55227947402e-05
4.56072995798e-05
4.57113650525e-05
3.90956574282e-05
4.32099407995e-05
4.44965612124e-05
4.49979023485e-05
4.52126807967e-05
4.53262794333e-05
4.54095115143e-05
4.54894900462e-05
4.55783427492e-05
4.56888610837e-05
3.9038864498e-05
4.31502113638e-05
4.44380795238e-05
4.49429149944e-05
4.51619833562e-05
4.5279866599e-05
4.53672776268e-05
4.54515499519e-05
4.55452214227e-05
4.56622706097e-05
3.89751824417e-05
4.30832351689e-05
4.43724449628e-05
4.48810810889e-05
4.51048993983e-05
4.52276354486e-05
4.53198432213e-05
4.54089709969e-05
4.55078337714e-05
4.56310486419e-05
3.89040335244e-05
4.30090875747e-05
4.42996923349e-05
4.48124032473e-05
4.50414259023e-05
4.5169598034e-05
4.52672251989e-05
4.53618315147e-05
4.54663279275e-05
4.55953934055e-05
3.88260472327e-05
4.29278884991e-05
4.42199765204e-05
4.47369895136e-05
4.49716409896e-05
4.51058077141e-05
4.52095320916e-05
4.53103247043e-05
4.54210251311e-05
4.55559197715e-05
3.87404160255e-05
4.28398851985e-05
4.41335852744e-05
4.46550776776e-05
4.48956980415e-05
4.50364155021e-05
4.51469788845e-05
4.52547481823e-05
4.53723100099e-05
4.55128922489e-05
3.86474662386e-05
4.27456221163e-05
4.4041022648e-05
4.45670457132e-05
4.48138685138e-05
4.49616513091e-05
4.5079715304e-05
4.51953350659e-05
4.53203917922e-05
4.54671500507e-05
3.85487103937e-05
4.26461113928e-05
4.39431752726e-05
4.44735904488e-05
4.47265679967e-05
4.48815561004e-05
4.50076904674e-05
4.46341036454e-05
)
;
    }
    sides
    {
        type            nutkWallFunction;
        blending        stepwise;
        Cmu             0.09;
        kappa           0.41;
        E               9.8;
        value           nonuniform List<scalar> 0();
    }
    bottom
    {
        type            nutkWallFunction;
        blending        stepwise;
        Cmu             0.09;
        kappa           0.41;
        E               9.8;
        value           nonuniform List<scalar> 
17
(
2.0826187163e-05
2.08251594488e-05
2.08212609242e-05
2.08143658211e-05
2.08044492167e-05
2.0791601428e-05
2.07756802043e-05
2.07563019329e-05
2.07331580091e-05
2.07066479137e-05
2.06762169125e-05
2.06420941728e-05
2.06039699895e-05
2.05621815117e-05
2.0516295852e-05
2.0466487682e-05
2.04135673209e-05
)
;
    }
    front
    {
        type            nutkWallFunction;
        blending        stepwise;
        Cmu             0.09;
        kappa           0.41;
        E               9.8;
        value           nonuniform List<scalar> 
164
(
3.93187575405e-05
4.3451186202e-05
4.47253683062e-05
4.52063441878e-05
4.54002150636e-05
4.54951452302e-05
4.5561511799e-05
4.56250390435e-05
3.93168394439e-05
4.34480171966e-05
4.47239602459e-05
4.52066277389e-05
4.54017459179e-05
4.54975369856e-05
4.55645165974e-05
4.56284753026e-05
3.93095633545e-05
4.34394233021e-05
4.4717003339e-05
4.52014310883e-05
4.53979712275e-05
4.54948126285e-05
4.55626057099e-05
4.56272122981e-05
4.56988795474e-05
4.57858736443e-05
3.92966945646e-05
4.34252089822e-05
4.47043311506e-05
4.51906128397e-05
4.53887774442e-05
4.54869021616e-05
4.5555748175e-05
4.5621286118e-05
4.56938036505e-05
4.57813824161e-05
3.92781865994e-05
4.34051922172e-05
4.46857220333e-05
4.51739979553e-05
4.53740380486e-05
4.54737283382e-05
4.55439193566e-05
4.56107013955e-05
4.56844464032e-05
4.57732014689e-05
3.92542080792e-05
4.33792935789e-05
4.46610475622e-05
4.51514376787e-05
4.53536340742e-05
4.54552217932e-05
4.55270956175e-05
4.55954886183e-05
4.56709185551e-05
4.57616574022e-05
3.92244935888e-05
4.33471940947e-05
4.46300409847e-05
4.5122724052e-05
4.53274229287e-05
4.54313038204e-05
4.55052721432e-05
4.55757412024e-05
4.56534754857e-05
4.57473270142e-05
3.91883272754e-05
4.33083238938e-05
4.45924152577e-05
4.50876678268e-05
4.5295276671e-05
4.54019003026e-05
4.54784351109e-05
4.55515149177e-05
4.56322788182e-05
4.57306109717e-05
3.91451333161e-05
4.32626053208e-05
4.45479956747e-05
4.50461203541e-05
4.5257076842e-05
4.53669248274e-05
4.54465406149e-05
4.55227947402e-05
4.56072995798e-05
4.57113650525e-05
3.90956574282e-05
4.32099407995e-05
4.44965612124e-05
4.49979023485e-05
4.52126807967e-05
4.53262794333e-05
4.54095115143e-05
4.54894900462e-05
4.55783427492e-05
4.56888610837e-05
3.9038864498e-05
4.31502113638e-05
4.44380795238e-05
4.49429149944e-05
4.51619833562e-05
4.5279866599e-05
4.53672776268e-05
4.54515499519e-05
4.55452214227e-05
4.56622706097e-05
3.89751824417e-05
4.30832351689e-05
4.43724449628e-05
4.48810810889e-05
4.51048993983e-05
4.52276354486e-05
4.53198432213e-05
4.54089709969e-05
4.55078337714e-05
4.56310486419e-05
3.89040335244e-05
4.30090875747e-05
4.42996923349e-05
4.48124032473e-05
4.50414259023e-05
4.5169598034e-05
4.52672251989e-05
4.53618315147e-05
4.54663279275e-05
4.55953934055e-05
3.88260472327e-05
4.29278884991e-05
4.42199765204e-05
4.47369895136e-05
4.49716409896e-05
4.51058077141e-05
4.52095320916e-05
4.53103247043e-05
4.54210251311e-05
4.55559197715e-05
3.87404160255e-05
4.28398851985e-05
4.41335852744e-05
4.46550776776e-05
4.48956980415e-05
4.50364155021e-05
4.51469788845e-05
4.52547481823e-05
4.53723100099e-05
4.55128922489e-05
3.86474662386e-05
4.27456221163e-05
4.4041022648e-05
4.45670457132e-05
4.48138685138e-05
4.49616513091e-05
4.5079715304e-05
4.51953350659e-05
4.53203917922e-05
4.54671500507e-05
3.85487103937e-05
4.26461113928e-05
4.39431752726e-05
4.44735904488e-05
4.47265679967e-05
4.48815561004e-05
4.50076904674e-05
4.46341036454e-05
)
;
    }
    atmosphere
    {
        type            calculated;
        value           nonuniform List<scalar> 0();
    }
    floatingObject
    {
        type            nutkWallFunction;
        blending        stepwise;
        Cmu             0.09;
        kappa           0.41;
        E               9.8;
        value           nonuniform List<scalar> 0();
    }
    procBoundary4to0
    {
        type            processor;
        value           nonuniform List<scalar> 8(0.000270601033963 0.000402540263977 0.000415493217015 0.000420387910977 0.000422362039764 0.000423330667174 0.000424010173585 0.000424663192883);
    }
    procBoundary4to3
    {
        type            processor;
        value           nonuniform List<scalar> 
13
(
0.000419608627902
0.000421004771476
0.000422618566653
0.000264005718844
0.000393301214283
0.00040644096993
0.000411855784801
0.00041614254086
0.000419608627902
0.000417524253022
0.000411855784801
0.00041614254086
0.000413489828867
)
;
    }
    procBoundary4to5
    {
        type            processor;
        value           nonuniform List<scalar> 
18
(
0.000425469412762
0.000425499547458
0.000425499547458
0.000426397885173
0.000427641795081
0.000427590052975
0.000427514463999
0.000427427891239
0.000427346146587
0.000427279419105
0.000427219025522
0.000427134970383
0.000426989556812
0.000426760469213
0.000426455995346
0.000426093037738
0.00042567283205
0.000425206794518
)
;
    }
}


// ************************************************************************* //
