/*--------------------------------*- C++ -*----------------------------------*\
| =========                 |                                                 |
| \\      /  F ield         | OpenFOAM: The Open Source CFD Toolbox           |
|  \\    /   O peration     | Version:  v2012                                 |
|   \\  /    A nd           | Website:  www.openfoam.com                      |
|    \\/     M anipulation  |                                                 |
\*---------------------------------------------------------------------------*/
FoamFile
{
    version     2.0;
    format      ascii;
    class       volVectorField;
    location    "6";
    object      U;
}
// * * * * * * * * * * * * * * * * * * * * * * * * * * * * * * * * * * * * * //

dimensions      [0 1 -1 0 0 0 0];


internalField   nonuniform List<vector> 
164
(
(-0.0388256203104 -3.9764791177e-05 -1.7241089626e-22)
(-0.0380152526686 -0.000142242938863 -7.61706142794e-23)
(-0.0374758433865 -0.000264462542594 -1.05224461305e-23)
(-0.0373483270735 -0.000421632207329 3.17219568627e-23)
(-0.0376392999076 -0.000602764284511 2.07829616928e-23)
(-0.0382331201957 -0.000799609034131 4.81676946008e-24)
(-0.0390316424393 -0.00101346062332 -3.77957382799e-24)
(-0.0399897731398 -0.00126060664229 -4.29745902652e-24)
(-0.0386722153297 -0.000107831915676 -1.28092593175e-22)
(-0.0378286724338 -0.000353727238827 -8.93404851296e-23)
(-0.0372619248993 -0.000616893324294 -1.56675105454e-23)
(-0.0371110483589 -0.000913399544555 1.07487656585e-23)
(-0.0373837876263 -0.00123354253277 1.09882219049e-24)
(-0.0379592153201 -0.00157133478031 -1.03943310216e-23)
(-0.0387363567554 -0.00192611603041 -1.33633237813e-23)
(-0.0396613598181 -0.00229984246756 -6.59535667078e-25)
(-0.0383786258913 -0.000176577536259 -1.00509792207e-22)
(-0.0375044093401 -0.000563321330918 -4.13775592993e-23)
(-0.0369101095036 -0.00096565542576 1.11252571556e-23)
(-0.036736322197 -0.0013965304157 2.5985330171e-23)
(-0.0369911176563 -0.00184919674369 1.49840477392e-23)
(-0.0375507593687 -0.00231693469412 1.98226129541e-24)
(-0.0383117922986 -0.00279766950566 1.00369728336e-24)
(-0.0392196461997 -0.00328788716485 6.26313044217e-24)
(-0.040248262771 -0.00378683247531 2.05204890579e-23)
(-0.0414095422132 -0.00431789857063 2.74196776893e-23)
(-0.0379424285164 -0.000246235093151 -2.93723701624e-23)
(-0.0370432907516 -0.000773086704564 3.08800259766e-23)
(-0.0364237300064 -0.00131145559477 7.070504871e-23)
(-0.0362295907747 -0.00187370704151 7.13010586428e-23)
(-0.0364689388733 -0.00245436083784 4.01862851436e-23)
(-0.0370167868202 -0.00304593619794 2.0218505721e-23)
(-0.0377677857396 -0.00364610968939 7.97315699294e-24)
(-0.0386670123743 -0.00425403756533 9.34740726578e-24)
(-0.0396844463263 -0.00486925191729 9.87126591471e-24)
(-0.0408101999643 -0.00549691295634 2.39263535325e-23)
(-0.0373644058516 -0.000314205243513 8.80398062841e-23)
(-0.0364438262407 -0.00098211038656 5.32432130984e-23)
(-0.0358044333942 -0.00165569898598 1.33640882053e-22)
(-0.0355938017816 -0.00234766267468 1.19379651644e-22)
(-0.0358218449518 -0.00305384896689 7.26483427572e-23)
(-0.0363622169849 -0.00376718573685 3.67506306793e-23)
(-0.0371073042749 -0.00448414593766 1.96684595496e-23)
(-0.0379991668114 -0.00520213309258 1.98920839882e-23)
(-0.0390123953576 -0.00592760623338 1.04896762912e-23)
(-0.0401329938172 -0.00665207931796 3.54872654687e-23)
(-0.0366456078987 -0.000386255195353 1.85921920916e-22)
(-0.0357071519728 -0.00119306759644 1.83563350777e-22)
(-0.0350525078784 -0.00200037605075 1.8102042982e-22)
(-0.0348294426667 -0.0028205927967 1.64547319161e-22)
(-0.0350506370596 -0.00365235319548 1.01955980271e-22)
(-0.0355880506288 -0.00448706940899 6.54882879343e-23)
(-0.0363324561559 -0.00531962835924 3.75082656506e-23)
(-0.0372244407397 -0.00614601789161 2.43750134395e-23)
(-0.0382451053391 -0.00696827084068 2.58656987187e-23)
(-0.039377151241 -0.00778162663213 3.91401703211e-23)
(-0.0357837611888 -0.000460917123198 1.85992134057e-22)
(-0.0348345790487 -0.00140478247146 1.41062373442e-22)
(-0.0341688801266 -0.00234608715742 1.84077327443e-22)
(-0.0339372075497 -0.00329420765455 1.685805711e-22)
(-0.0341544743499 -0.0042517290155 1.22028708616e-22)
(-0.0346919478533 -0.00520983511887 9.92907170295e-23)
(-0.0354405917498 -0.00616262438643 7.20225475639e-23)
(-0.0363417339886 -0.0071092466344 5.05471740224e-23)
(-0.0373795634659 -0.00804707269996 4.06801130945e-23)
(-0.0385310723583 -0.008967384777 4.81723603554e-23)
(-0.0347790700715 -0.000532854299045 1.86030712105e-22)
(-0.0338262040571 -0.00161409172718 1.49146311564e-22)
(-0.033154129219 -0.0026892742883 1.69648904456e-22)
(-0.032916724351 -0.00376625274985 1.68399616948e-22)
(-0.0331320442097 -0.00485102035376 1.36375483019e-22)
(-0.0336702281131 -0.00593587599429 1.10777561052e-22)
(-0.0344224630431 -0.00701525636572 8.69694566448e-23)
(-0.0353349412079 -0.00809425266407 7.55036123247e-23)
(-0.0363851041591 -0.00917224620778 7.13716117979e-23)
(-0.0375577441468 -0.0102342164188 8.23051343722e-23)
(-0.0336368455702 -0.000604160467625 1.65171891346e-22)
(-0.0326805224093 -0.00182150407382 1.05740166787e-22)
(-0.032006828225 -0.00302756675141 1.50449245048e-22)
(-0.0317691887345 -0.00423383475982 1.5419361584e-22)
(-0.0319826732704 -0.00544750823173 1.29065411364e-22)
(-0.0325203934949 -0.00666069581245 9.82202036415e-23)
(-0.0332727848059 -0.00787401667885 1.0145844519e-22)
(-0.0341865289566 -0.00908989412381 1.06589427713e-22)
(-0.0352347802851 -0.0103120706348 1.25787323371e-22)
(-0.0364178940512 -0.0115357350561 1.19348663729e-22)
(-0.0323564188438 -0.000673234064959 1.92936802866e-22)
(-0.0314018713929 -0.00202418813413 1.39270122226e-22)
(-0.0307300766901 -0.00336547266296 1.11444270779e-22)
(-0.0304938403261 -0.00469921907803 1.24096736042e-22)
(-0.0307051878405 -0.00603945769863 1.16745439136e-22)
(-0.0312398823122 -0.00738241503814 1.05358338241e-22)
(-0.0319869091582 -0.00872649327703 1.19613193758e-22)
(-0.0328922437628 -0.010075417722 1.02018745163e-22)
(-0.0339292809766 -0.011433442282 1.39350926489e-22)
(-0.0350990972716 -0.0127999290946 1.49003547753e-22)
(-0.0309372058727 -0.000744984695485 1.17337937339e-22)
(-0.0299924924735 -0.00222789116675 1.86218549643e-23)
(-0.0293260141362 -0.00369958957668 1.58923710927e-23)
(-0.0290898195575 -0.00516014009255 7.30427218012e-23)
(-0.0292983868465 -0.00662611151643 1.04807333596e-22)
(-0.0298273602784 -0.00809482672944 1.03826244983e-22)
(-0.0305674408371 -0.00956807687219 1.06203677115e-22)
(-0.0314629625332 -0.0110474179977 9.47271369084e-23)
(-0.0324856645723 -0.0125363437739 1.05256211258e-22)
(-0.0336222483188 -0.0140467214209 1.43471661411e-22)
(-0.0293816083459 -0.000814518746054 1.65809719705e-23)
(-0.0284517940587 -0.00242977859506 -1.40933515224e-22)
(-0.0277935316268 -0.00403149332197 -1.19346822846e-22)
(-0.0275588552934 -0.00561596582606 -1.23003181535e-25)
(-0.0277637685679 -0.00720540537445 9.94108809169e-23)
(-0.0282870670034 -0.00880013862019 1.36038618701e-22)
(-0.0290216265029 -0.0103994239187 1.24333330437e-22)
(-0.0299071583125 -0.0120039016956 1.15466767478e-22)
(-0.030913719172 -0.0136187473504 1.25378802681e-22)
(-0.0320135766588 -0.0152520460394 1.88345246686e-22)
(-0.0276948590677 -0.000888616069608 -3.16277727027e-23)
(-0.0267804662564 -0.00263125027978 -2.48097946299e-22)
(-0.0261349787697 -0.00435817499481 -2.61225633372e-22)
(-0.0259030960181 -0.00606640412102 -7.31366205494e-23)
(-0.0261048103005 -0.00777915295376 7.52991528196e-23)
(-0.0266226240227 -0.00949812954339 1.32265394288e-22)
(-0.0273514341379 -0.0112212437101 1.38537738941e-22)
(-0.0282309807298 -0.0129473145451 1.438955189e-22)
(-0.0292262299219 -0.0146746632008 1.833111093e-22)
(-0.0303089282174 -0.016400639181 2.36909094877e-22)
(-0.0258730610498 -0.000955154044882 4.398810465e-23)
(-0.0249843664721 -0.00282648593824 -2.71010985737e-22)
(-0.0243551467496 -0.00468194582267 -3.25963538673e-22)
(-0.0241264368717 -0.00651024686089 -1.54564081409e-22)
(-0.0243238869094 -0.00834485010109 4.41486700037e-23)
(-0.0248352755448 -0.0101868079661 1.36983942169e-22)
(-0.025560302553 -0.0120324933807 1.65313930221e-22)
(-0.0264395867174 -0.0138755762966 1.92657545756e-22)
(-0.0274385778084 -0.0157085105383 2.44627881263e-22)
(-0.0285363773196 -0.0175185203737 2.5984914975e-22)
(-0.0239168435431 -0.0010226257025 3.50590180236e-22)
(-0.0230678440366 -0.00301742944649 -1.035899236e-22)
(-0.0224554120168 -0.00499182095363 -2.61260889119e-22)
(-0.022231745712 -0.00693938876732 -1.25418736019e-22)
(-0.0224210876986 -0.00889693422375 6.37164245879e-23)
(-0.0229235662173 -0.0108648074876 1.81964056352e-22)
(-0.023647243099 -0.012838684666 2.790178784e-22)
(-0.0245345628774 -0.0148058994811 4.10543503906e-22)
(-0.0255561141812 -0.0167514749229 5.2949507109e-22)
(-0.0266990931696 -0.0186535277893 5.92862610499e-22)
(-0.0218424686298 -0.00108628358316 9.02408907916e-22)
(-0.0210297549135 -0.00319408645061 2.31436599913e-22)
(-0.0204387318651 -0.00528214981392 -5.96605498724e-23)
(-0.0202177992022 -0.00734600928993 4.86376881437e-24)
(-0.020393032999 -0.00942621180421 2.05221589888e-22)
(-0.0208802191712 -0.0115291504921 4.90163530057e-22)
(-0.02159820738 -0.0136421794014 1.00090539742e-21)
(-0.0225006758037 -0.0157462943646 1.74718361964e-21)
(-0.0235584009628 -0.0178306260669 2.38224221814e-21)
(-0.0247829320875 -0.0198673524086 2.65738312886e-21)
(-0.0196574466991 -0.00113703847788 1.15202216713e-21)
(-0.018886005281 -0.00334612029897 4.83749484342e-22)
(-0.0183145410374 -0.00554219012338 1.64681061201e-22)
(-0.0180857320386 -0.0077149321149 2.96737783035e-22)
(-0.0182364797519 -0.00991903997095 8.44626518752e-22)
(-0.0186950508248 -0.0121639371 2.21657354266e-21)
(-0.0193944171837 -0.0144363796229 5.09930099388e-21)
(-0.0159494871131 -0.0103510529384 3.83336341834e-21)
)
;

boundaryField
{
    back
    {
        type            noSlip;
    }
    sides
    {
        type            noSlip;
    }
    bottom
    {
        type            noSlip;
    }
    front
    {
        type            noSlip;
    }
    atmosphere
    {
        type            pressureInletOutletVelocity;
        value           nonuniform List<vector> 0();
    }
    floatingObject
    {
        type            movingWallVelocity;
        value           nonuniform List<vector> 0();
    }
    procBoundary4to0
    {
        type            processor;
        value           nonuniform List<vector> 8((-0.0388377869527 3.34142915753e-05 -2.10062800616e-22) (-0.0380589174683 7.69074395054e-05 -1.19693210739e-22) (-0.0375486109161 9.618694568e-05 -2.89236039997e-24) (-0.0374465736834 8.06779864954e-05 5.12266285513e-23) (-0.0377559492146 4.1811857596e-05 3.20956578616e-23) (-0.0383674355351 -1.38396377913e-05 1.01867501906e-23) (-0.0391943933428 -9.15630915858e-05 -2.45613326508e-24) (-0.0402013174852 -0.000212178842992 -6.16653011893e-25));
    }
    procBoundary4to3
    {
        type            processor;
        value           nonuniform List<vector> 
13
(
(-0.0203052723418 -0.0167121148713 9.28577512234e-21)
(-0.0213892365634 -0.018996068935 1.29198981231e-20)
(-0.0227164517511 -0.021279052975 1.45383103186e-20)
(-0.0173807725727 -0.00117638130777 1.20292848975e-21)
(-0.0166556261185 -0.00346469816315 6.69773810371e-22)
(-0.0160947188378 -0.00575096867325 5.17049958921e-22)
(-0.0158443966989 -0.00802415296151 1.22933994388e-21)
(-0.0163543809247 -0.01274915455 1.08004872496e-20)
(-0.0203052723418 -0.0167121148713 9.28577512234e-21)
(-0.017009845772 -0.0152116089688 2.54174790854e-20)
(-0.0158443966989 -0.00802415296151 1.22933994388e-21)
(-0.0163543809247 -0.01274915455 1.08004872496e-20)
(-0.0135299143225 -0.0107072864347 1.62807663662e-20)
)
;
    }
    procBoundary4to5
    {
        type            processor;
        value           nonuniform List<vector> 
18
(
(-0.041107705114 -0.0015614375932 -3.81264137835e-24)
(-0.0407229577631 -0.00270739434952 5.825054573e-25)
(-0.0407229577631 -0.00270739434952 5.825054573e-25)
(-0.0419446759467 -0.00317004093799 1.75842781782e-23)
(-0.0427180575998 -0.00491450727417 4.2583040334e-23)
(-0.0420508438165 -0.00616138920979 5.12552103832e-23)
(-0.041346330903 -0.00736796324504 4.34970428758e-23)
(-0.0406041089132 -0.00857622006044 4.38283399757e-23)
(-0.0397867261046 -0.00986284651663 5.99723791347e-23)
(-0.0388494541712 -0.011269616287 5.32405125127e-23)
(-0.0377399996809 -0.0127475776558 1.79263836493e-22)
(-0.0364082800662 -0.0142012323527 3.31455842101e-22)
(-0.0348595461458 -0.0156108025272 4.57932239922e-22)
(-0.0331744069909 -0.0169170478662 5.08780799137e-22)
(-0.0314472973094 -0.0181215066855 3.05168088465e-22)
(-0.0297029065476 -0.0192863814715 3.5896477953e-22)
(-0.0279467453753 -0.0204637221487 6.47061331929e-22)
(-0.0262041428116 -0.0217503399486 2.89015529169e-21)
)
;
    }
}


// ************************************************************************* //
