/*--------------------------------*- C++ -*----------------------------------*\
| =========                 |                                                 |
| \\      /  F ield         | OpenFOAM: The Open Source CFD Toolbox           |
|  \\    /   O peration     | Version:  v2012                                 |
|   \\  /    A nd           | Website:  www.openfoam.com                      |
|    \\/     M anipulation  |                                                 |
\*---------------------------------------------------------------------------*/
FoamFile
{
    version     2.0;
    format      ascii;
    class       volScalarField;
    location    "2.7";
    object      ddt0(k);
}
// * * * * * * * * * * * * * * * * * * * * * * * * * * * * * * * * * * * * * //

dimensions      [0 2 -3 0 0 0 0];


internalField   nonuniform List<scalar> 
164
(
-0.00327218096481
-0.00329491371312
-0.00331942991651
-0.0033442851076
-0.00336516768749
-0.00336573209774
-0.00329600528549
-0.00306625483316
-0.00294096400173
-0.0060806660481
-0.0128071546132
-0.00278649553887
0.0139540239005
-0.00239426860863
-0.00291887925055
-0.00308909444824
-0.00315850732064
-0.00321614092671
-0.00323764269231
-0.00326076712273
-0.00328623299602
-0.00331331847438
-0.00334039856488
-0.00336272460241
-0.00335762898826
-0.0032435121425
-0.00284089858808
-0.00249138983437
-0.00662336656518
-0.0155781887638
-0.0101407696847
0.000425453035781
-0.00237390383687
-0.00289674746826
-0.00306720813873
-0.00313789252093
-0.0031738345721
-0.00319900392188
-0.00322303965988
-0.00324910040608
-0.00327770097978
-0.00330726986472
-0.00333610270919
-0.00335803684535
-0.00333617560178
-0.00313641713824
-0.00244732009705
-0.00176749146102
-0.00568699434341
-0.0119148675005
-0.00851000716473
0.00162225625249
-0.00235308529443
-0.00287484979973
-0.00304535596988
-0.00311696677602
-0.00315413017886
-0.00318124826689
-0.00320758212928
-0.00323604096169
-0.00326574402864
-0.00329493546163
-0.00332332755194
-0.00334187361474
-0.00328677415427
-0.00297613868997
-0.00195456046385
-0.000704778240541
-0.00209513561526
-0.000744706291181
-0.000468790218095
0.00383118376886
-0.0023325072226
-0.00285415540066
-0.0030245353736
-0.00309651427298
-0.00313446380873
-0.00316231395585
-0.00318793467995
-0.00321231112204
-0.00322686583653
-0.00324430133524
-0.00326752109428
-0.00327784148612
-0.00315597243096
-0.00274091718221
-0.00149938505115
0.000553757020809
0.00195619655908
-0.000683192192173
-0.0090410140614
-0.00579425028683
-0.00231297816006
-0.00283572708252
-0.00300585372223
-0.00307765941392
-0.00311543548768
-0.00314027484579
-0.00315657375301
-0.0031530188749
-0.00307407577148
-0.00311150229208
-0.00314766186102
-0.0031471289551
-0.00290719101313
-0.00245961756538
-0.00124149871129
0.00030225447739
-0.00151988843469
-0.0160310888899
-0.0276147042145
-0.016867909832
-0.0022955508248
-0.00282075306
-0.00299050478854
-0.00306122398149
-0.00309646335387
-0.00310527597452
-0.00302274569026
-0.00278905926488
-0.00278477293512
-0.00280258000839
-0.00302088098757
-0.00304195437268
-0.00249087709058
-0.00195191933363
-0.000730300374217
-0.00164640072436
-0.0127222878427
-0.0465632621504
-0.0682569565484
-0.04171162332
-0.00228252782539
-0.00281119572133
-0.00298100025251
-0.0030493297461
-0.00307372112623
-0.00304447717531
-0.00291753854285
-0.00272571491654
-0.00227162094038
-0.00280448410048
-0.00297464914628
-0.00304197430853
-0.00306310783871
-0.00302313773676
-0.00283602352426
-0.00244131311203
-0.00227157036
-0.00280444063093
-0.00297461721614
-0.00304195876334
-0.00306311318098
-0.00302317594276
-0.00283611103418
-0.00244133487926
-0.0022824155009
-0.0028110877147
-0.002980916315
-0.00304928922117
-0.00307376566083
-0.00304460108239
-0.00291772461927
-0.00272589189793
)
;

boundaryField
{
    back
    {
        type            calculated;
        value           nonuniform List<scalar> 
164
(
-0.00327218096481
-0.00329491371312
-0.00331942991651
-0.0033442851076
-0.00336516768749
-0.00336573209774
-0.00329600528549
-0.00306625483316
-0.00294096400173
-0.0060806660481
-0.0128071546132
-0.00278649553887
0.0139540239005
-0.00239426860863
-0.00291887925055
-0.00308909444824
-0.00315850732064
-0.00321614092671
-0.00323764269231
-0.00326076712273
-0.00328623299602
-0.00331331847438
-0.00334039856488
-0.00336272460241
-0.00335762898826
-0.0032435121425
-0.00284089858808
-0.00249138983437
-0.00662336656518
-0.0155781887638
-0.0101407696847
0.000425453035781
-0.00237390383687
-0.00289674746826
-0.00306720813873
-0.00313789252093
-0.0031738345721
-0.00319900392188
-0.00322303965988
-0.00324910040608
-0.00327770097978
-0.00330726986472
-0.00333610270919
-0.00335803684535
-0.00333617560178
-0.00313641713824
-0.00244732009705
-0.00176749146102
-0.00568699434341
-0.0119148675005
-0.00851000716473
0.00162225625249
-0.00235308529443
-0.00287484979973
-0.00304535596988
-0.00311696677602
-0.00315413017886
-0.00318124826689
-0.00320758212928
-0.00323604096169
-0.00326574402864
-0.00329493546163
-0.00332332755194
-0.00334187361474
-0.00328677415427
-0.00297613868997
-0.00195456046385
-0.000704778240541
-0.00209513561526
-0.000744706291181
-0.000468790218095
0.00383118376886
-0.0023325072226
-0.00285415540066
-0.0030245353736
-0.00309651427298
-0.00313446380873
-0.00316231395585
-0.00318793467995
-0.00321231112204
-0.00322686583653
-0.00324430133524
-0.00326752109428
-0.00327784148612
-0.00315597243096
-0.00274091718221
-0.00149938505115
0.000553757020809
0.00195619655908
-0.000683192192173
-0.0090410140614
-0.00579425028683
-0.00231297816006
-0.00283572708252
-0.00300585372223
-0.00307765941392
-0.00311543548768
-0.00314027484579
-0.00315657375301
-0.0031530188749
-0.00307407577148
-0.00311150229208
-0.00314766186102
-0.0031471289551
-0.00290719101313
-0.00245961756538
-0.00124149871129
0.00030225447739
-0.00151988843469
-0.0160310888899
-0.0276147042145
-0.016867909832
-0.0022955508248
-0.00282075306
-0.00299050478854
-0.00306122398149
-0.00309646335387
-0.00310527597452
-0.00302274569026
-0.00278905926488
-0.00278477293512
-0.00280258000839
-0.00302088098757
-0.00304195437268
-0.00249087709058
-0.00195191933363
-0.000730300374217
-0.00164640072436
-0.0127222878427
-0.0465632621504
-0.0682569565484
-0.04171162332
-0.00228252782539
-0.00281119572133
-0.00298100025251
-0.0030493297461
-0.00307372112623
-0.00304447717531
-0.00291753854285
-0.00272571491654
-0.00227162094038
-0.00280448410048
-0.00297464914628
-0.00304197430853
-0.00306310783871
-0.00302313773676
-0.00283602352426
-0.00244131311203
-0.00227157036
-0.00280444063093
-0.00297461721614
-0.00304195876334
-0.00306311318098
-0.00302317594276
-0.00283611103418
-0.00244133487926
-0.0022824155009
-0.0028110877147
-0.002980916315
-0.00304928922117
-0.00307376566083
-0.00304460108239
-0.00291772461927
-0.00272589189793
)
;
    }
    sides
    {
        type            calculated;
        value           nonuniform List<scalar> 0();
    }
    bottom
    {
        type            calculated;
        value           nonuniform List<scalar> 10(-0.00239426860863 -0.00237390383687 -0.00235308529443 -0.0023325072226 -0.00231297816006 -0.0022955508248 -0.00228252782539 -0.00227162094038 -0.00227157036 -0.0022824155009);
    }
    front
    {
        type            calculated;
        value           nonuniform List<scalar> 
164
(
-0.00327218096481
-0.00329491371312
-0.00331942991651
-0.0033442851076
-0.00336516768749
-0.00336573209774
-0.00329600528549
-0.00306625483316
-0.00294096400173
-0.0060806660481
-0.0128071546132
-0.00278649553887
0.0139540239005
-0.00239426860863
-0.00291887925055
-0.00308909444824
-0.00315850732064
-0.00321614092671
-0.00323764269231
-0.00326076712273
-0.00328623299602
-0.00331331847438
-0.00334039856488
-0.00336272460241
-0.00335762898826
-0.0032435121425
-0.00284089858808
-0.00249138983437
-0.00662336656518
-0.0155781887638
-0.0101407696847
0.000425453035781
-0.00237390383687
-0.00289674746826
-0.00306720813873
-0.00313789252093
-0.0031738345721
-0.00319900392188
-0.00322303965988
-0.00324910040608
-0.00327770097978
-0.00330726986472
-0.00333610270919
-0.00335803684535
-0.00333617560178
-0.00313641713824
-0.00244732009705
-0.00176749146102
-0.00568699434341
-0.0119148675005
-0.00851000716473
0.00162225625249
-0.00235308529443
-0.00287484979973
-0.00304535596988
-0.00311696677602
-0.00315413017886
-0.00318124826689
-0.00320758212928
-0.00323604096169
-0.00326574402864
-0.00329493546163
-0.00332332755194
-0.00334187361474
-0.00328677415427
-0.00297613868997
-0.00195456046385
-0.000704778240541
-0.00209513561526
-0.000744706291181
-0.000468790218095
0.00383118376886
-0.0023325072226
-0.00285415540066
-0.0030245353736
-0.00309651427298
-0.00313446380873
-0.00316231395585
-0.00318793467995
-0.00321231112204
-0.00322686583653
-0.00324430133524
-0.00326752109428
-0.00327784148612
-0.00315597243096
-0.00274091718221
-0.00149938505115
0.000553757020809
0.00195619655908
-0.000683192192173
-0.0090410140614
-0.00579425028683
-0.00231297816006
-0.00283572708252
-0.00300585372223
-0.00307765941392
-0.00311543548768
-0.00314027484579
-0.00315657375301
-0.0031530188749
-0.00307407577148
-0.00311150229208
-0.00314766186102
-0.0031471289551
-0.00290719101313
-0.00245961756538
-0.00124149871129
0.00030225447739
-0.00151988843469
-0.0160310888899
-0.0276147042145
-0.016867909832
-0.0022955508248
-0.00282075306
-0.00299050478854
-0.00306122398149
-0.00309646335387
-0.00310527597452
-0.00302274569026
-0.00278905926488
-0.00278477293512
-0.00280258000839
-0.00302088098757
-0.00304195437268
-0.00249087709058
-0.00195191933363
-0.000730300374217
-0.00164640072436
-0.0127222878427
-0.0465632621504
-0.0682569565484
-0.04171162332
-0.00228252782539
-0.00281119572133
-0.00298100025251
-0.0030493297461
-0.00307372112623
-0.00304447717531
-0.00291753854285
-0.00272571491654
-0.00227162094038
-0.00280448410048
-0.00297464914628
-0.00304197430853
-0.00306310783871
-0.00302313773676
-0.00283602352426
-0.00244131311203
-0.00227157036
-0.00280444063093
-0.00297461721614
-0.00304195876334
-0.00306311318098
-0.00302317594276
-0.00283611103418
-0.00244133487926
-0.0022824155009
-0.0028110877147
-0.002980916315
-0.00304928922117
-0.00307376566083
-0.00304460108239
-0.00291772461927
-0.00272589189793
)
;
    }
    atmosphere
    {
        type            calculated;
        value           nonuniform List<scalar> 7(0 -1.55690616257e-47 4.46840979879e-39 -1.89640910463e-33 4.46791378934e-27 -0.0119423645404 -0.00218472589421);
    }
    floatingObject
    {
        type            calculated;
        value           nonuniform List<scalar> 8(-0.00278477293512 -0.00280258000839 -0.00302088098757 -0.00304195437268 -0.00272571491654 -0.00244131311203 -0.00244133487926 -0.00272589189793);
    }
    procBoundary3to4
    {
        type            processor;
        value           nonuniform List<scalar> 
13
(
-0.00328277632474
-0.00330345778988
-0.0033258422406
-0.00241373549362
-0.00294041955068
-0.00311024757991
-0.00317786460932
-0.00323177060868
-0.00325139453471
-0.00325139453471
-0.00319265995107
-0.00319265995107
-0.00319265995107
)
;
    }
    procBoundary3to5
    {
        type            processor;
        value           nonuniform List<scalar> 10(-0.00334844207107 -0.00336672013814 -0.00336644863686 -0.00332186700387 -0.00325009053864 -0.00355526712623 -0.00646551188695 -0.0114443134244 0.0139508271477 0.100214290001);
    }
    procBoundary3to6
    {
        type            processor;
        value           nonuniform List<scalar> 8(-0.00214510449384 -0.00100874807639 -0.000793006775093 -0.00687468637679 -0.0279877640294 -0.0539660931108 -0.101941774979 -0.220947796241);
    }
    procBoundary3to8
    {
        type            processor;
        value           nonuniform List<scalar> 8(-0.00229541085932 -0.00282061320341 -0.00299040144623 -0.00306118759877 -0.00309650377914 -0.0031054300718 -0.00302305378278 -0.00278930262334);
    }
}


// ************************************************************************* //
