/*--------------------------------*- C++ -*----------------------------------*\
| =========                 |                                                 |
| \\      /  F ield         | OpenFOAM: The Open Source CFD Toolbox           |
|  \\    /   O peration     | Version:  v2012                                 |
|   \\  /    A nd           | Website:  www.openfoam.com                      |
|    \\/     M anipulation  |                                                 |
\*---------------------------------------------------------------------------*/
FoamFile
{
    version     2.0;
    format      ascii;
    class       surfaceVectorField;
    location    "2.7";
    object      ddtCorrDdt0(Uf);
}
// * * * * * * * * * * * * * * * * * * * * * * * * * * * * * * * * * * * * * //

dimensions      [0 1 -2 0 0 0 0];


internalField   nonuniform List<vector> 
296
(
(0.195685180315 0.108207509228 3.69107503946e-21)
(0.178961446727 0.111355912 9.99883932134e-21)
(0.218541036354 0.119170727889 5.43552121488e-21)
(0.200633009785 0.125792109006 1.68773310854e-20)
(0.245867420975 0.126819325471 6.02117465567e-21)
(0.227398528115 0.137654755439 2.05721901997e-20)
(0.277488520468 0.129670082349 6.11602954109e-21)
(0.259421021273 0.145404041411 2.12604164449e-20)
(0.312693427695 0.125626092312 6.01421499248e-21)
(0.296526720629 0.147176695945 2.53154412531e-20)
(0.349326194344 0.112005242396 4.53402642801e-21)
(0.338004056854 0.140035184721 2.35222339663e-20)
(0.383870784602 0.0847450605177 2.63355940981e-21)
(0.381005445694 0.119567298943 1.73388013871e-20)
(0.410757076711 0.0370313546755 4.79652776985e-21)
(0.423029649881 0.0781941237093 6.79108752647e-21)
(0.408860760313 -0.0359941722787 6.17200964288e-21)
(0.45593037788 0.000626211245742 4.67123568031e-21)
(0.395683764013 -0.116775998152 1.44449081505e-20)
(0.433609678109 -0.0558375398902 1.56492453e-20)
(0.483279095311 -0.200902243863 4.27714618961e-20)
(0.425952149045 -0.140488896905 3.52433855435e-20)
(0.38796427968 -0.318344737376 -3.53982351611e-20)
(0.668391669806 -0.36616068297 5.01985513398e-20)
(0.181705934556 -0.562986601818 -6.98153040815e-20)
(0.118515242564 0.0143842690888 5.61474520336e-22)
(0.111159705632 0.00756682828205 -9.90483086699e-22)
(0.120004117319 0.0289669878236 8.81046433354e-22)
(0.111624557696 0.0228234735856 1.18480516274e-21)
(0.123363546102 0.0439945614204 1.58349228098e-22)
(0.113798338716 0.0379525749805 1.90194223152e-22)
(0.117758349583 0.0543229089986 3.25081557383e-22)
(0.146886396869 0.093977532734 4.54568430449e-21)
(0.132029180864 0.0903235994449 7.22581141722e-21)
(0.161576149777 0.11204932104 1.20333885645e-20)
(0.14406249251 0.110311338514 2.24959323902e-20)
(0.181323076139 0.129777793783 2.31850953673e-20)
(0.161259221953 0.130984880626 5.31885270809e-20)
(0.206731466331 0.145817993373 3.20140000702e-20)
(0.18465141476 0.15103028439 9.07330317407e-20)
(0.238151677234 0.158698990667 3.58114319889e-20)
(0.214612885639 0.168854850898 1.05830751502e-19)
(0.275927668857 0.166649545562 4.04598281569e-20)
(0.251627716481 0.182901048129 1.16537994908e-19)
(0.320072559151 0.166803682394 4.28234602269e-20)
(0.296588907623 0.191017358541 1.60868799042e-19)
(0.369421791202 0.15514125504 3.63270089254e-20)
(0.349940767535 0.189356817518 1.35748949468e-19)
(0.423435108551 0.125607914888 2.14963295038e-20)
(0.410827723256 0.172181036585 8.96084018064e-20)
(0.479922091345 0.0667329870933 6.66579543693e-21)
(0.482167164229 0.130955330058 3.79770008941e-20)
(0.51007218001 -0.0396282165628 1.41484713374e-20)
(0.562459775015 0.0438101197081 2.41924430721e-20)
(0.553548502046 -0.200365612583 3.64477226931e-20)
(0.594390572556 -0.0329378579851 4.55233998757e-20)
(0.638496422038 -0.560637729579 4.26704749872e-20)
(0.786379304578 -0.168301529181 5.12077630571e-20)
(0.396801594776 -0.604318489507 1.57814824193e-20)
(0.710456287066 -0.606862484861 2.71093445021e-20)
(0.0366978696038 -0.785964588126 -6.83700677725e-20)
(0.103537612498 0.0155415773442 -3.6715244429e-22)
(0.0956713865736 0.00803023331389 -1.71552982652e-21)
(0.104610235928 0.0313738229124 4.93952952544e-22)
(0.0958530936137 0.0243286111623 1.02827885673e-21)
(0.107211646792 0.0479231209179 3.56926552437e-22)
(0.0973160836453 0.0406418968783 2.35321280489e-22)
(0.11143055912 0.0656026707093 1.74931712809e-21)
(0.100125196765 0.0585185663578 1.7133025724e-21)
(0.117714061998 0.0848932200773 7.56648404603e-21)
(0.104410237238 0.0779233551892 8.21207888862e-21)
(0.127040638784 0.106025031688 2.51760595029e-20)
(0.110924889322 0.0996029216516 3.4013547239e-20)
(0.141027601214 0.129041918441 6.36510709066e-20)
(0.121074586764 0.124077220686 1.07005648646e-19)
(0.16138541425 0.152785532305 1.20736463454e-19)
(0.137561641991 0.150919055411 2.45977243414e-19)
(0.188961828741 0.175346400598 1.64549783172e-19)
(0.162181610265 0.17801387787 4.16067236327e-19)
(0.224184570755 0.195352012245 1.86557314421e-19)
(0.194768857026 0.203486185456 4.27315665991e-19)
(0.268162508849 0.21137059552 2.36946965793e-19)
(0.235862950435 0.226386476683 5.06718324868e-19)
(0.322373970956 0.219515331867 2.53794288283e-19)
(0.288795379844 0.244432773538 8.45940967806e-19)
(0.386960974895 0.214698252598 1.89030342349e-19)
(0.355184532185 0.252026698936 6.59486942991e-19)
(0.464753310755 0.193338121857 1.06089073197e-19)
(0.432639600069 0.245756000055 3.83755505322e-19)
(0.562000370726 0.141858993215 5.55036485292e-20)
(0.53403978965 0.221974024608 1.30093352438e-19)
(0.65091358557 0.0337892097049 5.55673716104e-20)
(0.670762840857 0.158243246695 8.71165853044e-20)
(0.837755014066 -0.163946640439 6.02834402398e-20)
(0.792177163977 0.0712003559044 8.34680957533e-20)
(0.843541327977 -0.707913730883 3.5646632572e-20)
(1.33077000971 -0.0610645969209 2.01030040756e-20)
(0.334999478499 -0.678225079455 -5.70422056898e-20)
(0.678168111209 -0.462571955362 -7.67900007012e-20)
(-0.0305773347159 -0.654378529792 1.50209703649e-20)
(0.0874879345811 0.0163315937232 -3.20098525503e-22)
(0.0793675616627 0.00829205748199 -1.53287477102e-21)
(0.0879818098614 0.0330384771296 7.69647184671e-22)
(0.0791711065488 0.0252057747795 1.0769071546e-21)
(0.0894838562729 0.0506775396519 1.59169730046e-21)
(0.0797041971742 0.0422256674913 1.09526127821e-21)
(0.092046345447 0.0698958016949 8.17606433294e-21)
(0.0809284635917 0.0610571281873 6.69718044656e-21)
(0.0960539623142 0.091423826772 3.46591420816e-20)
(0.0828990010762 0.0818808883373 3.20754770186e-20)
(0.102586941453 0.116162016814 1.15843136382e-19)
(0.0862040266347 0.105940564045 1.33315692221e-19)
(0.11424503726 0.144939088252 2.89331821153e-19)
(0.0923313176782 0.135048047914 4.32204730115e-19)
(0.134272074497 0.17633475018 5.41308016286e-19)
(0.106237261528 0.169921254524 9.58292114242e-19)
(0.16341728475 0.206848266073 6.78833119145e-19)
(0.131812131375 0.206233008904 1.3688188057e-18)
(0.201268675845 0.235950446484 7.47476676438e-19)
(0.165916687021 0.24135546443 9.75966452025e-19)
(0.250486771169 0.263600194798 1.11571232688e-18)
(0.20859949685 0.277121010476 1.20954567457e-18)
(0.315355083407 0.283132656322 1.25163362251e-18)
(0.269781557075 0.312113497423 1.9167738527e-18)
(0.392887502017 0.287778807913 8.54212105964e-19)
(0.351163937175 0.3274759304 1.70670316296e-18)
(0.488100262129 0.284886687315 4.07759784563e-19)
(0.43618749192 0.335823866298 8.14716497644e-19)
(0.621090704129 0.266034830569 1.61706289213e-19)
(0.553442628198 0.345752376192 2.45358311166e-19)
(0.775253692757 0.202801172878 1.15017309447e-19)
(0.734299453717 0.341636106676 1.38279938445e-19)
(1.15387592305 0.0533834450036 4.32876595891e-20)
(0.941654818348 0.252103225684 8.30661253159e-20)
(1.08663409055 -0.350201651516 -9.23336291976e-20)
(1.73430025887 0.258296960687 -2.41412039717e-19)
(0.351704646001 -0.285658505762 -4.72682464649e-21)
(0.609439775938 0.16936402791 -2.19335000629e-19)
(0.0226946087387 0.160251048172 1.06125707278e-19)
(0.0708218021237 0.0166685787639 -1.35869090919e-22)
(0.062703387886 0.00832569644867 -1.07368525843e-21)
(0.0706165946304 0.0337448513037 1.40252124814e-21)
(0.0620925878632 0.0253403310041 1.14057955793e-21)
(0.0707677071764 0.0518736919929 6.20074442431e-21)
(0.0615714362053 0.0424477735198 4.21167818766e-21)
(0.071225345862 0.071812816967 3.05965931322e-20)
(0.0609845327555 0.0614526283167 2.28559270849e-20)
(0.0721950809354 0.0945346146482 1.30732027158e-19)
(0.0601753624386 0.0826286950893 1.05969830541e-19)
(0.0742889550609 0.121942495772 4.49677285954e-19)
(0.0588069014037 0.107503562262 4.42657897022e-19)
(0.0809984229984 0.157510844997 1.1011650232e-18)
(0.0568051260418 0.14115365787 1.27524133446e-18)
(0.0988267338308 0.199965561985 1.78580290365e-18)
(0.063885104346 0.188005936291 2.09938454605e-18)
(0.125210684126 0.240671012545 1.66595213858e-18)
(0.0913176740068 0.233678130656 1.65263777905e-18)
(0.153718463442 0.282123791526 1.43803545015e-18)
(0.124826910477 0.274792853527 5.16193355182e-19)
(0.201815275491 0.3286010273 2.01060720038e-18)
(0.162665450948 0.334546814785 1.76627319771e-18)
(0.288144960451 0.364007787288 2.37184339315e-18)
(0.235090825731 0.40675796044 1.38606796657e-18)
(0.383881688146 0.371987334164 1.66720755464e-18)
(0.344214733813 0.424438789315 1.22678482357e-18)
(0.482427566305 0.391267260103 6.52315024247e-19)
(0.418036421976 0.429013761753 1.72019206267e-19)
(0.623737928596 0.427671575261 2.21931960398e-19)
(0.517974175356 0.477497578617 2.31017044659e-20)
(0.808883509788 0.481078107951 1.06328754313e-19)
(0.681374862821 0.551929235026 9.07251696942e-20)
(1.32821276905 0.519288697909 -2.0163357399e-19)
(0.903521781011 0.475397076942 -1.27085789499e-19)
(1.17058581479 0.536670022822 -3.68413411148e-19)
(1.71561300223 0.806618565959 -7.00476136052e-19)
(0.324713671085 0.70884522099 -1.08482468705e-19)
(0.42334163144 1.34723983223 -5.53539248908e-19)
(0.0919370361845 1.3652546791 -3.18150170992e-20)
(0.0540390421875 0.0165119956121 2.02763390412e-22)
(0.0461727760003 0.00813822414868 -8.1528861366e-22)
(0.053100303177 0.0333619139067 3.94973649745e-21)
(0.0452168251816 0.0246961906993 2.428105009e-21)
(0.0516929545083 0.0512106610721 2.08668608482e-20)
(0.0436949990361 0.0410805391232 1.12846914996e-20)
(0.0494263502907 0.0708845046897 9.82291644936e-20)
(0.0412854430424 0.0590671124617 5.76580087996e-20)
(0.0461755792518 0.0935361096015 4.17895700405e-19)
(0.0375080503146 0.079224863015 2.66525290731e-19)
(0.042088270429 0.121888573428 1.26822194553e-18)
(0.0304609617268 0.103775514478 1.11733628754e-18)
(0.0435508452076 0.165785847634 2.27346085731e-18)
(0.0129591170669 0.144811380588 2.1277733727e-18)
(0.0617532934171 0.225911816056 1.96621942145e-18)
(0.0039062160821 0.208534625707 1.47739818453e-18)
(0.0876690919283 0.2672539837 5.02878995658e-19)
(0.0502661725799 0.264309466879 2.54230324215e-19)
(0.104991421705 0.314396295771 8.44431102736e-19)
(0.0781629764068 0.307936827167 -3.02171465302e-18)
(0.155421782956 0.407985154705 1.1417339639e-18)
(0.0697668974404 0.407048345382 1.57402268148e-18)
(0.282581552508 0.49577930148 2.41009396996e-19)
(0.148579070535 0.527017124237 -1.25231772786e-18)
(0.390389269988 0.463804073656 -2.68403524806e-19)
(0.377931022138 0.490437240108 -8.16768820704e-19)
(0.445675257624 0.487154894886 -4.57194113514e-19)
(0.396480856262 0.481130927752 -9.81798581234e-19)
(0.529922699085 0.582018307992 -1.08105086238e-19)
(0.424457709077 0.557828374863 -6.63908194995e-19)
(0.663874954904 0.780527195446 -1.42689374119e-19)
(0.483443848715 0.713858565794 -1.4994896461e-19)
(1.09883538853 1.1052883889 -6.25928351562e-19)
(0.578825902593 0.683039738373 -1.77248271894e-19)
(0.966339545653 1.94228656943 -8.85601973812e-19)
(0.871970647711 1.28131101762 -5.29485530218e-19)
(0.321620621947 1.81132231739 -4.76871797302e-19)
(0.526233270079 2.60378212681 -2.96401580026e-19)
(0.281321817272 2.13796879241 -1.40382174887e-20)
(0.0377383045458 0.0158910849693 1.41005300492e-21)
(0.0302426368016 0.00785269015297 3.09185355672e-22)
(0.0363667344157 0.0318545763777 9.76306001113e-21)
(0.0292074859471 0.0235881469272 5.25414389898e-21)
(0.0338423003057 0.048229601341 4.80758394509e-20)
(0.0272736980843 0.0386056436357 2.25946194728e-20)
(0.0288705061702 0.0659353388818 2.25954135037e-19)
(0.0235388114425 0.0539677245155 9.91697619868e-20)
(0.0185771983685 0.0875078702484 9.65965877864e-19)
(0.0159084189902 0.0691548743272 3.94073251714e-19)
(-0.00602676402974 0.1190381319 1.9768877147e-18)
(-0.00106781302121 0.0820522035858 1.26571823144e-18)
(-0.0389750494578 0.18029815458 1.33171069992e-18)
(-0.0482333827588 0.108453445447 1.9956888682e-18)
(-0.0107212110423 0.259403705974 -2.34590912706e-19)
(-0.075050939605 0.133845053216 1.21624886949e-18)
(0.0367644899103 0.309880539473 -3.27036332446e-18)
(0.0474298549337 0.388364612866 -2.29212307428e-18)
(0.1103897038 0.458788493361 -8.20029010279e-19)
(0.312131739264 0.608353370942 -2.31009594556e-18)
(0.424464906119 0.467282995944 -1.53016387713e-18)
(0.378086856506 0.497214183326 -1.18851266272e-18)
(0.362714032686 0.63351959322 -7.05752073368e-19)
(0.361267507712 0.878763665779 -1.84507862385e-19)
(0.276512234279 1.34206174843 -8.08054505504e-20)
(0.564970922916 2.89632853916 5.97148635679e-20)
(0.657518034865 2.20925017009 1.66431999788e-19)
(0.022189033539 0.015237317226 4.15327624973e-21)
(0.0149499731364 0.00758061395782 5.67805452902e-22)
(0.0209091035356 0.0301146179882 1.80857033607e-20)
(0.0142687892006 0.0224959675641 8.09351323214e-21)
(0.0183628438799 0.0444039744072 7.36885420088e-20)
(0.0129237402019 0.0360869496156 3.98581481633e-20)
(0.013215055437 0.057299749357 2.67288878664e-19)
(0.0105893887766 0.0487191663404 1.48668880911e-19)
(0.0023018218839 0.0661933453184 6.93825605288e-19)
(0.00697705783087 0.058577583985 4.19374115094e-19)
(-0.0219868344304 0.0688656899788 1.28451938493e-18)
(-0.00374502743286 0.0598612228468 1.19864774198e-18)
(-0.0650975884443 0.0382513714502 1.88022703776e-18)
(-0.0175909611884 0.0656413059223 9.42394989556e-19)
(-0.0367866750696 0.0404062737879 -8.42502462258e-19)
(0.00739318096889 0.014660789335 4.50804243531e-21)
(0.00020834015523 0.00744788585083 -5.5344376036e-22)
(0.00683139943055 0.028642670804 2.98659580347e-20)
(0.00020287279461 0.0219928933623 9.06761025582e-21)
(0.00565492737996 0.0412908215877 1.14838487066e-19)
(0.000192170593361 0.0349219074062 5.05306972256e-20)
(0.00348572146919 0.0516283302452 3.00754117341e-19)
(0.000176056219585 0.0465542437068 1.79485632157e-19)
(9.30558792882e-05 0.0583910908999 9.24196251788e-19)
(0.000155800782924 0.0551632988602 4.22719423644e-19)
(-0.00479909126655 0.0545020560998 8.5652334661e-19)
(0.000118391560852 0.0562699405885 1.42579619876e-18)
(-0.0132473806358 0.0368384418736 -1.78033451047e-18)
(8.41822673402e-05 0.0612008381666 2.88234219825e-19)
(8.41697928163e-05 0.0331938694528 -3.84394245076e-18)
(-0.00699430040663 0.0146569466944 4.00612406014e-21)
(-0.0145579838909 0.00757642899271 -7.85761561341e-22)
(-0.00644903822675 0.0286331792147 2.97323494467e-20)
(-0.0138880792362 0.0224815223677 6.48491579123e-21)
(-0.00530207665265 0.0412752203332 1.15177842317e-19)
(-0.0125638973445 0.0360587192509 3.96787549115e-20)
(-0.00317748518029 0.0516089126901 3.0145093846e-19)
(-0.0102596493097 0.0486753827572 1.48677158195e-19)
(0.000161494204546 0.058349910087 9.24319370616e-19)
(-0.00665888759407 0.058524609205 4.205025556e-19)
(0.00499671045577 0.0544645236156 8.57507071975e-19)
(0.0039807849752 0.0598042912905 1.19753884301e-18)
(0.0134094499724 0.0368323803417 -1.77537372047e-18)
(0.0177675983486 0.0656085721674 9.3724440419e-19)
(0.036957345198 0.0404036725608 -8.38518800067e-19)
(-0.0218277390827 0.0152239971392 1.69303016975e-21)
(-0.0205613254523 0.0300831874839 1.6431321256e-20)
(-0.0180385255533 0.0443475812809 7.3178070789e-20)
(-0.0129246856894 0.0572167727122 2.67728775334e-19)
(-0.00204704963775 0.066123093793 6.93722027994e-19)
(0.0222150563218 0.0687867300575 1.27727617523e-18)
(0.0653243819286 0.0381397990354 1.87409932459e-18)
)
;

boundaryField
{
    back
    {
        type            calculated;
        value           uniform (0 0 0);
    }
    sides
    {
        type            calculated;
        value           nonuniform List<vector> 0();
    }
    bottom
    {
        type            calculated;
        value           uniform (0 0 0);
    }
    front
    {
        type            calculated;
        value           uniform (0 0 0);
    }
    atmosphere
    {
        type            calculated;
        value           nonuniform List<vector> 7((0 -0.324297158685 0) (3.29583081705e-46 -0.460371022887 -3.90901159433e-67) (-1.03228023311e-36 -0.612671398336 4.2747887958e-57) (5.41849790681e-31 -0.342108990792 6.00035268444e-51) (-1.03078375032e-24 0.631318036509 8.36201564844e-44) (0.0634145618646 1.6109366852 1.17180768147e-19) (0.00897867018509 1.91758717904 5.51854523538e-20));
    }
    floatingObject
    {
        type            calculated;
        value           nonuniform List<vector> 8((0 -1.28960766219e-16 1.61200957773e-17) (0 0 1.61200957773e-17) (0 0 0) (0 -2.57921532437e-16 1.61200957773e-17) (3.22401915547e-17 0 0) (0 0 1.61200957773e-17) (0 0 1.61200957773e-17) (0 0 0));
    }
    procBoundary3to4
    {
        type            processor;
        value           nonuniform List<vector> 
13
(
(0.191885876404 0.0928937947882 1.56342863908e-21)
(0.21150595862 0.102968732539 2.67209925531e-21)
(0.234994556992 0.110385322876 3.6694345933e-21)
(0.12540761158 0.00695353028034 -1.05290839477e-21)
(0.126045872534 0.020856433401 9.47903698258e-22)
(0.128708560677 0.0345041400518 1.3706169494e-22)
(0.133340640264 0.0490597818358 7.29859729053e-23)
(0.14941250464 0.079702612907 1.19666343067e-21)
(0.177205656166 0.0952491401205 1.97000376101e-21)
(0.162093493887 0.0956662682038 4.00455300415e-21)
(0.128662031305 0.059800221629 2.98497974179e-22)
(0.136257941053 0.0764036637893 1.38206091608e-21)
(0.123560549414 0.0716572866213 1.72273354488e-21)
)
;
    }
    procBoundary3to5
    {
        type            processor;
        value           nonuniform List<vector> 10((0.262111349771 0.113888139834 3.19939040108e-21) (0.292310620161 0.112081315953 3.71047164281e-21) (0.324151128366 0.103131808436 2.22987230264e-21) (0.353532579075 0.0842560899458 3.17821761525e-21) (0.375105517499 0.0536783099401 -1.58669153973e-21) (0.382779374768 0.003261129131 4.67324096362e-21) (0.352788234038 -0.0293892145851 5.20943083388e-21) (0.342238103479 -0.0696251064671 3.92063002144e-20) (0.552891561338 -0.0806869406733 4.9626055176e-20) (0.177312189744 -0.281789496867 -2.41018122007e-19));
    }
    procBoundary3to6
    {
        type            processor;
        value           nonuniform List<vector> 8((0.521261583196 0.331026914065 -2.15911501288e-18) (0.368721878011 0.424885997629 -1.65293115623e-18) (0.289695955789 0.542029206826 -1.38802842259e-18) (0.23884303242 0.769429009455 -4.29438667297e-19) (0.115308424662 0.798384266736 -5.45663761615e-19) (-0.695844760472 1.33382035887 -1.82002067969e-19) (1.18241027176 2.03583899471 2.79392572115e-18) (0.561536051526 2.07368663697 2.56221933415e-18));
    }
    procBoundary3to8
    {
        type            processor;
        value           nonuniform List<vector> 8((-0.0299026359202 0.00784465664279 -3.69032820492e-22) (-0.0288746333314 0.0235612432141 3.76911468619e-21) (-0.0269539441693 0.0385543893614 2.25537118403e-20) (-0.0232373580022 0.0538904733958 9.81202822688e-20) (-0.0156337368996 0.0690660784935 3.94792535672e-19) (0.0013144816849 0.0819691778654 1.26222902565e-18) (0.0484730069518 0.108420810662 1.99111463868e-18) (0.0751542582857 0.13385140692 1.21892469048e-18));
    }
}


// ************************************************************************* //
