/*--------------------------------*- C++ -*----------------------------------*\
| =========                 |                                                 |
| \\      /  F ield         | OpenFOAM: The Open Source CFD Toolbox           |
|  \\    /   O peration     | Version:  v2012                                 |
|   \\  /    A nd           | Website:  www.openfoam.com                      |
|    \\/     M anipulation  |                                                 |
\*---------------------------------------------------------------------------*/
FoamFile
{
    version     2.0;
    format      ascii;
    class       volScalarField;
    location    "1.7";
    object      p_rgh;
}
// * * * * * * * * * * * * * * * * * * * * * * * * * * * * * * * * * * * * * //

dimensions      [1 -1 -2 0 0 0 0];


internalField   nonuniform List<scalar> 
164
(
8671.43631342
8671.41578111
8671.48748999
8671.56206441
8671.63005195
8671.68422319
8671.70764334
8671.67550489
8682.852373
8682.90786559
8683.01315844
8683.16680511
8683.34812706
8683.53840399
8683.71355231
8683.8404456
8694.17716889
8694.28432171
8694.47248882
8694.72945217
8695.04193165
8695.39178819
8695.7511993
8696.08162936
8696.33017931
8696.42331215
8705.37649996
8705.58861576
8705.85923951
8706.22781913
8706.68932136
8707.225571
8707.80730684
8708.39329806
8708.92687134
8709.32956908
8716.80990661
8716.84809352
8717.14688495
8717.62673554
8718.25450342
8719.00573706
8719.85036998
8720.74815381
8721.643092
8722.45879794
8727.7056823
8727.85824128
8728.25413592
8728.87216674
8729.68970516
8730.68544241
8731.83327984
8733.09752044
8734.42938765
8735.76125739
8738.40629598
8738.6348804
8739.14010318
8739.91375748
8740.94095905
8742.20721566
8743.69303111
8745.37196812
8747.20765357
8749.14848774
8748.8497375
8749.14294858
8749.7595708
8750.69814304
8751.94867175
8753.50378971
8755.35281097
8757.48255535
8759.87237033
8762.49363787
8758.9779908
8759.33285675
8760.06032387
8761.16755446
8762.64748065
8764.50005942
8766.72600731
8769.32495814
8772.29519568
8775.63580388
8768.73544167
8769.1515642
8769.98603104
8771.26068727
8772.96894024
8775.11874787
8777.72049258
8780.78631624
8784.33392894
8788.39017624
8778.06784729
8778.54689075
8779.47891014
8780.91702916
8782.84595268
8785.28226849
8788.24424611
8791.75416767
8795.84671452
8800.57013016
8786.92125555
8787.4717051
8788.4818512
8790.07695585
8792.21293617
8794.917132
8798.2113947
8802.12746074
8806.70787611
8812.01212429
8795.23764477
8795.90883787
8796.91751586
8798.68812362
8801.01010272
8803.95663519
8807.54909604
8811.82353441
8816.82339847
8822.60917459
8802.92300954
8803.82530006
8804.80087715
8806.68194749
8809.18228506
8812.34400132
8816.19766224
8820.77962363
8826.1315171
8832.30647425
8810.10488407
8810.96722437
8812.08685099
8814.04878508
8816.69042855
8820.03493969
8824.11169875
8828.95426461
8834.59835787
8841.08547998
8816.63009536
8817.48050905
8818.69232393
8820.73403679
8823.49249161
8826.98892329
8831.25278167
8836.31544851
8842.2030079
8848.93800248
8822.47133179
8823.32790903
8824.59593952
8826.70222112
8829.55148468
8833.16963792
8837.58812772
8834.83543995
)
;

boundaryField
{
    back
    {
        type            fixedFluxPressure;
        gradient        uniform 0;
        value           nonuniform List<scalar> 
164
(
8671.43631342
8671.41578111
8671.48748999
8671.56206441
8671.63005195
8671.68422319
8671.70764334
8671.67550489
8682.852373
8682.90786559
8683.01315844
8683.16680511
8683.34812706
8683.53840399
8683.71355231
8683.8404456
8694.17716889
8694.28432171
8694.47248882
8694.72945217
8695.04193165
8695.39178819
8695.7511993
8696.08162936
8696.33017931
8696.42331215
8705.37649996
8705.58861576
8705.85923951
8706.22781913
8706.68932136
8707.225571
8707.80730684
8708.39329806
8708.92687134
8709.32956908
8716.80990661
8716.84809352
8717.14688495
8717.62673554
8718.25450342
8719.00573706
8719.85036998
8720.74815381
8721.643092
8722.45879794
8727.7056823
8727.85824128
8728.25413592
8728.87216674
8729.68970516
8730.68544241
8731.83327984
8733.09752044
8734.42938765
8735.76125739
8738.40629598
8738.6348804
8739.14010318
8739.91375748
8740.94095905
8742.20721566
8743.69303111
8745.37196812
8747.20765357
8749.14848774
8748.8497375
8749.14294858
8749.7595708
8750.69814304
8751.94867175
8753.50378971
8755.35281097
8757.48255535
8759.87237033
8762.49363787
8758.9779908
8759.33285675
8760.06032387
8761.16755446
8762.64748065
8764.50005942
8766.72600731
8769.32495814
8772.29519568
8775.63580388
8768.73544167
8769.1515642
8769.98603104
8771.26068727
8772.96894024
8775.11874787
8777.72049258
8780.78631624
8784.33392894
8788.39017624
8778.06784729
8778.54689075
8779.47891014
8780.91702916
8782.84595268
8785.28226849
8788.24424611
8791.75416767
8795.84671452
8800.57013016
8786.92125555
8787.4717051
8788.4818512
8790.07695585
8792.21293617
8794.917132
8798.2113947
8802.12746074
8806.70787611
8812.01212429
8795.23764477
8795.90883787
8796.91751586
8798.68812362
8801.01010272
8803.95663519
8807.54909604
8811.82353441
8816.82339847
8822.60917459
8802.92300954
8803.82530006
8804.80087715
8806.68194749
8809.18228506
8812.34400132
8816.19766224
8820.77962363
8826.1315171
8832.30647425
8810.10488407
8810.96722437
8812.08685099
8814.04878508
8816.69042855
8820.03493969
8824.11169875
8828.95426461
8834.59835787
8841.08547998
8816.63009536
8817.48050905
8818.69232393
8820.73403679
8823.49249161
8826.98892329
8831.25278167
8836.31544851
8842.2030079
8848.93800248
8822.47133179
8823.32790903
8824.59593952
8826.70222112
8829.55148468
8833.16963792
8837.58812772
8834.83543995
)
;
    }
    sides
    {
        type            fixedFluxPressure;
        gradient        nonuniform List<scalar> 0();
        value           nonuniform List<scalar> 0();
    }
    bottom
    {
        type            fixedFluxPressure;
        gradient        uniform 0;
        value           nonuniform List<scalar> 
17
(
8671.43631342
8682.852373
8694.17716889
8705.37649996
8716.80990661
8727.7056823
8738.40629598
8748.8497375
8758.9779908
8768.73544167
8778.06784729
8786.92125555
8795.23764477
8802.92300954
8810.10488407
8816.63009536
8822.47133179
)
;
    }
    front
    {
        type            fixedFluxPressure;
        gradient        uniform 0;
        value           nonuniform List<scalar> 
164
(
8671.43631342
8671.41578111
8671.48748999
8671.56206441
8671.63005195
8671.68422319
8671.70764334
8671.67550489
8682.852373
8682.90786559
8683.01315844
8683.16680511
8683.34812706
8683.53840399
8683.71355231
8683.8404456
8694.17716889
8694.28432171
8694.47248882
8694.72945217
8695.04193165
8695.39178819
8695.7511993
8696.08162936
8696.33017931
8696.42331215
8705.37649996
8705.58861576
8705.85923951
8706.22781913
8706.68932136
8707.225571
8707.80730684
8708.39329806
8708.92687134
8709.32956908
8716.80990661
8716.84809352
8717.14688495
8717.62673554
8718.25450342
8719.00573706
8719.85036998
8720.74815381
8721.643092
8722.45879794
8727.7056823
8727.85824128
8728.25413592
8728.87216674
8729.68970516
8730.68544241
8731.83327984
8733.09752044
8734.42938765
8735.76125739
8738.40629598
8738.6348804
8739.14010318
8739.91375748
8740.94095905
8742.20721566
8743.69303111
8745.37196812
8747.20765357
8749.14848774
8748.8497375
8749.14294858
8749.7595708
8750.69814304
8751.94867175
8753.50378971
8755.35281097
8757.48255535
8759.87237033
8762.49363787
8758.9779908
8759.33285675
8760.06032387
8761.16755446
8762.64748065
8764.50005942
8766.72600731
8769.32495814
8772.29519568
8775.63580388
8768.73544167
8769.1515642
8769.98603104
8771.26068727
8772.96894024
8775.11874787
8777.72049258
8780.78631624
8784.33392894
8788.39017624
8778.06784729
8778.54689075
8779.47891014
8780.91702916
8782.84595268
8785.28226849
8788.24424611
8791.75416767
8795.84671452
8800.57013016
8786.92125555
8787.4717051
8788.4818512
8790.07695585
8792.21293617
8794.917132
8798.2113947
8802.12746074
8806.70787611
8812.01212429
8795.23764477
8795.90883787
8796.91751586
8798.68812362
8801.01010272
8803.95663519
8807.54909604
8811.82353441
8816.82339847
8822.60917459
8802.92300954
8803.82530006
8804.80087715
8806.68194749
8809.18228506
8812.34400132
8816.19766224
8820.77962363
8826.1315171
8832.30647425
8810.10488407
8810.96722437
8812.08685099
8814.04878508
8816.69042855
8820.03493969
8824.11169875
8828.95426461
8834.59835787
8841.08547998
8816.63009536
8817.48050905
8818.69232393
8820.73403679
8823.49249161
8826.98892329
8831.25278167
8836.31544851
8842.2030079
8848.93800248
8822.47133179
8823.32790903
8824.59593952
8826.70222112
8829.55148468
8833.16963792
8837.58812772
8834.83543995
)
;
    }
    atmosphere
    {
        type            totalPressure;
        rho             rho;
        psi             none;
        gamma           1;
        p0              nonuniform List<scalar> 0();
        value           nonuniform List<scalar> 0();
    }
    floatingObject
    {
        type            fixedFluxPressure;
        gradient        nonuniform List<scalar> 0();
        value           nonuniform List<scalar> 0();
    }
    procBoundary4to0
    {
        type            processor;
        value           nonuniform List<scalar> 8(8660.00166685 8659.95744641 8659.95080608 8659.93381777 8659.90171085 8659.84267792 8659.74351432 8659.58795256);
    }
    procBoundary4to3
    {
        type            processor;
        value           nonuniform List<scalar> 
13
(
8842.83887801
8848.93903448
8855.89147342
8827.61176345
8828.47699558
8829.77591827
8831.92373702
8838.54169069
8842.83887801
8843.08306627
8831.92373702
8838.54169069
8839.31679374
)
;
    }
    procBoundary4to5
    {
        type            processor;
        value           nonuniform List<scalar> 
18
(
8671.55549644
8683.87446244
8683.87446244
8683.75283782
8696.26447167
8709.49650959
8723.09148633
8737.00035093
8751.12272345
8765.30590779
8779.34637998
8792.99823346
8806.00430872
8818.13282649
8829.26712961
8839.37611272
8848.47024924
8856.53991328
)
;
    }
}


// ************************************************************************* //
