/*--------------------------------*- C++ -*----------------------------------*\
| =========                 |                                                 |
| \\      /  F ield         | OpenFOAM: The Open Source CFD Toolbox           |
|  \\    /   O peration     | Version:  v2012                                 |
|   \\  /    A nd           | Website:  www.openfoam.com                      |
|    \\/     M anipulation  |                                                 |
\*---------------------------------------------------------------------------*/
FoamFile
{
    version     2.0;
    format      ascii;
    class       volVectorField;
    location    "4.1";
    object      ddtCorrDdt0(U);
}
// * * * * * * * * * * * * * * * * * * * * * * * * * * * * * * * * * * * * * //

dimensions      [0 1 -2 0 0 0 0];


internalField   nonuniform List<vector> 
167
(
(-0.00484541764366 0.0765864505628 -2.98548140982e-22)
(-0.00467461708666 0.0855701093158 -2.20595427061e-22)
(-0.00433536298016 0.0940857370026 2.00141747336e-22)
(-0.00375119868309 0.101786939137 2.49933029741e-23)
(-0.00275415163254 0.10800667599 3.28990970268e-22)
(-0.00110387513177 0.111991094666 -2.76623283063e-23)
(0.002320650924 0.113367180498 1.88597137499e-23)
(0.00791467545205 0.105933156701 -7.41646895923e-22)
(0.00719676193061 0.102935121348 -1.07250022584e-20)
(-0.0130416014624 0.0751398225583 -9.69779014927e-21)
(0.0619452292113 0.194574210565 4.98568602521e-20)
(0.439042717234 -0.788918069564 -1.28667990072e-21)
(-0.0134896762275 0.0775687124308 -7.73720433575e-23)
(-0.0130498649602 0.0869017303095 1.18424177701e-22)
(-0.0121708527861 0.0958718072012 7.4249101922e-23)
(-0.0106732061782 0.104223417276 1.48995926822e-22)
(-0.0082693256985 0.111557998355 3.24333231911e-22)
(-0.00450057773335 0.117511798453 1.17715299904e-21)
(0.00163530732545 0.12283033372 8.36422433327e-22)
(0.0104154011246 0.121217688373 -3.63655091575e-22)
(0.0176594682465 0.119997000111 -2.57516402563e-21)
(0.0271786103785 0.100025921457 2.89743222198e-20)
(0.0735625167481 0.12579447934 5.84588671778e-20)
(0.932607971296 0.418525914332 5.33669718674e-20)
(-0.022910028061 0.078053535299 1.71386504542e-23)
(-0.0223225748816 0.0878366768142 8.63739873183e-23)
(-0.0211120094983 0.0974872100754 6.45359105548e-23)
(-0.0189793609867 0.106800358338 8.8312244404e-23)
(-0.0155520736986 0.11553534889 4.30005323477e-22)
(-0.0103626038848 0.123361175351 -1.14238442196e-22)
(-0.00260546921122 0.131105376861 7.69029995233e-22)
(0.00740495755791 0.133845526198 -2.01651665864e-20)
(0.0154776381329 0.135044940484 -1.79585481385e-20)
(0.0325574961916 0.119120870931 3.02221734334e-20)
(-0.0975808678773 0.160800474613 -6.49203815277e-21)
(0.459823585451 0.360759054819 -1.45106825139e-21)
(-0.0322413444187 0.0888627961511 3.98703487015e-23)
(-0.0309815954763 0.0993812037403 4.45290065486e-23)
(-0.028636340906 0.109934791564 2.74374874277e-23)
(-0.0247445674273 0.120366239617 8.6151423288e-23)
(-0.0187603961034 0.130510253024 -1.48477077126e-22)
(-0.00977612815428 0.14105885303 -1.23047642167e-22)
(0.00242264549355 0.148736189802 1.84102650817e-22)
(0.01299667032 0.152289890863 4.27933366999e-21)
(0.0370193383682 0.137284045261 1.38680256753e-20)
(0.080800518061 0.168802385958 1.26467388979e-20)
(0.774409868923 0.30348112185 9.53660887876e-21)
(-0.0418579175036 0.101180647053 1.25729877993e-23)
(-0.0397423197596 0.113104522638 9.48147377967e-23)
(-0.0360171617458 0.125430206315 2.9698747796e-22)
(-0.0300090173573 0.138117383844 -5.67973138205e-22)
(-0.020773059228 0.152008071357 -6.24118534642e-22)
(-0.00761134269254 0.165476492783 -1.38652253132e-21)
(0.00541391010133 0.172013496133 -9.22772146392e-21)
(0.0270682941643 0.161310452088 9.26919401967e-21)
(0.0201544440763 0.0156722414518 1.19473428941e-19)
(0.118608888069 0.837623737592 -5.83790364286e-21)
(-0.0538848074104 0.102472531528 2.64687309862e-23)
(-0.0524771326544 0.115758118116 3.17320832537e-22)
(-0.0495107119802 0.129992390154 4.98959844973e-22)
(-0.0443051663728 0.145441561687 6.38338030444e-22)
(-0.0359474277472 0.162573600026 -1.63680747772e-22)
(-0.0235065469911 0.181644148099 -4.07121655875e-21)
(-0.00922016817666 0.190347367973 -1.93101854422e-20)
(0.00804101847448 0.187455192728 9.2677587441e-21)
(-0.113799074022 0.246795140942 -9.56475817449e-20)
(-0.585409033513 0.10748829544 5.69058520563e-21)
(-0.06701614969 0.10287259178 4.67949316854e-23)
(-0.0667991045636 0.117406773745 2.30980627261e-22)
(-0.0651958854262 0.133440980693 5.67474551666e-22)
(-0.0616109024521 0.151339362785 1.56396895052e-21)
(-0.0553017380069 0.17152427092 4.31858929319e-21)
(-0.0449819119953 0.196229438499 -3.28330755472e-20)
(-0.0317076661295 0.207457237541 -3.75385235835e-20)
(-0.0122093703301 0.214226794251 2.80402007374e-20)
(-0.0114127474095 0.317430554944 4.37453693576e-20)
(-0.110872949598 0.304785672752 -3.13038084763e-19)
(-0.0810627336331 0.101972266327 1.11079185379e-22)
(-0.0824561240605 0.117482724344 3.30808809068e-22)
(-0.0828294144984 0.134999906579 5.63068629673e-22)
(-0.0816706000142 0.155005236344 1.3576380443e-21)
(-0.0783751473226 0.177898071653 5.36064943702e-21)
(-0.0716425927878 0.206715999123 -2.38462622689e-20)
(-0.0612460370053 0.22024136326 -2.47424593691e-20)
(-0.037679028012 0.234132883339 -7.50165332361e-21)
(-0.0779979982695 0.367712452537 3.93153542276e-21)
(-0.41221694901 0.151191391574 -2.51727582802e-21)
(-0.0957429471402 0.0994214861204 2.60120484289e-23)
(-0.0991229653499 0.115539531558 1.99613347454e-22)
(-0.101934287824 0.134043164655 2.95735573953e-22)
(-0.103807265932 0.155484784194 7.10511718712e-22)
(-0.10430154889 0.180304865042 2.5085409096e-21)
(-0.102193819215 0.21178708269 1.16660269483e-20)
(-0.0950067025433 0.227814086359 3.94221128839e-21)
(-0.0651548588107 0.238947262575 1.28185791104e-20)
(0.0746271394127 0.288000112248 1.50363245379e-20)
(2.20717616105 -1.00340371016 -8.31757062386e-19)
(-0.110686289622 0.0949062915113 3.90904150998e-23)
(-0.116332518398 0.111191256135 1.59130778769e-22)
(-0.121936996796 0.130138578487 1.3839527753e-22)
(-0.12723224478 0.152327152757 3.53805946928e-22)
(-0.131936102894 0.178225395117 7.63138802359e-22)
(-0.134779203035 0.211343918563 1.51295722258e-21)
(-0.131105252997 0.230320830782 -3.96919442862e-21)
(-0.116572588115 0.236115870775 7.99723877908e-21)
(-0.143982875241 0.174832536199 2.09384672707e-19)
(-0.0640883949641 3.22031869922 1.20002439712e-19)
(-0.125426065256 0.0882234718286 4.55232206182e-23)
(-0.133538051635 0.10418645558 1.32423084573e-22)
(-0.14218602224 0.122979963619 -3.49855637867e-23)
(-0.151218695125 0.145253105754 3.67385987747e-22)
(-0.160543692413 0.171592597898 -1.64325200022e-21)
(-0.168930009243 0.205977804684 1.97923643033e-21)
(-0.173422149868 0.229391517973 4.9682861868e-21)
(-0.181145545473 0.24573775484 1.09088347149e-20)
(-0.390302202398 0.324321872787 5.65069323081e-21)
(-1.86558429686 -0.876809038472 7.29236556532e-19)
(-0.139477706773 0.0792659696851 -6.93428237132e-23)
(-0.15014816405 0.0943315096043 1.70980004811e-22)
(-0.161997391175 0.112322826536 1.14770799327e-22)
(-0.175058675014 0.133928145217 3.141553357e-22)
(-0.189452958281 0.159889460826 7.09208466043e-23)
(-0.204306969627 0.195069541874 1.53614513029e-21)
(-0.223341680556 0.222758580675 -2.45042190612e-20)
(-0.243456331424 0.245309239315 5.63992091963e-21)
(-0.448598502689 0.47179762735 7.25257803294e-21)
(0.285704989905 0.633198272834 1.77985451605e-19)
(-0.152325310582 0.0680040877071 3.11986138442e-23)
(-0.165511771665 0.0815744731428 2.57899664064e-22)
(-0.180580386606 0.0979689274156 7.33109342568e-23)
(-0.197728876425 0.117913782488 1.00026247293e-21)
(-0.217351462754 0.142106763449 3.25794701594e-21)
(-0.239177155789 0.175419133541 -1.15494548627e-20)
(-0.270832804011 0.205987942106 -6.19197236696e-20)
(-0.299955092952 0.221588432182 -7.56592493112e-21)
(-0.84952133011 0.270998904662 -1.46535922038e-19)
(0.0846868655491 0.952361139579 -8.44428852768e-21)
(-0.163374025281 0.0545214160015 -1.66232234933e-24)
(-0.178931770665 0.065983460937 1.44888619829e-22)
(-0.197032668365 0.0800056155095 -1.62786427377e-22)
(-0.218069342491 0.0972873865854 5.79018941925e-22)
(-0.242653395769 0.11832628568 -1.83112171357e-21)
(-0.271068039307 0.146829348139 9.7867235745e-21)
(-0.311935159575 0.180861616442 1.2037611218e-21)
(-0.349305750525 0.188422404026 1.19783060198e-21)
(-1.18031763532 0.172575489052 4.82620318519e-22)
(-0.38568870726 0.917595004341 1.13042694905e-20)
(-0.172043550884 0.0390540787944 -3.97340704021e-23)
(-0.189641095736 0.0478327777696 1.14832225419e-22)
(-0.21038599346 0.0587024049899 -3.79109805688e-23)
(-0.234874144546 0.0722605674351 5.54628397355e-23)
(-0.263891527436 0.0888424766608 -1.04014829755e-21)
(-0.2979029938 0.111379084793 6.8988813474e-21)
(-0.343901594796 0.14386352557 -2.40627829751e-20)
(-0.392697068316 0.152646786247 -2.88400818738e-20)
(-1.27493093507 0.213561818211 -3.30521055706e-20)
(-1.91604889359 1.1629005733 3.04219779069e-19)
(-0.177909996054 0.0220177760863 -1.67425508811e-22)
(-0.197024248872 0.0275668886903 -1.07491986413e-23)
(-0.219819295806 0.0346185965513 -1.48123606641e-22)
(-0.246979016192 0.0435755855617 -1.31392789032e-22)
(-0.279595523532 0.0548048363682 -3.66876480945e-21)
(-0.317929336752 0.0699119799538 4.52514009476e-21)
(-0.369758736739 0.0990550098163 1.16664632602e-20)
(-0.415331118111 0.104349555613 4.07462867822e-21)
(-0.918509473581 0.202105024335 2.52119547208e-19)
(-5.53456278482 4.16802535863 -2.46034208737e-19)
)
;

boundaryField
{
    back
    {
        type            calculated;
        value           uniform (0 0 0);
    }
    sides
    {
        type            calculated;
        value           uniform (0 0 0);
    }
    bottom
    {
        type            calculated;
        value           nonuniform List<vector> 0();
    }
    front
    {
        type            calculated;
        value           uniform (0 0 0);
    }
    atmosphere
    {
        type            calculated;
        value           nonuniform List<vector> 
16
(
(0.437244886356 -0.788918069564 -1.65355566585e-21)
(-0.936858713622 0.418525914332 2.32790568212e-20)
(-0.0331823869437 0.360759054819 -2.95839965122e-21)
(-1.18900801536 0.30348112185 -2.83803830277e-19)
(0.281995613405 0.837623737592 1.37962131397e-20)
(0.408760557403 0.10748829544 -6.25254591646e-20)
(0.0867023289895 0.304785672752 -1.10369863077e-20)
(-0.940702252676 0.151191391574 4.52695566184e-20)
(4.24203164431 -1.00340371016 1.30964425095e-20)
(-0.0631434862805 3.22031869922 1.22378679045e-19)
(11.4800249748 -0.876809038472 -7.74718544611e-20)
(0.856070602994 0.633198272834 8.42982126665e-20)
(-1.43029190383 0.952361139579 -1.36104960396e-19)
(-0.687778175824 0.917595004341 2.40520153671e-19)
(1.67773369638 1.1629005733 1.27459746359e-18)
(-1.78851947434 4.16802535863 1.25805481506e-19)
)
;
    }
    floatingObject
    {
        type            calculated;
        value           nonuniform List<vector> 0();
    }
    procBoundary1to0
    {
        type            processor;
        value           nonuniform List<vector> 10((-0.180574058803 0.00393660804398 2.00494943397e-23) (-0.200572369254 0.00590236233426 1.72895636764e-22) (-0.224634038387 0.00864419624933 3.11430107563e-23) (-0.253525507754 0.0124412435692 -5.24234258572e-23) (-0.288417682661 0.0175171587406 -1.23214251329e-21) (-0.330385365962 0.0240032152462 -2.85640041946e-21) (-0.385603959589 0.04886816072 3.45037238276e-22) (-0.4446815042 0.0511632270904 -7.08430959962e-21) (-0.544534651624 -0.282371912783 2.63409455261e-19) (-1.60491418211 -9.39466817849 1.8932644694e-19));
    }
    procBoundary1to2
    {
        type            processor;
        value           nonuniform List<vector> 
18
(
(-0.00490983798182 0.0673808695363 -4.67642865419e-22)
(-0.0136706485192 0.068118105302 -2.00229807315e-22)
(-0.023099760074 0.0683138584982 -7.48423778848e-23)
(-0.0327557982899 0.0784807510541 -4.18160147043e-24)
(-0.0327557982899 0.0784807510541 -4.18160147043e-24)
(-0.0428254387302 0.0896837058492 3.09455983331e-23)
(-0.0428254387302 0.0896837058492 3.09455983331e-23)
(-0.0542088202463 0.090047523637 3.46996347896e-23)
(-0.0663510787328 0.089643724693 4.95503693063e-23)
(-0.0790606949703 0.0881553781456 2.92149456501e-23)
(-0.0921126341534 0.0852937440118 4.34038029604e-23)
(-0.105192631302 0.0808350327018 6.08675991096e-23)
(-0.117950240826 0.0746146711906 9.5326203143e-23)
(-0.129978793509 0.0665782096469 1.86319509271e-22)
(-0.140817323566 0.0566975539151 3.85331467887e-23)
(-0.150019856053 0.0450867543784 6.95637054711e-23)
(-0.157165459088 0.0319567346285 8.16014147971e-23)
(-0.161896366047 0.0176477679544 9.16240701384e-23)
)
;
    }
}


// ************************************************************************* //
