/*--------------------------------*- C++ -*----------------------------------*\
| =========                 |                                                 |
| \\      /  F ield         | OpenFOAM: The Open Source CFD Toolbox           |
|  \\    /   O peration     | Version:  v2012                                 |
|   \\  /    A nd           | Website:  www.openfoam.com                      |
|    \\/     M anipulation  |                                                 |
\*---------------------------------------------------------------------------*/
FoamFile
{
    version     2.0;
    format      ascii;
    class       volScalarField;
    location    "4.1";
    object      p;
}
// * * * * * * * * * * * * * * * * * * * * * * * * * * * * * * * * * * * * * //

dimensions      [1 -1 -2 0 0 0 0];


internalField   nonuniform List<scalar> 
167
(
4407.89473483
3914.34601217
3420.35652729
2925.9480553
2431.1587005
1936.05751275
1440.7466732
945.34574737
449.739860444
96.144199406
-9.05526993735
-9.54721314223
4408.3076967
3914.7516032
3420.74323092
2926.29833958
2431.44495696
1936.22907381
1440.70864545
944.935554277
448.764613962
95.326245565
-9.01330814206
-9.56635805048
4409.18260673
3915.61349199
3421.5738542
2927.0664444
2432.10566283
1936.71904649
1440.94989042
944.826370654
447.975738451
94.644512992
-8.98312470523
-9.57380713943
3916.94540001
3422.87156572
2928.29110911
2433.19898875
1937.60026512
1441.51233035
944.942047775
447.523919872
94.1071972404
-8.99141147875
-9.55488096628
3424.66898609
2930.02162183
2434.79688851
1938.97339652
1442.53600003
945.454339528
447.407132695
93.7163099777
-9.08185788496
-9.60197357291
3427.00973406
2932.32037572
2436.98727479
1940.96076633
1444.18475118
946.591568606
447.728557619
93.5251773628
-8.98344877355
-9.56581235998
3429.9356146
2935.25173525
2439.86428197
1943.69476403
1446.64597342
948.617355619
448.899180164
93.6758179918
-8.94939419319
-9.57884740945
3433.48354928
2938.87347715
2443.514004
1947.30139445
1450.10416928
951.790434408
451.424043232
94.536135885
-8.93359627521
-9.5912341075
3437.68081714
2943.23183835
2448.00640226
1951.88138296
1454.70156961
956.310313388
455.743393878
96.4003406985
-9.00587161885
-9.58949875338
3442.53983165
2948.35385856
2453.38762115
1957.50338664
1460.52939908
962.298158841
461.873162914
99.2241960486
-9.30011442099
-9.6971010404
3448.05546358
2954.24456797
2459.67659868
1964.20289014
1467.63472102
969.776417525
469.628628333
103.216779164
-8.94763007186
-9.62934125628
3454.20121993
2960.88328335
2466.8624316
1971.98656336
1476.05857913
978.869316867
479.419706058
108.375130433
-8.71244109718
-9.61975531324
3460.92672683
2968.21983931
2474.8974814
1980.81491642
1485.78147864
989.597607124
491.410912874
114.988562647
-8.44918741618
-9.61201816822
3468.15508993
2976.16950868
2483.68948925
1990.58845553
1496.69447815
1001.83160463
505.317072681
123.079637905
-7.91454380049
-9.58517722686
3475.78603223
2984.61676879
2493.10494256
2001.15417445
1508.62274662
1015.35170456
520.85227881
132.602862504
-6.98942880703
-9.564492475
3483.70074257
2993.41843359
2502.97299975
2012.30496604
1521.32240375
1029.91366332
537.742926755
143.510656243
-5.57977075675
-9.48210899039
)
;

boundaryField
{
    back
    {
        type            calculated;
        value           nonuniform List<scalar> 
167
(
4407.89473483
3914.34601217
3420.35652729
2925.9480553
2431.1587005
1936.05751275
1440.7466732
945.34574737
449.739860444
96.144199406
-9.05526993735
-9.54721314223
4408.3076967
3914.7516032
3420.74323092
2926.29833958
2431.44495696
1936.22907381
1440.70864545
944.935554277
448.764613962
95.326245565
-9.01330814206
-9.56635805048
4409.18260673
3915.61349199
3421.5738542
2927.0664444
2432.10566283
1936.71904649
1440.94989042
944.826370654
447.975738451
94.644512992
-8.98312470523
-9.57380713943
3916.94540001
3422.87156572
2928.29110911
2433.19898875
1937.60026512
1441.51233035
944.942047775
447.523919872
94.1071972404
-8.99141147875
-9.55488096628
3424.66898609
2930.02162183
2434.79688851
1938.97339652
1442.53600003
945.454339528
447.407132695
93.7163099777
-9.08185788496
-9.60197357291
3427.00973406
2932.32037572
2436.98727479
1940.96076633
1444.18475118
946.591568606
447.728557619
93.5251773628
-8.98344877355
-9.56581235998
3429.9356146
2935.25173525
2439.86428197
1943.69476403
1446.64597342
948.617355619
448.899180164
93.6758179918
-8.94939419319
-9.57884740945
3433.48354928
2938.87347715
2443.514004
1947.30139445
1450.10416928
951.790434408
451.424043232
94.536135885
-8.93359627521
-9.5912341075
3437.68081714
2943.23183835
2448.00640226
1951.88138296
1454.70156961
956.310313388
455.743393878
96.4003406985
-9.00587161885
-9.58949875338
3442.53983165
2948.35385856
2453.38762115
1957.50338664
1460.52939908
962.298158841
461.873162914
99.2241960486
-9.30011442099
-9.6971010404
3448.05546358
2954.24456797
2459.67659868
1964.20289014
1467.63472102
969.776417525
469.628628333
103.216779164
-8.94763007186
-9.62934125628
3454.20121993
2960.88328335
2466.8624316
1971.98656336
1476.05857913
978.869316867
479.419706058
108.375130433
-8.71244109718
-9.61975531324
3460.92672683
2968.21983931
2474.8974814
1980.81491642
1485.78147864
989.597607124
491.410912874
114.988562647
-8.44918741618
-9.61201816822
3468.15508993
2976.16950868
2483.68948925
1990.58845553
1496.69447815
1001.83160463
505.317072681
123.079637905
-7.91454380049
-9.58517722686
3475.78603223
2984.61676879
2493.10494256
2001.15417445
1508.62274662
1015.35170456
520.85227881
132.602862504
-6.98942880703
-9.564492475
3483.70074257
2993.41843359
2502.97299975
2012.30496604
1521.32240375
1029.91366332
537.742926755
143.510656243
-5.57977075675
-9.48210899039
)
;
    }
    sides
    {
        type            calculated;
        value           nonuniform List<scalar> 
12
(
4407.89473483
3914.34601217
3420.35652729
2925.9480553
2431.1587005
1936.05751275
1440.7466732
945.34574737
449.739860444
96.144199406
-9.05526993735
-9.54721314223
)
;
    }
    bottom
    {
        type            calculated;
        value           nonuniform List<scalar> 0();
    }
    front
    {
        type            calculated;
        value           nonuniform List<scalar> 
167
(
4407.89473483
3914.34601217
3420.35652729
2925.9480553
2431.1587005
1936.05751275
1440.7466732
945.34574737
449.739860444
96.144199406
-9.05526993735
-9.54721314223
4408.3076967
3914.7516032
3420.74323092
2926.29833958
2431.44495696
1936.22907381
1440.70864545
944.935554277
448.764613962
95.326245565
-9.01330814206
-9.56635805048
4409.18260673
3915.61349199
3421.5738542
2927.0664444
2432.10566283
1936.71904649
1440.94989042
944.826370654
447.975738451
94.644512992
-8.98312470523
-9.57380713943
3916.94540001
3422.87156572
2928.29110911
2433.19898875
1937.60026512
1441.51233035
944.942047775
447.523919872
94.1071972404
-8.99141147875
-9.55488096628
3424.66898609
2930.02162183
2434.79688851
1938.97339652
1442.53600003
945.454339528
447.407132695
93.7163099777
-9.08185788496
-9.60197357291
3427.00973406
2932.32037572
2436.98727479
1940.96076633
1444.18475118
946.591568606
447.728557619
93.5251773628
-8.98344877355
-9.56581235998
3429.9356146
2935.25173525
2439.86428197
1943.69476403
1446.64597342
948.617355619
448.899180164
93.6758179918
-8.94939419319
-9.57884740945
3433.48354928
2938.87347715
2443.514004
1947.30139445
1450.10416928
951.790434408
451.424043232
94.536135885
-8.93359627521
-9.5912341075
3437.68081714
2943.23183835
2448.00640226
1951.88138296
1454.70156961
956.310313388
455.743393878
96.4003406985
-9.00587161885
-9.58949875338
3442.53983165
2948.35385856
2453.38762115
1957.50338664
1460.52939908
962.298158841
461.873162914
99.2241960486
-9.30011442099
-9.6971010404
3448.05546358
2954.24456797
2459.67659868
1964.20289014
1467.63472102
969.776417525
469.628628333
103.216779164
-8.94763007186
-9.62934125628
3454.20121993
2960.88328335
2466.8624316
1971.98656336
1476.05857913
978.869316867
479.419706058
108.375130433
-8.71244109718
-9.61975531324
3460.92672683
2968.21983931
2474.8974814
1980.81491642
1485.78147864
989.597607124
491.410912874
114.988562647
-8.44918741618
-9.61201816822
3468.15508993
2976.16950868
2483.68948925
1990.58845553
1496.69447815
1001.83160463
505.317072681
123.079637905
-7.91454380049
-9.58517722686
3475.78603223
2984.61676879
2493.10494256
2001.15417445
1508.62274662
1015.35170456
520.85227881
132.602862504
-6.98942880703
-9.564492475
3483.70074257
2993.41843359
2502.97299975
2012.30496604
1521.32240375
1029.91366332
537.742926755
143.510656243
-5.57977075675
-9.48210899039
)
;
    }
    atmosphere
    {
        type            calculated;
        value           nonuniform List<scalar> 
16
(
-9.8137631061
-9.81065673579
-9.81055916857
-9.81018636344
-9.90606069585
-9.81
-9.81016854283
-9.81046723766
-9.81005810137
-10.2584974003
-9.86168091293
-9.81006735973
-9.86168091293
-9.81
-9.81023950106
-9.81011361651
)
;
    }
    floatingObject
    {
        type            calculated;
        value           nonuniform List<scalar> 0();
    }
    procBoundary1to0
    {
        type            processor;
        value           nonuniform List<scalar> 10(3491.75191294 3002.4006619 2513.08014796 2023.77848446 1534.46208841 1045.11502298 555.674321472 156.394829093 -3.13479120401 -9.41329377254);
    }
    procBoundary1to2
    {
        type            processor;
        value           nonuniform List<scalar> 
18
(
4900.99675251
4901.41104569
4902.2831201
4410.52014673
4410.52014673
3918.76489031
3918.76489031
3921.10472018
3923.98684108
3927.4337829
3931.45852732
3936.06319441
3941.2347414
3946.94329153
3953.13894637
3959.75271843
3966.69744557
3973.86778771
)
;
    }
}


// ************************************************************************* //
