/*--------------------------------*- C++ -*----------------------------------*\
| =========                 |                                                 |
| \\      /  F ield         | OpenFOAM: The Open Source CFD Toolbox           |
|  \\    /   O peration     | Version:  v2012                                 |
|   \\  /    A nd           | Website:  www.openfoam.com                      |
|    \\/     M anipulation  |                                                 |
\*---------------------------------------------------------------------------*/
FoamFile
{
    version     2.0;
    format      ascii;
    class       volScalarField;
    location    "0.6";
    object      nut;
}
// * * * * * * * * * * * * * * * * * * * * * * * * * * * * * * * * * * * * * //

dimensions      [0 2 -1 0 0 0 0];


internalField   nonuniform List<scalar> 
164
(
0.00198553136733
0.00198624533968
0.00198702704131
0.00198787930798
0.00198885774064
0.00199035535857
0.00199451810257
0.00201067484941
0.00206972014942
0.00224123685801
0.00260816311439
0.00319292640009
0.00198680159161
0.0019875899572
0.00198845499456
0.00198940040271
0.00199048725691
0.00199214087378
0.00199665370211
0.00201382056905
0.00207533530722
0.00225037465645
0.0026174075478
0.00319392709869
0.00198991711699
0.00199097181883
0.00199218440539
0.00199401046531
0.00199888051756
0.00201702420531
0.00208084488322
0.00225884375616
0.0026233215406
0.00317847070061
0.00199140811896
0.00199259016733
0.00199394741044
0.00199596161407
0.00200118506231
0.00202023142482
0.00208608848784
0.00226619041734
0.00262683269873
0.00317711953214
0.00199292144252
0.00199425078002
0.00199577322862
0.00199798991731
0.00200354836845
0.00202336798568
0.00209084363019
0.00227214173791
0.00262986185518
0.00318253870606
0.00199444902991
0.00199594763874
0.00199765751782
0.00200008917635
0.00200594649501
0.00202634337787
0.00209485648828
0.00227626344216
0.00263075296295
0.00318399948625
0.00199598116325
0.00199767315651
0.00199959447342
0.00200225161049
0.00200835193419
0.00202905525465
0.00209785770854
0.00227819296654
0.0026290729065
0.00318274644338
0.00199750615834
0.00199941789056
0.00200157668135
0.0020044684026
0.0020107364378
0.00203139467268
0.00209953396645
0.00227730190372
0.00262357369161
0.00317927213933
0.00199900450256
0.00200116500047
0.00200359463677
0.00200673057752
0.00201307770519
0.00203327649911
0.00209961789851
0.00227306118727
0.00261321584585
0.00317334809274
0.00200047410864
0.00200290854367
0.00200562731388
0.00200901604688
0.00201535314143
0.00203464785006
0.00209783425538
0.00226482316551
0.00259672420819
0.00316464412258
0.00200189602422
0.00200463911877
0.00200769172212
0.00201139120536
0.00201770169208
0.00203546549847
0.00209392282956
0.00225224121412
0.00257308701005
0.00315310561363
0.00200325510432
0.00200634096212
0.00200976442777
0.00201381817888
0.00202021921875
0.00203687953365
0.00208998638452
0.00223451993574
0.002539465936
0.00313695928481
0.00200453621132
0.00200800027872
0.00201183239336
0.00201628470204
0.00202283819565
0.00203841768585
0.00208652394009
0.00221788837316
0.0024961645267
0.00298620355654
0.00200572620993
0.00200960546367
0.00201388239058
0.00201877198668
0.00202553001043
0.0020400989483
0.00208314804892
0.00220010559782
0.00245008738533
0.00293036733626
0.00200681652679
0.00201114998933
0.00201590830416
0.0020212734823
0.00202829190103
0.00204195059462
0.00208003009659
0.00218227223561
0.00240278415524
0.00279010974764
0.00200780747637
0.00201263652235
0.00201791102346
0.0020237819336
0.00203110495013
0.00204395765725
0.0020773690557
0.0021659817606
0.0023784551606
0.00303505677148
)
;

boundaryField
{
    back
    {
        type            nutkWallFunction;
        blending        stepwise;
        Cmu             0.09;
        kappa           0.41;
        E               9.8;
        value           nonuniform List<scalar> 
164
(
0.00018778840336
0.000187843267547
0.000187903163945
0.000187968108882
0.000188041322052
0.000188147436652
0.000188427518973
0.000189526028348
0.000193707286424
0.00020648711942
0.000235334233596
0.00029157406588
0.000187892406985
0.000187953296803
0.00018801992312
0.000188092356385
0.000188174193673
0.000188292431049
0.000188599472945
0.000189778657488
0.000194171583994
0.000207292657969
0.000236270094899
0.000300733145552
0.000188140062957
0.000188221340938
0.000188313288735
0.000188445230059
0.000188780784151
0.000190041376495
0.000194641787206
0.000208081696543
0.000237096720344
0.000358506369659
0.000188263207716
0.000188354865916
0.000188458576823
0.000188605840296
0.000188970884669
0.000190311145472
0.000195108298602
0.000208824895834
0.000237755458182
0.000358055351945
0.00018838889405
0.000188492641732
0.00018860994111
0.000188774141699
0.000189168817775
0.000190583558982
0.000195557251342
0.000209492746098
0.000238292848096
0.000358064876996
0.000188516531064
0.000188634270951
0.000188767164061
0.000188949871111
0.00018937320463
0.000190852774773
0.0001959710804
0.000210052041863
0.000238694194239
0.000358161235888
0.000188645387364
0.000188779225235
0.000188929903991
0.000189132607978
0.000189582243571
0.000191111439916
0.000196328527623
0.000210468941557
0.000238933905844
0.000358221636457
0.000188774567279
0.000188926819459
0.000189097672798
0.000189321783054
0.000189793821777
0.000191350960681
0.000196604487076
0.000210697854737
0.000238939019741
0.000358122840881
0.000188902736588
0.000189076039398
0.0001892698009
0.000189516721405
0.000190005873971
0.000191563077822
0.000196774556886
0.000210694710334
0.000238629016969
0.000357807306356
0.00018902897154
0.000189225603015
0.000189444772207
0.000189716109522
0.000190216419253
0.000191740310448
0.000196810377985
0.000210399839639
0.00023789538331
0.000357226712608
0.000189152240312
0.000189375149053
0.000189622944033
0.000189921561939
0.000190427775276
0.000191874670813
0.000196687746916
0.000209763440025
0.000236618346839
0.000356336683979
0.000189271217472
0.000189523421098
0.000189803212181
0.000190133315435
0.00019065171673
0.00019201556621
0.000196450642592
0.000208717434513
0.000234662749229
0.000355047396411
0.000189384606209
0.000189669239905
0.000189984430105
0.00019034999909
0.000190885894727
0.000192172001014
0.000196226860278
0.000207477082094
0.000231719327844
0.000347634031214
0.000189491245806
0.000189811558661
0.000190165381413
0.000190569919074
0.000191127836453
0.000192341385311
0.000196003439593
0.000206127961792
0.000228220278532
0.000337984327518
0.000189590310722
0.000189949700723
0.000190345378973
0.000190792261396
0.000191376849317
0.00019252474294
0.000195791660808
0.000204723074443
0.000224394655248
0.000312733000096
0.000189681712419
0.000190083681937
0.000190524184095
0.00019101589776
0.000191630334791
0.000192718838049
0.000195605242145
0.00020337173488
0.000221718806113
0.000303743809574
)
;
    }
    sides
    {
        type            nutkWallFunction;
        blending        stepwise;
        Cmu             0.09;
        kappa           0.41;
        E               9.8;
        value           nonuniform List<scalar> 0();
    }
    bottom
    {
        type            nutkWallFunction;
        blending        stepwise;
        Cmu             0.09;
        kappa           0.41;
        E               9.8;
        value           nonuniform List<scalar> 0();
    }
    front
    {
        type            nutkWallFunction;
        blending        stepwise;
        Cmu             0.09;
        kappa           0.41;
        E               9.8;
        value           nonuniform List<scalar> 
164
(
0.00018778840336
0.000187843267547
0.000187903163945
0.000187968108882
0.000188041322052
0.000188147436652
0.000188427518973
0.000189526028348
0.000193707286424
0.00020648711942
0.000235334233596
0.00029157406588
0.000187892406985
0.000187953296803
0.00018801992312
0.000188092356385
0.000188174193673
0.000188292431049
0.000188599472945
0.000189778657488
0.000194171583994
0.000207292657969
0.000236270094899
0.000300733145552
0.000188140062957
0.000188221340938
0.000188313288735
0.000188445230059
0.000188780784151
0.000190041376495
0.000194641787206
0.000208081696543
0.000237096720344
0.000358506369659
0.000188263207716
0.000188354865916
0.000188458576823
0.000188605840296
0.000188970884669
0.000190311145472
0.000195108298602
0.000208824895834
0.000237755458182
0.000358055351945
0.00018838889405
0.000188492641732
0.00018860994111
0.000188774141699
0.000189168817775
0.000190583558982
0.000195557251342
0.000209492746098
0.000238292848096
0.000358064876996
0.000188516531064
0.000188634270951
0.000188767164061
0.000188949871111
0.00018937320463
0.000190852774773
0.0001959710804
0.000210052041863
0.000238694194239
0.000358161235888
0.000188645387364
0.000188779225235
0.000188929903991
0.000189132607978
0.000189582243571
0.000191111439916
0.000196328527623
0.000210468941557
0.000238933905844
0.000358221636457
0.000188774567279
0.000188926819459
0.000189097672798
0.000189321783054
0.000189793821777
0.000191350960681
0.000196604487076
0.000210697854737
0.000238939019741
0.000358122840881
0.000188902736588
0.000189076039398
0.0001892698009
0.000189516721405
0.000190005873971
0.000191563077822
0.000196774556886
0.000210694710334
0.000238629016969
0.000357807306356
0.00018902897154
0.000189225603015
0.000189444772207
0.000189716109522
0.000190216419253
0.000191740310448
0.000196810377985
0.000210399839639
0.00023789538331
0.000357226712608
0.000189152240312
0.000189375149053
0.000189622944033
0.000189921561939
0.000190427775276
0.000191874670813
0.000196687746916
0.000209763440025
0.000236618346839
0.000356336683979
0.000189271217472
0.000189523421098
0.000189803212181
0.000190133315435
0.00019065171673
0.00019201556621
0.000196450642592
0.000208717434513
0.000234662749229
0.000355047396411
0.000189384606209
0.000189669239905
0.000189984430105
0.00019034999909
0.000190885894727
0.000192172001014
0.000196226860278
0.000207477082094
0.000231719327844
0.000347634031214
0.000189491245806
0.000189811558661
0.000190165381413
0.000190569919074
0.000191127836453
0.000192341385311
0.000196003439593
0.000206127961792
0.000228220278532
0.000337984327518
0.000189590310722
0.000189949700723
0.000190345378973
0.000190792261396
0.000191376849317
0.00019252474294
0.000195791660808
0.000204723074443
0.000224394655248
0.000312733000096
0.000189681712419
0.000190083681937
0.000190524184095
0.00019101589776
0.000191630334791
0.000192718838049
0.000195605242145
0.00020337173488
0.000221718806113
0.000303743809574
)
;
    }
    atmosphere
    {
        type            calculated;
        value           nonuniform List<scalar> 
16
(
0.009
0.009
0.009
0.009
0.009
0.009
0.009
0.009
0.009
0.009
0.009
0.009
0.009
0.009
0.00279010974764
0.009
)
;
    }
    floatingObject
    {
        type            nutkWallFunction;
        blending        stepwise;
        Cmu             0.09;
        kappa           0.41;
        E               9.8;
        value           nonuniform List<scalar> 0();
    }
    procBoundary5to0
    {
        type            processor;
        value           nonuniform List<scalar> 
12
(
0.00198427413006
0.00198492534644
0.00198563661077
0.00198640999476
0.00198729555965
0.00198865369434
0.00199248182534
0.0020076291852
0.00206413160297
0.00223186727951
0.00259790629709
0.00318858353941
)
;
    }
    procBoundary5to3
    {
        type            processor;
        value           nonuniform List<scalar> 10(0.00200871302588 0.00201408183332 0.00201990644977 0.00202631023403 0.00203398387236 0.00204616951506 0.00207535366758 0.00215141163051 0.00236150007505 0.00320528129567);
    }
    procBoundary5to4
    {
        type            processor;
        value           nonuniform List<scalar> 
18
(
0.00198488832001
0.00198609299819
0.00198807849033
0.00198895418599
0.00198895418599
0.00199033087642
0.00199171187101
0.00199308725942
0.00199444536303
0.00199577249381
0.00199704962286
0.00199826997522
0.00199941332072
0.00200046194477
0.00200139864093
0.0020022073677
0.00200287556469
0.00200339878199
)
;
    }
}


// ************************************************************************* //
