/*--------------------------------*- C++ -*----------------------------------*\
| =========                 |                                                 |
| \\      /  F ield         | OpenFOAM: The Open Source CFD Toolbox           |
|  \\    /   O peration     | Version:  v2012                                 |
|   \\  /    A nd           | Website:  www.openfoam.com                      |
|    \\/     M anipulation  |                                                 |
\*---------------------------------------------------------------------------*/
FoamFile
{
    version     2.0;
    format      ascii;
    class       volScalarField;
    location    "0.6";
    object      p_rgh;
}
// * * * * * * * * * * * * * * * * * * * * * * * * * * * * * * * * * * * * * //

dimensions      [1 -1 -2 0 0 0 0];


internalField   nonuniform List<scalar> 
164
(
9249.88622696
9246.91102029
9243.57643451
9239.88956359
9235.86901511
9231.55400285
9226.99124883
9222.20662885
9217.39151633
9213.0702925
7461.86989442
293.94477289
9238.56695061
9234.81223947
9230.56000312
9225.79982087
9220.53073908
9214.77030872
9208.54162437
9201.85432365
9194.86305253
9187.94896713
7085.14334927
122.825004603
9217.90819612
9212.04755763
9205.48456078
9198.20829791
9190.21250221
9181.49569674
9172.14350284
9161.9027317
6649.87698698
0.420223882077
9205.77983314
9198.81183225
9190.93144538
9182.09094363
9172.24554359
9161.36563164
9149.39823105
9136.02252864
6111.19603346
-0.0152023371769
9194.34243517
9186.28549845
9177.09323606
9166.67226648
9154.92672738
9141.76895052
9126.96474639
9110.01654761
5560.37837883
-0.157901671566
9183.76787037
9174.67100371
9164.20926216
9152.23617679
9138.59311255
9123.10428138
9105.3157446
9075.70132879
5023.49657275
-0.202637273035
9174.22642668
9164.17352381
9152.52833605
9139.0871811
9123.62387156
9105.86806011
9085.13982905
9027.22790357
4524.60723838
-0.198680797816
9165.87916661
9154.99154958
9142.29609512
9127.529738
9110.40018388
9090.56052718
9067.10385754
8966.53236446
4075.4020133
-0.179183859423
9158.86892673
9147.30634254
9133.74253622
9117.85036498
9099.26915957
9077.63530045
9052.01181138
8899.41649202
3689.06814031
-0.159218427593
9153.31024115
9141.27018761
9127.07262188
9110.31334104
9090.51357235
9067.31501228
9040.97748115
8835.76101484
3381.19366546
-0.145873587593
9149.27640044
9136.99193517
9122.45614065
9105.18524233
9084.44914837
9059.11783475
9035.23699164
8787.42466414
3163.96823281
-0.151140862165
9146.78443946
9134.51079892
9119.99412972
9102.77219578
9082.20556326
9057.47127591
9028.40584564
8768.78782618
3035.14991243
-0.201433004261
9145.78108211
9133.75719541
9119.58898022
9102.88464819
9083.08977611
9059.25302302
9030.35728954
8817.61340742
3060.94050236
-0.359842710697
9146.14446246
9134.56122532
9120.99497739
9105.17047708
9086.74674731
9065.0920054
9040.05369612
8953.71817587
3290.06706459
-1.17738478208
9147.69935523
9136.678614
9123.85253871
9109.08207741
9092.3294829
9073.53322008
9053.78685056
9030.37768672
3899.34446184
1.99713547124
9150.23726236
9139.83238552
9127.75688528
9113.95512204
9098.64377654
9082.29727588
9067.2394513
9055.49439181
4781.71902137
37.3311955008
)
;

boundaryField
{
    back
    {
        type            fixedFluxPressure;
        gradient        uniform 0;
        value           nonuniform List<scalar> 
164
(
9249.88622696
9246.91102029
9243.57643451
9239.88956359
9235.86901511
9231.55400285
9226.99124883
9222.20662885
9217.39151633
9213.0702925
7461.86989442
293.94477289
9238.56695061
9234.81223947
9230.56000312
9225.79982087
9220.53073908
9214.77030872
9208.54162437
9201.85432365
9194.86305253
9187.94896713
7085.14334927
122.825004603
9217.90819612
9212.04755763
9205.48456078
9198.20829791
9190.21250221
9181.49569674
9172.14350284
9161.9027317
6649.87698698
0.420223882077
9205.77983314
9198.81183225
9190.93144538
9182.09094363
9172.24554359
9161.36563164
9149.39823105
9136.02252864
6111.19603346
-0.0152023371769
9194.34243517
9186.28549845
9177.09323606
9166.67226648
9154.92672738
9141.76895052
9126.96474639
9110.01654761
5560.37837883
-0.157901671566
9183.76787037
9174.67100371
9164.20926216
9152.23617679
9138.59311255
9123.10428138
9105.3157446
9075.70132879
5023.49657275
-0.202637273035
9174.22642668
9164.17352381
9152.52833605
9139.0871811
9123.62387156
9105.86806011
9085.13982905
9027.22790357
4524.60723838
-0.198680797816
9165.87916661
9154.99154958
9142.29609512
9127.529738
9110.40018388
9090.56052718
9067.10385754
8966.53236446
4075.4020133
-0.179183859423
9158.86892673
9147.30634254
9133.74253622
9117.85036498
9099.26915957
9077.63530045
9052.01181138
8899.41649202
3689.06814031
-0.159218427593
9153.31024115
9141.27018761
9127.07262188
9110.31334104
9090.51357235
9067.31501228
9040.97748115
8835.76101484
3381.19366546
-0.145873587593
9149.27640044
9136.99193517
9122.45614065
9105.18524233
9084.44914837
9059.11783475
9035.23699164
8787.42466414
3163.96823281
-0.151140862165
9146.78443946
9134.51079892
9119.99412972
9102.77219578
9082.20556326
9057.47127591
9028.40584564
8768.78782618
3035.14991243
-0.201433004261
9145.78108211
9133.75719541
9119.58898022
9102.88464819
9083.08977611
9059.25302302
9030.35728954
8817.61340742
3060.94050236
-0.359842710697
9146.14446246
9134.56122532
9120.99497739
9105.17047708
9086.74674731
9065.0920054
9040.05369612
8953.71817587
3290.06706459
-1.17738478208
9147.69935523
9136.678614
9123.85253871
9109.08207741
9092.3294829
9073.53322008
9053.78685056
9030.37768672
3899.34446184
1.99713547124
9150.23726236
9139.83238552
9127.75688528
9113.95512204
9098.64377654
9082.29727588
9067.2394513
9055.49439181
4781.71902137
37.3311955008
)
;
    }
    sides
    {
        type            fixedFluxPressure;
        gradient        nonuniform List<scalar> 0();
        value           nonuniform List<scalar> 0();
    }
    bottom
    {
        type            fixedFluxPressure;
        gradient        nonuniform List<scalar> 0();
        value           nonuniform List<scalar> 0();
    }
    front
    {
        type            fixedFluxPressure;
        gradient        uniform 0;
        value           nonuniform List<scalar> 
164
(
9249.88622696
9246.91102029
9243.57643451
9239.88956359
9235.86901511
9231.55400285
9226.99124883
9222.20662885
9217.39151633
9213.0702925
7461.86989442
293.94477289
9238.56695061
9234.81223947
9230.56000312
9225.79982087
9220.53073908
9214.77030872
9208.54162437
9201.85432365
9194.86305253
9187.94896713
7085.14334927
122.825004603
9217.90819612
9212.04755763
9205.48456078
9198.20829791
9190.21250221
9181.49569674
9172.14350284
9161.9027317
6649.87698698
0.420223882077
9205.77983314
9198.81183225
9190.93144538
9182.09094363
9172.24554359
9161.36563164
9149.39823105
9136.02252864
6111.19603346
-0.0152023371769
9194.34243517
9186.28549845
9177.09323606
9166.67226648
9154.92672738
9141.76895052
9126.96474639
9110.01654761
5560.37837883
-0.157901671566
9183.76787037
9174.67100371
9164.20926216
9152.23617679
9138.59311255
9123.10428138
9105.3157446
9075.70132879
5023.49657275
-0.202637273035
9174.22642668
9164.17352381
9152.52833605
9139.0871811
9123.62387156
9105.86806011
9085.13982905
9027.22790357
4524.60723838
-0.198680797816
9165.87916661
9154.99154958
9142.29609512
9127.529738
9110.40018388
9090.56052718
9067.10385754
8966.53236446
4075.4020133
-0.179183859423
9158.86892673
9147.30634254
9133.74253622
9117.85036498
9099.26915957
9077.63530045
9052.01181138
8899.41649202
3689.06814031
-0.159218427593
9153.31024115
9141.27018761
9127.07262188
9110.31334104
9090.51357235
9067.31501228
9040.97748115
8835.76101484
3381.19366546
-0.145873587593
9149.27640044
9136.99193517
9122.45614065
9105.18524233
9084.44914837
9059.11783475
9035.23699164
8787.42466414
3163.96823281
-0.151140862165
9146.78443946
9134.51079892
9119.99412972
9102.77219578
9082.20556326
9057.47127591
9028.40584564
8768.78782618
3035.14991243
-0.201433004261
9145.78108211
9133.75719541
9119.58898022
9102.88464819
9083.08977611
9059.25302302
9030.35728954
8817.61340742
3060.94050236
-0.359842710697
9146.14446246
9134.56122532
9120.99497739
9105.17047708
9086.74674731
9065.0920054
9040.05369612
8953.71817587
3290.06706459
-1.17738478208
9147.69935523
9136.678614
9123.85253871
9109.08207741
9092.3294829
9073.53322008
9053.78685056
9030.37768672
3899.34446184
1.99713547124
9150.23726236
9139.83238552
9127.75688528
9113.95512204
9098.64377654
9082.29727588
9067.2394513
9055.49439181
4781.71902137
37.3311955008
)
;
    }
    atmosphere
    {
        type            totalPressure;
        rho             rho;
        psi             none;
        gamma           1;
        p0              uniform 0;
        value           nonuniform List<scalar> 
16
(
-0.0148104909002
-0.0137357529212
-0.00739905655765
-0.00732579541646
-0.00865103754853
-0.00848523363609
-0.0074432389045
-0.00589180977924
-0.00408672943292
-0.00228831048159
-0.000857429485676
-6.50510216732e-05
0
0
0
-0.000412250786025
)
;
    }
    floatingObject
    {
        type            fixedFluxPressure;
        gradient        nonuniform List<scalar> 0();
        value           nonuniform List<scalar> 0();
    }
    procBoundary5to0
    {
        type            processor;
        value           nonuniform List<scalar> 
12
(
9261.46907745
9259.25510374
9256.80951598
9254.15306574
9251.31920757
9248.36299867
9245.34924557
9242.31519381
9239.4495189
9237.32825576
7799.06178162
488.020620019
)
;
    }
    procBoundary5to3
    {
        type            processor;
        value           nonuniform List<scalar> 10(9153.53680285 9143.75856133 9132.35775143 9119.22387843 9104.5850373 9088.96934026 9075.11076751 9067.34731989 5536.34402322 68.7696836322);
    }
    procBoundary5to4
    {
        type            processor;
        value           nonuniform List<scalar> 
18
(
9252.50321813
9241.84097271
9227.63196001
9223.09216372
9223.09216372
9211.89174468
9201.35686637
9191.63416405
9182.86598629
9175.18410019
9168.70239505
9163.50882517
9159.65601339
9157.15199939
9155.9547215
9155.97314583
9157.07350773
9159.09206166
)
;
    }
}


// ************************************************************************* //
