/*--------------------------------*- C++ -*----------------------------------*\
| =========                 |                                                 |
| \\      /  F ield         | OpenFOAM: The Open Source CFD Toolbox           |
|  \\    /   O peration     | Version:  v2012                                 |
|   \\  /    A nd           | Website:  www.openfoam.com                      |
|    \\/     M anipulation  |                                                 |
\*---------------------------------------------------------------------------*/
FoamFile
{
    version     2.0;
    format      ascii;
    class       volVectorField;
    location    "0.6";
    object      U_0;
}
// * * * * * * * * * * * * * * * * * * * * * * * * * * * * * * * * * * * * * //

dimensions      [0 1 -1 0 0 0 0];


internalField   nonuniform List<vector> 
164
(
(0.148232927154 -0.038321180235 -1.61883942214e-23)
(0.151276263482 -0.0446825184033 1.12105513244e-24)
(0.154464919876 -0.0516720096463 2.20780887627e-23)
(0.157723495191 -0.0593607489084 3.00411119395e-25)
(0.160961169166 -0.0678204785053 6.18374157741e-23)
(0.164068383818 -0.0770943823191 1.60595874369e-23)
(0.166921261338 -0.0872067063496 1.13617501238e-22)
(0.169337591382 -0.0984779674557 2.70187392595e-22)
(0.170990685993 -0.110977269928 -1.27194072289e-21)
(0.171339117912 -0.122643945918 -4.56841229381e-21)
(0.169033069294 -0.134684476811 -5.68561619808e-21)
(0.237184378072 -0.172985980131 -6.17575554618e-21)
(0.154190631243 -0.0351038339717 -2.40467691461e-23)
(0.157853862203 -0.0412530843785 -2.07824182715e-23)
(0.161738928165 -0.0480999616529 3.04458283051e-23)
(0.16577020066 -0.0557302927576 -5.19428022799e-23)
(0.169854783563 -0.0642326048806 5.12741206282e-23)
(0.173878612068 -0.073666437553 -1.56574054897e-23)
(0.17771331866 -0.0840846212716 7.42481392563e-23)
(0.181164743774 -0.0958514259844 4.01321262505e-22)
(0.183892258183 -0.108945174185 -9.66395991297e-22)
(0.185435723064 -0.121536192773 -6.72808520191e-21)
(0.184750901135 -0.136606948134 -2.09090774018e-20)
(0.268641333129 -0.172817776439 -2.71721006499e-20)
(0.168871596689 -0.0437508448261 -1.89784506644e-24)
(0.17376730748 -0.0512391492799 -6.0154909995e-23)
(0.178809272812 -0.0597021801002 3.33984704166e-24)
(0.18388194845 -0.0692192387953 -3.6321648119e-23)
(0.188855105374 -0.0798772719387 4.12736857732e-23)
(0.193520958158 -0.0920718505303 2.30332859872e-22)
(0.197544890631 -0.10568958814 -1.64612609836e-22)
(0.200650270261 -0.119510463942 -7.82367316596e-21)
(0.20135272721 -0.137730452122 -4.1064321088e-20)
(0.293449875587 -0.150173801315 -2.94955818817e-20)
(0.175772159718 -0.0385406094575 1.39969028077e-23)
(0.181623443392 -0.0457848808641 -1.52240766487e-22)
(0.187734844286 -0.0541052450495 3.14867073096e-23)
(0.19399370829 -0.0636049373248 1.12013020794e-23)
(0.200271731174 -0.0744119253219 2.79659858229e-22)
(0.206348304293 -0.0869292166653 2.05344413018e-22)
(0.211940018932 -0.10095221564 9.40525892177e-22)
(0.216870217185 -0.116788418243 -3.24201043352e-21)
(0.216831846813 -0.136720199869 -2.1661274757e-20)
(0.256976533279 -0.111092227833 -2.20754186141e-20)
(0.182332827364 -0.0323877816794 3.88568592513e-23)
(0.189226853184 -0.0392660138602 -9.74804767132e-23)
(0.196517497006 -0.0473160248329 1.22103076914e-22)
(0.204100768921 -0.0566687313926 -9.43985315326e-23)
(0.211855777221 -0.0674952733765 5.20456119471e-22)
(0.219560033462 -0.0801740259493 8.10986025455e-22)
(0.22704156036 -0.0945356673578 -9.88576313983e-22)
(0.233883264748 -0.11266957159 -7.69218434232e-21)
(0.232528347883 -0.134250801239 -1.80552721383e-20)
(0.238426972729 -0.130298640849 -1.73451485798e-20)
(0.188427976708 -0.025217003248 1.65350206646e-24)
(0.196443824651 -0.0315863389125 -1.25981155018e-22)
(0.20501605578 -0.0392121886904 2.50293411465e-22)
(0.214055866578 -0.0482551706646 -1.04285094117e-22)
(0.223456036319 -0.0589251389549 5.41816456211e-22)
(0.233011186227 -0.0715479430485 3.33797052132e-22)
(0.24270662017 -0.0861168216408 -2.04318799605e-21)
(0.251568093603 -0.106576574606 -9.57356762085e-21)
(0.249830642246 -0.129751918776 -1.50949630301e-20)
(0.23935656499 -0.133158574433 -1.4529245992e-20)
(0.193914107545 -0.0169631542732 -9.06630499344e-23)
(0.203118108042 -0.0226601371643 -1.43408299153e-22)
(0.213060731909 -0.0296817114205 -2.98597120104e-22)
(0.223674985584 -0.0382180881659 -3.33757098752e-22)
(0.234873621476 -0.0485082307396 -5.94676969964e-22)
(0.246491818071 -0.0608070926655 -3.90562946475e-22)
(0.258696658245 -0.0753738363355 1.18465309481e-22)
(0.269689429493 -0.0980874925641 -8.96763380861e-21)
(0.268556474316 -0.122735296574 -6.4506445522e-21)
(0.249167503855 -0.127522868126 -5.17944314333e-21)
(0.198630760781 -0.00757568481208 1.364923214e-24)
(0.209071577601 -0.0124177689929 -2.36930816998e-22)
(0.220453381665 -0.0186299989529 -1.06847670268e-22)
(0.232737382415 -0.0264301571782 -1.93320051871e-22)
(0.245861260589 -0.0360747059437 -1.93161661131e-23)
(0.259713538904 -0.0477236490246 4.9282308798e-22)
(0.274640434013 -0.0618643041503 1.52518368261e-21)
(0.287970807291 -0.0866653532715 4.29101637111e-21)
(0.288636360192 -0.111906132293 6.45331288329e-25)
(0.262114675498 -0.115804215495 -1.76498477566e-22)
(0.202402604508 0.00297703865925 -1.29722054743e-22)
(0.214106604512 -0.000811515195207 -2.18102901905e-22)
(0.226969993987 -0.00598735801991 -3.12191996834e-22)
(0.240990687677 -0.0127940445982 -2.12821284579e-22)
(0.256140468392 -0.0215039233276 -4.25358574559e-22)
(0.272352470472 -0.0321506138241 -2.57065988046e-22)
(0.290079066148 -0.0452625887517 7.48485557518e-22)
(0.306165218619 -0.0719479288426 -8.4799527586e-21)
(0.309658380401 -0.0961483406389 6.39049457543e-21)
(0.276012504753 -0.0991520706533 6.7304408078e-21)
(0.205043142793 0.0147042026499 -6.64702144387e-23)
(0.218009477158 0.0121792207679 -1.42425157594e-22)
(0.232362270141 0.00828579652194 -1.54009821936e-22)
(0.248148299308 0.00276110464287 -3.01481062399e-22)
(0.265406854088 -0.00470306827044 -2.08527226569e-22)
(0.28411462546 -0.0140577240641 -8.06214694519e-22)
(0.304333746476 -0.0251764075931 -7.70605548083e-21)
(0.32380468951 -0.0530604692931 -3.06435384504e-21)
(0.330838340748 -0.0744467251059 3.2620950788e-21)
(0.290120635036 -0.0775553454785 1.94488196396e-21)
(0.206359597479 0.0275895226101 -1.61499131783e-23)
(0.220558660424 0.0265404354888 -2.09291360061e-23)
(0.236364881416 0.0241861208153 2.1651418526e-22)
(0.253881742689 0.020273762964 -5.77246073901e-22)
(0.27324709507 0.014453027888 1.06904613793e-22)
(0.294566198058 0.00634397036948 -1.46752150457e-21)
(0.317108636539 -0.00135825493828 -1.22558596141e-20)
(0.340368492322 -0.0293990019616 -1.51927842784e-21)
(0.351191029165 -0.0461190350291 3.76535914781e-21)
(0.304117795203 -0.0517118050914 3.99909339829e-21)
(0.206163903152 0.041590565162 5.84120537144e-23)
(0.221534543228 0.0422189358517 -1.16787759701e-22)
(0.238709210995 0.0416436676924 -8.2745843107e-23)
(0.257826569749 0.0396589669938 -6.75170707711e-22)
(0.279104981647 0.0359335756127 -8.25746983107e-22)
(0.302941867337 0.0293139984398 2.15129391326e-21)
(0.329203649454 0.0262133276568 -6.03960713711e-21)
(0.355387646618 -0.00104735604741 -4.00047745107e-20)
(0.369583179608 -0.0109562412517 9.79346625454e-21)
(0.3179439628 -0.0235476807631 1.33186929643e-20)
(0.204278389299 0.0566428989997 -1.83466211729e-22)
(0.220743123752 0.0591244206957 -2.09590412593e-23)
(0.239174909994 0.0605192911571 -3.42726786944e-22)
(0.259712639871 0.0606936178374 -3.63645173364e-22)
(0.282609655098 0.0594630176612 3.8961826416e-22)
(0.308390022242 0.0557892970678 -2.03835974596e-21)
(0.338143003272 0.0576139419062 -1.45270864298e-20)
(0.366615069477 0.0305367391778 8.58681564175e-21)
(0.382352667312 0.0296625783981 5.55280295877e-21)
(0.337591868831 0.0197597104903 2.58564385992e-22)
(0.200541969495 0.072675123383 4.23466804826e-22)
(0.218026377257 0.077151972578 -2.46062786829e-22)
(0.237581520638 0.0806419105724 1.09112514034e-22)
(0.259298266303 0.0830896538906 -7.39360905282e-23)
(0.283361028378 0.0844761396553 -3.90017405985e-22)
(0.310283359819 0.083767418879 -1.61933911283e-21)
(0.340956400264 0.0909496236635 -1.35707683722e-20)
(0.370558601441 0.0645376759781 -1.62168123815e-20)
(0.384776122466 0.0732508034182 -2.20033638424e-22)
(0.386390887626 0.0506644861453 1.20475251944e-20)
(0.194806480091 0.0896308018621 -1.40665378412e-22)
(0.213269105994 0.0962130998905 1.64348954726e-22)
(0.233877569794 0.101849860682 -5.56609678629e-22)
(0.256657392987 0.106526113266 -1.75336667247e-22)
(0.281668416908 0.110365220183 8.75073165328e-24)
(0.309369776422 0.111768098436 -5.86831582458e-21)
(0.339966064091 0.123041311416 -2.9977995548e-20)
(0.366867589968 0.0980594937467 -7.57191114501e-22)
(0.373869711863 0.114747091045 -5.98517649608e-23)
(0.500330399438 0.0988496046448 -1.1157388251e-21)
(0.186940889321 0.107487591694 1.96070575298e-22)
(0.206381958434 0.116266589908 4.86635739851e-24)
(0.228016538672 0.124061298111 5.85002725838e-22)
(0.251780745951 0.130846696083 -6.03805233951e-22)
(0.277550357492 0.136922761358 2.83498994668e-23)
(0.305830699512 0.139493587753 -7.0576914046e-22)
(0.337220413636 0.152799476617 -2.25165873232e-20)
(0.362717196269 0.127251991257 -9.91804850583e-21)
(0.366888557788 0.14291106701 3.43110256839e-20)
(0.658756180377 -0.0248098970051 2.92393413876e-20)
)
;

boundaryField
{
    back
    {
        type            noSlip;
    }
    sides
    {
        type            noSlip;
    }
    bottom
    {
        type            noSlip;
    }
    front
    {
        type            noSlip;
    }
    atmosphere
    {
        type            pressureInletOutletVelocity;
        value           nonuniform List<vector> 
16
(
(0 -0.172985980131 0)
(0 -0.172817776439 0)
(0 -0.150173801315 0)
(0 -0.111092227833 0)
(0 -0.130298640849 0)
(0 -0.133158574433 0)
(0 -0.127522868126 0)
(0 -0.115804215495 0)
(0 -0.0991520706533 0)
(0 -0.0775553454785 0)
(0 -0.0517118050914 0)
(0 -0.0235476807631 0)
(0.337591868831 0.0197597104903 2.58564385992e-22)
(0.386390887626 0.0506644861453 1.20475251944e-20)
(0.500330399438 0.0988496046448 -1.1157388251e-21)
(0 -0.0248098970051 0)
)
;
    }
    floatingObject
    {
        type            movingWallVelocity;
        value           nonuniform List<vector> 0();
    }
    procBoundary5to0
    {
        type            processor;
        value           nonuniform List<vector> 
12
(
(0.142071219528 -0.0409846697717 -6.14812565214e-24)
(0.144557133561 -0.0474880600014 -1.45288692328e-23)
(0.147124581836 -0.0545508494617 2.06347904058e-23)
(0.149700212184 -0.0622308593849 -4.39868950956e-23)
(0.152197181749 -0.070584961075 2.0958943032e-23)
(0.154512503657 -0.0796429207496 9.31476710797e-24)
(0.156529143623 -0.0894061270493 7.96754767206e-23)
(0.158077520905 -0.100148956408 2.09813352412e-22)
(0.158855031571 -0.112026600435 -3.85185952272e-22)
(0.158280106301 -0.122912904267 -4.68604394632e-21)
(0.154656581145 -0.132360127408 -1.63861654849e-20)
(0.207573912838 -0.168950739003 -1.47445885434e-20)
)
;
    }
    procBoundary5to3
    {
        type            processor;
        value           nonuniform List<vector> 10((0.176809054948 0.126280141178 3.93769690012e-22) (0.197309793809 0.137354652843 5.47248268539e-22) (0.220049522511 0.1473257125 1.14611703239e-21) (0.244896256849 0.156118490399 3.17514258701e-22) (0.271559223167 0.16441033308 -1.21597581362e-21) (0.301074678599 0.16786001229 1.96909896038e-20) (0.334926592559 0.182871481402 -2.08775829128e-20) (0.363114830465 0.153059235927 -2.5901815646e-20) (0.406034910638 0.184803085781 -3.78299693634e-20) (1.02296496439 -0.228091788257 2.28073998037e-19));
    }
    procBoundary5to4
    {
        type            processor;
        value           nonuniform List<vector> 
18
(
(0.145397550117 -0.0325173622959 2.12235145912e-24)
(0.150811068321 -0.0295690334289 -7.23505845617e-24)
(0.159869591736 -0.0312754474188 -3.7557196295e-23)
(0.164214520561 -0.0371302017919 -4.38563663097e-23)
(0.164214520561 -0.0371302017919 -4.38563663097e-23)
(0.170269380356 -0.0322453295774 -3.61888871398e-23)
(0.175915398319 -0.026533359233 -9.18431955903e-23)
(0.181035019081 -0.0199355601627 -3.93639134056e-23)
(0.185496458258 -0.0124029054465 -1.78912636897e-23)
(0.189154710198 -0.00389946333279 -8.23639969481e-23)
(0.191853083541 0.00559442948745 -1.09799357705e-22)
(0.193426293087 0.0160795101788 -1.12916789417e-22)
(0.193702986001 0.0275384155005 -7.70161173023e-23)
(0.192513299654 0.0399331022674 -1.15659381184e-22)
(0.189694241685 0.0532099039541 8.77094655707e-23)
(0.185077470348 0.0673089069064 -1.31004680993e-22)
(0.178498345627 0.0821790268205 1.15173412253e-22)
(0.169784431087 0.097791300919 -1.19129742749e-22)
)
;
    }
}


// ************************************************************************* //
