/*--------------------------------*- C++ -*----------------------------------*\
| =========                 |                                                 |
| \\      /  F ield         | OpenFOAM: The Open Source CFD Toolbox           |
|  \\    /   O peration     | Version:  v2012                                 |
|   \\  /    A nd           | Website:  www.openfoam.com                      |
|    \\/     M anipulation  |                                                 |
\*---------------------------------------------------------------------------*/
FoamFile
{
    version     2.0;
    format      ascii;
    class       volScalarField;
    location    "2.4";
    object      p_rgh;
}
// * * * * * * * * * * * * * * * * * * * * * * * * * * * * * * * * * * * * * //

dimensions      [1 -1 -2 0 0 0 0];


internalField   nonuniform List<scalar> 
167
(
8697.80355195
8699.9551658
8702.42346545
8705.29387612
8708.69651897
8712.76033585
6710.15807402
645.904344385
-0.887936154841
8706.59000702
8708.86893535
8711.30653949
8713.9229832
8716.84926277
6780.79493662
737.7405565
2.19652234942
8713.01321399
8715.09652056
8717.05728382
8718.68512596
8719.63684933
6821.84062322
757.882491052
5.96074541891
8717.26801277
8719.37895783
8721.37823079
8723.0508732
8723.97921803
8723.29700059
6856.83220569
697.14000473
4.12868797812
8723.55016625
8725.80320363
8727.91874102
8729.68915929
8730.76234349
8730.5695567
6922.28225573
750.628790614
1.29771110721
8729.79215106
8732.31209909
8734.74214121
8736.93389542
8738.69541515
8739.89136304
6999.09508184
810.387400008
-1.1167518444
8733.15646041
8735.96647609
8738.85839457
8741.74722518
8744.53469079
8747.08492024
8749.67739443
7090.68334876
878.150484758
-1.15610755281
8735.85688366
8738.836333
8742.01865853
8745.3563132
8748.79910837
8752.31421094
8755.97977192
8759.38163047
7206.60161174
961.390980151
-0.262960015474
8740.95559227
8744.28205938
8747.87307866
8751.70043809
8755.72756528
8759.95910764
8764.31247263
8768.64625015
7328.20521587
1049.17327173
-0.147807402452
8749.42813852
8753.44986134
8757.79973635
8762.41875428
8767.45792208
8772.61246992
8777.93835625
7450.32036207
1140.36353718
-0.073027463345
8754.18295764
8758.66300811
8763.59073232
8769.01322785
8774.68144979
8780.75191182
8787.18095628
7571.39087797
1248.32706115
-0.0690475212255
8758.47157567
8763.39697277
8768.85887663
8774.91528071
8781.45615825
8788.56247561
8796.2331068
7686.44453114
1355.17434956
-0.0712672158425
8762.21815329
8767.5665884
8773.56533996
8780.24984359
8787.63305054
8795.82818575
8804.93274936
7823.01944348
1478.65157637
-0.0998787372445
8765.32738786
8771.06096899
8777.55481141
8784.81985032
8792.97485847
8802.17902826
8812.59452512
7942.89428383
1614.61906731
-0.173719817649
8762.42816955
8767.71730972
8773.75200428
8780.63749939
8788.42872619
8797.24161721
8807.26881599
8818.46571627
8021.30336115
1738.77622142
-0.361389749955
8763.89675831
8769.34736853
8775.55697379
8782.7602651
8790.93719562
8800.24882112
8810.94699417
8822.57154351
8054.3572755
1882.52005717
-0.952154211355
8764.7169619
8770.30451364
8776.72943072
8783.92947308
8792.24742762
8801.82285224
8813.02478931
8825.43930885
7947.34458652
2134.53162138
1.37822508171
)
;

boundaryField
{
    back
    {
        type            fixedFluxPressure;
        gradient        uniform 0;
        value           nonuniform List<scalar> 
167
(
8697.80355195
8699.9551658
8702.42346545
8705.29387612
8708.69651897
8712.76033585
6710.15807402
645.904344385
-0.887936154841
8706.59000702
8708.86893535
8711.30653949
8713.9229832
8716.84926277
6780.79493662
737.7405565
2.19652234942
8713.01321399
8715.09652056
8717.05728382
8718.68512596
8719.63684933
6821.84062322
757.882491052
5.96074541891
8717.26801277
8719.37895783
8721.37823079
8723.0508732
8723.97921803
8723.29700059
6856.83220569
697.14000473
4.12868797812
8723.55016625
8725.80320363
8727.91874102
8729.68915929
8730.76234349
8730.5695567
6922.28225573
750.628790614
1.29771110721
8729.79215106
8732.31209909
8734.74214121
8736.93389542
8738.69541515
8739.89136304
6999.09508184
810.387400008
-1.1167518444
8733.15646041
8735.96647609
8738.85839457
8741.74722518
8744.53469079
8747.08492024
8749.67739443
7090.68334876
878.150484758
-1.15610755281
8735.85688366
8738.836333
8742.01865853
8745.3563132
8748.79910837
8752.31421094
8755.97977192
8759.38163047
7206.60161174
961.390980151
-0.262960015474
8740.95559227
8744.28205938
8747.87307866
8751.70043809
8755.72756528
8759.95910764
8764.31247263
8768.64625015
7328.20521587
1049.17327173
-0.147807402452
8749.42813852
8753.44986134
8757.79973635
8762.41875428
8767.45792208
8772.61246992
8777.93835625
7450.32036207
1140.36353718
-0.073027463345
8754.18295764
8758.66300811
8763.59073232
8769.01322785
8774.68144979
8780.75191182
8787.18095628
7571.39087797
1248.32706115
-0.0690475212255
8758.47157567
8763.39697277
8768.85887663
8774.91528071
8781.45615825
8788.56247561
8796.2331068
7686.44453114
1355.17434956
-0.0712672158425
8762.21815329
8767.5665884
8773.56533996
8780.24984359
8787.63305054
8795.82818575
8804.93274936
7823.01944348
1478.65157637
-0.0998787372445
8765.32738786
8771.06096899
8777.55481141
8784.81985032
8792.97485847
8802.17902826
8812.59452512
7942.89428383
1614.61906731
-0.173719817649
8762.42816955
8767.71730972
8773.75200428
8780.63749939
8788.42872619
8797.24161721
8807.26881599
8818.46571627
8021.30336115
1738.77622142
-0.361389749955
8763.89675831
8769.34736853
8775.55697379
8782.7602651
8790.93719562
8800.24882112
8810.94699417
8822.57154351
8054.3572755
1882.52005717
-0.952154211355
8764.7169619
8770.30451364
8776.72943072
8783.92947308
8792.24742762
8801.82285224
8813.02478931
8825.43930885
7947.34458652
2134.53162138
1.37822508171
)
;
    }
    sides
    {
        type            fixedFluxPressure;
        gradient        uniform 0;
        value           nonuniform List<scalar> 
11
(
8764.7169619
8770.30451364
8776.72943072
8783.92947308
8792.24742762
8801.82285224
8813.02478931
8825.43930885
7947.34458652
2134.53162138
1.37822508171
)
;
    }
    bottom
    {
        type            fixedFluxPressure;
        gradient        nonuniform List<scalar> 0();
        value           nonuniform List<scalar> 0();
    }
    front
    {
        type            fixedFluxPressure;
        gradient        uniform 0;
        value           nonuniform List<scalar> 
167
(
8697.80355195
8699.9551658
8702.42346545
8705.29387612
8708.69651897
8712.76033585
6710.15807402
645.904344385
-0.887936154841
8706.59000702
8708.86893535
8711.30653949
8713.9229832
8716.84926277
6780.79493662
737.7405565
2.19652234942
8713.01321399
8715.09652056
8717.05728382
8718.68512596
8719.63684933
6821.84062322
757.882491052
5.96074541891
8717.26801277
8719.37895783
8721.37823079
8723.0508732
8723.97921803
8723.29700059
6856.83220569
697.14000473
4.12868797812
8723.55016625
8725.80320363
8727.91874102
8729.68915929
8730.76234349
8730.5695567
6922.28225573
750.628790614
1.29771110721
8729.79215106
8732.31209909
8734.74214121
8736.93389542
8738.69541515
8739.89136304
6999.09508184
810.387400008
-1.1167518444
8733.15646041
8735.96647609
8738.85839457
8741.74722518
8744.53469079
8747.08492024
8749.67739443
7090.68334876
878.150484758
-1.15610755281
8735.85688366
8738.836333
8742.01865853
8745.3563132
8748.79910837
8752.31421094
8755.97977192
8759.38163047
7206.60161174
961.390980151
-0.262960015474
8740.95559227
8744.28205938
8747.87307866
8751.70043809
8755.72756528
8759.95910764
8764.31247263
8768.64625015
7328.20521587
1049.17327173
-0.147807402452
8749.42813852
8753.44986134
8757.79973635
8762.41875428
8767.45792208
8772.61246992
8777.93835625
7450.32036207
1140.36353718
-0.073027463345
8754.18295764
8758.66300811
8763.59073232
8769.01322785
8774.68144979
8780.75191182
8787.18095628
7571.39087797
1248.32706115
-0.0690475212255
8758.47157567
8763.39697277
8768.85887663
8774.91528071
8781.45615825
8788.56247561
8796.2331068
7686.44453114
1355.17434956
-0.0712672158425
8762.21815329
8767.5665884
8773.56533996
8780.24984359
8787.63305054
8795.82818575
8804.93274936
7823.01944348
1478.65157637
-0.0998787372445
8765.32738786
8771.06096899
8777.55481141
8784.81985032
8792.97485847
8802.17902826
8812.59452512
7942.89428383
1614.61906731
-0.173719817649
8762.42816955
8767.71730972
8773.75200428
8780.63749939
8788.42872619
8797.24161721
8807.26881599
8818.46571627
8021.30336115
1738.77622142
-0.361389749955
8763.89675831
8769.34736853
8775.55697379
8782.7602651
8790.93719562
8800.24882112
8810.94699417
8822.57154351
8054.3572755
1882.52005717
-0.952154211355
8764.7169619
8770.30451364
8776.72943072
8783.92947308
8792.24742762
8801.82285224
8813.02478931
8825.43930885
7947.34458652
2134.53162138
1.37822508171
)
;
    }
    atmosphere
    {
        type            totalPressure;
        rho             rho;
        psi             none;
        gamma           1;
        p0              uniform 0;
        value           nonuniform List<scalar> 
17
(
0
0
0
0
0
0
0
-0.0306771311359
-0.00775695862723
-0.00230501328383
-0.000623095855963
-0.000244246071542
-0.000541326994234
-0.00140751750494
-0.00409769307033
-0.0229351681072
0
)
;
    }
    floatingObject
    {
        type            fixedFluxPressure;
        gradient        nonuniform List<scalar> 0();
        value           nonuniform List<scalar> 0();
    }
    procBoundary11to9
    {
        type            processor;
        value           nonuniform List<scalar> 9(8690.82727879 8692.95123444 8695.50873846 8698.65820537 8702.62495448 8707.70242432 6634.50981442 616.602814986 -1.16345502132);
    }
    procBoundary11to10
    {
        type            processor;
        value           nonuniform List<scalar> 
23
(
8695.91733977
8704.47583793
8704.47583793
8710.93278007
8710.93278007
8715.16646228
8721.28315119
8727.28869057
8727.28869057
8730.4789859
8730.4789859
8733.08916609
8737.90287549
8745.73310939
8745.73310939
8750.10726815
8754.03397673
8757.43553661
8760.25576011
8760.25576011
8757.7775201
8759.11892624
8759.85456301
)
;
    }
}


// ************************************************************************* //
