/*--------------------------------*- C++ -*----------------------------------*\
| =========                 |                                                 |
| \\      /  F ield         | OpenFOAM: The Open Source CFD Toolbox           |
|  \\    /   O peration     | Version:  v2012                                 |
|   \\  /    A nd           | Website:  www.openfoam.com                      |
|    \\/     M anipulation  |                                                 |
\*---------------------------------------------------------------------------*/
FoamFile
{
    version     2.0;
    format      ascii;
    class       surfaceVectorField;
    location    "4.2";
    object      ddtCorrDdt0(Uf);
}
// * * * * * * * * * * * * * * * * * * * * * * * * * * * * * * * * * * * * * //

dimensions      [0 1 -2 0 0 0 0];


internalField   nonuniform List<vector> 
300
(
(-0.0080728233344 0.00343062171472 4.21102957402e-21)
(-0.00988662856621 0.00141908901477 7.12113122792e-22)
(-0.00783361572655 0.0067650359987 1.98906160975e-20)
(-0.00950497632158 0.00519832042095 5.5518602075e-21)
(-0.00762622843904 0.0100511449076 8.05537587433e-20)
(-0.00925045407183 0.00859213432237 2.5036685191e-20)
(-0.007174955504 0.013386806296 2.86380407061e-19)
(-0.00884009266121 0.0121857035782 1.02163636339e-19)
(-0.00575731510132 0.017264505748 8.97644004747e-19)
(-0.00831400857685 0.0163385472492 3.62212322004e-19)
(-0.00170762730961 0.0230114117977 2.28528231817e-18)
(-0.0077429732147 0.0214134879146 1.11269178975e-18)
(0.00727444048888 0.0358491794582 3.49281682982e-18)
(-0.00551035348607 0.0289711030782 2.5555501646e-18)
(0.00109757941737 0.0625199760963 2.50608732096e-18)
(-0.00041110176204 0.0440294624097 3.01245725002e-18)
(-0.0101558402963 0.077319909558 -1.69832059523e-18)
(-0.014803087406 0.0602785656724 1.49350101099e-18)
(-0.00653667177808 0.0903978889558 -2.73288155828e-18)
(-0.0130925509695 0.0733113017627 -2.35710321926e-18)
(-0.00621676247686 0.103017675396 -2.7025748014e-18)
(-0.0127162180755 0.0891419857262 -1.48083862043e-19)
(-0.0492923942247 0.120898010451 -4.21778731809e-18)
(-0.0181303164138 0.105054292623 -1.82768424755e-18)
(-0.0821844525739 0.0822134310628 -3.66789485868e-18)
(-0.0677437477458 0.0962351483651 -2.4588952446e-18)
(-0.0724860903592 0.0822256952598 -2.58591533076e-18)
(-0.0114520556491 0.0034215802004 2.05294375628e-21)
(-0.0133071340557 0.00139087854627 -1.03158006553e-22)
(-0.0112018496574 0.00686237540306 1.0697929301e-20)
(-0.0129469863627 0.00519358744646 2.68168102112e-21)
(-0.0110213182021 0.0105014374105 4.66465627864e-20)
(-0.0128920446572 0.00869465168786 1.24366094476e-20)
(-0.010659023917 0.0146112665058 1.77995551282e-19)
(-0.0129535682318 0.0125395702112 5.37836923998e-20)
(-0.00996796893056 0.0194359452382 5.77260107007e-19)
(-0.0131427772038 0.0169992884753 2.01891098532e-19)
(-0.00926957848841 0.0249782102851 1.38295963618e-18)
(-0.0132889004426 0.0220992870712 6.33874143519e-19)
(-0.0100388269666 0.0326707505649 2.0751905848e-18)
(-0.0132055260601 0.0284823015158 1.39094340925e-18)
(-0.0142378773273 0.0476115047931 1.99987094005e-18)
(-0.0153545912233 0.037823416898 1.82202193533e-18)
(-0.0211296914652 0.054759049798 8.34718386966e-19)
(-0.0219580297553 0.047292976371 1.68456887237e-18)
(-0.0260962315821 0.067153738552 2.27694476977e-19)
(-0.025508857196 0.0565978107647 6.47029551926e-19)
(-0.0295524250568 0.0825112116387 7.26806691801e-19)
(-0.0281378959538 0.0671377116994 1.25822329512e-18)
(-0.0469671000068 0.0994928350574 -6.87921740573e-20)
(-0.0352476475662 0.082927915399 1.84493541572e-18)
(-0.0682456388489 0.0877376587475 -1.37691571667e-18)
(-0.0561667841275 0.0875156752846 4.01332169487e-19)
(-0.0728417080497 0.0866688874155 -6.39937507784e-19)
(-0.0148479841317 0.00338464529266 5.25579258292e-22)
(-0.0167001049381 0.0013300632243 -6.57401663099e-22)
(-0.0147075539933 0.00678461745388 4.42036116769e-21)
(-0.0163576145889 0.00503941493814 1.0993550104e-21)
(-0.0148554349976 0.010419642797 1.9573739061e-20)
(-0.0165385144401 0.00845495231029 4.79222372516e-21)
(-0.015192081548 0.0144272441816 7.76792396499e-20)
(-0.0169725797085 0.0121796032211 2.12295399459e-20)
(-0.0158156213913 0.0189434286077 2.58505135044e-19)
(-0.0176691970627 0.0163894200182 8.25788499485e-20)
(-0.0168639635717 0.0243479892294 6.41857916592e-19)
(-0.0187013746339 0.0212114234336 2.66354570508e-19)
(-0.0190308274787 0.0314688405821 1.13777475978e-18)
(-0.020331305738 0.0271635783282 6.16837427123e-19)
(-0.0235592295302 0.0401467172931 1.50671986765e-18)
(-0.0240353532686 0.0341225203126 9.88166313517e-19)
(-0.0284705003828 0.0476686844439 1.49688003733e-18)
(-0.0294840668298 0.0411850084058 1.19070732094e-18)
(-0.0315755400786 0.0568600720932 1.67755837007e-18)
(-0.0347119074543 0.0483057682092 1.07085062771e-18)
(-0.0362251486795 0.0676737383269 2.37635201904e-18)
(-0.0389817603532 0.0560016258959 1.52022040044e-18)
(-0.0492128563838 0.0784789819229 2.31505975927e-18)
(-0.0461127718809 0.0675501759788 2.08716241584e-18)
(-0.0667495600351 0.083219850418 1.13831037837e-18)
(-0.0609822514801 0.0748161065836 1.47157530599e-18)
(-0.0767997102734 0.081931821918 3.3059299958e-19)
(-0.0181658641063 0.00320571334885 -8.36259109958e-23)
(-0.0199212893348 0.00122106103277 -6.10834694426e-22)
(-0.0181509287103 0.00646600662204 1.47121756786e-21)
(-0.0196355872498 0.00471709933216 4.39760908942e-22)
(-0.0185964972256 0.00993280415352 6.44802461013e-21)
(-0.0200233896968 0.00790324254267 1.50627623123e-21)
(-0.0193640699367 0.0137460895414 2.61291502446e-20)
(-0.0208031180169 0.0113705293371 6.67166033086e-21)
(-0.0205153523802 0.018083312939 9.04282854119e-20)
(-0.0220214065866 0.0152679410102 2.66454259728e-20)
(-0.0222267015215 0.023154500678 2.41334081039e-19)
(-0.0237837783829 0.0196844684447 8.90580055649e-20)
(-0.0250679979612 0.0291641769365 4.67228980859e-19)
(-0.0263473367457 0.0248071456688 2.22044211373e-19)
(-0.029571051196 0.0354347843554 6.72153766805e-19)
(-0.0303075848585 0.0304422526567 3.89250150377e-19)
(-0.0351187185951 0.0415591770994 7.64677911321e-19)
(-0.0356068333844 0.0360483668748 5.04249497018e-19)
(-0.0404700957947 0.0483515932057 9.13512658081e-19)
(-0.0415025871892 0.0416222858585 5.29970892268e-19)
(-0.0466518506458 0.0566732098105 1.23103079724e-18)
(-0.0473057114321 0.0477430565393 7.04963750136e-19)
(-0.0577886472132 0.0653428675575 1.24367796257e-18)
(-0.0547905681735 0.0561944400161 9.39571233393e-19)
(-0.0724073763371 0.0727273883751 6.638579272e-19)
(-0.0683697582835 0.0636441427775 7.53156604963e-19)
(-0.0823650535243 0.0705532152255 3.51754365032e-19)
(-0.021273428476 0.00295027570131 -8.74478744878e-23)
(-0.0228919499508 0.00105697764367 -4.2148920355e-22)
(-0.0213776384816 0.00591866352607 4.7481957231e-22)
(-0.022626256851 0.00423207937137 2.89658823895e-22)
(-0.0220915611353 0.0090773983732 1.72991195196e-21)
(-0.0232044635105 0.00707789944427 4.32022339474e-22)
(-0.0232672815622 0.0125576017354 7.18793605912e-21)
(-0.0243043080295 0.0101467683984 1.66861595298e-21)
(-0.0249637065114 0.0164369546732 2.52751461258e-20)
(-0.0259187664232 0.0135711833661 7.13994360032e-21)
(-0.0273577589035 0.0208412503833 6.9768135899e-20)
(-0.0282012703756 0.0173766743881 2.40572868118e-20)
(-0.0307785023142 0.025777708302 1.44065380891e-19)
(-0.0312905594133 0.0216188951744 6.2325800664e-20)
(-0.0354526487565 0.0309321491528 2.21345880589e-19)
(-0.035461562285 0.0262110894773 1.17316119788e-19)
(-0.0411736204806 0.0360756595646 2.69542477965e-19)
(-0.0407427327652 0.0308476759574 1.6098349274e-19)
(-0.0474477740578 0.0414720135413 3.21421984323e-19)
(-0.04688526329 0.035446938953 1.78876425342e-19)
(-0.0545452558434 0.0478656139766 4.1350418629e-19)
(-0.0536812001071 0.04039357344 2.22724293644e-19)
(-0.0649499448247 0.0549509250928 4.49049875788e-19)
(-0.0618503444869 0.0464860959573 2.88892030202e-19)
(-0.0779251661029 0.0605753609105 4.41053042795e-19)
(-0.073952402904 0.0523709737583 2.70211843808e-19)
(-0.0871913967536 0.0572973840815 2.86726840651e-19)
(-0.0240633005127 0.00259978165011 -4.43825051671e-23)
(-0.0255147716941 0.000850443629781 -5.24555439815e-22)
(-0.0242573185636 0.00517901566064 2.4686159106e-22)
(-0.0252299561738 0.00361084152022 2.43151465177e-22)
(-0.0251923508349 0.00792446185822 3.70726340497e-22)
(-0.0259741264023 0.00602600959402 1.12717207632e-22)
(-0.0266918010707 0.0109125040236 1.62062349417e-21)
(-0.0273148917445 0.00859769935039 3.17415205259e-22)
(-0.0288016974972 0.0142365133971 5.92208428628e-21)
(-0.0292619261953 0.0114428064472 1.59343988271e-21)
(-0.031620124374 0.017877868439 1.66149515767e-20)
(-0.0318563421657 0.0145751251681 5.46518718125e-21)
(-0.0353333961642 0.02186617915 3.55765395611e-20)
(-0.035285121271 0.0179813026378 1.45089579849e-20)
(-0.0400998891279 0.0260315771446 5.69537319392e-20)
(-0.0396242448248 0.0216122971792 2.84998803194e-20)
(-0.0458822624927 0.0302605720987 7.03174401174e-20)
(-0.044959259406 0.0253179956871 4.05814881908e-20)
(-0.0525579518373 0.034629723388 8.01787346638e-20)
(-0.0512323150705 0.0290160644257 4.47678588527e-20)
(-0.060350271978 0.0393504011634 9.81121375557e-20)
(-0.0583709691451 0.0328519182964 5.17936632651e-20)
(-0.0701460932846 0.0445094306755 1.10053998221e-19)
(-0.0669639411622 0.0370901342722 6.5141445502e-20)
(-0.0821682179763 0.0483618727823 1.15885641664e-19)
(-0.0777383214349 0.0409915403208 6.57855256737e-20)
(-0.0900612511497 0.0439413805714 6.78168353548e-20)
(-0.0264509806698 0.0021498471358 -2.37021469471e-22)
(-0.0276880595412 0.000614087859126 -4.57228043303e-22)
(-0.0267040769092 0.00427699721637 1.0900708175e-22)
(-0.0273814133458 0.00288583763311 2.41438170564e-22)
(-0.0278159970958 0.00652997652006 5.9406072394e-23)
(-0.0282509463337 0.00479328724253 8.52135457777e-23)
(-0.0295515227192 0.00896419128589 2.902315938e-22)
(-0.029771183817 0.00681234023677 8.10642732359e-23)
(-0.0319438823598 0.0116163108341 1.13654277769e-21)
(-0.031932674316 0.00902803843391 2.97975028259e-22)
(-0.0350631721576 0.0145289103918 3.35919358939e-21)
(-0.0347820255812 0.0114496777685 1.03914429239e-21)
(-0.0389995313551 0.0176225754211 7.43229874309e-21)
(-0.0383841172454 0.0140575159868 2.92126882501e-21)
(-0.0438534604603 0.0208668157291 1.21276365709e-20)
(-0.0428642133997 0.0168030416064 5.89869119501e-21)
(-0.0496646240378 0.0241582137018 1.5031906926e-20)
(-0.0482355987386 0.0196042542457 8.56899077847e-21)
(-0.0564506653486 0.0274701035038 1.63827874539e-20)
(-0.0545181896499 0.0223770837695 9.34559815486e-21)
(-0.0643671971272 0.0308798470265 1.88229712114e-20)
(-0.0617445330551 0.0251415929354 9.93269017904e-21)
(-0.0737300372978 0.0341415046813 2.08729729543e-20)
(-0.0701728782933 0.0278917022672 1.16333139597e-20)
(-0.0845766723986 0.0364779714616 1.77167193645e-20)
(-0.0800016533341 0.0300972270499 1.06362932757e-20)
(-0.0908356165627 0.0312591741542 2.56952404828e-21)
(-0.0283516274064 0.00161954502161 2.1231596732e-23)
(-0.0293293256604 0.000351971776405 -1.08690884601e-23)
(-0.0286493593882 0.00324377913481 2.17644634592e-22)
(-0.0290276698432 0.00207956663674 4.07806671776e-22)
(-0.0298895142033 0.00494195691965 1.0687174662e-22)
(-0.0299706345605 0.00343301527011 1.86718227192e-22)
(-0.0317965579021 0.00677018992217 8.8807707695e-23)
(-0.0316193889527 0.00485936639068 8.87082043937e-23)
(-0.0343735453764 0.00875492376707 2.00576542963e-22)
(-0.0339343200836 0.00643181178506 6.89306206635e-23)
(-0.0376793269446 0.010901550177 6.01219528009e-22)
(-0.0369405383275 0.00813613475551 1.79460025348e-22)
(-0.0417698105423 0.0131965976519 1.38766127692e-21)
(-0.0406838830564 0.00996610140383 5.44588028008e-22)
(-0.0466966437015 0.0155555106871 2.3400454026e-21)
(-0.0452187798192 0.0118841665312 1.12167109765e-21)
(-0.0525066558283 0.017938542942 2.88268200736e-21)
(-0.050603958629 0.013822635244 1.67696541017e-21)
(-0.0592314200835 0.0202798227957 2.89550087997e-21)
(-0.0568343420842 0.0157068633365 1.76199695652e-21)
(-0.0669593943853 0.0225139061977 2.74303292734e-21)
(-0.063944001179 0.0174797752327 1.62776187243e-21)
(-0.0757386980149 0.0243655065531 1.39663428117e-21)
(-0.0719745752784 0.0190395389232 1.1689778079e-21)
(-0.085347427826 0.0253484317506 -4.51090204053e-21)
(-0.0809179760512 0.0199970733465 -2.08085381127e-21)
(-0.0902064226411 0.0199541685697 -1.33161253185e-20)
(-0.0297117380363 0.00109006383307 3.75705986584e-22)
(-0.0304380321606 7.45928051298e-05 2.03613028422e-22)
(-0.0300330844699 0.00212999642487 3.76880264376e-22)
(-0.030086304285 0.00121772701174 5.0167187532e-22)
(-0.0313656882325 0.00324123045745 1.68554684966e-22)
(-0.031100554569 0.00198245732803 1.66218874368e-22)
(-0.0333931769785 0.0044401121541 6.88311173622e-23)
(-0.0328363418921 0.00279103648195 6.77598451433e-23)
(-0.0361034244099 0.00574587784192 4.7814103048e-23)
(-0.0352563252506 0.0037069240389 1.23320372259e-23)
(-0.0395219090339 0.00715657812653 1.22828525347e-22)
(-0.0383638419363 0.00470930947549 3.35088311474e-23)
(-0.0436944057786 0.0086553593834 2.78597848733e-22)
(-0.0421895169874 0.0057861454922 1.14882308546e-22)
(-0.0486542964474 0.0101983700167 4.58591105212e-22)
(-0.0467609292425 0.00691545386574 2.31200059217e-22)
(-0.054424908628 0.0117155695633 5.56280359327e-22)
(-0.0521101531839 0.00804102627861 3.32110262989e-22)
(-0.0610283796518 0.0131442140412 4.94257948979e-22)
(-0.0582430294341 0.00909137139975 3.11950908207e-22)
(-0.0684774251383 0.014378855975 5.37067529934e-23)
(-0.0651509190917 0.00999453874052 1.79957642988e-22)
(-0.07667925975 0.0152267456126 -2.30851028453e-21)
(-0.072782099141 0.010628114619 -5.67508001875e-22)
(-0.0852504893206 0.0152742271347 -1.08860770892e-20)
(-0.0809130328994 0.0107216952771 -4.7124754415e-21)
(-0.0890395820613 0.0100108121484 -1.78695926262e-20)
(-0.0304965691222 0.000482314481673 3.29578917158e-22)
(-0.0309351506196 -0.000216768716013 4.06818139208e-23)
(-0.0308281244669 0.000950438500431 2.91010485312e-22)
(-0.0305700489994 0.000316666502338 2.27888155098e-22)
(-0.0322247612228 0.00144950534494 6.54240345447e-23)
(-0.0316164274743 0.000470183798251 4.42253331158e-23)
(-0.0343331731044 0.00200691860268 1.12607650071e-23)
(-0.033411554229 0.000645452394455 5.93434042503e-24)
(-0.0371291285554 0.0026316457729 -1.97323467474e-24)
(-0.0358987507709 0.000898117732287 -2.55754977001e-24)
(-0.0406233026523 0.00332226708704 2.55626143461e-23)
(-0.0390702153591 0.00120602510008 1.97200952436e-23)
(-0.0448417261956 0.00406204529891 6.74845190301e-23)
(-0.0429409177773 0.0015566112875 3.71384212177e-23)
(-0.0498048878185 0.00482937941624 1.04719216994e-22)
(-0.0475331158589 0.0019317003452 6.10437931646e-23)
(-0.0555069560199 0.00554445052366 8.77808118687e-23)
(-0.0528224488702 0.00230541084182 1.03827039251e-22)
(-0.0619497988492 0.00616578880459 -2.34939778433e-24)
(-0.0588547345057 0.00260724830499 -3.61260341434e-23)
(-0.069090714203 0.00659909951218 -4.4125711188e-22)
(-0.0655708257934 0.00277700213589 -2.08460505828e-22)
(-0.0767571940523 0.00667983305243 -2.97147315884e-21)
(-0.0728371714535 0.00272696022253 -8.51709177716e-22)
(-0.0845155832985 0.00614181961462 -1.16959909785e-20)
(-0.0803408222073 0.0022989709988 -4.69805428887e-21)
(-0.0875959004294 0.00135320110079 -1.61757346208e-20)
(-0.0306786933076 -0.000109124202204 -6.10089481393e-23)
(-0.0310129928697 -0.000268784993781 -1.8896997098e-23)
(-0.0324505393175 -0.000400214905918 -1.52643610038e-23)
(-0.0346118945326 -0.000494550492612 -7.88397435205e-24)
(-0.0374606534949 -0.00054743318692 1.91357801484e-23)
(-0.0409986475817 -0.000563340522097 3.12959021153e-23)
(-0.0452399643458 -0.000551089135317 3.06976953522e-23)
(-0.050194615561 -0.00052893820356 6.01516154215e-23)
(-0.0558548577917 -0.00050486071743 -2.00798067609e-23)
(-0.0528556268601 -0.00337746775795 6.01828079032e-23)
(-0.062168053684 -0.000607976779405 -2.42237142187e-22)
(-0.0587609071988 -0.00373509094388 -6.07657388338e-23)
(-0.0690544524895 -0.000789834090436 -6.18912571663e-22)
(-0.0653835575149 -0.00416393041242 -3.48794115775e-22)
(-0.076330466432 -0.00118721530627 -2.57829030774e-21)
(-0.0724328364808 -0.00471149872414 -8.7944429275e-22)
(-0.0835052442394 -0.0018337216853 -9.17779793126e-21)
(-0.0796836106512 -0.00537693439027 -3.95542966723e-21)
(-0.0864415153992 -0.00622503356864 -1.34199421788e-20)
(-0.0555083051784 -0.00652376038843 1.94968758304e-23)
(-0.0617736305065 -0.00715805325025 -1.67322712422e-22)
(-0.0685649119267 -0.00788410722092 -6.09325836862e-22)
(-0.0757125248549 -0.00860248038209 -2.25658365225e-21)
(-0.0717180937371 -0.0119030120834 -6.80156993774e-22)
(-0.0828207165722 -0.00924344194344 -8.19757391473e-21)
(-0.0790342174416 -0.0127388074202 -2.98913264119e-21)
(-0.0860498369261 -0.0133564501965 -1.0413565056e-20)
(-0.0750548249529 -0.0159201256778 -1.41270598272e-21)
(-0.0825763145757 -0.0165987832612 -5.20512378248e-21)
(-0.0861911983115 -0.020635127778 -5.75732183249e-21)
)
;

boundaryField
{
    back
    {
        type            calculated;
        value           uniform (0 0 0);
    }
    sides
    {
        type            calculated;
        value           nonuniform List<vector> 0();
    }
    bottom
    {
        type            calculated;
        value           uniform (0 0 0);
    }
    front
    {
        type            calculated;
        value           uniform (0 0 0);
    }
    atmosphere
    {
        type            calculated;
        value           nonuniform List<vector> 0();
    }
    floatingObject
    {
        type            calculated;
        value           nonuniform List<vector> 4((0 3.82629175654e-19 -4.78286469567e-20) (0 3.82629175654e-19 -4.78286469567e-20) (0 0 0) (0 7.65258351307e-19 -4.78286469567e-20));
    }
    procBoundary8to3
    {
        type            processor;
        value           nonuniform List<vector> 8((-0.00648428287946 0.00143919705053 1.39309070001e-21) (-0.0061961148431 0.00516476320054 9.19400102273e-21) (-0.0059868379947 0.00845201414666 4.0327034502e-20) (-0.00552210835724 0.011777386822 1.4724833899e-19) (-0.00444818820465 0.015090487564 4.55323718166e-19) (-0.0020014679484 0.0185614147687 1.18531457447e-18) (0.00732474184675 0.0239041889932 2.27426556755e-18) (0.0262600261834 0.0265729902391 1.96535212856e-18));
    }
    procBoundary8to6
    {
        type            processor;
        value           nonuniform List<vector> 
16
(
(-0.105829619719 0.0574759764843 -2.84970379201e-18)
(-0.0717311577532 0.0733989572476 -2.72272488492e-18)
(-0.066812519587 0.0823839420565 -2.59756353988e-18)
(-0.0751878492698 0.0879180921753 -1.5677519682e-18)
(-0.0800563059955 0.0871087602278 2.50675430799e-21)
(-0.0873833943451 0.0782972812501 1.49816753965e-19)
(-0.093494601158 0.0654520716874 2.56184147963e-19)
(-0.0969318424979 0.0513060212332 6.9192065476e-20)
(-0.0974743284034 0.037331286546 2.73618971069e-21)
(-0.0959466789569 0.0247894471969 -1.86673126159e-20)
(-0.0938765734277 0.0141609118068 -2.98828847893e-20)
(-0.0916487066574 0.00473212513674 -3.98614873671e-20)
(-0.0896966621896 -0.00297459723753 -2.87196674856e-20)
(-0.0889975729993 -0.00962426292896 -2.50796587664e-20)
(-0.0894274810575 -0.0164124958506 -1.44398701727e-20)
(-0.0905433780425 -0.0238980167042 -7.39639098283e-21)
)
;
    }
    procBoundary8to7
    {
        type            processor;
        value           nonuniform List<vector> 
17
(
(-0.0308370132149 -0.000520042939799 -5.28636095747e-23)
(-0.030422895206 -0.000614467216465 5.18889808509e-23)
(-0.0314997150379 -0.00108191904476 -2.90950305704e-23)
(-0.0333340729636 -0.00155211108074 -7.55575801764e-24)
(-0.0358639793624 -0.00196469435737 2.50811780308e-23)
(-0.0390719780107 -0.00234379823233 3.97510898333e-23)
(-0.0429704968363 -0.00269806250506 3.70736600318e-23)
(-0.0475675928545 -0.00304006061111 4.90445921375e-23)
(-0.0498766777842 -0.00584439345544 4.90757846192e-23)
(-0.0522030706927 -0.00901818517561 4.13017197889e-23)
(-0.0581303282233 -0.0100009866316 1.6118775159e-23)
(-0.0646735859619 -0.0109546026045 -2.12908307386e-22)
(-0.0677211267428 -0.0148928291973 -2.83739464298e-22)
(-0.0706888241989 -0.0191498444767 -4.29550030722e-22)
(-0.0783547295887 -0.0201974398273 -1.75502938732e-21)
(-0.0823302420685 -0.0242792234375 -2.30722743733e-21)
(-0.0865351838735 -0.0283750205503 -2.26815925301e-21)
)
;
    }
}


// ************************************************************************* //
