/*--------------------------------*- C++ -*----------------------------------*\
| =========                 |                                                 |
| \\      /  F ield         | OpenFOAM: The Open Source CFD Toolbox           |
|  \\    /   O peration     | Version:  v2012                                 |
|   \\  /    A nd           | Website:  www.openfoam.com                      |
|    \\/     M anipulation  |                                                 |
\*---------------------------------------------------------------------------*/
FoamFile
{
    version     2.0;
    format      ascii;
    class       volScalarField;
    location    "4.2";
    object      epsilon;
}
// * * * * * * * * * * * * * * * * * * * * * * * * * * * * * * * * * * * * * //

dimensions      [0 2 -3 0 0 0 0];


internalField   nonuniform List<scalar> 
164
(
0.000853109153741
0.000896729435708
0.000987812643896
0.0010246121075
0.00103700615947
0.00102959770686
0.000990555119898
0.000908345926914
0.00108096645813
0.00108189876614
0.00113082736272
0.00129315998429
0.00120353962946
0.00157084364912
0.000860569271245
0.000902708592518
0.000994439799902
0.00103283931239
0.0010496867466
0.0010550263028
0.0010502485743
0.0010376980271
0.00103129200762
0.00104863884187
0.00106869263295
0.00110268565743
0.00120917699576
0.00145805939602
0.000868694132731
0.000909527481667
0.00100178873815
0.00104106832926
0.00106019517677
0.00107136054002
0.00107879456893
0.00108504383676
0.00109536378932
0.00111226615777
0.00113218522001
0.00116029919392
0.00122835225293
0.0014116942398
0.000877066717546
0.000916908553339
0.00100961250949
0.00104922849988
0.00106908236253
0.00108205439832
0.00109304292343
0.00110414843154
0.00111731907981
0.00113345186293
0.00115263520041
0.00117946894099
0.0012346020893
0.00138110865856
0.000885498012521
0.000924536370757
0.00101763778596
0.0010572817325
0.00107709366881
0.00109020765332
0.00110171120208
0.00111356433574
0.00112670908525
0.00114169659871
0.0011593629553
0.00118400058707
0.00123233011839
0.00135944682704
0.000893685515881
0.000932151573053
0.00102562912739
0.00106512264582
0.00108457589092
0.00109724034625
0.00110825529864
0.00111957505024
0.00113194188189
0.00114579442435
0.0011621261094
0.00118518483622
0.00123049032507
0.00134841954814
0.000901383714142
0.000939534519661
0.00103337407595
0.00107263719676
0.00109158845028
0.0011036377327
0.0011139292376
0.00112442594135
0.0011358635221
0.0011487083046
0.00116418026258
0.00118694405818
0.00123307585174
0.0013511450481
0.000908449703312
0.000946517969815
0.00104070294003
0.00107969923198
0.00109811635734
0.00110950826742
0.00111907697315
0.00112876922461
0.00113934711698
0.00115136063526
0.00116632074337
0.00118973041972
0.00123932734226
0.00136437108843
0.000914950744539
0.000952999893999
0.00104751651707
0.00108623096986
0.00110411637052
0.00111487931817
0.00112376619659
0.00113274004199
0.00114256914616
0.00115387465987
0.00116839945513
0.00119236588562
0.00124494839347
0.00137579322282
0.000920676104372
0.000958905858257
0.00105374089504
0.00109217141962
0.00110954462968
0.00111972441254
0.00112799609577
0.00113633158679
0.00114550055537
0.00115612662495
0.00117000239352
0.00119348375618
0.00124605983988
0.00137665194993
0.000925767389277
0.000964194490306
0.00105932608495
0.00109748172125
0.00111437170854
0.0011240165806
0.00113173909141
0.0011395089145
0.00114809589473
0.00115808959856
0.00117119670134
0.00119354457048
0.00124422755098
0.00137137211162
0.00115030608577
0.00115975014205
0.00117216802972
0.00119343106998
0.00124216137521
0.00136603590011
0.00119295731855
0.00123919279904
0.00135773178003
0.00134164965049
)
;

boundaryField
{
    back
    {
        lowReCorrection 0;
        blending        stepwise;
        n               2;
        type            epsilonWallFunction;
        value           nonuniform List<scalar> 
164
(
0.000853109153741
0.000896729435708
0.000987812643896
0.0010246121075
0.00103700615947
0.00102959770686
0.000990555119898
0.000908345926914
0.00108096645813
0.00108189876614
0.00113082736272
0.00129315998429
0.00120353962946
0.00157084364912
0.000860569271245
0.000902708592518
0.000994439799902
0.00103283931239
0.0010496867466
0.0010550263028
0.0010502485743
0.0010376980271
0.00103129200762
0.00104863884187
0.00106869263295
0.00110268565743
0.00120917699576
0.00145805939602
0.000868694132731
0.000909527481667
0.00100178873815
0.00104106832926
0.00106019517677
0.00107136054002
0.00107879456893
0.00108504383676
0.00109536378932
0.00111226615777
0.00113218522001
0.00116029919392
0.00122835225293
0.0014116942398
0.000877066717546
0.000916908553339
0.00100961250949
0.00104922849988
0.00106908236253
0.00108205439832
0.00109304292343
0.00110414843154
0.00111731907981
0.00113345186293
0.00115263520041
0.00117946894099
0.0012346020893
0.00138110865856
0.000885498012521
0.000924536370757
0.00101763778596
0.0010572817325
0.00107709366881
0.00109020765332
0.00110171120208
0.00111356433574
0.00112670908525
0.00114169659871
0.0011593629553
0.00118400058707
0.00123233011839
0.00135944682704
0.000893685515881
0.000932151573053
0.00102562912739
0.00106512264582
0.00108457589092
0.00109724034625
0.00110825529864
0.00111957505024
0.00113194188189
0.00114579442435
0.0011621261094
0.00118518483622
0.00123049032507
0.00134841954814
0.000901383714142
0.000939534519661
0.00103337407595
0.00107263719676
0.00109158845028
0.0011036377327
0.0011139292376
0.00112442594135
0.0011358635221
0.0011487083046
0.00116418026258
0.00118694405818
0.00123307585174
0.0013511450481
0.000908449703312
0.000946517969815
0.00104070294003
0.00107969923198
0.00109811635734
0.00110950826742
0.00111907697315
0.00112876922461
0.00113934711698
0.00115136063526
0.00116632074337
0.00118973041972
0.00123932734226
0.00136437108843
0.000914950744539
0.000952999893999
0.00104751651707
0.00108623096986
0.00110411637052
0.00111487931817
0.00112376619659
0.00113274004199
0.00114256914616
0.00115387465987
0.00116839945513
0.00119236588562
0.00124494839347
0.00137579322282
0.000920676104372
0.000958905858257
0.00105374089504
0.00109217141962
0.00110954462968
0.00111972441254
0.00112799609577
0.00113633158679
0.00114550055537
0.00115612662495
0.00117000239352
0.00119348375618
0.00124605983988
0.00137665194993
0.000925767389277
0.000964194490306
0.00105932608495
0.00109748172125
0.00111437170854
0.0011240165806
0.00113173909141
0.0011395089145
0.00114809589473
0.00115808959856
0.00117119670134
0.00119354457048
0.00124422755098
0.00137137211162
0.00115030608577
0.00115975014205
0.00117216802972
0.00119343106998
0.00124216137521
0.00136603590011
0.00119295731855
0.00123919279904
0.00135773178003
0.00134164965049
)
;
    }
    sides
    {
        lowReCorrection 0;
        blending        stepwise;
        n               2;
        type            epsilonWallFunction;
        value           nonuniform List<scalar> 0();
    }
    bottom
    {
        lowReCorrection 0;
        blending        stepwise;
        n               2;
        type            epsilonWallFunction;
        value           nonuniform List<scalar> 
11
(
0.000853109153741
0.000860569271245
0.000868694132731
0.000877066717546
0.000885498012521
0.000893685515881
0.000901383714142
0.000908449703312
0.000914950744539
0.000920676104372
0.000925767389277
)
;
    }
    front
    {
        lowReCorrection 0;
        blending        stepwise;
        n               2;
        type            epsilonWallFunction;
        value           nonuniform List<scalar> 
164
(
0.000853109153741
0.000896729435708
0.000987812643896
0.0010246121075
0.00103700615947
0.00102959770686
0.000990555119898
0.000908345926914
0.00108096645813
0.00108189876614
0.00113082736272
0.00129315998429
0.00120353962946
0.00157084364912
0.000860569271245
0.000902708592518
0.000994439799902
0.00103283931239
0.0010496867466
0.0010550263028
0.0010502485743
0.0010376980271
0.00103129200762
0.00104863884187
0.00106869263295
0.00110268565743
0.00120917699576
0.00145805939602
0.000868694132731
0.000909527481667
0.00100178873815
0.00104106832926
0.00106019517677
0.00107136054002
0.00107879456893
0.00108504383676
0.00109536378932
0.00111226615777
0.00113218522001
0.00116029919392
0.00122835225293
0.0014116942398
0.000877066717546
0.000916908553339
0.00100961250949
0.00104922849988
0.00106908236253
0.00108205439832
0.00109304292343
0.00110414843154
0.00111731907981
0.00113345186293
0.00115263520041
0.00117946894099
0.0012346020893
0.00138110865856
0.000885498012521
0.000924536370757
0.00101763778596
0.0010572817325
0.00107709366881
0.00109020765332
0.00110171120208
0.00111356433574
0.00112670908525
0.00114169659871
0.0011593629553
0.00118400058707
0.00123233011839
0.00135944682704
0.000893685515881
0.000932151573053
0.00102562912739
0.00106512264582
0.00108457589092
0.00109724034625
0.00110825529864
0.00111957505024
0.00113194188189
0.00114579442435
0.0011621261094
0.00118518483622
0.00123049032507
0.00134841954814
0.000901383714142
0.000939534519661
0.00103337407595
0.00107263719676
0.00109158845028
0.0011036377327
0.0011139292376
0.00112442594135
0.0011358635221
0.0011487083046
0.00116418026258
0.00118694405818
0.00123307585174
0.0013511450481
0.000908449703312
0.000946517969815
0.00104070294003
0.00107969923198
0.00109811635734
0.00110950826742
0.00111907697315
0.00112876922461
0.00113934711698
0.00115136063526
0.00116632074337
0.00118973041972
0.00123932734226
0.00136437108843
0.000914950744539
0.000952999893999
0.00104751651707
0.00108623096986
0.00110411637052
0.00111487931817
0.00112376619659
0.00113274004199
0.00114256914616
0.00115387465987
0.00116839945513
0.00119236588562
0.00124494839347
0.00137579322282
0.000920676104372
0.000958905858257
0.00105374089504
0.00109217141962
0.00110954462968
0.00111972441254
0.00112799609577
0.00113633158679
0.00114550055537
0.00115612662495
0.00117000239352
0.00119348375618
0.00124605983988
0.00137665194993
0.000925767389277
0.000964194490306
0.00105932608495
0.00109748172125
0.00111437170854
0.0011240165806
0.00113173909141
0.0011395089145
0.00114809589473
0.00115808959856
0.00117119670134
0.00119354457048
0.00124422755098
0.00137137211162
0.00115030608577
0.00115975014205
0.00117216802972
0.00119343106998
0.00124216137521
0.00136603590011
0.00119295731855
0.00123919279904
0.00135773178003
0.00134164965049
)
;
    }
    atmosphere
    {
        type            inletOutlet;
        inletValue      nonuniform List<scalar> 0();
        value           nonuniform List<scalar> 0();
    }
    floatingObject
    {
        lowReCorrection 0;
        blending        stepwise;
        n               2;
        type            epsilonWallFunction;
        value           nonuniform List<scalar> 4(0.00108096645813 0.00108189876614 0.00113082736272 0.00129315998429);
    }
    procBoundary8to3
    {
        type            processor;
        value           nonuniform List<scalar> 8(0.000846622147174 0.000891838562483 0.000982382528791 0.00101740624524 0.00102530828286 0.00100811167742 0.000945531572219 0.000999600942738);
    }
    procBoundary8to6
    {
        type            processor;
        value           nonuniform List<scalar> 
16
(
0.00162285650605
0.00181957615852
0.0022106274882
0.00200671652383
0.00188836471299
0.0018037199699
0.00174194370107
0.00169855646456
0.00168492213891
0.00169814123489
0.00170613988419
0.00169660841037
0.0016808043688
0.00166838448073
0.00164843922766
0.00161014418719
)
;
    }
    procBoundary8to7
    {
        type            processor;
        value           nonuniform List<scalar> 
17
(
0.000930136285405
0.000968849173577
0.001064252943
0.00110214526868
0.0011185842938
0.00112774243614
0.00113497568699
0.0011422440053
0.0011422440053
0.00115211899872
0.00116104863781
0.00117282947434
0.00117282947434
0.0011915782984
0.00123358486242
0.00123358486242
0.00131919197669
)
;
    }
}


// ************************************************************************* //
