/*--------------------------------*- C++ -*----------------------------------*\
| =========                 |                                                 |
| \\      /  F ield         | OpenFOAM: The Open Source CFD Toolbox           |
|  \\    /   O peration     | Version:  v2012                                 |
|   \\  /    A nd           | Website:  www.openfoam.com                      |
|    \\/     M anipulation  |                                                 |
\*---------------------------------------------------------------------------*/
FoamFile
{
    version     2.0;
    format      ascii;
    class       surfaceScalarField;
    location    "4.2";
    object      phi;
}
// * * * * * * * * * * * * * * * * * * * * * * * * * * * * * * * * * * * * * //

dimensions      [0 3 -1 0 0 0 0];
oriented        oriented;


internalField   nonuniform List<scalar> 
300
(
-1.34300945569e-05
3.85010999541e-05
-2.62520969012e-05
3.50428908567e-05
-3.8856198393e-05
3.1054560505e-05
-5.26114545631e-05
2.69729785933e-05
-6.94727563486e-05
2.18517725426e-05
-9.25450873017e-05
1.31787077899e-05
-0.000124334650143
1.0130033915e-06
-0.000162804180415
-4.03865648263e-06
-0.000173905673164
1.11017124776e-05
-0.000169966086845
-3.93938940823e-06
-0.000178264828247
8.29881796251e-06
-0.000279701403968
0.000101436475952
-0.000199880994949
0.000255522841407
0.00015197098938
-1.39981626121e-05
5.24995703391e-05
-2.76896049644e-05
4.87346742327e-05
-4.14914117298e-05
4.48567053302e-05
-5.62115462559e-05
4.16934257583e-05
-7.30722275919e-05
3.87127307369e-05
-9.46523216486e-05
3.47590531739e-05
-0.000125320545926
3.16814592851e-05
-0.000160733787225
3.13747972789e-05
-0.000179634727404
3.00028494747e-05
-0.000206591799524
2.30178501339e-05
-0.000238889847041
4.05969466862e-05
-0.000253282576877
0.000115829160068
-0.000196175508746
0.000198415612636
0.000143301471847
-1.43986362269e-05
6.68985370361e-05
-2.84966970688e-05
6.28330925576e-05
-4.26674238964e-05
5.90277725776e-05
-5.741247258e-05
5.64387729906e-05
-7.35827933837e-05
5.48832999909e-05
-9.27923718158e-05
5.39688417592e-05
-0.000115373541529
5.42628126716e-05
-0.000140843187588
5.68446108735e-05
-0.000166772168538
5.5931983195e-05
-0.000198239372472
5.44851844017e-05
-0.000228623856982
7.09815089441e-05
-0.000230626802168
0.000117832105966
-0.000188597905638
0.000156386653696
0.000135816901795
-1.45700195825e-05
8.14689202541e-05
-2.89469485242e-05
7.72104049511e-05
-4.32791078754e-05
7.33602840059e-05
-5.7988191262e-05
7.11481502416e-05
-7.36282281026e-05
7.052356606e-05
-9.06696955765e-05
7.1010486995e-05
-0.000109010215793
7.26034769375e-05
-0.000127848018343
7.56825414971e-05
-0.000149638652175
7.77227374163e-05
-0.000175462762867
8.03094076036e-05
-0.000197503455172
9.30222902977e-05
-0.000199343288125
0.000119671993785
-0.000181319607163
0.000138363011029
0.000132125578517
-1.46615582664e-05
9.61308771163e-05
-2.90209283468e-05
9.1570186515e-05
-4.33072155506e-05
8.76469388243e-05
-5.79024266884e-05
8.57436573162e-05
-7.28738464779e-05
8.54952061228e-05
-8.85056268722e-05
8.66424279377e-05
-0.000104712790087
8.88107651287e-05
-0.000121134546821
9.21044120416e-05
-0.000138815308653
9.54036173346e-05
-0.000158127032915
9.96212586916e-05
-0.000174071381182
0.000108966764267
-0.000178402880793
0.0001240036174
-0.000174498062491
0.00013445833522
0.000133919055812
-1.461539142e-05
0.000110746700371
-2.88318664965e-05
0.00010578710065
-4.29600331063e-05
0.000101775491678
-5.71851963737e-05
9.99691271828e-05
-7.17669587489e-05
0.000100077194831
-8.64604806384e-05
0.000101336115582
-0.000101449005319
0.000103799424571
-0.000116394668213
0.000107050208019
-0.000131696603177
0.000110705702959
-0.000147298949003
0.000115223778064
-0.000160123388643
0.000121791390021
-0.000166850986429
0.000130731419879
-0.000169562058885
0.000137169651511
0.000139248262053
-1.43887513048e-05
0.000125135912484
-2.84153178309e-05
0.000119814131961
-4.22969930208e-05
0.000115657574411
-5.62050416926e-05
0.000113877501827
-7.02164772294e-05
0.000114088878234
-8.44672905525e-05
0.000115587122236
-9.85776961574e-05
0.000117910001917
-0.000112641808962
0.00012111450207
-0.00012662080147
0.000124684905462
-0.000140166161138
0.000128769379313
-0.000152149336723
0.000133774824388
-0.000160666369458
0.000139248737962
-0.000167023712697
0.00014352732383
0.0001468417746
-1.39902545453e-05
0.000139126651612
-2.77618405608e-05
0.000133586207744
-4.12921395827e-05
0.0001291883066
-5.48142329024e-05
0.00012739994919
-6.84166699944e-05
0.000127691597551
-8.21041462453e-05
0.000129274835395
-9.58244759114e-05
0.000131630557212
-0.000109256442699
0.000134546713264
-0.000122481980291
0.000137910722193
-0.000135293531255
0.000141581242782
-0.000147118711947
0.000145600331874
-0.000157262383007
0.000149392760995
-0.000166609408633
0.000152874733212
0.000156825584071
-1.3646225658e-05
0.000152773525942
-2.69800656407e-05
0.000146920674148
-4.01720774703e-05
0.000142380871997
-5.33244604605e-05
0.000140552794381
-6.65351891536e-05
0.00014090270937
-7.97970576221e-05
0.000142537041072
-9.30799998756e-05
0.000144913830704
-0.000106255742116
0.000147722814646
-0.000119219591532
0.000150874924498
-0.000131942326665
0.00015430434846
-0.00014414430079
0.000157802680842
-0.000155812853586
0.000161061710683
-0.000166951119435
0.000164013403712
0.000168143345983
-1.31185947256e-05
0.000165892984622
-2.61108019451e-05
0.000159913711342
-3.89322340343e-05
0.000155203038047
-5.17278259448e-05
0.000153349005628
-6.45784161715e-05
0.000153753826351
-7.74994583356e-05
0.000155458561959
-9.04492409032e-05
0.000157864095367
-0.000103445913436
0.000160719940836
-0.000116311811112
0.000163741284445
-0.000129059650157
0.000167052637082
-0.00014163341392
0.000170376838502
-0.00015403152017
0.000173460199135
-0.000165911082745
0.000175893318412
0.000178909753486
-1.26772619148e-05
-2.5186495036e-05
-3.76129802188e-05
-5.00419208968e-05
-6.2542186193e-05
-7.51233719714e-05
-8.77941994302e-05
-0.000100528226613
-0.000113442500285
0.000176656121168
-0.000126100048273
0.000179710589463
-0.000138952116049
0.00018322940331
-0.000151638147518
0.00018614649996
-0.000164143912775
0.000188399221453
0.000189908473443
-0.000110135101318
-0.000123185591299
-0.000136263630161
-0.000149786098961
0.000199669189744
-0.000163576139792
0.000202189278596
0.00020291197685
-0.000147370948774
-0.000162435712998
0.000218077629718
)
;

boundaryField
{
    back
    {
        type            calculated;
        value           uniform 0;
    }
    sides
    {
        type            calculated;
        value           nonuniform List<scalar> 0();
    }
    bottom
    {
        type            calculated;
        value           uniform 0;
    }
    front
    {
        type            calculated;
        value           uniform 0;
    }
    atmosphere
    {
        type            calculated;
        value           nonuniform List<scalar> 0();
    }
    floatingObject
    {
        type            calculated;
        value           uniform 0;
    }
    procBoundary8to3
    {
        type            processor;
        value           nonuniform List<scalar> 8(-2.50705447094e-05 -2.22203748993e-05 -1.84499242578e-05 -1.32171897248e-05 -4.98996437961e-06 9.89410930106e-06 3.07770022387e-05 4.25086069092e-05);
    }
    procBoundary8to6
    {
        type            processor;
        value           nonuniform List<scalar> 
16
(
-0.000335343737234
-0.00015308880489
-0.000198763729668
-0.00018750619825
-0.00018111342318
-0.000177628252122
-0.000176291394015
-0.000174891016611
-0.000174616899239
-0.000176592854724
-0.00017826853723
-0.000176677223251
-0.000175142566169
-0.000176579806876
-0.000177601312763
-0.000174173576421
)
;
    }
    procBoundary8to7
    {
        type            processor;
        value           nonuniform List<scalar> 
17
(
0.000178571207481
0.000172423888137
0.000167630366352
0.000165778665858
0.000166254710193
0.000168040312703
0.000170535498703
0.000173454558973
9.74903494736e-05
0.000189301678422
0.000192761771831
0.00019630763985
0.000133189200863
0.000213851184587
0.000217253372344
0.000158426061066
0.000233823596815
)
;
    }
}


// ************************************************************************* //
