/*--------------------------------*- C++ -*----------------------------------*\
| =========                 |                                                 |
| \\      /  F ield         | OpenFOAM: The Open Source CFD Toolbox           |
|  \\    /   O peration     | Version:  v2012                                 |
|   \\  /    A nd           | Website:  www.openfoam.com                      |
|    \\/     M anipulation  |                                                 |
\*---------------------------------------------------------------------------*/
FoamFile
{
    version     2.0;
    format      ascii;
    class       surfaceVectorField;
    location    "4.2";
    object      Uf;
}
// * * * * * * * * * * * * * * * * * * * * * * * * * * * * * * * * * * * * * //

dimensions      [0 1 -1 0 0 0 0];


internalField   nonuniform List<vector> 
300
(
(0.00604606494799 -0.00268601891138 5.25575688604e-21)
(0.00770021999081 -0.00151464562954 2.37509540783e-21)
(0.0053119458492 -0.00525041938024 2.09708861328e-20)
(0.00700857817134 -0.00410242280538 5.47479470709e-21)
(0.0043729302682 -0.0077712396786 9.15958846801e-20)
(0.006210912101 -0.00669110656288 2.43346697283e-20)
(0.00296807387958 -0.0105222909126 3.66666023437e-19)
(0.00539459571865 -0.00941050450983 1.07709514188e-19)
(0.000624331569614 -0.0138945512697 1.30474619803e-18)
(0.00437035450853 -0.0124089180677 4.29112956856e-19)
(-0.00279763306316 -0.0185090174603 3.96750930475e-18)
(0.00263574155799 -0.0160465270675 1.51237578874e-18)
(-0.00550452083917 -0.0248669300285 9.33185186241e-18)
(0.0002026006783 -0.0215074711997 4.41061868513e-18)
(-0.00248641660993 -0.032560836083 1.62206553455e-17)
(-0.000807731296527 -0.0290829799717 9.33460587321e-18)
(-0.000305058361719 -0.0347811346328 1.9981201485e-17)
(0.00222034249552 -0.0343843664564 1.40980806554e-17)
(4.03161153762e-05 -0.0339932173691 1.64478531693e-17)
(-0.000787877881647 -0.0361930116868 1.44237032996e-17)
(0.0165467203725 -0.0356529656493 1.2890785239e-17)
(0.0016597635925 -0.0372182347971 9.77801261124e-18)
(0.0472778439818 -0.0559402807935 1.02520838632e-17)
(0.0202872951904 -0.0532845635496 1.07917494664e-17)
(0.0482930570974 -0.0399761989897 6.3671317655e-18)
(0.0511045682815 -0.0455703583208 7.34345821715e-18)
(0.030394197876 -0.0364318972552 5.13003286576e-18)
(0.00875638320124 -0.00279963252241 2.59413322888e-21)
(0.0104999140678 -0.00154920661157 1.95100745727e-21)
(0.00799540858653 -0.00553792099288 8.83857830256e-21)
(0.00974693484653 -0.00425599353798 2.29679971244e-21)
(0.00723014799372 -0.00829828234595 4.04482992367e-20)
(0.00897134106604 -0.00699040014048 9.62101999681e-21)
(0.00647466973582 -0.0112423092512 1.70156447607e-19)
(0.00833868515166 -0.00984239112493 4.45420214883e-20)
(0.00570466792832 -0.0146144455184 6.36742547566e-19)
(0.00774254614737 -0.0128777077666 1.84174562349e-19)
(0.00509181010423 -0.0189304643297 1.95548516912e-18)
(0.00695181063478 -0.0164286917074 6.71713103849e-19)
(0.00464741446158 -0.0250641091852 4.41337269594e-18)
(0.00633629185702 -0.0213640848257 1.9518549433e-18)
(0.00388361333993 -0.032146757445 7.21203118307e-18)
(0.00627495945579 -0.0272119835189 4.00169502601e-18)
(0.0019728818714 -0.0359269454807 8.54058246999e-18)
(0.00600056989495 -0.0322497946966 5.80460456896e-18)
(0.00173374915021 -0.0413183599049 7.75386274156e-18)
(0.00460357002677 -0.037272876434 5.90502841577e-18)
(0.0104827908037 -0.0477779694081 7.6789768386e-18)
(0.00811938933723 -0.0443984114672 5.07788780831e-18)
(0.0322314867649 -0.0506565153754 7.88312382032e-18)
(0.0231658320136 -0.0502355882881 6.27888102957e-18)
(0.0386546382138 -0.0392351017493 6.10635931741e-18)
(0.0396831225271 -0.0438856532847 5.59341688619e-18)
(0.0286602943693 -0.0349016125742 3.84555941286e-18)
(0.011560690538 -0.00287972724539 1.65367394084e-21)
(0.0133797074072 -0.00157296838072 1.94226668224e-21)
(0.010786140723 -0.00569933941377 3.07924140669e-21)
(0.0125666185115 -0.00434622270575 1.03374995364e-21)
(0.0101251022551 -0.00853348477928 1.37147422484e-20)
(0.0118055545155 -0.00714874357849 3.09890071911e-21)
(0.00965067778749 -0.011482494516 5.85601362302e-20)
(0.0112877545981 -0.0100423492645 1.44970256697e-20)
(0.0092961270863 -0.0147165586767 2.19145118632e-19)
(0.0109766599982 -0.0130651863803 6.02713292976e-20)
(0.00901067973047 -0.0185584743632 6.68082878027e-19)
(0.0107937683518 -0.0164309164909 2.18494424164e-19)
(0.00904670845197 -0.0230747083057 1.54017727337e-18)
(0.0108525625343 -0.0203814652922 6.30865097219e-19)
(0.00916936658261 -0.0281686375175 2.5942684119e-18)
(0.0113689221747 -0.024578308783 1.32973491108e-18)
(0.00866638143823 -0.0333544337077 3.16905051474e-18)
(0.011186396639 -0.0289992606454 1.97969403659e-18)
(0.00994470360862 -0.0396478744945 3.22905348252e-18)
(0.0108970368803 -0.0342977022112 2.09895469447e-18)
(0.0172137673431 -0.0457247713964 3.67779199927e-18)
(0.0141963017888 -0.0407346255673 2.12847782715e-18)
(0.027916527579 -0.0461253604335 3.98917409544e-18)
(0.0235664211932 -0.0443407108351 2.74076332901e-18)
(0.0304451040661 -0.0377195811276 3.33261698164e-18)
(0.0312773307392 -0.0401760913797 2.56509602359e-18)
(0.0271633803589 -0.0349433741277 1.91188211042e-18)
(0.0144294400079 -0.0029140039165 1.32234269505e-21)
(0.0162937840508 -0.00158663159938 1.78932556748e-21)
(0.0136300497494 -0.00578938970484 1.05340926607e-21)
(0.0154420809902 -0.00438833941754 5.55143110022e-22)
(0.0130160444612 -0.00865582157507 3.88118414032e-21)
(0.0146720568012 -0.00721435607918 8.84650897649e-22)
(0.0126753681462 -0.0115976382524 1.62082187371e-20)
(0.0142296300483 -0.0101173546023 3.97063923549e-21)
(0.0125514454441 -0.0147256456205 5.96206348292e-20)
(0.014104713212 -0.013098744282 1.61944414624e-20)
(0.0126062590181 -0.0181339391153 1.81276643355e-19)
(0.014202097399 -0.0162623286787 5.74551365622e-20)
(0.0129308309783 -0.0218020431585 4.2042273493e-19)
(0.0145206953875 -0.0196602651781 1.65587186134e-19)
(0.0133036933096 -0.0255696036686 7.15160535774e-19)
(0.0151365082994 -0.0230892658925 3.5183952475e-19)
(0.0135627511364 -0.0299277304349 9.09598216319e-19)
(0.0155445474833 -0.0267040594334 5.30314204113e-19)
(0.0151148697398 -0.0350925525735 9.983790391e-19)
(0.0160618815207 -0.0310150826777 5.93649424552e-19)
(0.0199738614689 -0.0395006910343 1.19144915688e-18)
(0.0186044580595 -0.035698085736 6.40308157768e-19)
(0.0260140337896 -0.0398686576249 1.31668525715e-18)
(0.023934398757 -0.0382771121131 8.26613297956e-19)
(0.027541250251 -0.0362639214326 1.14436115236e-18)
(0.0276726022057 -0.0367497750684 7.95795899605e-19)
(0.0264251157033 -0.0347288877109 6.34251527916e-19)
(0.0173249572866 -0.00293231165328 1.02212598245e-21)
(0.0192261754233 -0.00158141534855 1.60500328557e-21)
(0.0164969562596 -0.00580418566936 3.86384741605e-22)
(0.018314037303 -0.00438313606443 3.4568603484e-22)
(0.0159104163244 -0.00866144311012 9.74105992816e-22)
(0.0175293877649 -0.00719708608605 2.52590554735e-22)
(0.015667885795 -0.0115804853377 3.95686196084e-21)
(0.0171487314632 -0.0100669850215 9.91237083521e-22)
(0.0157037915029 -0.0145747692956 1.40289431955e-20)
(0.0170990412246 -0.0129790281018 3.9340366481e-21)
(0.015975690863 -0.0177011253744 4.17656793403e-20)
(0.0173284855875 -0.0159752726955 1.31245909845e-20)
(0.0164930576151 -0.0209425580175 9.70039759541e-20)
(0.0177621530257 -0.0190686239448 3.7005407811e-20)
(0.0171130133285 -0.0242269093642 1.66993193089e-19)
(0.0184208824083 -0.0221617656172 7.89318744491e-20)
(0.0178155729218 -0.0277630617306 2.14365412347e-19)
(0.0190807234669 -0.0253210310509 1.20574659861e-19)
(0.0192587667285 -0.0316254065831 2.3557854322e-19)
(0.0199242517383 -0.0287783422203 1.35697007226e-19)
(0.0222385041498 -0.0348142762364 2.75472298842e-19)
(0.0217933528533 -0.0322169048699 1.45168155648e-19)
(0.0256001110271 -0.0356805761586 3.05723940407e-19)
(0.0248007234799 -0.0343547453451 1.80570397395e-19)
(0.0267092757239 -0.0348996124982 2.85686275159e-19)
(0.0268916670441 -0.0344972091332 1.79640586219e-19)
(0.0267838111625 -0.0343365040344 1.56543931721e-19)
(0.0202127460758 -0.00292307828399 9.28563337958e-22)
(0.0221493400743 -0.0015578848267 1.65836967135e-21)
(0.0193461886364 -0.0057663732993 2.1189184797e-22)
(0.02115742013 -0.00433758008162 3.60052603516e-22)
(0.0187648649114 -0.00859200662125 2.6972164544e-22)
(0.0203550983356 -0.00711728301212 1.73219987281e-22)
(0.0185803481366 -0.0114370392747 9.68411770779e-22)
(0.0199938254366 -0.00992733589643 3.55996133312e-22)
(0.0187063240969 -0.0143533917498 3.02968443715e-21)
(0.0200154389661 -0.0127596170824 1.03565760003e-21)
(0.0190535528165 -0.0172920961277 8.36431945524e-21)
(0.0202672231164 -0.0156419108129 2.7670879837e-21)
(0.0196041518742 -0.0202898010638 1.89333063061e-20)
(0.0207598849142 -0.0185521114963 7.29416018538e-21)
(0.0203021666243 -0.0232789336425 3.25133412208e-20)
(0.0214100416038 -0.021441104189 1.5163885257e-20)
(0.0211380021134 -0.0263393206353 4.19062547405e-20)
(0.0221411405918 -0.024330431262 2.31965482801e-20)
(0.0223710933215 -0.0294597898006 4.52866196535e-20)
(0.0230447556129 -0.0272960255044 2.62379453339e-20)
(0.0242276147986 -0.0320246777285 5.02662542006e-20)
(0.0243582780042 -0.0301131563783 2.70161905688e-20)
(0.026136900458 -0.0333701972859 5.44870432077e-20)
(0.0261462839759 -0.0321641057447 3.13733062212e-20)
(0.027081042528 -0.0339124117771 5.04982427807e-20)
(0.0274339303021 -0.0332101187977 3.08742095464e-20)
(0.0278496524107 -0.0340739211463 2.39953398002e-20)
(0.023075844506 -0.00287775026096 1.08985893691e-21)
(0.0250271824967 -0.00151990968213 1.58648566693e-21)
(0.0221587466606 -0.00568306356619 3.21380742827e-22)
(0.0239628263923 -0.00425740329811 3.18659452718e-22)
(0.0215678519785 -0.00845939860416 2.59494475152e-22)
(0.0231315148823 -0.00698353129132 1.47900026209e-22)
(0.0214057423701 -0.0112410083385 4.23241962566e-22)
(0.0227755003654 -0.00972652434152 2.40431410735e-22)
(0.0215722950287 -0.0140432954459 7.73061146579e-22)
(0.0228177756467 -0.0124730638244 4.25669581163e-22)
(0.0219547428894 -0.0168934581105 1.69692871384e-21)
(0.0231174244471 -0.0152562522782 6.91302195885e-22)
(0.0224994734528 -0.0197155392315 3.52473913627e-21)
(0.0235820003833 -0.0180483208217 1.5064556552e-21)
(0.02317578051 -0.0225283617925 5.84709231626e-21)
(0.024222900414 -0.0208067678352 2.82865522333e-21)
(0.0239782938958 -0.025324160294 7.52823887348e-21)
(0.0249369810924 -0.0235300027354 4.28361469253e-21)
(0.0249984894058 -0.0280332322277 7.96751624915e-21)
(0.0257538758626 -0.0262338815094 4.879114647e-21)
(0.0262439599462 -0.0304298673446 8.1232425894e-21)
(0.0267549648776 -0.0287976019473 4.70167456771e-21)
(0.0274110081884 -0.0321332738917 7.76047255999e-21)
(0.0278497475925 -0.0309298814384 4.72240524578e-21)
(0.028212163191 -0.0334047425395 4.37130656593e-21)
(0.0287054647661 -0.0325514178201 3.30247485451e-21)
(0.02936835492 -0.0340848069766 -3.33743936422e-21)
(0.0258873972712 -0.00279805090906 8.15286182743e-22)
(0.0278253303225 -0.00146983716738 9.34093308647e-22)
(0.0249186455533 -0.00555236811215 1.451787361e-22)
(0.0267172415488 -0.00414803132516 -8.34119692816e-23)
(0.0243095222695 -0.00825842791653 1.28836961791e-22)
(0.02583766132 -0.00680829698456 -8.12503374771e-23)
(0.0241548814961 -0.0109628465805 2.42859029332e-22)
(0.0254799898379 -0.00948167272047 9.54659211566e-23)
(0.0243343180988 -0.0136833339989 3.4391063047e-22)
(0.0255383195103 -0.0121495576823 2.60136281802e-22)
(0.0247305247108 -0.0164208292491 5.00829137247e-22)
(0.0258549670789 -0.0148380413092 3.12662429835e-22)
(0.0252689991448 -0.0191648951823 8.1037174226e-22)
(0.0263261114424 -0.0175367281101 4.47397193671e-22)
(0.0259059092275 -0.0218512885397 1.26517759959e-21)
(0.0269093426528 -0.0202122230392 6.56645945161e-22)
(0.0266288849891 -0.0244963960581 1.63449046605e-21)
(0.0275821444386 -0.0228471867299 9.86294183631e-22)
(0.0274543053694 -0.0270587062511 1.61327296556e-21)
(0.0283162485564 -0.0254413495096 1.09814405617e-21)
(0.0283400740602 -0.0294237423893 1.30083722409e-21)
(0.0291200663749 -0.027939074364 8.66299723629e-22)
(0.0291267977251 -0.0314524766015 2.64407540307e-22)
(0.029878552199 -0.0302251701545 4.67046131335e-22)
(0.0298366383115 -0.0333218817266 -4.40627107564e-21)
(0.0305749466423 -0.0322796427906 -1.41713845547e-21)
(0.0313651168142 -0.0342945651302 -1.0038182902e-20)
(0.0286246874439 -0.0027292451316 3.5395156622e-23)
(0.0305547051884 -0.0014154097625 1.47659322463e-22)
(0.0276085708646 -0.00539601312815 -3.09841042859e-22)
(0.0293841348297 -0.0040201093671 -5.12150749993e-22)
(0.0269791452209 -0.00803441549406 -1.14621378111e-22)
(0.0284761743993 -0.00660573436544 -2.99833079769e-22)
(0.0268286158683 -0.0106648920921 1.12743173627e-22)
(0.0281105588762 -0.00920721127269 -8.71748610554e-24)
(0.0270194418473 -0.0133070378307 2.28888081167e-22)
(0.028180541874 -0.0118027040921 1.9782435076e-22)
(0.0274169362368 -0.0159594115244 2.59230486259e-22)
(0.0285074082144 -0.01441264679 2.3138572662e-22)
(0.0279433464292 -0.0186159999751 2.93671396573e-22)
(0.0289827661407 -0.0170335535999 2.38472072013e-22)
(0.0285513020714 -0.0212511484232 3.77762529197e-22)
(0.0295445629293 -0.0196506158146 2.62482918592e-22)
(0.0292181225758 -0.0238439183065 4.49947773746e-22)
(0.0301749848996 -0.0222442352789 3.3281656175e-22)
(0.0299329630035 -0.0263884653331 3.51170814238e-22)
(0.030860869692 -0.0248062420755 2.96678897713e-22)
(0.0306542665512 -0.028828860158 3.25086308698e-23)
(0.0315605361685 -0.0273203098647 1.74865178881e-22)
(0.0313134171688 -0.0311625707173 -1.21449986444e-21)
(0.0322123421366 -0.0297545918333 -1.9672342452e-22)
(0.0320228782156 -0.033390223887 -7.04905028184e-21)
(0.0328026807424 -0.0320894280939 -2.09115109795e-21)
(0.0336286691965 -0.0343356026699 -1.14656092348e-20)
(0.0312783337248 -0.00262371894512 -3.99886584153e-22)
(0.0331785969244 -0.00135584174977 -1.66586420726e-22)
(0.0302242835243 -0.00522216038903 -5.02142786904e-22)
(0.0319827422684 -0.00388059749702 -5.54418464477e-22)
(0.029576687406 -0.00778644680687 -1.93929187763e-22)
(0.0310406076095 -0.00638665742848 -2.97052681975e-22)
(0.0294296728914 -0.010345565189 7.63636910282e-23)
(0.0306698011255 -0.00891382612706 1.69275241689e-24)
(0.0296332719392 -0.0129156832343 2.00321996213e-22)
(0.0307507652703 -0.0114381025726 1.89102941067e-22)
(0.0300378519907 -0.0154998916671 2.10627312374e-22)
(0.0310917123918 -0.0139776446653 2.0832857333e-22)
(0.0305610543694 -0.0180898481806 2.07283594032e-22)
(0.0315728190734 -0.0165314100699 1.86144082564e-22)
(0.0311593075194 -0.0206891826872 2.17536951144e-22)
(0.0321439881671 -0.0190970635688 1.76599048014e-22)
(0.031799747189 -0.0232623622224 1.79547685718e-22)
(0.0327482568891 -0.0216661364816 1.90418377881e-22)
(0.0324630760328 -0.0258119300313 1.20373262355e-22)
(0.0334105274164 -0.024216904784 1.28321305121e-22)
(0.0331198345196 -0.028326682784 -5.43668765086e-23)
(0.0340753677003 -0.0267512167105 -1.5770421588e-23)
(0.0337382250876 -0.030806304034 -1.07337465802e-21)
(0.034692039827 -0.0292724156664 -3.84284092999e-22)
(0.034390733605 -0.0331822165491 -6.50771005089e-21)
(0.0351786636823 -0.0317486529097 -2.25902762307e-21)
(0.0357819506972 -0.0340794893461 -1.06948652634e-20)
(0.0338418190408 -0.00253545238295 -3.2111830105e-22)
(0.0327627152707 -0.0050372990072 -3.49328359548e-22)
(0.03210211002 -0.00752259604376 -1.01430741795e-22)
(0.0319604857509 -0.0100083841794 1.14432002456e-22)
(0.0321781530117 -0.0125084372386 1.97109518184e-22)
(0.0325967180061 -0.0150246743943 1.8384534352e-22)
(0.0331299834691 -0.017558839886 1.55459536546e-22)
(0.0337380375868 -0.0201056453227 1.49480474751e-22)
(0.0343859971118 -0.0226885000571 1.39191997284e-22)
(0.0353312242336 -0.0210576473218 1.3013186343e-22)
(0.0350314607527 -0.0252200096547 -7.82237882243e-24)
(0.0359421178927 -0.0236098062443 1.18886263958e-22)
(0.0356448499197 -0.0277904232097 -3.45687638079e-22)
(0.036645880662 -0.026176572395 -3.7671563254e-23)
(0.0361916685024 -0.0303276295036 -1.56993705805e-21)
(0.0372292999921 -0.028775582053 -4.80872123309e-22)
(0.0366661022136 -0.0328287825549 -6.44618283555e-21)
(0.0376798442905 -0.0314056738262 -2.35375804379e-21)
(0.0379816946885 -0.0339464229573 -9.21947293207e-21)
(0.0369467433819 -0.0220270202637 1.09826130104e-22)
(0.0376229205222 -0.0246371182597 8.90370795263e-23)
(0.038249531907 -0.0272527260322 -1.72856048484e-22)
(0.0387744986781 -0.0299572197923 -1.26469310905e-21)
(0.0399338379488 -0.0282490001275 -3.66514123292e-22)
(0.0391341055681 -0.0327152279585 -5.12704814032e-21)
(0.0404378557192 -0.0310752145375 -1.78531276424e-21)
(0.04058239537 -0.0339672204517 -6.56042875522e-21)
(0.0416546907631 -0.0294741897548 -8.8713377848e-22)
(0.0420278313341 -0.0324871425996 -3.21869337914e-21)
(0.0436155259436 -0.0335542158079 -4.13091623163e-21)
)
;

boundaryField
{
    back
    {
        type            calculated;
        value           uniform (0 0 0);
    }
    sides
    {
        type            calculated;
        value           nonuniform List<vector> 0();
    }
    bottom
    {
        type            calculated;
        value           uniform (0 0 0);
    }
    front
    {
        type            calculated;
        value           uniform (0 0 0);
    }
    atmosphere
    {
        type            calculated;
        value           nonuniform List<vector> 0();
    }
    floatingObject
    {
        type            calculated;
        value           nonuniform List<vector> 4((0 -1.66533453694e-15 2.08166817117e-16) (0 -1.66533453694e-15 2.08166817117e-16) (0 0 0) (0 -3.33066907388e-15 2.08166817117e-16));
    }
    procBoundary8to3
    {
        type            processor;
        value           nonuniform List<vector> 8((0.00501410894189 -0.0014669632084 3.65815219022e-21) (0.00444407497986 -0.0038725867828 1.10951638979e-20) (0.00368998485156 -0.00615454977624 4.87060822651e-20) (0.00264343794495 -0.00832341290935 2.01873710373e-19) (0.000997992875922 -0.0103417325589 7.44863021383e-19) (-0.00197882186021 -0.0121268156118 2.41471144331e-18) (-0.00615540044773 -0.0137652031376 6.33414482711e-18) (-0.00850172138185 -0.0173809755491 1.24006559592e-17));
    }
    procBoundary8to6
    {
        type            processor;
        value           nonuniform List<vector> 
16
(
(0.0670687474469 -0.0354348196636 6.36574960779e-18)
(0.0306177609781 -0.0380319883176 4.68978728105e-18)
(0.0216951874863 -0.0397527459337 4.09451957463e-18)
(0.0226751387165 -0.03750123965 3.58164832399e-18)
(0.0222797318419 -0.036222684636 1.97065199774e-18)
(0.0232395994045 -0.0355256504243 6.94804953397e-19)
(0.0250114074998 -0.035258278803 1.76076506752e-19)
(0.0269926358472 -0.0349782033222 2.63533107251e-20)
(0.0290471632854 -0.0349233798479 -7.82527837596e-21)
(0.0311590400505 -0.0353185709449 -2.1104059982e-20)
(0.0334649576143 -0.0356537074461 -2.82127327324e-20)
(0.0355596569823 -0.0353354446501 -2.67110798779e-20)
(0.0373681564532 -0.0350285132339 -2.18742737304e-20)
(0.0393727509988 -0.0353159613752 -1.61953459949e-20)
(0.0418114527442 -0.0355202625527 -9.27512588556e-21)
(0.0446055434067 -0.0348347152843 -5.36880810312e-21)
)
;
    }
    procBoundary8to7
    {
        type            processor;
        value           nonuniform List<vector> 
17
(
(0.0357142414963 -0.00128935187801 -2.29916180307e-22)
(0.0344847776274 -0.00373216693614 -4.51972965736e-22)
(0.0335260732704 -0.00615677400528 -2.00416167735e-22)
(0.0331557331715 -0.008604502812 4.51449990707e-23)
(0.0332509420386 -0.0110552283292 1.77110307219e-22)
(0.0336080625406 -0.0135246616961 1.80157557235e-22)
(0.0341070997407 -0.0160125533628 1.51032924326e-22)
(0.0346909117946 -0.0185214298685 1.34322181526e-22)
(0.0362726355728 -0.0194980698947 1.14973570205e-22)
(0.0378603356844 -0.0204053682624 7.90805072517e-23)
(0.0385523543663 -0.0229535104072 7.52686517308e-23)
(0.03926152797 -0.025559895406 1.99402186048e-23)
(0.0410031131097 -0.0266378401726 -1.73717856203e-22)
(0.0427702369174 -0.0275577476196 -3.77874216692e-22)
(0.0434506744689 -0.0304692667892 -1.54010015259e-21)
(0.0451565382297 -0.0316852122131 -2.45232300508e-21)
(0.046764719363 -0.0323969865126 -3.13025414722e-21)
)
;
    }
}


// ************************************************************************* //
