/*--------------------------------*- C++ -*----------------------------------*\
| =========                 |                                                 |
| \\      /  F ield         | OpenFOAM: The Open Source CFD Toolbox           |
|  \\    /   O peration     | Version:  v2012                                 |
|   \\  /    A nd           | Website:  www.openfoam.com                      |
|    \\/     M anipulation  |                                                 |
\*---------------------------------------------------------------------------*/
FoamFile
{
    version     2.0;
    format      ascii;
    class       volVectorField;
    location    "3.3";
    object      ddt0(rho,U);
}
// * * * * * * * * * * * * * * * * * * * * * * * * * * * * * * * * * * * * * //

dimensions      [1 -2 -2 0 0 0 0];


internalField   nonuniform List<vector> 
164
(
(-82.7559817085 -42.9288040812 -1.08415761331e-18)
(-93.3759336638 -50.1238058583 -1.82480149053e-18)
(-106.429668165 -57.875302805 -2.35161808244e-18)
(-122.159838521 -66.540003646 -1.71188527912e-18)
(-141.157717136 -77.0357072958 -1.49034866928e-18)
(-164.252397819 -90.5971659532 -5.23834391869e-19)
(-192.156409898 -108.527282969 -6.60701203638e-19)
(-224.300063023 -132.27032396 3.08740138299e-18)
(-267.742621872 -168.339416556 -1.03542468665e-17)
(-324.633887963 -156.506338714 -1.17949658356e-17)
(-219.611534363 43.9136020049 -3.63753643581e-17)
(-77.6506021283 79.6532032526 9.00107489431e-17)
(52.1954139822 -68.2731622255 -2.67177977809e-20)
(-48.9811935404 -2.51321367475 -2.14859081009e-19)
(-49.3020909 -8.82833088034 2.662104843e-19)
(-50.7701573463 -14.9528579947 1.11408544331e-19)
(-52.8950117596 -21.1754220476 -6.10160081477e-20)
(-60.2968314112 -35.2883325597 -6.22366692085e-19)
(-66.1644270906 -43.3076113639 -2.52862028916e-18)
(-73.9413391343 -52.1798948328 -6.06370450354e-18)
(-84.0577444348 -61.7728049861 -1.07477507078e-17)
(-96.5872912724 -72.0398031287 -1.28582492257e-17)
(-111.365723566 -83.4745242214 -1.16851621022e-17)
(-128.7899536 -97.3297248847 -1.20800377643e-17)
(-149.553748072 -115.111120033 -1.01880982639e-17)
(-173.686184163 -137.464807731 -6.0750663669e-18)
(-200.184671935 -167.508833664 -7.08747665558e-19)
(-235.428929938 -209.398832041 -9.77828199e-18)
(-261.967592456 -215.743360254 8.75666065589e-18)
(-166.268125413 -27.8485216223 5.55403652458e-18)
(-28.7534041706 65.555294805 -4.14491543919e-17)
(35.4724451261 17.6316755612 9.46968527848e-19)
(-42.8117202244 -2.79214696752 -1.45491937915e-19)
(-43.0019170706 -9.7361109621 1.71861948548e-19)
(-44.0690728447 -16.539553951 -1.52324873779e-20)
(-45.5932673282 -23.5862486406 -5.18871826005e-20)
(-47.8990318884 -31.3498354088 -5.35145614924e-19)
(-51.2267824141 -40.0142175917 -2.70206980504e-18)
(-56.1065478946 -49.8329675241 -1.12958473036e-17)
(-63.0771418389 -60.7787738092 -2.76255501552e-17)
(-72.5664426835 -72.672310686 -4.91694572779e-17)
(-84.3716681983 -85.1145824627 -5.80611947e-17)
(-97.742087668 -98.5239532241 -5.77874432792e-17)
(-112.836368731 -114.686255481 -7.60633756464e-17)
(-130.456094154 -135.321916461 -5.47793034353e-17)
(-150.155296181 -159.47740362 -2.24803047116e-17)
(-170.079082383 -188.762480567 -1.59778328563e-18)
(-193.490572213 -231.963421185 2.37751882531e-17)
(-201.778103517 -232.858767458 5.81991162888e-18)
(-109.65585631 -50.7077734946 1.20692772588e-17)
(2.82102545928 67.6203871884 -3.76240687291e-17)
(9.79315403889 6.48834570162 -4.10692158586e-19)
(-36.1395310296 -2.9800094795 -2.14970530095e-19)
(-36.1924365573 -10.3390413431 1.22408973056e-19)
(-36.8070044025 -17.591320203 1.20083393445e-19)
(-37.6480190057 -25.1904353163 4.06769740315e-19)
(-38.9474701595 -33.7457915954 -1.59006162815e-18)
(-41.0024851254 -43.5728360921 -9.83365192715e-18)
(-44.2572707415 -55.0820340216 -4.14783120388e-17)
(-49.8975544209 -68.2625318851 -1.01886217593e-16)
(-59.0091109808 -82.5195200994 -1.98608206623e-16)
(-70.3911264572 -96.7942916994 -2.28716670973e-16)
(-82.3569154266 -111.343404237 -2.41921171816e-16)
(-95.0663684954 -128.918964919 -3.36851824259e-16)
(-110.138339227 -151.493180358 -9.32504511712e-17)
(-127.528582065 -175.052076121 1.54813671613e-16)
(-141.92448164 -199.953889018 1.52207789912e-16)
(-155.065833633 -241.184554437 7.27311435824e-17)
(-159.006407722 -235.561090323 2.49530866633e-17)
(-110.306393498 -73.1355781658 -4.40197862143e-18)
(-31.4533333036 65.5365454905 -7.76701813811e-17)
(-1.66535671975 -2.82250040452 1.82900922488e-18)
(-29.1701296642 -3.06805515649 -1.62312870169e-19)
(-29.0836432482 -10.6092569785 3.52869973878e-19)
(-29.2156283106 -18.0475767676 5.43067265651e-19)
(-29.2931169013 -25.9052371202 8.27346993952e-19)
(-29.4788680536 -34.8451557514 -2.0884436046e-18)
(-29.9812217197 -45.316943352 -3.08663684874e-17)
(-31.2314415531 -58.1247329939 -1.31918995682e-16)
(-34.8332859407 -73.9555016742 -3.44240932817e-16)
(-44.6709587226 -91.1194991322 -8.9001194209e-16)
(-54.6887796067 -107.14338353 -9.02404893588e-16)
(-63.398404843 -122.191630526 -1.0022381589e-15)
(-71.5541692423 -141.345422103 -1.45078090297e-15)
(-89.6308992708 -162.11284476 -4.51200224442e-16)
(-107.492433039 -182.10824746 5.68192221856e-16)
(-114.684007859 -203.636055195 9.24244041418e-16)
(-112.807841098 -246.626340325 4.49797293079e-16)
(-98.7134765844 -269.316187934 3.68382610485e-17)
(-25.7550911895 -147.48995777 2.62696895536e-16)
(30.6458558898 6.8068803472 1.26773739724e-16)
(12.1849400035 -7.90562651646 -5.70303467636e-18)
(-22.1333256504 -3.05937081156 4.10253188566e-20)
(-21.9324536609 -10.536483614 9.78466800514e-19)
(-21.5680832638 -17.8580058168 2.51493744012e-18)
(-20.6946209379 -25.6428451701 3.72039722439e-18)
(-19.2190345931 -34.5905521258 -4.77200671162e-18)
(-17.1433954941 -45.008786748 -9.86968617227e-17)
(-14.8686877608 -57.610405617 -4.60761801176e-16)
(-15.0363105525 -78.1622156819 -1.01141762193e-15)
(-25.6959975046 -99.5072349235 -2.37450815002e-15)
(-38.387455692 -114.978677702 -2.34136353191e-16)
(-49.4289729508 -134.726106416 1.00857466069e-15)
(-59.146472983 -160.919771602 -1.25480849493e-15)
(-82.2689232135 -178.859704061 4.00460900951e-16)
(-90.6967914064 -175.95945967 1.14417148841e-15)
(-93.5322897822 -187.166898218 2.52069696096e-15)
(-83.2536842249 -217.232844924 1.66744227761e-15)
(-37.6634365528 -217.322468838 3.06160847503e-16)
(85.716569802 -68.2559391928 4.59914576201e-16)
(117.531735306 74.9632096303 6.59263187173e-16)
(12.6632321705 2.12467872721 -3.97932040167e-18)
(-15.242585251 -2.99082423664 5.56562798302e-19)
(-15.0108489899 -10.1456726222 2.06477639276e-18)
(-14.5074942178 -16.8456388817 6.11635925587e-18)
(-13.3855998151 -23.6166871676 1.1083304646e-17)
(-11.2647369672 -31.0582187264 -6.97014430125e-18)
(-6.99698227605 -39.8868532293 -2.90122674756e-16)
(3.59107854127 -54.1382270969 -1.53633121659e-15)
(28.2699766245 -86.7832320745 -3.63372026835e-15)
(-14.7629859064 -121.089155026 -7.10427228821e-15)
(-15.3753361552 -143.487329807 -5.8170636182e-16)
(-10.3912489707 -180.775429688 3.48693341699e-15)
(0.182904608037 -205.783419881 2.45968820309e-15)
(-116.573547181 -195.574605163 4.19302448805e-15)
(-101.936697076 -157.524750556 5.82593609688e-15)
(-75.803817508 -161.771912509 2.86980577125e-15)
(-58.9097523169 -184.820117557 1.8022749469e-15)
(-20.3631888574 -164.834637482 -6.83820904442e-17)
(68.7879964873 -22.9752450789 9.79843769983e-16)
(43.7613718975 73.1157212659 8.58640033914e-16)
(-6.0958158176 7.77706706271 9.6603355466e-18)
(-8.53276155705 -2.90033990083 9.30926641397e-19)
(-8.31068643494 -9.85366061295 4.0142446005e-18)
(-7.78040166097 -16.2754799129 1.18023455853e-17)
(-6.62247806494 -22.440410123 2.43586042647e-17)
(-4.27140189865 -27.8212850583 5.71510178631e-17)
(0.117968306787 -30.8898144258 8.88867026797e-17)
(10.9017769973 -32.7720787337 1.7229180923e-16)
(38.751744547 -9.13158641556 1.34245250164e-15)
(-2.01756071177 -2.80105199355 1.1299074199e-18)
(-1.89904059336 -9.41359979794 5.83710906427e-18)
(-1.54983856958 -15.2045181381 1.44031497825e-17)
(-0.785339068386 -20.1205223576 2.91545096544e-18)
(0.796786359455 -23.8117400195 -1.42622766847e-16)
(2.96535317937 -25.0034827537 -5.27098058782e-17)
(5.68084752256 -23.4700996714 -8.11315801777e-16)
(13.6923565604 -8.58016098366 -2.95487657951e-15)
(4.34712767016 -2.78410909085 1.06517945276e-18)
(4.24468127273 -9.36940706857 5.86088903532e-18)
(3.97488943349 -15.1419518516 1.44532299866e-17)
(3.31817202923 -20.0493525714 2.21181063037e-18)
(1.86862315013 -23.8259585223 -1.44219737931e-16)
(-0.223220720544 -24.980011986 -4.02142356207e-17)
(-3.00401483969 -23.4064211167 -8.17717587678e-16)
(-10.998416615 -8.58757212442 -2.96441200128e-15)
(10.7431033859 -2.85585282086 1.34736332723e-19)
(10.5286983894 -9.73821065709 4.14099909344e-18)
(10.0549992138 -16.1183172657 1.12528598069e-17)
(8.95851594716 -22.2537809193 2.42845776283e-17)
(6.64865637434 -27.5828426179 5.75363534781e-17)
(2.33057672462 -30.8755261419 8.81196531855e-17)
(-8.56450037924 -32.9556142436 1.66201588848e-16)
(-36.3801425013 -9.22216964214 1.31572389756e-15)
)
;

boundaryField
{
    back
    {
        type            calculated;
        value           uniform (0 0 0);
    }
    sides
    {
        type            calculated;
        value           nonuniform List<vector> 0();
    }
    bottom
    {
        type            calculated;
        value           uniform (0 0 0);
    }
    front
    {
        type            calculated;
        value           uniform (0 0 0);
    }
    atmosphere
    {
        type            calculated;
        value           nonuniform List<vector> 7((52.1241127988 -68.2731757658 -5.04325371042e-20) (0.00109077157942 17.6308804221 -4.46008532469e-23) (-0.0299630396599 6.4883457169 -4.19830267317e-20) (-7.7406483281 -2.82250124791 -1.27702845696e-18) (-2.77515180488 -7.90562624242 -1.44847318144e-17) (12.6401174729 2.12469117996 -4.29843152136e-18) (4.47542592955 7.77693595481 3.49701030868e-17));
    }
    floatingObject
    {
        type            calculated;
        value           nonuniform List<vector> 8((0 -1.80302257026e-11 2.25377821282e-12) (0 0 2.25377949841e-12) (0 0 0) (0 -3.60605902782e-11 2.25378689239e-12) (4.50753417583e-12 0 0) (0 0 2.25376661032e-12) (0 0 2.25376691164e-12) (0 0 0));
    }
    procBoundary3to4
    {
        type            processor;
        value           nonuniform List<vector> 
13
(
(-89.4057396101 -33.1358020201 -1.42340830041e-19)
(-100.266306781 -38.0587818244 -3.0988099519e-19)
(-113.594464191 -43.1882876407 -3.80938654717e-19)
(-54.4553393481 -2.13479492058 2.06064893648e-19)
(-54.8686239866 -7.63491856583 9.09182599392e-20)
(-56.6652119224 -12.88024332 -2.00693963305e-20)
(-59.2388223294 -18.1415926356 -2.8599581495e-20)
(-67.8600126691 -29.7155238765 -5.00179091509e-20)
(-74.3835123401 -36.1342415719 -4.72109216172e-19)
(-74.3835123401 -36.1342415719 -4.72109216172e-19)
(-55.9882929729 -27.9645998117 -1.98829990639e-19)
(-55.9882929729 -27.9645998117 -1.98829990639e-19)
(-55.9882929729 -27.9645998117 -1.98829990639e-19)
)
;
    }
    procBoundary3to5
    {
        type            processor;
        value           nonuniform List<vector> 10((-129.779506018 -48.7064942348 -6.08047436142e-19) (-149.623377091 -55.2590144262 -7.68152145309e-19) (-174.169035593 -63.5926726761 -1.64667173749e-18) (-204.559560396 -74.3669645818 -3.93567566475e-19) (-240.370407319 -86.8440603202 1.30469208764e-18) (-289.091777297 -109.173458351 -2.19794369766e-18) (-360.432007839 -72.3187472035 -3.45232811304e-17) (-201.565979117 107.062737406 -8.10375893817e-17) (28.6381637659 85.8782656105 -1.34287769336e-16) (-19.4068138372 -47.1630580011 -5.44646073343e-19));
    }
    procBoundary3to6
    {
        type            processor;
        value           nonuniform List<vector> 8((-103.826812487 -35.6198469483 1.04651246456e-15) (-66.1926621868 -107.80044596 1.28277725604e-15) (-50.1862503621 -138.799214148 8.01998223476e-16) (-44.0149259378 -174.693914951 8.76785218807e-16) (-14.5873200361 -155.419596054 1.92159483531e-16) (37.7853856815 -30.8159596937 1.27524527995e-15) (-0.66868644526 57.599539664 9.79758143503e-16) (-8.08363382208 -2.5665418493 -1.35044436469e-17));
    }
    procBoundary3to8
    {
        type            processor;
        value           nonuniform List<vector> 8((17.2302902597 -2.92436154116 2.84874190306e-19) (16.9975301812 -9.97987971961 1.7392629096e-18) (16.5208244794 -16.6372303433 6.0751272282e-18) (15.4103783452 -23.4205067532 1.30353596348e-17) (13.2435031668 -30.9385602208 -8.90419436724e-18) (8.81576671555 -39.8990498879 -2.91795586937e-16) (-1.77220716201 -54.2199001015 -1.52764448004e-15) (-26.6493270254 -86.6294185419 -3.63279311319e-15));
    }
}


// ************************************************************************* //
