/*--------------------------------*- C++ -*----------------------------------*\
| =========                 |                                                 |
| \\      /  F ield         | OpenFOAM: The Open Source CFD Toolbox           |
|  \\    /   O peration     | Version:  v2012                                 |
|   \\  /    A nd           | Website:  www.openfoam.com                      |
|    \\/     M anipulation  |                                                 |
\*---------------------------------------------------------------------------*/
FoamFile
{
    version     2.0;
    format      ascii;
    class       volScalarField;
    location    "3.3";
    object      k;
}
// * * * * * * * * * * * * * * * * * * * * * * * * * * * * * * * * * * * * * //

dimensions      [0 2 -2 0 0 0 0];


internalField   nonuniform List<scalar> 
164
(
0.00395989431491
0.00398518204468
0.00401302169975
0.00404419735895
0.00408289428101
0.00414812464106
0.00430902447898
0.00476233805506
0.00591171646815
0.00829500526962
0.012748812422
0.0221587365937
0.0556528183993
0.00281483845758
0.00349945794947
0.00373015708288
0.00382447837287
0.00389862824249
0.00392334302462
0.00394864427741
0.00397621577974
0.00400647408056
0.00403970339287
0.00407886231406
0.00413937871627
0.00428210637918
0.0047013064185
0.00585028759273
0.00835927343141
0.0131108510508
0.0246541221942
0.0699648369776
0.00279744387501
0.00347946582221
0.00371005299364
0.00380520828939
0.00385175764514
0.00388192993855
0.00390815094654
0.00393515455394
0.00396484059009
0.00399769424426
0.00403338621187
0.0040742266946
0.00413603152562
0.00428116857311
0.00471111561494
0.00590159256199
0.00849840055778
0.0132961316859
0.0243399678623
0.0675925668694
0.00277940278345
0.00345951007635
0.00368982271418
0.00378540332936
0.00383250699739
0.00386300742897
0.00388904596555
0.00391549976077
0.00394538111177
0.00398028606157
0.00401840287489
0.00406104472542
0.00412974588932
0.00429873530044
0.00478317723465
0.0060590093481
0.00871681272636
0.0133540243419
0.0227021688245
0.0621103051029
0.00276131988248
0.00344039549437
0.00367021459236
0.00376551492525
0.00381172021574
0.00383941873721
0.00385920408287
0.00387578986573
0.00389813766739
0.00393274153183
0.00397326719744
0.00401722523752
0.00410125595222
0.00432243680364
0.00490819367021
0.00631625307856
0.00902225026909
0.0134264286799
0.0213798328207
0.0529508111312
0.00274395150226
0.00342308726863
0.00365207666183
0.00374587547243
0.00378801922236
0.00380469124975
0.00379899685771
0.00376456100357
0.00375885288916
0.00378688187188
0.00383471183949
0.00388952446097
0.00401067992287
0.00432404354983
0.00507675895004
0.00668463840577
0.0094588127793
0.0137626945204
0.0227885912466
0.0527284374948
0.00272808070501
0.00340858586207
0.00363640272776
0.0037271273659
0.00376037873161
0.00375185065707
0.00367823071718
0.00347331708299
0.00325801033274
0.0032329596506
0.00329268998114
0.00338212749856
0.00372083547603
0.00426232392319
0.00528338379251
0.0071557203466
0.0100153333594
0.0141825846421
0.0244915968135
0.0581867070764
0.002714489997
0.00339666309222
0.00362352607021
0.00371070681254
0.0037343747991
0.00370129403119
0.00356330247225
0.00303559086038
0.00270533131085
0.00339018861667
0.00361688308546
0.00370196891337
0.00371944577488
0.00367015355764
0.00349367067532
0.00287783489597
0.00270531208814
0.00339017079395
0.00361686683093
0.00370195728044
0.00371944045701
0.00367015066814
0.00349368644542
0.00287787436981
0.00271446113906
0.00339662150697
0.00362348999225
0.00371067868373
0.0037343578269
0.00370129684092
0.00356334536424
0.00303565879486
)
;

boundaryField
{
    back
    {
        type            kqRWallFunction;
        value           nonuniform List<scalar> 
164
(
0.00395989431491
0.00398518204468
0.00401302169975
0.00404419735895
0.00408289428101
0.00414812464106
0.00430902447898
0.00476233805506
0.00591171646815
0.00829500526962
0.012748812422
0.0221587365937
0.0556528183993
0.00281483845758
0.00349945794947
0.00373015708288
0.00382447837287
0.00389862824249
0.00392334302462
0.00394864427741
0.00397621577974
0.00400647408056
0.00403970339287
0.00407886231406
0.00413937871627
0.00428210637918
0.0047013064185
0.00585028759273
0.00835927343141
0.0131108510508
0.0246541221942
0.0699648369776
0.00279744387501
0.00347946582221
0.00371005299364
0.00380520828939
0.00385175764514
0.00388192993855
0.00390815094654
0.00393515455394
0.00396484059009
0.00399769424426
0.00403338621187
0.0040742266946
0.00413603152562
0.00428116857311
0.00471111561494
0.00590159256199
0.00849840055778
0.0132961316859
0.0243399678623
0.0675925668694
0.00277940278345
0.00345951007635
0.00368982271418
0.00378540332936
0.00383250699739
0.00386300742897
0.00388904596555
0.00391549976077
0.00394538111177
0.00398028606157
0.00401840287489
0.00406104472542
0.00412974588932
0.00429873530044
0.00478317723465
0.0060590093481
0.00871681272636
0.0133540243419
0.0227021688245
0.0621103051029
0.00276131988248
0.00344039549437
0.00367021459236
0.00376551492525
0.00381172021574
0.00383941873721
0.00385920408287
0.00387578986573
0.00389813766739
0.00393274153183
0.00397326719744
0.00401722523752
0.00410125595222
0.00432243680364
0.00490819367021
0.00631625307856
0.00902225026909
0.0134264286799
0.0213798328207
0.0529508111312
0.00274395150226
0.00342308726863
0.00365207666183
0.00374587547243
0.00378801922236
0.00380469124975
0.00379899685771
0.00376456100357
0.00375885288916
0.00378688187188
0.00383471183949
0.00388952446097
0.00401067992287
0.00432404354983
0.00507675895004
0.00668463840577
0.0094588127793
0.0137626945204
0.0227885912466
0.0527284374948
0.00272808070501
0.00340858586207
0.00363640272776
0.0037271273659
0.00376037873161
0.00375185065707
0.00367823071718
0.00347331708299
0.00325801033274
0.0032329596506
0.00329268998114
0.00338212749856
0.00372083547603
0.00426232392319
0.00528338379251
0.0071557203466
0.0100153333594
0.0141825846421
0.0244915968135
0.0581867070764
0.002714489997
0.00339666309222
0.00362352607021
0.00371070681254
0.0037343747991
0.00370129403119
0.00356330247225
0.00303559086038
0.00270533131085
0.00339018861667
0.00361688308546
0.00370196891337
0.00371944577488
0.00367015355764
0.00349367067532
0.00287783489597
0.00270531208814
0.00339017079395
0.00361686683093
0.00370195728044
0.00371944045701
0.00367015066814
0.00349368644542
0.00287787436981
0.00271446113906
0.00339662150697
0.00362348999225
0.00371067868373
0.0037343578269
0.00370129684092
0.00356334536424
0.00303565879486
)
;
    }
    sides
    {
        type            kqRWallFunction;
        value           nonuniform List<scalar> 0();
    }
    bottom
    {
        type            kqRWallFunction;
        value           nonuniform List<scalar> 10(0.00281483845758 0.00279744387501 0.00277940278345 0.00276131988248 0.00274395150226 0.00272808070501 0.002714489997 0.00270533131085 0.00270531208814 0.00271446113906);
    }
    front
    {
        type            kqRWallFunction;
        value           nonuniform List<scalar> 
164
(
0.00395989431491
0.00398518204468
0.00401302169975
0.00404419735895
0.00408289428101
0.00414812464106
0.00430902447898
0.00476233805506
0.00591171646815
0.00829500526962
0.012748812422
0.0221587365937
0.0556528183993
0.00281483845758
0.00349945794947
0.00373015708288
0.00382447837287
0.00389862824249
0.00392334302462
0.00394864427741
0.00397621577974
0.00400647408056
0.00403970339287
0.00407886231406
0.00413937871627
0.00428210637918
0.0047013064185
0.00585028759273
0.00835927343141
0.0131108510508
0.0246541221942
0.0699648369776
0.00279744387501
0.00347946582221
0.00371005299364
0.00380520828939
0.00385175764514
0.00388192993855
0.00390815094654
0.00393515455394
0.00396484059009
0.00399769424426
0.00403338621187
0.0040742266946
0.00413603152562
0.00428116857311
0.00471111561494
0.00590159256199
0.00849840055778
0.0132961316859
0.0243399678623
0.0675925668694
0.00277940278345
0.00345951007635
0.00368982271418
0.00378540332936
0.00383250699739
0.00386300742897
0.00388904596555
0.00391549976077
0.00394538111177
0.00398028606157
0.00401840287489
0.00406104472542
0.00412974588932
0.00429873530044
0.00478317723465
0.0060590093481
0.00871681272636
0.0133540243419
0.0227021688245
0.0621103051029
0.00276131988248
0.00344039549437
0.00367021459236
0.00376551492525
0.00381172021574
0.00383941873721
0.00385920408287
0.00387578986573
0.00389813766739
0.00393274153183
0.00397326719744
0.00401722523752
0.00410125595222
0.00432243680364
0.00490819367021
0.00631625307856
0.00902225026909
0.0134264286799
0.0213798328207
0.0529508111312
0.00274395150226
0.00342308726863
0.00365207666183
0.00374587547243
0.00378801922236
0.00380469124975
0.00379899685771
0.00376456100357
0.00375885288916
0.00378688187188
0.00383471183949
0.00388952446097
0.00401067992287
0.00432404354983
0.00507675895004
0.00668463840577
0.0094588127793
0.0137626945204
0.0227885912466
0.0527284374948
0.00272808070501
0.00340858586207
0.00363640272776
0.0037271273659
0.00376037873161
0.00375185065707
0.00367823071718
0.00347331708299
0.00325801033274
0.0032329596506
0.00329268998114
0.00338212749856
0.00372083547603
0.00426232392319
0.00528338379251
0.0071557203466
0.0100153333594
0.0141825846421
0.0244915968135
0.0581867070764
0.002714489997
0.00339666309222
0.00362352607021
0.00371070681254
0.0037343747991
0.00370129403119
0.00356330247225
0.00303559086038
0.00270533131085
0.00339018861667
0.00361688308546
0.00370196891337
0.00371944577488
0.00367015355764
0.00349367067532
0.00287783489597
0.00270531208814
0.00339017079395
0.00361686683093
0.00370195728044
0.00371944045701
0.00367015066814
0.00349368644542
0.00287787436981
0.00271446113906
0.00339662150697
0.00362348999225
0.00371067868373
0.0037343578269
0.00370129684092
0.00356334536424
0.00303565879486
)
;
    }
    atmosphere
    {
        type            inletOutlet;
        inletValue      uniform 0.1;
        value           nonuniform List<scalar> 7(0.1 0.0699648369776 0.0675925668694 0.1 0.1 0.1 0.0581867070764);
    }
    floatingObject
    {
        type            kqRWallFunction;
        value           nonuniform List<scalar> 8(0.00325801033274 0.0032329596506 0.00329268998114 0.00338212749856 0.00303559086038 0.00287783489597 0.00287787436981 0.00303565879486);
    }
    procBoundary3to4
    {
        type            processor;
        value           nonuniform List<scalar> 
13
(
0.00396978474747
0.00399301765284
0.00401883106149
0.00283114307764
0.0035187955018
0.00374949929159
0.00384269840971
0.00391367528335
0.00393658948533
0.00393658948533
0.00386977554657
0.00386977554657
0.00386977554657
)
;
    }
    procBoundary3to5
    {
        type            processor;
        value           nonuniform List<scalar> 10(0.0040485153327 0.00408812924499 0.00416284121224 0.00435573799203 0.00486980724217 0.00604306932127 0.00829654024831 0.0124826374917 0.0210202233853 0.0432383131942);
    }
    procBoundary3to6
    {
        type            processor;
        value           nonuniform List<scalar> 8(0.00363912224499 0.00464647444619 0.00596000719505 0.00799179509015 0.0107363629452 0.0145526926589 0.0247830083618 0.0627253519981);
    }
    procBoundary3to8
    {
        type            processor;
        value           nonuniform List<scalar> 8(0.00272804232502 0.0034085223082 0.00363634733331 0.00372708425349 0.00376035627505 0.003751860708 0.00367823470201 0.00347329946611);
    }
}


// ************************************************************************* //
