/*--------------------------------*- C++ -*----------------------------------*\
| =========                 |                                                 |
| \\      /  F ield         | OpenFOAM: The Open Source CFD Toolbox           |
|  \\    /   O peration     | Version:  v2012                                 |
|   \\  /    A nd           | Website:  www.openfoam.com                      |
|    \\/     M anipulation  |                                                 |
\*---------------------------------------------------------------------------*/
FoamFile
{
    version     2.0;
    format      ascii;
    class       surfaceVectorField;
    location    "3.3";
    object      Uf;
}
// * * * * * * * * * * * * * * * * * * * * * * * * * * * * * * * * * * * * * //

dimensions      [0 1 -1 0 0 0 0];


internalField   nonuniform List<vector> 
296
(
(0.0369710069073 0.0335675181968 1.09205267847e-21)
(0.0331982085851 0.0319822692962 3.4629511155e-21)
(0.0394557075649 0.0388810573889 1.36111222507e-21)
(0.0353236666028 0.037465231795 5.52641311375e-21)
(0.042331079606 0.0443370221739 1.39911851053e-21)
(0.0379890853267 0.0430052239408 6.4198674567e-21)
(0.0454086182885 0.0500913017003 1.19090585636e-21)
(0.0408468196867 0.0486187813543 5.62274468552e-21)
(0.0486742644231 0.0565024341039 1.00818558232e-21)
(0.0435984517548 0.0547225678195 4.87436545238e-21)
(0.0522627191388 0.0637943341503 8.68868995116e-22)
(0.0464794926689 0.0617872583997 3.83344492493e-21)
(0.0555871668168 0.0718845554157 1.31711511362e-21)
(0.049930153303 0.069809068964 2.90428604831e-21)
(0.0571132964007 0.0806423643412 -9.78996197744e-22)
(0.0524967904284 0.0781291936856 1.53577868522e-21)
(0.0556704959681 0.0890220252989 1.57152864677e-22)
(0.0530732112621 0.0890660346297 7.91602897324e-22)
(0.0584168066137 0.0984045340275 1.25713759686e-20)
(0.0497836815281 0.089915142807 3.79195933735e-21)
(0.0202808096577 0.111067128015 2.88723776615e-20)
(0.0570419960786 0.0995645105204 1.39201143994e-20)
(-0.154681559472 0.106154505454 4.22240052771e-21)
(-0.00369580893257 0.103840352485 1.37040385605e-20)
(-0.00747427722957 0.00710224304684 -1.24490942677e-20)
(0.0241859864258 0.00354584941523 9.72334462538e-22)
(0.0216439252435 0.00184951483855 1.89641290642e-21)
(0.0254839895034 0.00728870584335 1.5310324687e-22)
(0.0230322170959 0.00544103597598 4.22930726369e-22)
(0.0264291654575 0.0112431961244 7.67141421204e-23)
(0.0240385096483 0.00931223047895 1.59007683787e-22)
(0.0246787746958 0.0134431433107 3.21309120282e-22)
(0.0286007324343 0.0248563805233 1.81601559422e-21)
(0.0256125683799 0.0227396359794 3.27348917115e-21)
(0.0297878131144 0.03013941605 4.35186317385e-21)
(0.0263625402981 0.0280248971862 1.00808009977e-20)
(0.0315254362001 0.0357786418401 7.89731155078e-21)
(0.0275589475564 0.0337976642874 2.38566200182e-20)
(0.033897891 0.0415250932429 1.05851683454e-20)
(0.0295772296644 0.0398333764305 3.97450843667e-20)
(0.0366205573408 0.047184656802 1.06434936317e-20)
(0.0323295807987 0.0456349713011 4.5354071902e-20)
(0.03924078298 0.0529922299912 9.30620428154e-21)
(0.035039305365 0.0511347704792 3.91182688003e-20)
(0.0417163806979 0.0595942666805 7.69962479499e-21)
(0.0369964625219 0.0571443038784 4.00316413325e-20)
(0.0444909491009 0.0672289548389 5.86886197812e-21)
(0.0388448134616 0.0644962196832 3.50739891594e-20)
(0.0472364526788 0.0756091285513 3.12294961991e-21)
(0.0415499697832 0.0727981824774 2.30248889707e-20)
(0.049230556132 0.0840893618936 3.30637778028e-21)
(0.0440165211458 0.0807854711589 1.00441197227e-20)
(0.0484607061224 0.0904877144328 4.42640937e-21)
(0.0466748266084 0.0909672832148 1.74933250607e-21)
(0.0500162253433 0.0961574895481 5.14069776819e-21)
(0.0441138916853 0.0886818684342 8.85509591867e-22)
(0.0267270783898 0.10258003511 -1.24822470161e-21)
(0.0506193709816 0.0994121480842 7.99374480358e-21)
(-0.0615003163421 0.0819306326887 -2.9674562349e-21)
(0.0169590850869 0.102800144945 -8.19508340787e-21)
(-0.0191763742572 0.0539969014369 2.90307972692e-20)
(0.0205072793423 0.0035932142462 1.34700917025e-21)
(0.0180510989171 0.00185399647262 2.32602666193e-21)
(0.0215903799221 0.00739544436664 4.28835163286e-22)
(0.0192302733629 0.00544804276033 7.29924575841e-22)
(0.0222835744819 0.0114354548188 4.03602661948e-22)
(0.0199986385405 0.00934893691153 5.76867650308e-22)
(0.0226637997532 0.0157753537786 1.11421027774e-21)
(0.0203388681663 0.0135311659567 1.26466375292e-21)
(0.0229178878195 0.0205034853745 3.65604535763e-21)
(0.0204011612346 0.0180941583213 4.85541896175e-21)
(0.0232903495636 0.0257341025652 1.15382745746e-20)
(0.0203818527628 0.0231619645785 1.80302969855e-20)
(0.0240374568937 0.0315165088361 2.95855578421e-20)
(0.0205800543873 0.0288325622144 5.93713386586e-20)
(0.0255742108957 0.037819678397 5.57043928342e-20)
(0.0212557335851 0.0352646159331 1.48506285745e-19)
(0.0280729150185 0.0439670737376 7.45139879233e-20)
(0.0234298149498 0.0419613590213 2.54108418597e-19)
(0.0308905304984 0.0495774750013 7.38288470706e-20)
(0.0267191660571 0.0478614020692 2.90484863757e-19)
(0.0330569269708 0.0550956510961 6.98437058512e-20)
(0.0295210979426 0.0527838475361 2.732981629e-19)
(0.0345393429228 0.0617265416393 6.74060056969e-20)
(0.0303655117199 0.0582949224136 3.3905303208e-19)
(0.0364860295136 0.069672854852 5.2230016152e-20)
(0.0308984124908 0.0659616762277 3.19982038765e-19)
(0.0390305111457 0.0777842218724 2.99460590734e-20)
(0.0334385053763 0.0747314343637 2.12475446858e-19)
(0.0421944258139 0.0850983037906 8.48707444847e-21)
(0.0367023573487 0.0817961573993 9.22256077034e-20)
(0.0432092484308 0.089835880712 -1.79156727207e-21)
(0.04193720493 0.090246007119 2.34286718839e-20)
(0.0448749679389 0.0926459497677 3.73855662726e-21)
(0.0413038081229 0.0856997556368 1.23670369418e-20)
(0.0342693824895 0.097885553899 1.04688609732e-21)
(0.0453797487168 0.095345484733 1.88403414322e-20)
(0.0303540714689 0.0837058266712 2.38031700962e-20)
(0.0311432418792 0.0944518746098 -4.29077482076e-21)
(0.0435105537468 0.0286147132167 5.07340709291e-20)
(0.0168122992864 0.00355945216222 1.70894206752e-21)
(0.0144918666821 0.0018163997382 2.39763505571e-21)
(0.0176658026341 0.00733148196416 8.77957062863e-22)
(0.0154583906096 0.00532448269177 1.00739452186e-21)
(0.0180769430623 0.0113605020184 1.43792874128e-21)
(0.0159696741612 0.00915784884725 1.47503154342e-21)
(0.0180873619615 0.0157199899077 5.00587243694e-21)
(0.0159793556881 0.013273955426 5.13536921206e-21)
(0.0178374207159 0.0205400299929 1.92296705896e-20)
(0.01558105441 0.0177884614732 2.14758198489e-20)
(0.0175719431779 0.0260203668268 6.58633610695e-20)
(0.0149014439545 0.0228853975629 8.57418048642e-20)
(0.0176444530306 0.0323217792699 1.78292066561e-19)
(0.0142785837597 0.0287307372535 2.96107538549e-19)
(0.0190649843742 0.0395817348752 3.46910311507e-19)
(0.0139957384769 0.0359794925731 7.55403244644e-19)
(0.022206107386 0.0460517704926 4.70079294431e-19)
(0.016959739783 0.0434128246858 1.25138035365e-18)
(0.0256116236118 0.0511217281827 4.89954179587e-19)
(0.0216491512213 0.0490641694909 1.37989609877e-18)
(0.0273447427832 0.0559013695713 5.42507489129e-19)
(0.0247413607329 0.0531675013468 1.26241682372e-18)
(0.0274793444786 0.0624748547023 5.91629065148e-19)
(0.0237918997598 0.0577782852162 1.57991131073e-18)
(0.0287289220743 0.0709433878121 4.8022746947e-19)
(0.0224297312856 0.0659095492889 1.56710413873e-18)
(0.0320942485411 0.078829188128 2.74754995488e-19)
(0.0255525718597 0.0751265982744 1.15723691559e-18)
(0.0373829350825 0.0843870687395 1.07167205139e-19)
(0.0311443942186 0.0809553102833 5.58214970421e-19)
(0.0409745042614 0.0866433682531 3.75872760978e-20)
(0.0396808873363 0.0874926279082 2.02992193122e-19)
(0.0430252896794 0.0861104781897 2.74688217468e-20)
(0.0418367141753 0.0810779851703 1.136376516e-19)
(0.039878199131 0.0877540218918 1.35026805141e-20)
(0.0437362513981 0.0877153076566 9.59697112306e-20)
(0.0503621289916 0.0918863678503 2.26401260121e-20)
(0.0270099836691 0.0828372968342 8.30913067857e-20)
(0.142399420671 -0.0127669196822 7.78869715916e-20)
(0.013190360143 0.00343682625447 1.69608751006e-21)
(0.0110551378263 0.00172871319193 2.04674321974e-21)
(0.0138083845913 0.00708235339957 1.60446900241e-21)
(0.0118129128115 0.00505989516291 1.2842088969e-21)
(0.0139200646316 0.0109868685428 5.17247201419e-21)
(0.0120651586575 0.00871988257602 3.89724251633e-21)
(0.0135397616567 0.0152058650998 2.1605316624e-20)
(0.0117603226219 0.012636929319 1.83012946447e-20)
(0.0127314482405 0.0198644780842 8.79879541235e-20)
(0.0109223927321 0.016864391882 8.00383834903e-20)
(0.0115698839767 0.0252323782658 3.15985982344e-19)
(0.00953350359853 0.0214893085474 3.31686944672e-19)
(0.0102284476227 0.0318794186539 8.73218716632e-19)
(0.00763151809802 0.0267213100879 1.17220920576e-18)
(0.0114155831931 0.0405504676664 1.65987328679e-18)
(0.00532466960221 0.0351901327528 2.96064854731e-18)
(0.0160593858352 0.04682583361 2.16119715799e-18)
(0.0106843402753 0.0438266168536 4.69267485278e-18)
(0.0202940583737 0.0509509603604 2.15235874291e-18)
(0.0175239446035 0.0487999791871 5.29716492307e-18)
(0.0204712406235 0.0551254194619 2.29982064533e-18)
(0.020566773663 0.0532308792289 4.21569418739e-18)
(0.0182457618151 0.0617056169935 2.55538638432e-18)
(0.0172115406086 0.0586634027054 4.77273606544e-18)
(0.0194849986673 0.0701172656137 2.24411358485e-18)
(0.0140179175767 0.0687842214523 4.40614636949e-18)
(0.0253769288252 0.0775917602917 1.44069689052e-18)
(0.0180779552929 0.0757907967776 3.37801330639e-18)
(0.0341835294754 0.081748577013 6.54039958405e-19)
(0.0269875584395 0.077733054863 1.81569619811e-18)
(0.0414105337329 0.0824772479808 2.79042568625e-19)
(0.0389522967618 0.0833013313826 7.58524058053e-19)
(0.0450862175828 0.0786700522172 1.82138541084e-19)
(0.0456440279871 0.0777315648768 4.19899280994e-19)
(0.0445969166896 0.0731255799813 1.65558337502e-19)
(0.0492806563014 0.0853785740482 3.35606614561e-19)
(0.155063574729 0.0484322270756 1.38338152365e-19)
(0.0517002316677 0.0847856584387 3.31353391109e-19)
(0.288275641675 -0.0481052370138 2.72055422457e-19)
(0.00973998111114 0.0032130965273 1.63486460659e-21)
(0.00784205951552 0.00158538051287 1.55795446447e-21)
(0.010112857347 0.00663110838517 3.57698241082e-21)
(0.00839489453903 0.00464081568135 2.17163245855e-21)
(0.00989406172268 0.0102919843097 1.70260651468e-20)
(0.00840425862749 0.00798044126269 1.06363863578e-20)
(0.00912387981948 0.0141964178839 7.6734361511e-20)
(0.00785586079723 0.0115374423377 5.24177079013e-20)
(0.00798489486419 0.0182344095295 3.23737374039e-19)
(0.00688438426898 0.0153677008736 2.30073655226e-19)
(0.00642153443528 0.0225182220528 1.18791016808e-18)
(0.00524969517618 0.0195105667637 9.45134399704e-19)
(0.00406522721782 0.0289939202154 3.25963903643e-18)
(0.00115583924032 0.0243917451858 3.06303074384e-18)
(0.0063931900607 0.0402971694335 5.9934501133e-18)
(-0.00597855321031 0.0334193171714 7.66533916711e-18)
(0.0135182654152 0.0463838075656 7.82864261786e-18)
(0.00459766907765 0.0432936118654 1.29183205098e-17)
(0.0184612048912 0.050563403763 7.36050036755e-18)
(0.0133442567102 0.0493971256226 1.53943637149e-17)
(0.0178310129288 0.0561664447247 6.6886096075e-18)
(0.0149635900284 0.0597369334733 1.01296226874e-17)
(0.0123799822116 0.0674047396258 6.62349605061e-18)
(0.0059730865622 0.069102171795 1.08117153206e-17)
(0.0114145705169 0.0741990045706 5.54004609103e-18)
(0.00722347902768 0.0756569990492 8.9568872302e-18)
(0.0187813419611 0.0760813358409 3.75301261398e-18)
(0.0161955714743 0.0756354073487 5.92221877632e-18)
(0.0306935583872 0.0769843243931 1.92018029776e-18)
(0.026084686891 0.0715038827223 2.9706477883e-18)
(0.0412415388774 0.0784309876584 8.99380770422e-19)
(0.0375058668601 0.0760029966504 1.51046333317e-18)
(0.0458120445012 0.0805231638756 5.73367354471e-19)
(0.0435519833849 0.0743075051501 8.82976205289e-19)
(0.0427142792622 0.0861606592052 5.01401668168e-19)
(0.0436431029158 0.0875387186948 7.31740281569e-19)
(0.309242875373 0.0999571302041 4.65070661201e-19)
(0.0379280560638 0.0952675003879 7.14452544157e-19)
(0.633455070466 0.351496548356 6.66512892068e-19)
(0.00660626339319 0.00286575390906 2.09472231643e-21)
(0.00497628517255 0.00142000608289 1.32623149097e-21)
(0.00680597387359 0.00592703462816 9.2310364055e-21)
(0.00533358837986 0.0041864413385 4.50617717176e-21)
(0.00640567118067 0.00913435181907 4.60280291123e-20)
(0.0051969212122 0.00713531065558 2.39825454347e-20)
(0.00529323860825 0.0125768191613 2.05757001616e-19)
(0.00441339043206 0.0100809105656 1.12869519678e-19)
(0.0033195928844 0.0165165498953 8.5147068089e-19)
(0.00294467794403 0.012938738317 4.62749782265e-19)
(-0.000886614414155 0.0210493724337 2.82025497546e-18)
(0.000716924611878 0.0153699799736 1.75867359091e-18)
(-0.00999653041404 0.0276774858739 7.46873087452e-18)
(-0.00547219450801 0.0182597759325 5.01298644268e-18)
(-0.00952591616099 0.0397872445105 1.45902095636e-17)
(-0.0180882623053 0.020230533632 1.1313947599e-17)
(0.00318207977081 0.0443848805381 2.04840416068e-17)
(0.0101125158424 0.0577290747101 1.81634860348e-17)
(0.00468249265603 0.0726925911651 1.42527284005e-17)
(0.00304369304091 0.0786655748435 1.31451065002e-17)
(0.0147477118607 0.0773262451637 9.33905991549e-18)
(0.0258195560414 0.0705651325194 5.13985395065e-18)
(0.0337857843255 0.0681580232324 2.56093082371e-18)
(0.0396340295108 0.0702878243374 1.49405876803e-18)
(0.0403148443932 0.0784116055829 1.04134913239e-18)
(0.0296464721989 0.0918140149764 9.44791157558e-19)
(0.0330011536009 0.126037508132 9.15894775024e-19)
(0.00377349531995 0.00260256145971 3.7376863463e-21)
(0.00237369602466 0.00127443189793 2.15832686399e-21)
(0.00384270070382 0.00538857178267 1.9257686201e-20)
(0.0025475576606 0.00381319077112 8.33635793818e-21)
(0.00345979302052 0.00812919889233 9.08240360007e-20)
(0.00245629091256 0.00644861671344 4.33348560923e-20)
(0.00250390815345 0.0104406727562 3.69862300327e-19)
(0.00210194035415 0.00887759185573 1.99235884636e-19)
(0.000755825922766 0.0119665700988 1.36995269229e-18)
(0.00141883629463 0.010882318355 7.51569426049e-19)
(-0.00313481814993 0.0125942762674 3.95140505812e-18)
(8.93079224704e-05 0.0115274457676 2.79259672842e-18)
(-0.01168029378 0.00956491602066 8.85820316716e-18)
(-0.00244273061208 0.0118837285719 7.91653512592e-18)
(-0.00852330156857 0.00713563631723 1.90791417947e-17)
(0.00120356535509 0.00236936592525 6.75699845588e-21)
(4.30484983965e-06 0.00120850808604 3.39980848523e-21)
(0.00119476732751 0.00491301613982 3.24135278295e-20)
(3.89175826724e-06 0.00364478796765 1.08795922624e-20)
(0.00101510333804 0.00736570259247 1.51746704728e-19)
(3.60370541524e-06 0.00615191245614 5.44533664759e-20)
(0.000713744613504 0.00946418040392 5.80943010357e-19)
(3.48180671786e-06 0.0084497287467 2.49220303586e-19)
(0.000465470831854 0.0108805286212 2.17421346219e-18)
(2.53165914618e-06 0.0103908262939 9.12371807586e-19)
(0.000199638009484 0.0109686481133 6.75772679622e-18)
(1.25512980938e-06 0.0108902739635 3.43604209856e-18)
(-0.000969406153337 0.00852303304414 1.81374737535e-17)
(2.94933313598e-06 0.0109603881284 1.00786739443e-17)
(-2.33020763707e-07 0.0063414100397 2.61974892256e-17)
(-0.00119554682058 0.00237016564148 7.52240229178e-21)
(-0.0023658890457 0.0012752839587 3.6708737927e-21)
(-0.00118745380382 0.00491485319525 3.29194309089e-20)
(-0.0025408291673 0.00381526314713 9.36275735733e-21)
(-0.00100873197416 0.00736857602562 1.51926965335e-19)
(-0.00245015503394 0.00645132830014 4.38234541287e-20)
(-0.00070839305248 0.00946977119823 5.80649100815e-19)
(-0.00209774893316 0.00888043890205 1.98957328752e-19)
(-0.000461103093614 0.0108858023725 2.17420044396e-18)
(-0.00141352197215 0.0108844912724 7.50808722417e-19)
(-0.000196189188999 0.0109612342828 6.75698924662e-18)
(-7.41925024694e-05 0.0115284658382 2.79188884779e-18)
(0.000969480225559 0.00852016732581 1.81386894164e-17)
(0.00244403557441 0.0118830982717 7.91452600368e-18)
(0.00851989540754 0.00713796256416 1.90822886985e-17)
(-0.00376762017141 0.00260481818352 5.51122885825e-21)
(-0.00383613667332 0.00539203173088 2.02667805771e-20)
(-0.00345308860977 0.0081320179417 9.08538175463e-20)
(-0.00249771005736 0.0104403871861 3.69116950354e-19)
(-0.000750926197688 0.0119648586519 1.36849712625e-18)
(0.00313989799244 0.0126018756233 3.94942560486e-18)
(0.0116837394797 0.00956436906469 8.85812528581e-18)
)
;

boundaryField
{
    back
    {
        type            calculated;
        value           uniform (0 0 0);
    }
    sides
    {
        type            calculated;
        value           nonuniform List<vector> 0();
    }
    bottom
    {
        type            calculated;
        value           uniform (0 0 0);
    }
    front
    {
        type            calculated;
        value           uniform (0 0 0);
    }
    atmosphere
    {
        type            calculated;
        value           nonuniform List<vector> 7((0 -0.207866172813 0) (-0.123331759604 0.0935771387172 3.42891547914e-21) (0.0395866507563 0.0210148395191 5.46326790592e-20) (0 -0.00700184647596 0) (0 -0.0974437618507 0) (0 -0.245191985087 0) (0.0458383218827 1.28740537466 8.97853419606e-19));
    }
    floatingObject
    {
        type            calculated;
        value           nonuniform List<vector> 8((0 -2.08166817117e-15 2.60208521397e-16) (0 0 2.60208521397e-16) (0 0 0) (0 -4.16333634234e-15 2.60208521397e-16) (5.20417042793e-16 0 0) (0 0 2.60208521397e-16) (0 0 2.60208521397e-16) (0 0 0));
    }
    procBoundary3to4
    {
        type            processor;
        value           nonuniform List<vector> 
13
(
(0.0383124652034 0.0299330353828 5.64246098481e-22)
(0.0406371264081 0.0349246759668 7.90620115988e-22)
(0.0434447602957 0.0401035537889 8.42711547892e-22)
(0.025188753896 0.0018138244582 1.77991972035e-21)
(0.0267742465144 0.0053247680399 2.94434433213e-22)
(0.0279924889789 0.00908349576565 1.65999787583e-24)
(0.0288879915936 0.0130744112107 1.01681250248e-22)
(0.0305006193688 0.0218747526629 6.13126545917e-22)
(0.0349944156295 0.0284533661136 6.987875635e-22)
(0.0316457340865 0.0267522012093 1.58769962185e-21)
(0.0271225640483 0.015452584914 2.79590076643e-22)
(0.0277718059973 0.0199685480153 6.89935047619e-22)
(0.0251293867461 0.0178973755969 1.0724912341e-21)
)
;
    }
    procBoundary3to5
    {
        type            processor;
        value           nonuniform List<vector> 10((0.0466008116893 0.0455250244215 9.1222421208e-22) (0.0500092600426 0.0514235607774 7.47348267715e-22) (0.0537711468256 0.0580777223411 1.27391122068e-21) (0.0580201388151 0.0656400821116 1.1582344928e-21) (0.061254486876 0.0736254943579 2.76260493163e-21) (0.0614527698433 0.0848475436579 -1.93456365598e-22) (0.0591661308187 0.0895776031895 5.36616833935e-21) (0.0697039071788 0.0966790497217 1.87956486086e-20) (-0.00852742950381 0.104228772678 -2.27453209486e-22) (-0.321701009425 0.230780681658 -5.44275238887e-20));
    }
    procBoundary3to6
    {
        type            processor;
        value           nonuniform List<vector> 8((0.00856268471816 0.0455140408949 9.28002119508e-18) (0.0229567080305 0.0491453130223 6.26364902611e-18) (0.0284920045821 0.0506195344695 3.3305028443e-18) (0.0353763430951 0.0612343465295 2.05239716023e-18) (0.0354283415037 0.0661005979312 1.34632442831e-18) (0.0302402498052 0.0852848350451 1.18064781261e-18) (0.00374799935497 0.0959926463009 1.13671348773e-18) (-0.528037889282 0.316707121066 1.02569719565e-18));
    }
    procBoundary3to8
    {
        type            processor;
        value           nonuniform List<vector> 8((-0.00497075313902 0.00142185361148 2.85782545918e-21) (-0.00532810919112 0.004190324469 5.49143559115e-21) (-0.00519023056735 0.00714005733229 2.42764165391e-20) (-0.00440622165274 0.0100853947941 1.12112769364e-19) (-0.00293810874107 0.0129416958188 4.61274547507e-19) (-0.00071130300239 0.0153739910648 1.75532630759e-18) (0.00548142030731 0.0182601852356 5.01063691177e-18) (0.0180842046944 0.0202229847021 1.13142187663e-17));
    }
}


// ************************************************************************* //
