/*--------------------------------*- C++ -*----------------------------------*\
| =========                 |                                                 |
| \\      /  F ield         | OpenFOAM: The Open Source CFD Toolbox           |
|  \\    /   O peration     | Version:  v2012                                 |
|   \\  /    A nd           | Website:  www.openfoam.com                      |
|    \\/     M anipulation  |                                                 |
\*---------------------------------------------------------------------------*/
FoamFile
{
    version     2.0;
    format      ascii;
    class       volVectorField;
    location    "4.5";
    object      ddtCorrDdt0(U);
}
// * * * * * * * * * * * * * * * * * * * * * * * * * * * * * * * * * * * * * //

dimensions      [0 1 -2 0 0 0 0];


internalField   nonuniform List<vector> 
164
(
(0.120617058384 0.00120935384844 6.40357650054e-23)
(0.120373830643 0.00404618168496 -1.18778066766e-23)
(0.121203508587 0.00686402697632 2.87488038492e-24)
(0.122648489243 0.00985791702655 -3.62258141021e-23)
(0.124575287359 0.0131535355697 -1.90999210269e-23)
(0.12694440381 0.0168377989891 6.27172009482e-24)
(0.129733135342 0.0210313493977 -1.05937576037e-24)
(0.13291362819 0.0258851589242 2.69009773782e-24)
(0.117700307046 0.00142282312128 -4.28414268063e-23)
(0.117394394779 0.00471445723541 3.97895622165e-23)
(0.118065370849 0.00796268921584 3.13445709398e-23)
(0.119270916417 0.0113752412845 7.44560148922e-25)
(0.1208653361 0.0150702191089 -1.26651241905e-23)
(0.122789406231 0.0191223358992 -2.9232962472e-24)
(0.124998707605 0.0236410401631 -1.61443641218e-24)
(0.12743300786 0.0287613126391 3.78854385083e-24)
(0.114388279516 0.00160621822065 7.32670078577e-23)
(0.114026037228 0.00527568012997 5.453618256e-23)
(0.11455129934 0.00887663975107 3.84578516586e-23)
(0.11554107624 0.0126250293985 2.60750526323e-23)
(0.116839562313 0.0166244832044 1.82621848532e-23)
(0.118372212395 0.0209352906804 6.78327908281e-24)
(0.120076288959 0.0256463958691 7.25757486213e-24)
(0.121867449777 0.0308610697502 5.51508940332e-24)
(0.123621842722 0.0366768104249 -4.21555575625e-24)
(0.125174646928 0.0432438319039 1.39475083365e-23)
(0.110726099302 0.00176117657311 1.14245839393e-22)
(0.110319779764 0.00574327861233 3.01689366068e-23)
(0.110718921779 0.00962803966775 2.88628511421e-23)
(0.111521882336 0.0136392657783 -1.44664446475e-23)
(0.11256861002 0.0178609979546 1.75089964024e-23)
(0.113775298678 0.0223350500341 8.56628639881e-24)
(0.115067994101 0.0271251932823 9.06090072968e-24)
(0.11634778945 0.0322947860756 1.0670859971e-23)
(0.117473372393 0.0379062955727 -9.79949649764e-24)
(0.118268750604 0.0440556958797 9.00280803368e-24)
(0.106771216266 0.00188592106542 -5.35345409844e-23)
(0.106329013008 0.00612868334851 2.37517545859e-22)
(0.10662774724 0.0102427095727 -4.20236785516e-24)
(0.107280510925 0.0144596467121 4.64066245955e-24)
(0.108127923863 0.0188417583437 -5.46666288596e-24)
(0.109084226705 0.0234116590352 -3.89282109492e-24)
(0.110071573785 0.0282075040379 1.60364775011e-23)
(0.11098710792 0.0332605742814 1.54767548171e-23)
(0.111695537973 0.0385910240138 5.73284703825e-24)
(0.11200639259 0.0442259928679 1.98711243547e-23)
(0.102575714904 0.00199084716149 -1.2606097375e-22)
(0.102105324047 0.00645045834672 -3.03321588345e-23)
(0.102325211314 0.0107542027336 -2.34165846678e-23)
(0.102866810747 0.0151331720614 -5.03273715611e-23)
(0.103569655386 0.019633813822 1.71254556218e-23)
(0.104350675621 0.0242578806812 1.69274901046e-23)
(0.105135557883 0.0290178199451 1.63632057012e-23)
(0.105830232076 0.0339171763188 1.28381374766e-23)
(0.106307882226 0.038936746291 1.63027915638e-23)
(0.10640098765 0.0440436080612 1.71426409832e-23)
(0.0981681744536 0.00208721058457 -1.04183368732e-23)
(0.097689661196 0.00672867167745 1.60952068862e-22)
(0.097852498816 0.0111941190016 -2.5242229218e-23)
(0.098317284064 0.0157079141898 -1.22762858402e-23)
(0.0989271374151 0.0203009400014 8.79819983975e-24)
(0.0996040606786 0.0249604923322 -1.87484231313e-23)
(0.10028292552 0.0296778147011 -2.83328775255e-24)
(0.100888502871 0.03442581574 1.99393125422e-24)
(0.101312308465 0.0391534274469 1.37709640189e-23)
(0.101425901834 0.0437899085535 1.20389884058e-23)
(0.0935824502522 0.00217277506018 -1.79371821231e-22)
(0.0931095261217 0.00697810118913 8.58589026029e-23)
(0.0932370957815 0.0115866626239 -2.09384313414e-23)
(0.0936552876864 0.0162236482598 -3.97396944963e-23)
(0.0942169735924 0.0209032184603 -2.90697737336e-23)
(0.09485215296 0.0256011331857 -4.53269389584e-23)
(0.0955108381838 0.0302941523159 -4.26648284863e-23)
(0.0961377960827 0.0349341574693 1.55623634733e-23)
(0.096653957607 0.0394448409624 1.17731051729e-23)
(0.0969648596579 0.043720897625 -3.37368181025e-23)
(0.0888375513457 0.00225330753068 -1.66637923543e-22)
(0.0883799435286 0.00721142858493 3.6891488612e-22)
(0.0884888204947 0.0119535872805 -2.17205456752e-23)
(0.088886033198 0.016712832756 -7.72289051399e-23)
(0.0894360929265 0.0214863080316 -3.42605302965e-23)
(0.0900798886436 0.0262446399161 -5.36220126675e-23)
(0.090786153075 0.0309551480568 2.73792402467e-24)
(0.0915090420428 0.0355547223561 -2.62720662234e-23)
(0.0922127438093 0.0399525312981 -4.30239224701e-23)
(0.0928483962615 0.0440350477487 2.76456478402e-24)
(0.0839449606517 0.00233772510294 -1.060429895e-22)
(0.0835050560701 0.00744106923018 3.88409931376e-23)
(0.0836103645425 0.0123122552448 -6.06656586231e-23)
(0.0840057379238 0.0172013247739 -3.15404614058e-23)
(0.0845711586221 0.0220880168475 -3.2198484581e-23)
(0.0852577923825 0.0269415898091 -2.50846641554e-25)
(0.0860387058777 0.0317148949031 -3.00335332306e-23)
(0.0869030041429 0.0363495471017 9.87399846321e-24)
(0.0878464580139 0.0407651683811 -5.19859025162e-23)
(0.0888662937573 0.0448456380646 2.46476854117e-23)
(0.0789089916868 0.00242300890286 -1.95266794709e-22)
(0.0784861792264 0.00767178910551 -4.74779216066e-23)
(0.0785978648104 0.0126779300192 -7.8595362426e-23)
(0.0790051036289 0.0177079139344 -7.93046361898e-23)
(0.0795943450784 0.0227306260618 -1.53351686998e-23)
(0.0803290636774 0.027704792141 1.36437343076e-23)
(0.0812021117801 0.0325963519024 9.82507377545e-24)
(0.0822296831245 0.0373547489107 1.12924171153e-23)
(0.0834208459055 0.0418956805195 2.47084070797e-23)
(0.0848143042626 0.0461316384782 3.03953650876e-23)
(0.0737202310986 0.00250467758934 -1.79282317438e-22)
(0.0733247024309 0.00790375586239 5.11088511775e-22)
(0.0734406716196 0.0130570779253 -1.35610904537e-23)
(0.0738571060811 0.0182353697627 -3.44908010565e-23)
(0.074471124331 0.0234077288516 -1.86191079354e-23)
(0.0752564783793 0.0285455155939 -2.73649302108e-23)
(0.0762272775369 0.0336127348003 -4.71867249257e-24)
(0.0774022855362 0.0385601461119 -7.81234930712e-24)
(0.0788183701062 0.043326183948 -4.34738008895e-24)
(0.0805416708377 0.0478572300659 8.78303889564e-23)
(0.0683802909135 0.00259335064397 -3.16868643921e-22)
(0.0680167976474 0.00813780741321 2.8940059653e-22)
(0.0681315508438 0.0134356422292 5.77002377562e-23)
(0.0685490803543 0.0187790105237 -4.68954816e-23)
(0.0691828200276 0.0241274196936 -3.48329160984e-23)
(0.070011178841 0.0294577542624 -5.03504382669e-24)
(0.0710551412235 0.0347411608288 -4.40092744666e-24)
(0.0723470825949 0.0399415074552 7.3633889929e-23)
(0.073938578993 0.0450186307553 9.65814144522e-24)
(0.0758802470117 0.0499095476 -2.22282467815e-23)
(0.0629044168758 0.00268584078942 -4.61280657996e-22)
(0.0625544968056 0.00837011254788 4.8613845116e-22)
(0.0626668338264 0.0138116935964 1.55010202734e-22)
(0.0630765066546 0.0193285931443 3.35421351088e-23)
(0.0637084046795 0.0248691347274 -1.22626149603e-23)
(0.0645539595731 0.0304168661579 -7.65099277778e-24)
(0.065640014647 0.0359491887842 -1.2125331525e-23)
(0.0670062608899 0.0414411003863 2.74568671895e-23)
(0.068703386859 0.0468533966461 2.63547365276e-23)
(0.0707607571877 0.0521602679256 1.26745181815e-22)
(0.0572812980163 0.00275901461882 -7.95704998512e-23)
(0.0569503932796 0.00858164638758 5.56886026892e-22)
(0.0570447168607 0.0141769700987 1.7715937581e-22)
(0.0574248876426 0.0198647398691 5.75910703984e-23)
(0.0580278302543 0.0256065916981 1.19262291664e-23)
(0.058856666142 0.0313896978004 5.89959565394e-23)
(0.0599463444994 0.0371963067361 1.31272665839e-22)
(0.0613568491024 0.0430076226174 3.20117533686e-22)
(0.0630894939554 0.0487687769479 4.21045391802e-22)
(0.065204169044 0.054483919144 4.88103757711e-22)
(0.0515265437459 0.00283674347697 -6.26303544866e-22)
(0.0512095381249 0.00877448510857 4.59715777831e-22)
(0.0512668653492 0.01449785647 1.17786257904e-22)
(0.0515898980752 0.020356971539 7.01210086382e-23)
(0.0521228066799 0.0263038328534 1.08448292724e-22)
(0.052892411653 0.0323365992022 3.62195161727e-22)
(0.053954720818 0.0384535293872 9.47627930723e-22)
(0.0553464695337 0.0445837720066 1.74429906874e-21)
(0.0570986118808 0.0506844353036 2.43065868507e-21)
(0.0592129918145 0.0567643852997 2.60032103896e-21)
(0.0456694552934 0.00288861079667 -5.64586029709e-22)
(0.045349218525 0.00891793378816 3.76663329353e-22)
(0.0453475641304 0.0147585440323 1.10045196169e-22)
(0.0455708830592 0.0207644291996 1.89480981783e-22)
(0.0459904844186 0.0269135635943 6.03351945511e-22)
(0.0466437676351 0.0332216204421 1.96798212968e-21)
(0.0476070197957 0.0396482645162 4.68997915901e-21)
(0.0396248973778 0.0273770844799 2.90788474093e-21)
)
;

boundaryField
{
    back
    {
        type            calculated;
        value           uniform (0 0 0);
    }
    sides
    {
        type            calculated;
        value           nonuniform List<vector> 0();
    }
    bottom
    {
        type            calculated;
        value           uniform (0 0 0);
    }
    front
    {
        type            calculated;
        value           uniform (0 0 0);
    }
    atmosphere
    {
        type            calculated;
        value           nonuniform List<vector> 0();
    }
    floatingObject
    {
        type            calculated;
        value           nonuniform List<vector> 0();
    }
    procBoundary4to0
    {
        type            processor;
        value           nonuniform List<vector> 8((0.123063400991 0.000959243252787 6.53337552855e-23) (0.1228839295 0.00326291214539 -2.33490516208e-24) (0.123878533661 0.00556241139102 -2.64128029507e-23) (0.125574556692 0.00804214005657 -4.86730727589e-23) (0.127851959076 0.010828730553 -2.65020521967e-23) (0.13069090842 0.0140158436611 -9.78907377317e-25) (0.13409518891 0.0177253208155 2.0028690738e-24) (0.138067334743 0.0221143468087 -5.1736819414e-25));
    }
    procBoundary4to3
    {
        type            processor;
        value           nonuniform List<vector> 
13
(
(0.0489554783075 0.0461333407905 8.47901095206e-21)
(0.0507429307788 0.0525820707571 1.12875335099e-20)
(0.0528655612228 0.0589710684291 1.22993932502e-20)
(0.0397291586176 0.00292274408384 -1.82243016862e-22)
(0.0394108361822 0.00899810360616 4.78589984862e-22)
(0.0393148778373 0.0149089878901 2.72212299284e-22)
(0.0393908211659 0.0210414141772 8.05994215364e-22)
(0.0400739376383 0.033942157145 8.83528641292e-21)
(0.0489554783075 0.0461333407905 8.47901095206e-21)
(0.0408746495171 0.0407336980345 2.06504422352e-20)
(0.0393908211659 0.0210414141772 8.05994215364e-22)
(0.0400739376383 0.033942157145 8.83528641292e-21)
(0.0330458210493 0.0275808822209 1.14130243553e-20)
)
;
    }
    procBoundary4to5
    {
        type            processor;
        value           nonuniform List<vector> 
18
(
(0.136423429469 0.0315656880167 -3.55105534655e-24)
(0.129998416261 0.0346134141979 1.28993077096e-23)
(0.129998416261 0.0346134141979 1.28993077096e-23)
(0.132541110913 0.0414152302836 7.03512963612e-24)
(0.126250615335 0.0507598013091 2.31557578309e-23)
(0.118463230816 0.0508319795903 1.48789961047e-23)
(0.111664959872 0.0501639240915 6.6666194381e-24)
(0.10588516664 0.0491558029514 -9.3737266131e-24)
(0.101044515003 0.0481869721936 -1.50008749739e-23)
(0.096960886355 0.0475786778013 9.61208444458e-23)
(0.0933825866552 0.0476118647879 2.2229036946e-22)
(0.0899949826886 0.0484131794246 5.21076383914e-22)
(0.0864967767213 0.0499249208357 4.66259601774e-22)
(0.0826291712901 0.0520425120979 7.23667157134e-23)
(0.078248661782 0.0545866778686 1.18646803603e-22)
(0.07328347813 0.0573852621329 1.63858886961e-23)
(0.0677164128042 0.0602144995039 5.87224014815e-22)
(0.0616456890034 0.0628934907443 2.90158611326e-21)
)
;
    }
}


// ************************************************************************* //
