/*--------------------------------*- C++ -*----------------------------------*\
| =========                 |                                                 |
| \\      /  F ield         | OpenFOAM: The Open Source CFD Toolbox           |
|  \\    /   O peration     | Version:  v2012                                 |
|   \\  /    A nd           | Website:  www.openfoam.com                      |
|    \\/     M anipulation  |                                                 |
\*---------------------------------------------------------------------------*/
FoamFile
{
    version     2.0;
    format      ascii;
    class       volScalarField;
    location    "4.5";
    object      epsilon_0;
}
// * * * * * * * * * * * * * * * * * * * * * * * * * * * * * * * * * * * * * //

dimensions      [0 2 -3 0 0 0 0];


internalField   nonuniform List<scalar> 
164
(
0.000804426943546
0.000836720577451
0.000918124193467
0.000948925629282
0.000960944729295
0.000966718577497
0.000970850952411
0.000974925993042
0.000805038289625
0.00083748060668
0.000918925540101
0.000949754800899
0.000961817463062
0.000967652598702
0.000971860405873
0.000976019973441
0.0008053095599
0.000837903852014
0.000919360380728
0.000950216772948
0.000962334049968
0.000968244446596
0.000972542370307
0.000976803338156
0.000981589723997
0.000987306310796
0.000805234464438
0.00083795745095
0.000919398689542
0.000950289744569
0.000962479763131
0.000968484229766
0.000972890796652
0.000977273884929
0.000982196258279
0.000988043974556
0.000804815020896
0.000837613070304
0.000919008127666
0.000949948164257
0.000962236396488
0.000968359260877
0.00097289630809
0.000977422839327
0.000982504835753
0.000988526767312
0.000804075595779
0.00083685721464
0.000918161384478
0.000949166086747
0.000961583322653
0.000967853038182
0.000972545995026
0.00097724339516
0.000982517597538
0.000988767282616
0.000802965143182
0.000835659822618
0.000916837948271
0.000947924381968
0.000960503460685
0.000966952256444
0.000971830848381
0.000976729618743
0.000982233492527
0.000988774806314
0.000801409533503
0.000833989545968
0.000915022231903
0.000946212476791
0.000958986634001
0.000965647937028
0.000970744105177
0.000975874303822
0.000981643998412
0.000988540630964
0.000799386849474
0.000831835512351
0.000912701788475
0.000944017678415
0.000957020409901
0.000963928722323
0.000969274412207
0.000974664858611
0.000980732682133
0.000988041008632
0.000796884648855
0.000829189794329
0.000909865210902
0.000941327014457
0.000954592280035
0.000961782537431
0.000967406717746
0.000973090731378
0.000979488672901
0.000987237590608
0.000793875709674
0.000826040949859
0.000906502411143
0.000938129776016
0.000951689575193
0.000959195565498
0.000965139705778
0.000971155922223
0.000977911781452
0.000986098858102
0.000790333160357
0.000822380487061
0.000902609256781
0.00093441607736
0.000948305734773
0.000956172204301
0.000962482023578
0.000968870312694
0.00097601795726
0.000984640453191
0.000786240590481
0.00081821111819
0.000898189925108
0.000930194236588
0.000944448433513
0.000952718534881
0.000959438889251
0.000966248489304
0.000973833266338
0.000982914984432
0.000781573374301
0.000813541340719
0.000893259767278
0.000925476613378
0.000940124210168
0.000948839250177
0.000956021064381
0.000963307442027
0.000971377302845
0.000980974445492
0.000776396492973
0.000808386064422
0.000887835782986
0.00092027785492
0.000935346127621
0.000944549091681
0.00095225092785
0.000960076553304
0.000968685158653
0.000978807763803
0.000770614392589
0.000802780813978
0.000881958644543
0.000914629633079
0.000930139679794
0.000939869657943
0.000948147757907
0.000956566126349
0.000965790336671
0.000976451595317
0.000764401848881
0.000796792183076
0.000875690575065
0.000908585344925
0.000924535434359
0.00093481445006
0.000943693656833
0.000918567679137
)
;

boundaryField
{
    back
    {
        lowReCorrection 0;
        blending        stepwise;
        n               2;
        type            epsilonWallFunction;
        value           nonuniform List<scalar> 
164
(
0.000804426943546
0.000836720577451
0.000918124193467
0.000948925629282
0.000960944729295
0.000966718577497
0.000970850952411
0.000974925993042
0.000805038289625
0.00083748060668
0.000918925540101
0.000949754800899
0.000961817463062
0.000967652598702
0.000971860405873
0.000976019973441
0.0008053095599
0.000837903852014
0.000919360380728
0.000950216772948
0.000962334049968
0.000968244446596
0.000972542370307
0.000976803338156
0.000981589723997
0.000987306310796
0.000805234464438
0.00083795745095
0.000919398689542
0.000950289744569
0.000962479763131
0.000968484229766
0.000972890796652
0.000977273884929
0.000982196258279
0.000988043974556
0.000804815020896
0.000837613070304
0.000919008127666
0.000949948164257
0.000962236396488
0.000968359260877
0.00097289630809
0.000977422839327
0.000982504835753
0.000988526767312
0.000804075595779
0.00083685721464
0.000918161384478
0.000949166086747
0.000961583322653
0.000967853038182
0.000972545995026
0.00097724339516
0.000982517597538
0.000988767282616
0.000802965143182
0.000835659822618
0.000916837948271
0.000947924381968
0.000960503460685
0.000966952256444
0.000971830848381
0.000976729618743
0.000982233492527
0.000988774806314
0.000801409533503
0.000833989545968
0.000915022231903
0.000946212476791
0.000958986634001
0.000965647937028
0.000970744105177
0.000975874303822
0.000981643998412
0.000988540630964
0.000799386849474
0.000831835512351
0.000912701788475
0.000944017678415
0.000957020409901
0.000963928722323
0.000969274412207
0.000974664858611
0.000980732682133
0.000988041008632
0.000796884648855
0.000829189794329
0.000909865210902
0.000941327014457
0.000954592280035
0.000961782537431
0.000967406717746
0.000973090731378
0.000979488672901
0.000987237590608
0.000793875709674
0.000826040949859
0.000906502411143
0.000938129776016
0.000951689575193
0.000959195565498
0.000965139705778
0.000971155922223
0.000977911781452
0.000986098858102
0.000790333160357
0.000822380487061
0.000902609256781
0.00093441607736
0.000948305734773
0.000956172204301
0.000962482023578
0.000968870312694
0.00097601795726
0.000984640453191
0.000786240590481
0.00081821111819
0.000898189925108
0.000930194236588
0.000944448433513
0.000952718534881
0.000959438889251
0.000966248489304
0.000973833266338
0.000982914984432
0.000781573374301
0.000813541340719
0.000893259767278
0.000925476613378
0.000940124210168
0.000948839250177
0.000956021064381
0.000963307442027
0.000971377302845
0.000980974445492
0.000776396492973
0.000808386064422
0.000887835782986
0.00092027785492
0.000935346127621
0.000944549091681
0.00095225092785
0.000960076553304
0.000968685158653
0.000978807763803
0.000770614392589
0.000802780813978
0.000881958644543
0.000914629633079
0.000930139679794
0.000939869657943
0.000948147757907
0.000956566126349
0.000965790336671
0.000976451595317
0.000764401848881
0.000796792183076
0.000875690575065
0.000908585344925
0.000924535434359
0.00093481445006
0.000943693656833
0.000918567679137
)
;
    }
    sides
    {
        lowReCorrection 0;
        blending        stepwise;
        n               2;
        type            epsilonWallFunction;
        value           nonuniform List<scalar> 0();
    }
    bottom
    {
        lowReCorrection 0;
        blending        stepwise;
        n               2;
        type            epsilonWallFunction;
        value           nonuniform List<scalar> 
17
(
0.000804426943546
0.000805038289625
0.0008053095599
0.000805234464438
0.000804815020896
0.000804075595779
0.000802965143182
0.000801409533503
0.000799386849474
0.000796884648855
0.000793875709674
0.000790333160357
0.000786240590481
0.000781573374301
0.000776396492973
0.000770614392589
0.000764401848881
)
;
    }
    front
    {
        lowReCorrection 0;
        blending        stepwise;
        n               2;
        type            epsilonWallFunction;
        value           nonuniform List<scalar> 
164
(
0.000804426943546
0.000836720577451
0.000918124193467
0.000948925629282
0.000960944729295
0.000966718577497
0.000970850952411
0.000974925993042
0.000805038289625
0.00083748060668
0.000918925540101
0.000949754800899
0.000961817463062
0.000967652598702
0.000971860405873
0.000976019973441
0.0008053095599
0.000837903852014
0.000919360380728
0.000950216772948
0.000962334049968
0.000968244446596
0.000972542370307
0.000976803338156
0.000981589723997
0.000987306310796
0.000805234464438
0.00083795745095
0.000919398689542
0.000950289744569
0.000962479763131
0.000968484229766
0.000972890796652
0.000977273884929
0.000982196258279
0.000988043974556
0.000804815020896
0.000837613070304
0.000919008127666
0.000949948164257
0.000962236396488
0.000968359260877
0.00097289630809
0.000977422839327
0.000982504835753
0.000988526767312
0.000804075595779
0.00083685721464
0.000918161384478
0.000949166086747
0.000961583322653
0.000967853038182
0.000972545995026
0.00097724339516
0.000982517597538
0.000988767282616
0.000802965143182
0.000835659822618
0.000916837948271
0.000947924381968
0.000960503460685
0.000966952256444
0.000971830848381
0.000976729618743
0.000982233492527
0.000988774806314
0.000801409533503
0.000833989545968
0.000915022231903
0.000946212476791
0.000958986634001
0.000965647937028
0.000970744105177
0.000975874303822
0.000981643998412
0.000988540630964
0.000799386849474
0.000831835512351
0.000912701788475
0.000944017678415
0.000957020409901
0.000963928722323
0.000969274412207
0.000974664858611
0.000980732682133
0.000988041008632
0.000796884648855
0.000829189794329
0.000909865210902
0.000941327014457
0.000954592280035
0.000961782537431
0.000967406717746
0.000973090731378
0.000979488672901
0.000987237590608
0.000793875709674
0.000826040949859
0.000906502411143
0.000938129776016
0.000951689575193
0.000959195565498
0.000965139705778
0.000971155922223
0.000977911781452
0.000986098858102
0.000790333160357
0.000822380487061
0.000902609256781
0.00093441607736
0.000948305734773
0.000956172204301
0.000962482023578
0.000968870312694
0.00097601795726
0.000984640453191
0.000786240590481
0.00081821111819
0.000898189925108
0.000930194236588
0.000944448433513
0.000952718534881
0.000959438889251
0.000966248489304
0.000973833266338
0.000982914984432
0.000781573374301
0.000813541340719
0.000893259767278
0.000925476613378
0.000940124210168
0.000948839250177
0.000956021064381
0.000963307442027
0.000971377302845
0.000980974445492
0.000776396492973
0.000808386064422
0.000887835782986
0.00092027785492
0.000935346127621
0.000944549091681
0.00095225092785
0.000960076553304
0.000968685158653
0.000978807763803
0.000770614392589
0.000802780813978
0.000881958644543
0.000914629633079
0.000930139679794
0.000939869657943
0.000948147757907
0.000956566126349
0.000965790336671
0.000976451595317
0.000764401848881
0.000796792183076
0.000875690575065
0.000908585344925
0.000924535434359
0.00093481445006
0.000943693656833
0.000918567679137
)
;
    }
    atmosphere
    {
        type            inletOutlet;
        inletValue      nonuniform List<scalar> 0();
        value           nonuniform List<scalar> 0();
    }
    floatingObject
    {
        lowReCorrection 0;
        blending        stepwise;
        n               2;
        type            epsilonWallFunction;
        value           nonuniform List<scalar> 0();
    }
    procBoundary4to0
    {
        type            processor;
        value           nonuniform List<scalar> 8(0.000803456996758 0.000835629722122 0.000916971778449 0.000947749514999 0.000959738937673 0.000965468003263 0.000969540641039 0.000973548476525);
    }
    procBoundary4to3
    {
        type            processor;
        value           nonuniform List<scalar> 
13
(
0.00095278205399
0.00096271887059
0.00097405698349
0.000757717958733
0.000790490289364
0.000869111238624
0.000902198686023
0.000929354369037
0.00095278205399
0.000938825199211
0.000902198686023
0.000929354369037
0.000912230939385
)
;
    }
    procBoundary4to5
    {
        type            processor;
        value           nonuniform List<scalar> 
18
(
0.000979519350666
0.00098069859068
0.00098069859068
0.000986321889649
0.000994808156037
0.000995651052439
0.000996328758683
0.00099689246651
0.000997393091064
0.000997840391571
0.00099816570717
0.000998205177585
0.000997787203852
0.00099690247435
0.00099575796023
0.000994411193855
0.000992637101528
0.000990452118603
)
;
    }
}


// ************************************************************************* //
