/*--------------------------------*- C++ -*----------------------------------*\
| =========                 |                                                 |
| \\      /  F ield         | OpenFOAM: The Open Source CFD Toolbox           |
|  \\    /   O peration     | Version:  v2012                                 |
|   \\  /    A nd           | Website:  www.openfoam.com                      |
|    \\/     M anipulation  |                                                 |
\*---------------------------------------------------------------------------*/
FoamFile
{
    version     2.0;
    format      ascii;
    class       volScalarField;
    location    "1.2";
    object      epsilon_0;
}
// * * * * * * * * * * * * * * * * * * * * * * * * * * * * * * * * * * * * * //

dimensions      [0 2 -3 0 0 0 0];


internalField   nonuniform List<scalar> 
164
(
0.0159505771415
0.0160191936722
0.0172666173221
0.0176682545364
0.0178121507213
0.0178916949051
0.0179628190846
0.0180398629021
0.016006398571
0.0160860786929
0.0173226030677
0.0177096357933
0.0178430779609
0.0179151813682
0.0179797532986
0.0180500051151
0.0181286875944
0.0182159659496
0.0183117636573
0.0160513875429
0.016142002743
0.0173672789516
0.0177405594542
0.0178645905919
0.0179301788633
0.0179890508723
0.0180533835822
0.0181255778108
0.0182058685013
0.0182941889035
0.0183911176645
0.0185009125922
0.0160864403349
0.0161875496901
0.0174013890077
0.0177618646757
0.0178775024871
0.0179374251955
0.0179913609497
0.0180505592136
0.0181171423963
0.0181913341455
0.0182731173362
0.0183632720687
0.0184672192981
0.0186118312889
0.0161124605356
0.0162233617093
0.0174257280397
0.0177743959311
0.017882612198
0.0179376385685
0.0179873158622
0.0180420702532
0.0181037883252
0.0181726821573
0.0182487917615
0.0183331562838
0.0184323589342
0.0185780852591
0.0161303353775
0.0162500941259
0.0174410716299
0.0177789541364
0.0178806631332
0.0179314865162
0.0179775091427
0.0180284344929
0.0180859526153
0.0181502702779
0.0182214898949
0.0183009457373
0.0183965724416
0.018545556126
0.0161409516584
0.0162683934041
0.0174481642193
0.0177762825745
0.0178723365113
0.0179195806747
0.0179624871098
0.0180101314083
0.0180640476752
0.0181244449091
0.0181914928058
0.0182668843888
0.0183601386208
0.018514723713
0.0161452134174
0.0162788401745
0.0174476637102
0.0177670521597
0.0178582503587
0.0179024764887
0.0179427480266
0.0179876044398
0.0180384566258
0.0180955238414
0.0181590627246
0.018231189411
0.0183232654161
0.0184859945891
0.0161440517475
0.0162819792485
0.0174401879785
0.0177518759217
0.0178389658456
0.0178806783022
0.0179187453996
0.0179612623778
0.0180095350296
0.0180637826065
0.0181244219212
0.0181940359088
0.0182861107285
0.0184596938577
0.0161384490401
0.0162782430286
0.0174262282539
0.0177312722412
0.0178149854448
0.0178546486771
0.017890901797
0.0179314620073
0.0179775974629
0.0180294973625
0.0180877690489
0.0181555582009
0.0182489259484
0.0184362669359
0.0189588126795
0.0205089955945
0.0161295831391
0.016267937993
0.017406218293
0.017705723112
0.0177867585302
0.0178248047888
0.017859590518
0.0178985509117
0.0179429188103
0.0179929153452
0.0180492830039
0.0181159033724
0.018211940398
0.0184165508937
0.0190018879763
0.0207345847934
0.0161194588148
0.0162507029868
0.0173803024027
0.0176754578936
0.01775461355
0.0177914715476
0.0178251024292
0.0178627928372
0.017905722449
0.0179541887659
0.0180090891764
0.0180752432322
0.0181755592007
0.0184019737261
0.0190607010885
0.0209921859415
)
;

boundaryField
{
    back
    {
        lowReCorrection 0;
        blending        stepwise;
        n               2;
        type            epsilonWallFunction;
        value           nonuniform List<scalar> 
164
(
0.0159505771415
0.0160191936722
0.0172666173221
0.0176682545364
0.0178121507213
0.0178916949051
0.0179628190846
0.0180398629021
0.016006398571
0.0160860786929
0.0173226030677
0.0177096357933
0.0178430779609
0.0179151813682
0.0179797532986
0.0180500051151
0.0181286875944
0.0182159659496
0.0183117636573
0.0160513875429
0.016142002743
0.0173672789516
0.0177405594542
0.0178645905919
0.0179301788633
0.0179890508723
0.0180533835822
0.0181255778108
0.0182058685013
0.0182941889035
0.0183911176645
0.0185009125922
0.0160864403349
0.0161875496901
0.0174013890077
0.0177618646757
0.0178775024871
0.0179374251955
0.0179913609497
0.0180505592136
0.0181171423963
0.0181913341455
0.0182731173362
0.0183632720687
0.0184672192981
0.0186118312889
0.0161124605356
0.0162233617093
0.0174257280397
0.0177743959311
0.017882612198
0.0179376385685
0.0179873158622
0.0180420702532
0.0181037883252
0.0181726821573
0.0182487917615
0.0183331562838
0.0184323589342
0.0185780852591
0.0161303353775
0.0162500941259
0.0174410716299
0.0177789541364
0.0178806631332
0.0179314865162
0.0179775091427
0.0180284344929
0.0180859526153
0.0181502702779
0.0182214898949
0.0183009457373
0.0183965724416
0.018545556126
0.0161409516584
0.0162683934041
0.0174481642193
0.0177762825745
0.0178723365113
0.0179195806747
0.0179624871098
0.0180101314083
0.0180640476752
0.0181244449091
0.0181914928058
0.0182668843888
0.0183601386208
0.018514723713
0.0161452134174
0.0162788401745
0.0174476637102
0.0177670521597
0.0178582503587
0.0179024764887
0.0179427480266
0.0179876044398
0.0180384566258
0.0180955238414
0.0181590627246
0.018231189411
0.0183232654161
0.0184859945891
0.0161440517475
0.0162819792485
0.0174401879785
0.0177518759217
0.0178389658456
0.0178806783022
0.0179187453996
0.0179612623778
0.0180095350296
0.0180637826065
0.0181244219212
0.0181940359088
0.0182861107285
0.0184596938577
0.0161384490401
0.0162782430286
0.0174262282539
0.0177312722412
0.0178149854448
0.0178546486771
0.017890901797
0.0179314620073
0.0179775974629
0.0180294973625
0.0180877690489
0.0181555582009
0.0182489259484
0.0184362669359
0.0189588126795
0.0205089955945
0.0161295831391
0.016267937993
0.017406218293
0.017705723112
0.0177867585302
0.0178248047888
0.017859590518
0.0178985509117
0.0179429188103
0.0179929153452
0.0180492830039
0.0181159033724
0.018211940398
0.0184165508937
0.0190018879763
0.0207345847934
0.0161194588148
0.0162507029868
0.0173803024027
0.0176754578936
0.01775461355
0.0177914715476
0.0178251024292
0.0178627928372
0.017905722449
0.0179541887659
0.0180090891764
0.0180752432322
0.0181755592007
0.0184019737261
0.0190607010885
0.0209921859415
)
;
    }
    sides
    {
        lowReCorrection 0;
        blending        stepwise;
        n               2;
        type            epsilonWallFunction;
        value           nonuniform List<scalar> 0();
    }
    bottom
    {
        lowReCorrection 0;
        blending        stepwise;
        n               2;
        type            epsilonWallFunction;
        value           nonuniform List<scalar> 
12
(
0.0159505771415
0.016006398571
0.0160513875429
0.0160864403349
0.0161124605356
0.0161303353775
0.0161409516584
0.0161452134174
0.0161440517475
0.0161384490401
0.0161295831391
0.0161194588148
)
;
    }
    front
    {
        lowReCorrection 0;
        blending        stepwise;
        n               2;
        type            epsilonWallFunction;
        value           nonuniform List<scalar> 
164
(
0.0159505771415
0.0160191936722
0.0172666173221
0.0176682545364
0.0178121507213
0.0178916949051
0.0179628190846
0.0180398629021
0.016006398571
0.0160860786929
0.0173226030677
0.0177096357933
0.0178430779609
0.0179151813682
0.0179797532986
0.0180500051151
0.0181286875944
0.0182159659496
0.0183117636573
0.0160513875429
0.016142002743
0.0173672789516
0.0177405594542
0.0178645905919
0.0179301788633
0.0179890508723
0.0180533835822
0.0181255778108
0.0182058685013
0.0182941889035
0.0183911176645
0.0185009125922
0.0160864403349
0.0161875496901
0.0174013890077
0.0177618646757
0.0178775024871
0.0179374251955
0.0179913609497
0.0180505592136
0.0181171423963
0.0181913341455
0.0182731173362
0.0183632720687
0.0184672192981
0.0186118312889
0.0161124605356
0.0162233617093
0.0174257280397
0.0177743959311
0.017882612198
0.0179376385685
0.0179873158622
0.0180420702532
0.0181037883252
0.0181726821573
0.0182487917615
0.0183331562838
0.0184323589342
0.0185780852591
0.0161303353775
0.0162500941259
0.0174410716299
0.0177789541364
0.0178806631332
0.0179314865162
0.0179775091427
0.0180284344929
0.0180859526153
0.0181502702779
0.0182214898949
0.0183009457373
0.0183965724416
0.018545556126
0.0161409516584
0.0162683934041
0.0174481642193
0.0177762825745
0.0178723365113
0.0179195806747
0.0179624871098
0.0180101314083
0.0180640476752
0.0181244449091
0.0181914928058
0.0182668843888
0.0183601386208
0.018514723713
0.0161452134174
0.0162788401745
0.0174476637102
0.0177670521597
0.0178582503587
0.0179024764887
0.0179427480266
0.0179876044398
0.0180384566258
0.0180955238414
0.0181590627246
0.018231189411
0.0183232654161
0.0184859945891
0.0161440517475
0.0162819792485
0.0174401879785
0.0177518759217
0.0178389658456
0.0178806783022
0.0179187453996
0.0179612623778
0.0180095350296
0.0180637826065
0.0181244219212
0.0181940359088
0.0182861107285
0.0184596938577
0.0161384490401
0.0162782430286
0.0174262282539
0.0177312722412
0.0178149854448
0.0178546486771
0.017890901797
0.0179314620073
0.0179775974629
0.0180294973625
0.0180877690489
0.0181555582009
0.0182489259484
0.0184362669359
0.0189588126795
0.0205089955945
0.0161295831391
0.016267937993
0.017406218293
0.017705723112
0.0177867585302
0.0178248047888
0.017859590518
0.0178985509117
0.0179429188103
0.0179929153452
0.0180492830039
0.0181159033724
0.018211940398
0.0184165508937
0.0190018879763
0.0207345847934
0.0161194588148
0.0162507029868
0.0173803024027
0.0176754578936
0.01775461355
0.0177914715476
0.0178251024292
0.0178627928372
0.017905722449
0.0179541887659
0.0180090891764
0.0180752432322
0.0181755592007
0.0184019737261
0.0190607010885
0.0209921859415
)
;
    }
    atmosphere
    {
        type            inletOutlet;
        inletValue      nonuniform List<scalar> 0();
        value           nonuniform List<scalar> 0();
    }
    floatingObject
    {
        lowReCorrection 0;
        blending        stepwise;
        n               2;
        type            epsilonWallFunction;
        value           nonuniform List<scalar> 0();
    }
    procBoundary7to6
    {
        type            processor;
        value           nonuniform List<scalar> 
11
(
0.0189041578175
0.0188948331996
0.0188912362464
0.0188948171936
0.0189066280873
0.0189275854891
0.0189275854891
0.0203136163701
0.0246848646532
0.0253398128246
0.0260611406318
)
;
    }
    procBoundary7to8
    {
        type            processor;
        value           nonuniform List<scalar> 
17
(
0.0158829806784
0.0159408010773
0.017198576961
0.0176155131169
0.0177708820225
0.0178588453789
0.0179374520228
0.0180222379577
0.0181259566481
0.0181259566481
0.0182211506896
0.0183254297565
0.018416419281
0.018416419281
0.018533021658
0.0186461181098
0.0186461181098
)
;
    }
    procBoundary7to9
    {
        type            processor;
        value           nonuniform List<scalar> 
16
(
0.0161047995269
0.0162280773244
0.0173499149986
0.0176414036843
0.0177190347412
0.0177549582508
0.0177876885399
0.0178243720563
0.0178661697354
0.0179134182309
0.0179672201801
0.0180334004854
0.0181389559591
0.0183896798581
0.0191304518364
0.021284815847
)
;
    }
}


// ************************************************************************* //
