/*--------------------------------*- C++ -*----------------------------------*\
| =========                 |                                                 |
| \\      /  F ield         | OpenFOAM: The Open Source CFD Toolbox           |
|  \\    /   O peration     | Version:  v2012                                 |
|   \\  /    A nd           | Website:  www.openfoam.com                      |
|    \\/     M anipulation  |                                                 |
\*---------------------------------------------------------------------------*/
FoamFile
{
    version     2.0;
    format      ascii;
    class       volVectorField;
    location    "1.9";
    object      ddt0(rho,U);
}
// * * * * * * * * * * * * * * * * * * * * * * * * * * * * * * * * * * * * * //

dimensions      [1 -2 -2 0 0 0 0];


internalField   nonuniform List<vector> 
164
(
(-151.857219428 2.03248450299 2.73762616593e-19)
(-155.974590212 5.8981765334 -4.58081602396e-19)
(-156.99466217 10.1561874191 -4.76242891138e-20)
(-158.688085384 14.5581343059 -1.81840233069e-19)
(-161.227245458 19.4161238443 9.35861918711e-21)
(-164.537234916 24.815092937 -2.06819299309e-20)
(-168.615960254 30.9212180887 1.95778559315e-21)
(-173.512388366 37.926695562 1.06089865384e-20)
(-155.425160511 1.58474681039 -1.09483998958e-19)
(-159.675225054 4.8729824955 3.3906233977e-19)
(-160.933140717 8.40454642442 2.18627293048e-19)
(-162.950974401 12.0641741114 -8.2696524059e-21)
(-165.936216114 16.1667920578 2.41794611794e-20)
(-169.8376902 20.7509266322 8.75115529118e-20)
(-174.670412512 25.9770186377 4.82200095097e-20)
(-180.523452916 32.0119789011 -2.38378873425e-21)
(-158.285308703 1.1032544672 -2.62456864847e-19)
(-162.633298492 3.69103164589 -1.8835979407e-19)
(-164.1163827 6.39884520378 5.22354822596e-20)
(-166.415909291 9.20397232825 9.40931761643e-20)
(-169.806139481 12.4213939057 3.03211389594e-20)
(-174.238835606 16.0564149945 8.2842930359e-20)
(-179.735307466 20.2314810388 -9.3514653643e-21)
(-186.406877943 25.0683911281 2.35225393215e-21)
(-194.417815993 30.7161386068 1.11927033804e-19)
(-203.979820072 37.3149520014 2.14566265479e-19)
(-160.254728467 0.611253880122 -1.09521005868e-19)
(-164.72222556 2.39492113058 7.47118046531e-22)
(-166.396336975 4.15544779422 9.78655798139e-20)
(-168.968097707 6.01491138656 9.20219905151e-20)
(-172.722031653 8.23095465651 6.27505920249e-20)
(-177.613621741 10.7947913633 1.63166692695e-20)
(-183.679332115 13.8037818319 -4.04039363145e-21)
(-191.013720501 17.3331664441 -1.10076617982e-20)
(-199.773420704 21.4605470837 3.17808592261e-19)
(-210.206336838 26.2430497531 1.05465140471e-19)
(-161.333065791 0.0482095529187 3.29244617107e-19)
(-165.86334125 0.941704050259 4.5639936616e-19)
(-167.717585383 1.71830720842 1.43011991792e-19)
(-170.512435169 2.53242173542 1.01688120917e-19)
(-174.556876747 3.66604531338 6.72447204183e-20)
(-179.808853559 5.07434999903 7.01224856533e-20)
(-186.303536618 6.82790925863 -7.3909051623e-21)
(-194.138390164 8.97377626702 -4.21353185588e-20)
(-203.457663701 11.5241885847 1.7371302095e-19)
(-214.450178312 14.4544951118 3.35318010973e-19)
(-161.487549673 -0.532117870455 8.82319793685e-20)
(-166.022122735 -0.573629503684 -2.68344833835e-19)
(-167.997729104 -0.90082264372 -6.14491391935e-21)
(-170.973070302 -1.1600360334 -6.29752213126e-20)
(-175.248682278 -1.1746325703 2.20909781878e-20)
(-180.78976733 -0.979296071558 1.76286051302e-20)
(-187.60685298 -0.531267628742 2.50386879073e-20)
(-195.786367245 0.177822674732 4.66120676446e-20)
(-205.443711064 1.14845054594 2.50733339848e-20)
(-216.700451346 2.27825340743 -1.58712022467e-20)
(-160.541997121 -1.14412374596 1.22760537696e-19)
(-165.10105526 -2.15826503398 3.24683537667e-19)
(-167.191051104 -3.62502842182 -3.46867565785e-20)
(-170.281801107 -5.04186646868 -3.0820206771e-20)
(-174.724858328 -6.25263161421 5.40210178498e-20)
(-180.464156709 -7.30928844661 3.56783177222e-20)
(-187.53194945 -8.17809312701 9.09134196844e-20)
(-195.975339021 -8.87021140536 6.26276852113e-20)
(-205.859950249 -9.39189869121 1.31778086366e-20)
(-217.171602908 -9.83927220421 7.8798273372e-20)
(-158.523479021 -1.75732707922 -2.24998211522e-19)
(-163.046723858 -3.81207862038 -7.72331354372e-20)
(-165.224179181 -6.46063219721 -1.3427626281e-19)
(-168.405909717 -9.01669696553 -1.10993154322e-19)
(-172.972455855 -11.4590066573 4.86040143288e-20)
(-178.85391965 -13.8054111137 1.10859489865e-19)
(-186.071784192 -16.0381324872 1.19446961596e-19)
(-194.67259925 -18.1442926523 4.29186403927e-20)
(-204.653287771 -20.0508170844 -3.86354983822e-20)
(-216.051237169 -21.8661337143 -2.14585596974e-20)
(-155.371720196 -2.37680042583 -1.13430745153e-19)
(-159.859765065 -5.46618929818 8.73390889847e-19)
(-162.073190992 -9.34167101736 -3.18995039105e-20)
(-165.307793498 -13.1015164928 -1.95683800579e-19)
(-169.924133529 -16.8012856368 -1.1981139123e-21)
(-175.903839705 -20.4362985876 -4.36128061385e-20)
(-183.263718585 -24.0053869393 2.93184904473e-20)
(-191.987059187 -27.4470770651 1.016464113e-19)
(-202.117253819 -30.7619298667 4.39528676828e-19)
(-213.646922431 -33.8642150004 -8.38815779905e-21)
(-151.115837325 -2.99543840303 -2.60770630299e-19)
(-155.508142779 -7.14460186646 8.33239306129e-19)
(-157.732664102 -12.2465792348 -1.40357751939e-19)
(-160.96976603 -17.1735984686 -2.89311768633e-20)
(-165.614013569 -22.1495279561 -3.42489886762e-20)
(-171.579143544 -27.1600215125 -6.10275224805e-20)
(-178.979124911 -32.1289864835 -1.62406615941e-19)
(-187.884270541 -37.0052649307 3.72311365181e-20)
(-198.322169585 -41.7165932208 1.38949156585e-22)
(-210.24900023 -45.9267615961 9.39283779793e-20)
(-145.695004605 -3.58918823868 -7.15124396479e-19)
(-150.00918668 -8.76255804771 -5.86305436011e-19)
(-152.196314296 -15.1151348073 -3.50484102927e-19)
(-155.372001897 -21.2717556279 -4.11909466201e-19)
(-159.924588112 -27.5131945157 4.51517176066e-20)
(-165.874977815 -33.8289366543 5.39095976852e-20)
(-173.22613728 -40.3104932928 -7.59136761558e-21)
(-182.161934884 -46.787316242 6.16476766225e-20)
(-192.828651463 -53.1415418917 -2.56184111559e-19)
(-205.389792983 -59.0842517059 -1.76809164004e-19)
(-139.177531057 -4.18348660986 -6.11280982219e-19)
(-143.340961956 -10.3904535918 5.97726618082e-19)
(-145.47692764 -17.9065119886 -3.09778322744e-19)
(-148.550621311 -25.1828478686 -8.84794033281e-20)
(-152.947239395 -32.7514818919 1.23599535074e-19)
(-158.719832878 -40.4958322163 -9.1681923137e-20)
(-165.967204575 -48.4232215582 -1.22566849874e-19)
(-174.740788637 -56.6069776982 -1.11050488261e-19)
(-185.443864207 -64.9472245723 -1.42651162246e-19)
(-198.423556225 -73.1867445529 1.26676421968e-19)
(-131.653568676 -4.72001834068 -3.2685918973e-19)
(-135.602458786 -11.8871104647 5.66771672387e-19)
(-137.630027291 -20.59731177 -3.96797551321e-19)
(-140.524737889 -29.010974693 -9.4936890962e-19)
(-144.707166424 -37.781348837 -7.04904955121e-20)
(-150.169366017 -46.8722155745 2.30192510681e-20)
(-157.002218268 -56.3369712957 2.53010634167e-20)
(-165.483339123 -66.2660770632 2.28744075051e-19)
(-175.799074173 -76.8179472703 -5.73950915912e-20)
(-188.511907331 -87.9864734326 -1.51358728433e-19)
(-123.12434537 -5.22305065852 -2.12901946859e-18)
(-126.861065338 -13.2999804098 1.31549492243e-18)
(-128.71959093 -23.080731186 -3.49210286322e-20)
(-131.35567215 -32.5089005292 -5.29126211115e-19)
(-135.182967899 -42.4938718265 -7.90563374825e-20)
(-140.210881652 -52.8178766905 -6.23101102698e-21)
(-146.515844499 -63.7399068414 4.51288668444e-21)
(-154.316503866 -75.4046711867 -1.12954734955e-19)
(-163.756663637 -87.9633566599 -2.28011351215e-19)
(-175.318593416 -101.960295956 1.63415651742e-19)
(-113.609467861 -5.66484325415 -6.77114645477e-19)
(-117.100438516 -14.5583689922 1.61454796784e-18)
(-118.733157746 -25.3340670707 2.65049490627e-19)
(-121.13081629 -35.716437368 -1.27861809155e-18)
(-124.515694281 -46.7315483965 -1.3939648909e-19)
(-128.985122793 -58.2347972329 2.28192921799e-20)
(-134.671017255 -70.4491282308 -1.32005367658e-19)
(-141.502787361 -83.5029121597 1.23513064092e-19)
(-149.624601869 -97.8059068971 -1.2795119982e-19)
(-159.479257474 -113.955474977 -1.98900743147e-19)
(-103.365722879 -6.05317314373 -9.13231131325e-19)
(-106.549516517 -15.6708612517 1.68905239116e-18)
(-107.915983773 -27.320315204 1.34291192754e-19)
(-109.893513688 -38.5076978224 -6.75369609445e-20)
(-112.801929171 -50.4371790715 -1.48634722634e-20)
(-116.647249158 -62.9948061642 5.9719860347e-21)
(-121.456100791 -76.2574237478 1.11282950953e-19)
(-127.286996 -90.3544772235 -4.0827431149e-20)
(-133.957164765 -105.936138884 -8.41194028142e-20)
(-142.148562907 -123.010561987 5.34460937462e-20)
(-92.5305157376 -6.3539438749 -2.93673087911e-18)
(-95.3267984577 -16.5363584069 1.37321233888e-18)
(-96.3790109017 -28.8650149413 -4.25446360018e-19)
(-97.8649556687 -40.7933461358 -4.02533905526e-19)
(-100.175432164 -53.5639503717 -1.46938512249e-19)
(-103.313704289 -66.907460418 -2.00594235947e-19)
(-107.363572135 -81.0804609736 8.39595964077e-20)
(-86.7261220453 -55.9602288179 -9.93531885504e-21)
)
;

boundaryField
{
    back
    {
        type            calculated;
        value           uniform (0 0 0);
    }
    sides
    {
        type            calculated;
        value           nonuniform List<vector> 0();
    }
    bottom
    {
        type            calculated;
        value           uniform (0 0 0);
    }
    front
    {
        type            calculated;
        value           uniform (0 0 0);
    }
    atmosphere
    {
        type            calculated;
        value           nonuniform List<vector> 0();
    }
    floatingObject
    {
        type            calculated;
        value           nonuniform List<vector> 0();
    }
    procBoundary4to0
    {
        type            processor;
        value           nonuniform List<vector> 8((-147.578114321 2.39117198841 2.792322147e-19) (-151.572432282 6.73719392339 2.00973218536e-19) (-152.382939996 11.592910267 -1.66325349027e-19) (-153.738189188 16.634880832 1.07288760664e-20) (-155.800794881 22.1130974603 3.30689367546e-20) (-158.469565096 28.1566837473 1.37318011097e-21) (-161.713454734 34.9509739296 2.47588996448e-20) (-165.532454771 42.6905281807 -1.95417627523e-19));
    }
    procBoundary4to3
    {
        type            processor;
        value           nonuniform List<vector> 
13
(
(-112.413689774 -95.9950631009 1.28290348414e-19)
(-118.455905939 -112.668449041 -1.01002896398e-19)
(-124.827755264 -130.171181645 2.9020007946e-19)
(-81.1308154681 -6.56999603372 -4.15844972985e-19)
(-83.5084461747 -17.1604130566 1.46421705424e-18)
(-84.197041889 -30.0297674367 2.0981378797e-19)
(-85.190696147 -42.4761559133 -3.81807839753e-20)
(-89.04507269 -70.1982437573 -1.62295541139e-19)
(-112.413689774 -95.9950631009 1.28290348414e-19)
(-92.3549045917 -85.328488762 -7.03540890396e-20)
(-85.190696147 -42.4761559133 -3.81807839753e-20)
(-89.04507269 -70.1982437573 -1.62295541139e-19)
(-72.5857376963 -57.4803604848 1.95237947584e-19)
)
;
    }
    procBoundary4to5
    {
        type            processor;
        value           nonuniform List<vector> 
18
(
(-179.29798768 46.0710677914 7.89896493446e-21)
(-187.528841915 39.0265399564 -8.22845653085e-20)
(-187.528841915 39.0265399564 -8.22845653085e-20)
(-195.881868335 47.2555773779 1.17381941314e-19)
(-215.439592631 45.0153421504 8.82657983555e-21)
(-222.640129162 31.7143316429 -1.38296783362e-19)
(-227.41654281 17.6846684006 1.37944113466e-19)
(-229.738061999 3.45455351622 1.4553170911e-19)
(-229.997854383 -10.4802407478 3.8082414736e-19)
(-228.668918945 -23.8475082873 1.88159644536e-19)
(-226.213793293 -36.5454795193 -1.99572875731e-19)
(-223.489045323 -49.301998006 -4.60277946388e-19)
(-220.080517238 -63.7619985026 -8.47839921292e-20)
(-214.333161229 -80.6926553067 1.04044374441e-18)
(-204.579700697 -99.8619588999 -1.56707855572e-20)
(-189.73266493 -117.928952098 -6.99379879565e-19)
(-170.685250177 -132.651728241 -1.03277984932e-19)
(-150.192336191 -141.566823008 -3.1474478107e-20)
)
;
    }
}


// ************************************************************************* //
