/*--------------------------------*- C++ -*----------------------------------*\
| =========                 |                                                 |
| \\      /  F ield         | OpenFOAM: The Open Source CFD Toolbox           |
|  \\    /   O peration     | Version:  v2012                                 |
|   \\  /    A nd           | Website:  www.openfoam.com                      |
|    \\/     M anipulation  |                                                 |
\*---------------------------------------------------------------------------*/
FoamFile
{
    version     2.0;
    format      ascii;
    class       volScalarField;
    location    "1.9";
    object      rAU;
}
// * * * * * * * * * * * * * * * * * * * * * * * * * * * * * * * * * * * * * //

dimensions      [-1 3 1 0 0 0 0];


internalField   nonuniform List<scalar> 
164
(
9.45799865391e-06
9.39938716215e-06
9.39072029981e-06
9.38959159264e-06
9.38883999999e-06
9.38834116504e-06
9.38787630282e-06
9.3872352244e-06
9.4575747164e-06
9.39903706832e-06
9.39017910727e-06
9.38927419119e-06
9.38874061251e-06
9.38846841415e-06
9.38829469183e-06
9.38805531129e-06
9.45720460127e-06
9.39843045354e-06
9.38967734852e-06
9.38883010953e-06
9.38835339065e-06
9.3881439509e-06
9.38808053899e-06
9.38816964233e-06
9.38827381867e-06
9.38843451123e-06
9.45715724874e-06
9.39825049351e-06
9.38942903114e-06
9.38850985483e-06
9.38810946898e-06
9.38804193437e-06
9.38807642752e-06
9.38820398334e-06
9.38852583418e-06
9.3890504668e-06
9.45586962149e-06
9.39779355096e-06
9.38904874582e-06
9.38815817072e-06
9.38784935225e-06
9.38786593499e-06
9.38809222971e-06
9.38841949167e-06
9.3888960761e-06
9.38970945372e-06
9.45515067373e-06
9.39718850614e-06
9.38863562657e-06
9.38781698527e-06
9.38758482926e-06
9.38763179861e-06
9.38783359327e-06
9.38819126056e-06
9.38876684891e-06
9.38972319871e-06
9.45500886863e-06
9.39690681673e-06
9.38827151609e-06
9.38750130865e-06
9.38729267061e-06
9.38743135999e-06
9.38776187058e-06
9.38819550678e-06
9.38864103297e-06
9.38929819196e-06
9.45459630123e-06
9.39667112431e-06
9.3880152613e-06
9.38713131721e-06
9.38697215479e-06
9.38706586836e-06
9.38747172847e-06
9.3880771951e-06
9.38878454025e-06
9.3896408042e-06
9.45410945096e-06
9.3963656807e-06
9.38775223133e-06
9.38681024539e-06
9.38663774552e-06
9.38682969801e-06
9.3870356564e-06
9.38748132652e-06
9.38848405194e-06
9.38978814317e-06
9.45379122717e-06
9.3961288449e-06
9.38752968362e-06
9.38654549581e-06
9.38639685752e-06
9.38659013304e-06
9.38694593055e-06
9.38731043349e-06
9.38778717854e-06
9.38859528258e-06
9.45382399549e-06
9.39610099473e-06
9.387441808e-06
9.38641914591e-06
9.38627425603e-06
9.38629092191e-06
9.38661146201e-06
9.38717636718e-06
9.38776452998e-06
9.38854971149e-06
9.45350338764e-06
9.39614456489e-06
9.38730654366e-06
9.38617032642e-06
9.38607299172e-06
9.3861039388e-06
9.38631612369e-06
9.38684425282e-06
9.38724612554e-06
9.3874633938e-06
9.45300721518e-06
9.39593826869e-06
9.38717252005e-06
9.38605914712e-06
9.38589663079e-06
9.38600393971e-06
9.38636340879e-06
9.38671187824e-06
9.38725468064e-06
9.38767274196e-06
9.45328018842e-06
9.39614682095e-06
9.38729915127e-06
9.38598576463e-06
9.38588335023e-06
9.38590357645e-06
9.3861909141e-06
9.38660158236e-06
9.38721901152e-06
9.3880514775e-06
9.45366721322e-06
9.39657825956e-06
9.38762740722e-06
9.38607108324e-06
9.38590987583e-06
9.38587620258e-06
9.38613817329e-06
9.38671975307e-06
9.38740920563e-06
9.38832140445e-06
9.45342284861e-06
9.39671066836e-06
9.38776265085e-06
9.38628427639e-06
9.38597524494e-06
9.38598061546e-06
9.38636100981e-06
9.38683470694e-06
9.38755140024e-06
9.38820683818e-06
9.45347132317e-06
9.39703292249e-06
9.388032771e-06
9.38642657416e-06
9.38605725372e-06
9.38577934524e-06
9.38623376778e-06
9.38634390507e-06
)
;

boundaryField
{
    back
    {
        type            calculated;
        value           nonuniform List<scalar> 
164
(
9.45799865391e-06
9.39938716215e-06
9.39072029981e-06
9.38959159264e-06
9.38883999999e-06
9.38834116504e-06
9.38787630282e-06
9.3872352244e-06
9.4575747164e-06
9.39903706832e-06
9.39017910727e-06
9.38927419119e-06
9.38874061251e-06
9.38846841415e-06
9.38829469183e-06
9.38805531129e-06
9.45720460127e-06
9.39843045354e-06
9.38967734852e-06
9.38883010953e-06
9.38835339065e-06
9.3881439509e-06
9.38808053899e-06
9.38816964233e-06
9.38827381867e-06
9.38843451123e-06
9.45715724874e-06
9.39825049351e-06
9.38942903114e-06
9.38850985483e-06
9.38810946898e-06
9.38804193437e-06
9.38807642752e-06
9.38820398334e-06
9.38852583418e-06
9.3890504668e-06
9.45586962149e-06
9.39779355096e-06
9.38904874582e-06
9.38815817072e-06
9.38784935225e-06
9.38786593499e-06
9.38809222971e-06
9.38841949167e-06
9.3888960761e-06
9.38970945372e-06
9.45515067373e-06
9.39718850614e-06
9.38863562657e-06
9.38781698527e-06
9.38758482926e-06
9.38763179861e-06
9.38783359327e-06
9.38819126056e-06
9.38876684891e-06
9.38972319871e-06
9.45500886863e-06
9.39690681673e-06
9.38827151609e-06
9.38750130865e-06
9.38729267061e-06
9.38743135999e-06
9.38776187058e-06
9.38819550678e-06
9.38864103297e-06
9.38929819196e-06
9.45459630123e-06
9.39667112431e-06
9.3880152613e-06
9.38713131721e-06
9.38697215479e-06
9.38706586836e-06
9.38747172847e-06
9.3880771951e-06
9.38878454025e-06
9.3896408042e-06
9.45410945096e-06
9.3963656807e-06
9.38775223133e-06
9.38681024539e-06
9.38663774552e-06
9.38682969801e-06
9.3870356564e-06
9.38748132652e-06
9.38848405194e-06
9.38978814317e-06
9.45379122717e-06
9.3961288449e-06
9.38752968362e-06
9.38654549581e-06
9.38639685752e-06
9.38659013304e-06
9.38694593055e-06
9.38731043349e-06
9.38778717854e-06
9.38859528258e-06
9.45382399549e-06
9.39610099473e-06
9.387441808e-06
9.38641914591e-06
9.38627425603e-06
9.38629092191e-06
9.38661146201e-06
9.38717636718e-06
9.38776452998e-06
9.38854971149e-06
9.45350338764e-06
9.39614456489e-06
9.38730654366e-06
9.38617032642e-06
9.38607299172e-06
9.3861039388e-06
9.38631612369e-06
9.38684425282e-06
9.38724612554e-06
9.3874633938e-06
9.45300721518e-06
9.39593826869e-06
9.38717252005e-06
9.38605914712e-06
9.38589663079e-06
9.38600393971e-06
9.38636340879e-06
9.38671187824e-06
9.38725468064e-06
9.38767274196e-06
9.45328018842e-06
9.39614682095e-06
9.38729915127e-06
9.38598576463e-06
9.38588335023e-06
9.38590357645e-06
9.3861909141e-06
9.38660158236e-06
9.38721901152e-06
9.3880514775e-06
9.45366721322e-06
9.39657825956e-06
9.38762740722e-06
9.38607108324e-06
9.38590987583e-06
9.38587620258e-06
9.38613817329e-06
9.38671975307e-06
9.38740920563e-06
9.38832140445e-06
9.45342284861e-06
9.39671066836e-06
9.38776265085e-06
9.38628427639e-06
9.38597524494e-06
9.38598061546e-06
9.38636100981e-06
9.38683470694e-06
9.38755140024e-06
9.38820683818e-06
9.45347132317e-06
9.39703292249e-06
9.388032771e-06
9.38642657416e-06
9.38605725372e-06
9.38577934524e-06
9.38623376778e-06
9.38634390507e-06
)
;
    }
    sides
    {
        type            calculated;
        value           nonuniform List<scalar> 0();
    }
    bottom
    {
        type            calculated;
        value           nonuniform List<scalar> 
17
(
9.45799865391e-06
9.4575747164e-06
9.45720460127e-06
9.45715724874e-06
9.45586962149e-06
9.45515067373e-06
9.45500886863e-06
9.45459630123e-06
9.45410945096e-06
9.45379122717e-06
9.45382399549e-06
9.45350338764e-06
9.45300721518e-06
9.45328018842e-06
9.45366721322e-06
9.45342284861e-06
9.45347132317e-06
)
;
    }
    front
    {
        type            calculated;
        value           nonuniform List<scalar> 
164
(
9.45799865391e-06
9.39938716215e-06
9.39072029981e-06
9.38959159264e-06
9.38883999999e-06
9.38834116504e-06
9.38787630282e-06
9.3872352244e-06
9.4575747164e-06
9.39903706832e-06
9.39017910727e-06
9.38927419119e-06
9.38874061251e-06
9.38846841415e-06
9.38829469183e-06
9.38805531129e-06
9.45720460127e-06
9.39843045354e-06
9.38967734852e-06
9.38883010953e-06
9.38835339065e-06
9.3881439509e-06
9.38808053899e-06
9.38816964233e-06
9.38827381867e-06
9.38843451123e-06
9.45715724874e-06
9.39825049351e-06
9.38942903114e-06
9.38850985483e-06
9.38810946898e-06
9.38804193437e-06
9.38807642752e-06
9.38820398334e-06
9.38852583418e-06
9.3890504668e-06
9.45586962149e-06
9.39779355096e-06
9.38904874582e-06
9.38815817072e-06
9.38784935225e-06
9.38786593499e-06
9.38809222971e-06
9.38841949167e-06
9.3888960761e-06
9.38970945372e-06
9.45515067373e-06
9.39718850614e-06
9.38863562657e-06
9.38781698527e-06
9.38758482926e-06
9.38763179861e-06
9.38783359327e-06
9.38819126056e-06
9.38876684891e-06
9.38972319871e-06
9.45500886863e-06
9.39690681673e-06
9.38827151609e-06
9.38750130865e-06
9.38729267061e-06
9.38743135999e-06
9.38776187058e-06
9.38819550678e-06
9.38864103297e-06
9.38929819196e-06
9.45459630123e-06
9.39667112431e-06
9.3880152613e-06
9.38713131721e-06
9.38697215479e-06
9.38706586836e-06
9.38747172847e-06
9.3880771951e-06
9.38878454025e-06
9.3896408042e-06
9.45410945096e-06
9.3963656807e-06
9.38775223133e-06
9.38681024539e-06
9.38663774552e-06
9.38682969801e-06
9.3870356564e-06
9.38748132652e-06
9.38848405194e-06
9.38978814317e-06
9.45379122717e-06
9.3961288449e-06
9.38752968362e-06
9.38654549581e-06
9.38639685752e-06
9.38659013304e-06
9.38694593055e-06
9.38731043349e-06
9.38778717854e-06
9.38859528258e-06
9.45382399549e-06
9.39610099473e-06
9.387441808e-06
9.38641914591e-06
9.38627425603e-06
9.38629092191e-06
9.38661146201e-06
9.38717636718e-06
9.38776452998e-06
9.38854971149e-06
9.45350338764e-06
9.39614456489e-06
9.38730654366e-06
9.38617032642e-06
9.38607299172e-06
9.3861039388e-06
9.38631612369e-06
9.38684425282e-06
9.38724612554e-06
9.3874633938e-06
9.45300721518e-06
9.39593826869e-06
9.38717252005e-06
9.38605914712e-06
9.38589663079e-06
9.38600393971e-06
9.38636340879e-06
9.38671187824e-06
9.38725468064e-06
9.38767274196e-06
9.45328018842e-06
9.39614682095e-06
9.38729915127e-06
9.38598576463e-06
9.38588335023e-06
9.38590357645e-06
9.3861909141e-06
9.38660158236e-06
9.38721901152e-06
9.3880514775e-06
9.45366721322e-06
9.39657825956e-06
9.38762740722e-06
9.38607108324e-06
9.38590987583e-06
9.38587620258e-06
9.38613817329e-06
9.38671975307e-06
9.38740920563e-06
9.38832140445e-06
9.45342284861e-06
9.39671066836e-06
9.38776265085e-06
9.38628427639e-06
9.38597524494e-06
9.38598061546e-06
9.38636100981e-06
9.38683470694e-06
9.38755140024e-06
9.38820683818e-06
9.45347132317e-06
9.39703292249e-06
9.388032771e-06
9.38642657416e-06
9.38605725372e-06
9.38577934524e-06
9.38623376778e-06
9.38634390507e-06
)
;
    }
    atmosphere
    {
        type            calculated;
        value           nonuniform List<scalar> 0();
    }
    floatingObject
    {
        type            calculated;
        value           nonuniform List<scalar> 0();
    }
    procBoundary4to0
    {
        type            processor;
        value           nonuniform List<scalar> 8(9.45959514465e-06 9.40048732674e-06 9.39141327182e-06 9.38989902571e-06 9.38885468883e-06 9.38807882746e-06 9.38734907365e-06 9.38679098869e-06);
    }
    procBoundary4to3
    {
        type            processor;
        value           nonuniform List<scalar> 
13
(
9.3870264563e-06
9.38771969562e-06
9.38791233428e-06
9.45387879302e-06
9.39760141153e-06
9.38839606686e-06
9.38656366043e-06
9.38581870497e-06
9.3870264563e-06
9.38615935587e-06
9.38656366043e-06
9.38581870497e-06
9.38627279237e-06
)
;
    }
    procBoundary4to5
    {
        type            processor;
        value           nonuniform List<scalar> 
18
(
9.38674993517e-06
9.38769383722e-06
9.38769383722e-06
9.38743145949e-06
9.38891961565e-06
9.39000861959e-06
9.39070457e-06
9.39096187341e-06
9.39071900338e-06
9.39069373245e-06
9.39117320398e-06
9.38998205165e-06
9.38990231452e-06
9.38867455239e-06
9.3886445175e-06
9.38892812983e-06
9.39016999929e-06
9.38959560721e-06
)
;
    }
}


// ************************************************************************* //
