/*--------------------------------*- C++ -*----------------------------------*\
| =========                 |                                                 |
| \\      /  F ield         | OpenFOAM: The Open Source CFD Toolbox           |
|  \\    /   O peration     | Version:  v2012                                 |
|   \\  /    A nd           | Website:  www.openfoam.com                      |
|    \\/     M anipulation  |                                                 |
\*---------------------------------------------------------------------------*/
FoamFile
{
    version     2.0;
    format      ascii;
    class       surfaceVectorField;
    location    "2.3";
    object      ddtCorrDdt0(Uf);
}
// * * * * * * * * * * * * * * * * * * * * * * * * * * * * * * * * * * * * * //

dimensions      [0 1 -2 0 0 0 0];


internalField   nonuniform List<vector> 
300
(
(-0.0044761428031 0.00523224478084 7.09997216831e-22)
(-0.00878406673376 0.00240003812388 -2.60786374665e-22)
(-0.00227841836895 0.0105697568066 6.97197185282e-22)
(-0.00564053941572 0.00836058200957 9.09434672074e-22)
(-0.00106301455028 0.0161971310408 -4.54844530932e-23)
(-0.0046444477723 0.0138111690477 -1.68676325853e-22)
(0.000468142619059 0.0223211178871 -1.24202243627e-23)
(-0.00363570551844 0.0198772832248 -1.4460455306e-22)
(0.00251296630766 0.0290857281252 1.54778704822e-22)
(-0.00213598831619 0.0264878779555 7.10651398469e-23)
(0.00501323383137 0.0368140711884 1.96325124759e-22)
(-0.000355202927115 0.0338583927775 1.64908838445e-22)
(0.0078576550158 0.0457401518249 2.51591787977e-22)
(0.00174230403352 0.0422184885585 1.16122155113e-22)
(0.00398550928854 0.0518560743118 1.53808306803e-22)
(-0.00992291203782 0.00563123453543 -6.13489194223e-23)
(-0.0144052725635 0.00263643106279 -6.60828331873e-22)
(-0.00792922212563 0.0113371365114 4.35611609396e-23)
(-0.0113358967519 0.00880226587797 1.41830941568e-22)
(-0.00711814089559 0.0173440164509 -2.6779642582e-22)
(-0.0106388318965 0.0145898582615 -2.12031423762e-22)
(-0.00616113731969 0.0238147321628 -6.11191888501e-23)
(-0.0100919612411 0.0209371688797 -1.11458431069e-22)
(-0.00489094878609 0.0309569246189 8.11952734695e-23)
(-0.00926324156553 0.0278014164443 2.8802449856e-23)
(-0.00341494658238 0.0388954755071 8.47058687988e-23)
(-0.00828158053321 0.0353426460084 6.12085303456e-23)
(-0.00187741424932 0.04789106819 1.83386739387e-23)
(-0.00724602051744 0.0437509049363 1.41395130902e-23)
(-0.000474321657517 0.058243293751 6.90875051894e-23)
(-0.00636806776918 0.0532436465127 -3.51373794376e-23)
(0.000484560007755 0.0702005192673 1.68297589483e-22)
(-0.00589553589849 0.064028180643 7.45469531711e-23)
(0.000538460180987 0.0841322195881 2.33861943375e-22)
(-0.00619645112007 0.07632799195 5.1351639047e-23)
(-0.0078390820944 0.0903381098329 2.22348240997e-22)
(-0.0157044979678 0.00585639067786 -4.57648470883e-22)
(-0.0202576363152 0.00280282298325 -2.61380270864e-22)
(-0.0139087540774 0.0118120225994 -1.13761643134e-22)
(-0.0172858068164 0.00904017032805 4.36421895618e-22)
(-0.0134604309657 0.0180547929688 -5.56934290116e-23)
(-0.0168724161295 0.0150221493214 1.08271554991e-22)
(-0.0130192796363 0.0247143453346 -2.15367923628e-23)
(-0.0167385988306 0.0214967781417 -1.44827983831e-23)
(-0.0124429564649 0.031944691054 8.81570673203e-24)
(-0.0164784381473 0.0284305797286 1.09199212028e-23)
(-0.0118530288005 0.0398782214618 -9.35782536308e-24)
(-0.0162010545979 0.0359487156121 2.33605599315e-23)
(-0.0114018443728 0.0487179310525 -3.93365402861e-23)
(-0.0160764729878 0.0442046868872 -1.54522922929e-24)
(-0.0113115062617 0.0586070584146 -2.96779314559e-23)
(-0.0162577437797 0.0533287764114 -2.95834370917e-23)
(-0.0119019306674 0.0696708183069 -4.2398997265e-23)
(-0.0169766635057 0.063423227827 -1.83469490115e-23)
(-0.0136326109661 0.0820058838205 3.98379366697e-23)
(-0.0185692431089 0.0745790435554 -1.25201114389e-22)
(-0.0171916197024 0.0955241372254 -3.11865567746e-22)
(-0.02142534336 0.0867803687833 -1.51964068465e-22)
(-0.0237683634403 0.110064858307 2.23960920161e-21)
(-0.0263030836769 0.0998402113682 -7.78637829525e-22)
(-0.0345476473728 0.1130901494 6.59273250638e-22)
(-0.0216777343436 0.00597093414259 6.32690095636e-22)
(-0.0262282474647 0.00291074071915 2.32064092667e-22)
(-0.0200581528131 0.0120431030005 6.58455093742e-22)
(-0.023355073896 0.00909976390505 8.88747915595e-22)
(-0.0199384461077 0.0183528384686 1.49482185619e-22)
(-0.0231750186823 0.0151406349607 2.00491628328e-22)
(-0.0199583658407 0.0250451893802 1.79739151825e-23)
(-0.0234193992964 0.0216072144407 -1.13880661804e-24)
(-0.0199723107622 0.0322256340412 2.54647744023e-23)
(-0.0236445444646 0.0284748902206 4.51186122242e-23)
(-0.0201088902992 0.0400159105321 3.11731560653e-23)
(-0.023977661153 0.0358318687524 3.11998671995e-23)
(-0.0205354230161 0.0485188864224 8.20787396507e-24)
(-0.0245708233859 0.0437826549305 2.84190466832e-23)
(-0.0214457479092 0.0578417690949 -1.82524546474e-23)
(-0.025582372379 0.0524216389121 1.05289157949e-23)
(-0.0230714349473 0.0679941332154 -1.01149066136e-22)
(-0.0271456065308 0.0618104360505 -4.09775100545e-23)
(-0.0257481742367 0.0790354587894 -3.17003119524e-22)
(-0.0296447177872 0.0719451583334 -1.39356613734e-22)
(-0.0299224365828 0.0907882816202 -6.18736330244e-22)
(-0.0332308647433 0.0827263717289 -2.42317069416e-22)
(-0.0362828050471 0.102750198341 -2.3589737805e-21)
(-0.038338626977 0.0938148561434 -8.51508430595e-22)
(-0.0464624350716 0.113479003712 -2.76179038095e-21)
(-0.0453695561959 0.104292737565 -2.81400017771e-21)
(-0.0563543584497 0.112285433114 -3.20342673144e-21)
(-0.0276981582912 0.00597157517723 4.88121912626e-22)
(-0.0322007369688 0.00296630404845 1.16877986583e-22)
(-0.0262415251683 0.0120179185128 4.3078445018e-22)
(-0.0293992134185 0.0090020363912 7.63682627834e-22)
(-0.0264092069409 0.0183091258595 4.98706360906e-23)
(-0.0294595940853 0.0149842221617 1.11435248403e-22)
(-0.0268195893496 0.0249094331838 2.60058904237e-23)
(-0.0300086405922 0.0213376318661 -2.42090194761e-23)
(-0.0273293854304 0.0319160731289 5.08537050214e-23)
(-0.0306374368603 0.028027101591 4.57504928549e-23)
(-0.0280691000243 0.0394066571694 2.84457578173e-23)
(-0.0314552449688 0.0351122676364 3.73442340666e-23)
(-0.0291856022989 0.0474727843967 3.0740088513e-23)
(-0.0326293815992 0.0426741322241 3.33123966427e-23)
(-0.0308385408444 0.0561721963205 -1.21961396122e-23)
(-0.0342844269881 0.050776691776 1.23735781481e-23)
(-0.0331947660883 0.0655578473541 -7.9185057653e-23)
(-0.0365479266228 0.0594677102676 -4.16287545286e-23)
(-0.0364472473095 0.0754730127468 -6.46705636264e-23)
(-0.0395917602601 0.0687088768557 -1.05787244899e-22)
(-0.0408088709295 0.0857206045439 -4.75089169767e-22)
(-0.0435240387301 0.0783624468834 -5.70872473171e-23)
(-0.0464205141889 0.0956981902971 -1.30653482781e-21)
(-0.0483793650234 0.0881404469722 -6.13716619604e-22)
(-0.0536268284964 0.104150140966 -3.25563652819e-21)
(-0.0538993258915 0.097370422999 -1.12577213637e-21)
(-0.0599662875718 0.10452407513 -3.97739287693e-21)
(-0.0336638563489 0.00588133295386 3.92438701791e-22)
(-0.0380821153067 0.00299296531402 -7.3735768154e-23)
(-0.0323459409754 0.0118154510838 4.44333426057e-22)
(-0.0353301153826 0.00877936817034 3.89033190306e-22)
(-0.0327662663573 0.0179578497096 3.73555928366e-23)
(-0.0355945799103 0.0145890212049 -1.08768394592e-23)
(-0.0334999925385 0.0243656989716 -4.46441704489e-24)
(-0.0364050759437 0.0207562727255 -5.79368595771e-23)
(-0.0344128428514 0.0311003523216 3.22410219001e-23)
(-0.0373584662677 0.0271813297961 2.38026872191e-23)
(-0.0356321643414 0.0382386552072 4.2210872892e-23)
(-0.038581006956 0.0339170713012 3.46288452762e-23)
(-0.0372880819125 0.0458271990537 1.49458862778e-23)
(-0.0402108809127 0.0410317041752 2.6592731704e-23)
(-0.0395076227676 0.0539056478679 -1.70590367683e-23)
(-0.0423658023215 0.0485682423707 2.3831329273e-23)
(-0.0424188447597 0.0624954120427 -6.82309417743e-23)
(-0.0451535793927 0.0565622613826 -4.89893748062e-24)
(-0.0461155365461 0.0715363528316 -9.82039285894e-23)
(-0.0486621184355 0.0650163605293 -5.12697256714e-23)
(-0.0505797955097 0.0808508805195 -1.95714697154e-22)
(-0.0528791976056 0.0738999313654 -9.22715622742e-26)
(-0.055559817899 0.0902017974434 -4.32953928162e-22)
(-0.0577847803182 0.0831135292784 -1.11138709908e-22)
(-0.0605130998256 0.0990017944192 -1.8475284851e-21)
(-0.0627650918116 0.0925199429883 -4.87755891722e-22)
(-0.067031508229 0.101834895057 -2.12822030071e-21)
(-0.0394778045247 0.00574744565432 -7.71412796389e-23)
(-0.0438275777895 0.00303774986364 -7.94280859442e-23)
(-0.0382757617858 0.0114040304636 -6.61770752107e-23)
(-0.0409816879392 0.00846804242054 -3.31633126366e-22)
(-0.0389253863499 0.0173777337361 -1.06169291873e-22)
(-0.0415596187349 0.0139825016247 -1.64482527331e-22)
(-0.0399084691336 0.0235189076029 -2.96697553131e-23)
(-0.0425342931091 0.0199385393794 -6.77957105558e-23)
(-0.0411393011013 0.0299115119791 2.61905105952e-23)
(-0.0437375778437 0.0260245015307 2.07833252446e-23)
(-0.0427386887153 0.0366133579654 1.90107040882e-23)
(-0.0452708793608 0.0323435793105 3.31937700013e-23)
(-0.0448281451 0.0436662760437 3.54781746992e-23)
(-0.0472572838941 0.0389523166069 1.78505135782e-23)
(-0.0475136064474 0.051106442201 3.59914285607e-23)
(-0.0498088467204 0.0458894966967 4.13407460693e-23)
(-0.0508911331647 0.0589773258064 1.20622786223e-23)
(-0.0530391949541 0.053192516475 8.34854246997e-24)
(-0.0550169356477 0.0672989776229 4.68419313557e-23)
(-0.0570105142781 0.0609029141275 4.47969808848e-23)
(-0.0598373524445 0.0761335166593 8.44837156834e-23)
(-0.0617498936263 0.0691087479756 1.00965379334e-22)
(-0.0650803788694 0.0855129166145 -1.65940673467e-22)
(-0.0672109549961 0.077934262442 6.72542595539e-23)
(-0.0701814507785 0.0957092531538 -7.68447707332e-22)
(-0.0730161627574 0.08769395884 -2.78319847549e-22)
(-0.0785900704369 0.0990591780793 -9.05545245439e-22)
(-0.0450223279716 0.00562195678744 -3.33919932671e-22)
(-0.0494455431074 0.00327167163527 2.76365345815e-23)
(-0.043922028568 0.0108763546472 -4.29938578486e-22)
(-0.0462295633305 0.00811291195094 -4.36200611392e-22)
(-0.0448317077931 0.016623009436 -1.26108946014e-22)
(-0.0472968409401 0.0131417158757 -1.13185756915e-22)
(-0.0459794357151 0.0224244345735 -1.73426299981e-23)
(-0.0483238676474 0.0189628396368 3.92147376941e-23)
(-0.0474538026925 0.0284123082342 2.77865846507e-23)
(-0.0497128558113 0.0246265177732 2.10174274749e-23)
(-0.04934407816 0.0346276687693 3.20335794913e-23)
(-0.0514756392379 0.0304794854981 1.64851336123e-23)
(-0.0517666486487 0.0411085797277 2.37130849483e-23)
(-0.0537329986955 0.0365404323015 1.97542467567e-23)
(-0.0548267003385 0.0478932229239 1.36978599786e-23)
(-0.0565969944846 0.0428371447987 2.96231167707e-23)
(-0.0586254876615 0.0550170778104 4.10832447324e-23)
(-0.0601772297246 0.0494040446803 -1.453951002e-23)
(-0.0632458742643 0.0625679358079 9.89204288635e-23)
(-0.0645860289745 0.0562982282353 5.8781093445e-23)
(-0.0687320415732 0.0707155790178 8.37359232049e-23)
(-0.0699298714938 0.0636451063996 7.42792144033e-23)
(-0.0750215912611 0.079757498597 -4.51249145277e-23)
(-0.0762928068425 0.0716856275833 1.38866382783e-23)
(-0.0818843015404 0.0904152622587 -4.15417385656e-22)
(-0.0837183466887 0.0809810665674 -2.8058400942e-22)
(-0.0921238305404 0.0924840879339 -8.82874952873e-22)
(-0.0504918885698 0.00456496953997 -7.46441441399e-23)
(-0.0540054039235 0.00306413454469 1.51507352448e-22)
(-0.0494872481351 0.0108649291344 -1.19447789821e-22)
(-0.0525224646146 0.00758587220196 -5.31508756832e-23)
(-0.050300550932 0.0158513650155 5.21379267931e-23)
(-0.0522741569279 0.0123902410741 4.31095841501e-23)
(-0.0516432551494 0.0212120126429 7.75747951672e-23)
(-0.0536739548977 0.017790113321 1.02472055764e-22)
(-0.053303952745 0.0267458732507 9.71597643655e-24)
(-0.0552362735767 0.023042928307 3.67858393372e-23)
(-0.0554016910323 0.0324416912761 4.20580087762e-24)
(-0.0571635195062 0.0284083515214 -3.59891418065e-24)
(-0.0580585931953 0.0383111108754 2.5664278579e-23)
(-0.0595998439695 0.0338941854083 1.06305110032e-23)
(-0.0613929936432 0.0443682878194 1.38574677211e-24)
(-0.0626595764535 0.0395084282903 1.81971154917e-23)
(-0.0655338593069 0.0506523999729 3.15833869264e-24)
(-0.0664761266088 0.0452693564132 8.10114568981e-24)
(-0.0706228565939 0.0572452148687 3.41398789848e-23)
(-0.0712023508154 0.0512171773103 3.99967665252e-23)
(-0.0768289013316 0.0643143406989 4.42992947659e-24)
(-0.0770281504906 0.0574467965687 9.42013084518e-24)
(-0.0843513204629 0.0722176342676 -2.21572456614e-22)
(-0.0842294993966 0.06416756862 -8.38624159585e-23)
(-0.0935289329528 0.0816291236416 -7.48041576637e-22)
(-0.0931615311543 0.0718189344547 -3.21505257523e-22)
(-0.104828410222 0.0812578728806 -1.15708754426e-21)
(-0.0555001018655 0.00507003159854 1.73000620904e-22)
(-0.0590685372454 0.00256437817573 2.04350965337e-22)
(-0.0546909014733 0.00948853295804 1.09406498288e-22)
(-0.0569330162343 0.00694394101134 1.04658378738e-22)
(-0.0554263278251 0.0146308829759 9.34437131207e-23)
(-0.0574077643673 0.0117214658244 1.43663838789e-22)
(-0.0568968178861 0.0196767653429 6.16830999336e-23)
(-0.0587110274284 0.0164860627353 4.88950016765e-23)
(-0.0586742175863 0.0247684645657 2.347094872e-23)
(-0.0603204816207 0.0213387024289 3.04548797142e-23)
(-0.0608966404078 0.0299269332031 2.82579594488e-24)
(-0.0623178858395 0.0262062745639 3.08121181498e-24)
(-0.0636841915533 0.0351511009894 3.16334791593e-24)
(-0.0648256202009 0.0311137924569 1.89295917872e-24)
(-0.0671617225256 0.0404410512357 2.49125144094e-23)
(-0.0679587648295 0.0360353908079 -3.28849284227e-24)
(-0.0714908770086 0.0458206655711 4.49395735223e-23)
(-0.0718731298724 0.0409417207112 -3.02305428311e-23)
(-0.0768599910365 0.0513248481475 1.52770183855e-23)
(-0.0767304410941 0.045847526277 1.28059279747e-23)
(-0.0835524999726 0.0570294838743 -7.88722145899e-23)
(-0.0827590354284 0.050747403407 -1.3395257511e-23)
(-0.0919948656448 0.0631714942229 -1.83795216867e-22)
(-0.0903954492279 0.0557002674463 -2.44979649442e-22)
(-0.102926428606 0.0702557752832 -7.30551225149e-22)
(-0.100262881992 0.0608503718537 -1.29013508451e-22)
(-0.117760607358 0.0788586372419 -1.39486230709e-21)
(-0.113436979124 0.0664692905643 -1.34216350874e-21)
(-0.139753478617 0.0907065539552 -2.86428305384e-21)
(-0.132118640036 0.0724896122565 -1.60626084752e-21)
(-0.161020041341 0.0844193203286 -4.7212547002e-21)
(-0.0601340305442 0.0045340891728 1.36008723171e-22)
(-0.0635944472577 0.00240718483042 2.32067551953e-22)
(-0.0593284828594 0.00895305283145 1.38915719239e-22)
(-0.0613433647284 0.00636272424256 2.95415499985e-24)
(-0.0602699120963 0.0135523998695 9.91151273446e-23)
(-0.0619989335034 0.0108746584689 2.25574472308e-22)
(-0.0617348178597 0.0181636544477 1.76667814571e-23)
(-0.0633155089666 0.0151928828913 5.60500477238e-23)
(-0.0635417612305 0.0227826175995 1.00651428092e-23)
(-0.0649354513733 0.0195991617997 6.09880524202e-24)
(-0.0657924815587 0.0273964351897 2.14837504881e-24)
(-0.066932305327 0.0239701769355 -4.38402744638e-24)
(-0.0686040461812 0.0319817580441 -4.55888157948e-24)
(-0.0694179037193 0.0283024232417 -4.2782127631e-23)
(-0.0720830032032 0.0365336380378 -5.84315500828e-23)
(-0.0725248981909 0.0325540650529 3.57397551598e-24)
(-0.0763939841626 0.0409564053058 -6.23641883787e-23)
(-0.0763164970771 0.0366292862775 -7.94599655227e-23)
(-0.0817533234445 0.0452262688831 -1.58663479218e-23)
(-0.0810237137829 0.0404847111307 -5.81941076925e-23)
(-0.0884769107979 0.0493060105842 -1.79502692363e-22)
(-0.0868587216192 0.0440127872785 1.93765101971e-23)
(-0.0970793795942 0.0531307260827 -1.90197941026e-22)
(-0.0942295141216 0.0470662234244 -2.69941693324e-22)
(-0.108354253275 0.0565989243057 -7.40625792047e-22)
(-0.103724075898 0.0495352586544 1.20272990062e-22)
(-0.123908170151 0.0595316987063 -1.55356204917e-21)
(-0.116343940909 0.0509806071746 -1.48689707887e-21)
(-0.146375366156 0.0614018830691 -3.46323249387e-21)
(-0.133944709464 0.0508162124602 -6.30869522652e-22)
(-0.15858589905 0.0492725258624 -5.0482163205e-21)
(-0.0644482689361 0.00414788156664 9.90129837825e-23)
(-0.0636619042717 0.0082982014686 8.96129080693e-23)
(-0.0646573531819 0.0124701916712 1.82509392688e-22)
(-0.0661237237363 0.0166548205829 4.44820715087e-23)
(-0.067910906046 0.0208128735762 -8.3503650136e-24)
(-0.0701092906376 0.0249111998721 -4.93145301262e-23)
(-0.0728265141101 0.0289033788273 -3.46492705355e-23)
(-0.076164981254 0.0326899827519 -1.7454439924e-23)
(-0.0802386023282 0.0362382770697 -7.52898848365e-23)
(-0.0852511039553 0.039340530683 -2.29512495736e-23)
(-0.0914794324883 0.0418887702607 -7.10624907634e-23)
(-0.0993371454042 0.0435533619108 4.05292377646e-23)
(-0.109535372775 0.0439111339239 -6.25998296764e-22)
(-0.123218993267 0.042301754976 -5.64204552352e-22)
(-0.14182545367 0.037313244109 -2.21585334929e-21)
)
;

boundaryField
{
    back
    {
        type            calculated;
        value           uniform (0 0 0);
    }
    sides
    {
        type            calculated;
        value           nonuniform List<vector> 0();
    }
    bottom
    {
        type            calculated;
        value           uniform (0 0 0);
    }
    front
    {
        type            calculated;
        value           uniform (0 0 0);
    }
    atmosphere
    {
        type            calculated;
        value           nonuniform List<vector> 0();
    }
    floatingObject
    {
        type            calculated;
        value           nonuniform List<vector> 0();
    }
    procBoundary7to6
    {
        type            processor;
        value           nonuniform List<vector> 
11
(
(-0.0639838746422 0.12062642392 2.62143633771e-21)
(-0.0648674580036 0.107686419559 -5.29052014953e-21)
(-0.0653775540338 0.106002961989 -4.59877890841e-21)
(-0.0746694385039 0.107215396243 -4.60725408024e-21)
(-0.0893291455781 0.103909157181 -6.09165408177e-23)
(-0.104989397089 0.0943072689625 -9.26406408263e-22)
(-0.120266736882 0.0936293194955 -1.16418117109e-21)
(-0.144404190265 0.120678478794 -2.85260705578e-21)
(-0.176547167316 0.107333608597 -6.69357094476e-21)
(-0.18324405886 0.0590084626475 -4.51781932786e-21)
(-0.170526924913 0.0264006471082 1.75828998992e-21)
)
;
    }
    procBoundary7to8
    {
        type            processor;
        value           nonuniform List<vector> 
17
(
(-0.00358034345585 0.00208914187599 -2.79756902372e-22)
(-0.000328672603426 0.00769965368807 4.75142370125e-22)
(0.000961436021199 0.0126486644797 -1.07089244802e-22)
(0.00247370902001 0.0182598911054 -1.99212764841e-22)
(0.00462409265087 0.0244048006368 1.48197200475e-22)
(0.00738272277762 0.0313486639425 1.51474910924e-22)
(0.0106924620754 0.0393763861611 1.82350105892e-22)
(0.0144784211545 0.0488182538529 1.76289946181e-22)
(0.0109007383651 0.0561936953334 3.88399506618e-22)
(0.00609880045909 0.0631090536394 3.03678705005e-22)
(0.00779870908198 0.0763692904993 3.94345282385e-22)
(0.00860923469417 0.0920758904066 5.54945984552e-23)
(-0.00100570926629 0.100493119329 2.60975905604e-22)
(-0.0116408187044 0.106282967941 -2.7323790314e-22)
(-0.0193393058393 0.124406560683 1.58863308201e-21)
(-0.0357873341558 0.125135155562 -1.76893470259e-21)
(-0.0490651729373 0.125523962719 -5.18999833418e-21)
)
;
    }
    procBoundary7to9
    {
        type            processor;
        value           nonuniform List<vector> 
16
(
(-0.0677334755419 0.00227410920276 3.28761898193e-22)
(-0.0654841299354 0.00579761799239 -6.54669904035e-23)
(-0.066162505468 0.009980344703 1.11508819476e-22)
(-0.0674941251642 0.0138983193389 4.76139254621e-23)
(-0.0690912370834 0.0178788139606 8.47661922586e-24)
(-0.0710335556924 0.021784638403 -2.36660560576e-24)
(-0.0734193850403 0.0255842012771 -4.39499031997e-23)
(-0.0763270852085 0.0292129923131 8.60863509177e-24)
(-0.0798844268167 0.0325534364168 -2.85818646531e-23)
(-0.0841444664052 0.0354676994707 -4.87263403842e-23)
(-0.0894167290794 0.0377753529216 3.98990810754e-23)
(-0.0958865939259 0.0391860488533 -9.0310080348e-23)
(-0.104051674448 0.039304639313 5.43949315218e-22)
(-0.114679961237 0.0374151330469 -1.34529565283e-22)
(-0.128888242214 0.0329363871376 1.31466669246e-21)
(-0.147612994781 0.0236907149678 -1.66086016974e-21)
)
;
    }
}


// ************************************************************************* //
