/*--------------------------------*- C++ -*----------------------------------*\
| =========                 |                                                 |
| \\      /  F ield         | OpenFOAM: The Open Source CFD Toolbox           |
|  \\    /   O peration     | Version:  v2012                                 |
|   \\  /    A nd           | Website:  www.openfoam.com                      |
|    \\/     M anipulation  |                                                 |
\*---------------------------------------------------------------------------*/
FoamFile
{
    version     2.0;
    format      ascii;
    class       surfaceScalarField;
    location    "2.3";
    object      phi;
}
// * * * * * * * * * * * * * * * * * * * * * * * * * * * * * * * * * * * * * //

dimensions      [0 3 -1 0 0 0 0];
oriented        oriented;


internalField   nonuniform List<scalar> 
300
(
-1.15242165172e-05
0.000274701251408
-2.29389057801e-05
0.000264109814201
-3.41112884363e-05
0.000259715425726
-4.51865098934e-05
0.000261820502455
-5.60087168449e-05
0.000267265274012
-6.67189858992e-05
0.000275027555807
-7.70700916448e-05
0.000284243458531
0.000294757342893
-9.91866870511e-06
0.00028462006251
-1.96963399774e-05
0.000273887598525
-2.93293990019e-05
0.000269348532865
-3.88516151561e-05
0.000271342679313
-4.83386877411e-05
0.000276752208335
-5.75527023088e-05
0.000284241316032
-6.6525987764e-05
0.000293216348321
-7.53299391012e-05
0.000303560726626
-8.39138366954e-05
0.000315096924085
-9.25346332453e-05
0.000327591839435
0.000340705997977
-8.25859384248e-06
0.000292878774896
-1.64921821027e-05
0.000282121265022
-2.46511307749e-05
0.000277507486996
-3.27152091572e-05
0.00027940666969
-4.06955533922e-05
0.000284732363119
-4.84922165927e-05
0.000292037689486
-5.61977557899e-05
0.0003009214971
-6.38007792105e-05
0.000311163271594
-7.13564027899e-05
0.000322652002968
-7.91516374171e-05
0.000335386515447
-8.74599170694e-05
0.000349013752388
-9.72127598732e-05
0.000363548600562
0.000378987383816
-6.66041982169e-06
0.0002995392801
-1.33903006147e-05
0.000288851183624
-2.004662754e-05
0.000284163776157
-2.66613293717e-05
0.000286021240598
-3.31907892727e-05
0.000291261595188
-3.96333958596e-05
0.000298479980917
-4.59586794588e-05
0.000307246394001
-5.222941498e-05
0.000317433581839
-5.8410300058e-05
0.000328832463409
-6.48623054166e-05
0.000341838142246
-7.19517726093e-05
0.000356102926252
-8.04851982498e-05
0.000372081915708
-9.17290211653e-05
0.000390231405822
0.00041297807506
-5.10295074852e-06
0.000304642273619
-1.03141040522e-05
0.000294062330443
-1.55495117968e-05
0.000289399104393
-2.07191165756e-05
0.00029119067815
-2.581939044e-05
0.000296361613892
-3.08079508161e-05
0.000303468212658
-3.57034688005e-05
0.000312141536256
-4.0521441659e-05
0.000322251171631
-4.5445174988e-05
0.000333755854472
-5.039616425e-05
0.000346788878248
-5.57149073892e-05
0.000361421540442
-6.16832448059e-05
0.000378050321154
-6.89518961684e-05
0.000397500406147
0.000421303177805
-3.56988742117e-06
0.000308212160196
-7.33865571049e-06
0.000297831052341
-1.11064530734e-05
0.000293166788414
-1.48423650925e-05
0.000294926397251
-1.8500697848e-05
0.000300019676582
-2.20848179519e-05
0.000307052003048
-2.55652130954e-05
0.000315621572856
-2.89595851345e-05
0.000325645199318
-3.23295016414e-05
0.000337125489583
-3.56412469906e-05
0.000350100449626
-3.87751056506e-05
0.000364555363987
-4.16744968204e-05
0.000380949884484
-4.35095574355e-05
0.000399335897153
0.000420092956194
-2.08456142553e-06
0.000310296688534
-4.39446600407e-06
0.000300140885606
-6.75744352815e-06
0.000295529634552
-9.06756245742e-06
0.000297236312705
-1.13094141936e-05
0.000302261256279
-1.34653780198e-05
0.000309207645074
-1.55135021365e-05
0.000317669357401
-1.74452089034e-05
0.000327576590971
-1.92758738939e-05
0.000338955909612
-2.09349767061e-05
0.000351759416665
-2.23565679777e-05
0.000365976954548
-2.30935377769e-05
0.000381687053424
-2.24289333502e-05
0.000398671722574
0.000416540743023
-5.76345665933e-07
0.000310872990492
-1.5520179937e-06
0.000301116484102
-2.45387192621e-06
0.000296431359292
-3.36946478432e-06
0.000298151708347
-4.20812435623e-06
0.00030309965366
-4.94229486063e-06
0.000309941506549
-5.56460473286e-06
0.00031829134237
-6.07317676892e-06
0.000328084861958
-6.43935109561e-06
0.000339321848688
-6.65876218224e-06
0.000351978693078
-6.69086253572e-06
0.000366009043204
-6.29356190346e-06
0.000381289923626
-5.15980441571e-06
0.000397538344436
0.000414230066463
7.06724181905e-07
0.000310166236507
1.33155934629e-06
0.000300491594939
1.76525378462e-06
0.000295997556675
2.23514790195e-06
0.000297681637181
2.78911619456e-06
0.000302545440636
3.45757129058e-06
0.000309272755142
4.24945643714e-06
0.000317499138161
5.16955579306e-06
0.000327164458108
6.20219545001e-06
0.000338288958739
7.31542569416e-06
0.000350865300697
8.47102705218e-06
0.000364853390859
9.61197895882e-06
0.000380149090827
1.0615994885e-05
0.000396534593656
0.000413937391726
2.18416172852e-06
0.000307982108008
4.13210308054e-06
0.000298543653198
5.89148337978e-06
0.000294238110032
7.70441079183e-06
0.000295868555989
9.62887883216e-06
0.000300620726201
1.16954661018e-05
0.000307205841609
1.39191672057e-05
0.000315275061091
1.63078847379e-05
0.000324775356619
1.87748976967e-05
0.000335821602922
2.12461308719e-05
0.000348393811527
2.36431232961e-05
0.000362456267071
2.56124738946e-05
0.00037817976579
2.66076401683e-05
0.000395539629479
2.58576835624e-05
0.000414687719483
2.07491714301e-05
0.000435243087708
0.000455389399108
3.56047528999e-06
0.000304421742831
6.78456381996e-06
0.000295319621508
9.86611085283e-06
0.000291156522053
1.30161509533e-05
0.00029271834714
1.63082339276e-05
0.0002973283368
1.97936448596e-05
0.000303720003404
2.34848615418e-05
0.000311583334983
2.72800013282e-05
0.000320979684399
3.12971745777e-05
0.000331803943454
3.53616138909e-05
0.000344329003
3.92865396329e-05
0.000358531149286
4.28036419533e-05
0.000374662686889
4.53661811606e-05
0.000392977337389
4.59707269927e-05
0.000414083611851
4.2167857363e-05
0.000439046460455
0.00046573745942
4.79432510575e-06
9.26209363524e-06
1.36578386955e-05
1.81191248077e-05
2.27579217736e-05
2.76244188768e-05
3.27438729037e-05
3.82028195904e-05
4.37953696145e-05
4.96487783685e-05
5.54221442697e-05
6.10231759571e-05
6.60236506609e-05
6.95884379471e-05
7.03015640775e-05
)
;

boundaryField
{
    back
    {
        type            calculated;
        value           uniform 0;
    }
    sides
    {
        type            calculated;
        value           nonuniform List<scalar> 0();
    }
    bottom
    {
        type            calculated;
        value           uniform 0;
    }
    front
    {
        type            calculated;
        value           uniform 0;
    }
    atmosphere
    {
        type            calculated;
        value           nonuniform List<scalar> 0();
    }
    floatingObject
    {
        type            calculated;
        value           nonuniform List<scalar> 0();
    }
    procBoundary7to6
    {
        type            processor;
        value           nonuniform List<scalar> 
11
(
-0.00011051028301
-7.72765173949e-05
-4.22987833345e-05
-1.88761825598e-05
-2.8486420718e-06
1.09090624469e-05
-0.0004301339137
-0.000442698465388
8.05873850856e-06
3.18201330044e-05
6.59378954691e-05
)
;
    }
    procBoundary7to8
    {
        type            processor;
        value           nonuniform List<scalar> 
17
(
-0.000263176755707
-0.000252694853715
-0.000248542822251
-0.000250745133327
-0.000256443015833
-0.000264317414689
-0.000273892680558
-0.000284950254004
-8.68777976674e-05
-0.000306514122672
-0.000318972184424
-0.000331546170386
-0.000101695737257
-0.000353796514092
-0.000366005181761
-0.000110195593444
-0.000394196664781
)
;
    }
    procBoundary7to9
    {
        type            processor;
        value           nonuniform List<scalar> 
16
(
0.00029962756355
0.000290851930199
0.00028676073908
0.000288256872192
0.000292689189913
0.000298853012243
0.000306463288625
0.00031552011571
0.000326210825608
0.000338475169409
0.000352757577117
0.000369061714976
0.000387977176775
0.000410519340806
0.000438333838864
0.000470101553773
)
;
    }
}


// ************************************************************************* //
