/*--------------------------------*- C++ -*----------------------------------*\
| =========                 |                                                 |
| \\      /  F ield         | OpenFOAM: The Open Source CFD Toolbox           |
|  \\    /   O peration     | Version:  v2012                                 |
|   \\  /    A nd           | Website:  www.openfoam.com                      |
|    \\/     M anipulation  |                                                 |
\*---------------------------------------------------------------------------*/
FoamFile
{
    version     2.0;
    format      ascii;
    class       volScalarField;
    location    "2.3";
    object      rAU;
}
// * * * * * * * * * * * * * * * * * * * * * * * * * * * * * * * * * * * * * //

dimensions      [-1 3 1 0 0 0 0];


internalField   nonuniform List<scalar> 
164
(
1.10364052938e-05
1.09677513621e-05
1.0956604068e-05
1.09548942451e-05
1.09541495167e-05
1.09535662659e-05
1.09529139445e-05
1.09522357376e-05
1.10383218175e-05
1.09687039652e-05
1.09573509367e-05
1.09555720447e-05
1.09544773089e-05
1.09533929511e-05
1.09524691213e-05
1.09515003452e-05
1.09497629898e-05
1.09466523662e-05
1.09402747219e-05
1.10398626475e-05
1.09697369475e-05
1.09581750251e-05
1.0956206358e-05
1.09546891581e-05
1.0953401507e-05
1.09523155721e-05
1.09508562111e-05
1.09485918647e-05
1.09450801032e-05
1.09390892508e-05
1.09279837672e-05
1.09081100437e-05
1.10423809119e-05
1.09714197555e-05
1.09592174455e-05
1.09568289286e-05
1.09549059964e-05
1.0953436395e-05
1.09519465854e-05
1.09504612797e-05
1.09492764954e-05
1.09478852316e-05
1.09462484936e-05
1.09443005872e-05
1.09391877028e-05
1.09272058541e-05
1.10465873925e-05
1.09737266623e-05
1.09603584117e-05
1.09572930011e-05
1.09548320699e-05
1.09530056722e-05
1.09516212475e-05
1.09504487281e-05
1.09494957393e-05
1.09485135844e-05
1.09470575288e-05
1.09450555681e-05
1.09399127126e-05
1.09171001571e-05
1.10532553607e-05
1.09762158244e-05
1.09610965158e-05
1.09572104939e-05
1.09541971403e-05
1.09522505522e-05
1.09509897323e-05
1.09499590058e-05
1.0948759932e-05
1.09477046756e-05
1.09473365209e-05
1.09476737192e-05
1.09481317602e-05
1.09429163239e-05
1.10617607005e-05
1.09777035768e-05
1.09607553597e-05
1.09556530087e-05
1.09525641815e-05
1.09507447238e-05
1.0949518335e-05
1.09486852873e-05
1.09480473692e-05
1.09477570604e-05
1.09484141366e-05
1.09507673223e-05
1.09554186855e-05
1.09626853972e-05
1.10524267158e-05
1.09728493328e-05
1.09566137672e-05
1.09518154382e-05
1.0949735224e-05
1.09486032002e-05
1.09478461704e-05
1.09473213596e-05
1.09470867356e-05
1.09472162514e-05
1.09477231118e-05
1.09494363283e-05
1.09531222606e-05
1.09601701857e-05
1.09816876325e-05
1.09508078383e-05
1.09463997941e-05
1.09459510405e-05
1.09461321079e-05
1.09461639822e-05
1.09460046714e-05
1.09456862538e-05
1.09454319175e-05
1.0945379437e-05
1.09454320269e-05
1.09457115519e-05
1.09457465554e-05
1.09453149183e-05
1.09546642871e-05
1.09346820463e-05
1.09371183114e-05
1.09398994091e-05
1.09422857413e-05
1.09434059948e-05
1.0943874882e-05
1.09439941815e-05
1.09436439792e-05
1.09432732785e-05
1.0942630873e-05
1.09413192717e-05
1.09385597562e-05
1.09304581472e-05
1.09081470905e-05
1.08445330991e-05
1.09925452672e-05
1.09372575355e-05
1.09339904718e-05
1.09363701642e-05
1.09396136928e-05
1.09412299282e-05
1.09418253865e-05
1.09421895661e-05
1.09421097216e-05
1.09414481185e-05
1.09404167277e-05
1.0938178184e-05
1.09341179528e-05
1.09243274428e-05
1.09072061081e-05
1.08713081339e-05
1.10047613651e-05
1.09414036597e-05
1.09347815391e-05
1.09357888486e-05
1.09383857459e-05
1.09401093162e-05
1.09408436781e-05
1.09409269264e-05
1.09409567413e-05
1.09402238683e-05
1.09390730975e-05
1.09370760141e-05
1.09327660602e-05
1.09254729192e-05
1.09150407511e-05
1.08909424865e-05
)
;

boundaryField
{
    back
    {
        type            calculated;
        value           nonuniform List<scalar> 
164
(
1.10364052938e-05
1.09677513621e-05
1.0956604068e-05
1.09548942451e-05
1.09541495167e-05
1.09535662659e-05
1.09529139445e-05
1.09522357376e-05
1.10383218175e-05
1.09687039652e-05
1.09573509367e-05
1.09555720447e-05
1.09544773089e-05
1.09533929511e-05
1.09524691213e-05
1.09515003452e-05
1.09497629898e-05
1.09466523662e-05
1.09402747219e-05
1.10398626475e-05
1.09697369475e-05
1.09581750251e-05
1.0956206358e-05
1.09546891581e-05
1.0953401507e-05
1.09523155721e-05
1.09508562111e-05
1.09485918647e-05
1.09450801032e-05
1.09390892508e-05
1.09279837672e-05
1.09081100437e-05
1.10423809119e-05
1.09714197555e-05
1.09592174455e-05
1.09568289286e-05
1.09549059964e-05
1.0953436395e-05
1.09519465854e-05
1.09504612797e-05
1.09492764954e-05
1.09478852316e-05
1.09462484936e-05
1.09443005872e-05
1.09391877028e-05
1.09272058541e-05
1.10465873925e-05
1.09737266623e-05
1.09603584117e-05
1.09572930011e-05
1.09548320699e-05
1.09530056722e-05
1.09516212475e-05
1.09504487281e-05
1.09494957393e-05
1.09485135844e-05
1.09470575288e-05
1.09450555681e-05
1.09399127126e-05
1.09171001571e-05
1.10532553607e-05
1.09762158244e-05
1.09610965158e-05
1.09572104939e-05
1.09541971403e-05
1.09522505522e-05
1.09509897323e-05
1.09499590058e-05
1.0948759932e-05
1.09477046756e-05
1.09473365209e-05
1.09476737192e-05
1.09481317602e-05
1.09429163239e-05
1.10617607005e-05
1.09777035768e-05
1.09607553597e-05
1.09556530087e-05
1.09525641815e-05
1.09507447238e-05
1.0949518335e-05
1.09486852873e-05
1.09480473692e-05
1.09477570604e-05
1.09484141366e-05
1.09507673223e-05
1.09554186855e-05
1.09626853972e-05
1.10524267158e-05
1.09728493328e-05
1.09566137672e-05
1.09518154382e-05
1.0949735224e-05
1.09486032002e-05
1.09478461704e-05
1.09473213596e-05
1.09470867356e-05
1.09472162514e-05
1.09477231118e-05
1.09494363283e-05
1.09531222606e-05
1.09601701857e-05
1.09816876325e-05
1.09508078383e-05
1.09463997941e-05
1.09459510405e-05
1.09461321079e-05
1.09461639822e-05
1.09460046714e-05
1.09456862538e-05
1.09454319175e-05
1.0945379437e-05
1.09454320269e-05
1.09457115519e-05
1.09457465554e-05
1.09453149183e-05
1.09546642871e-05
1.09346820463e-05
1.09371183114e-05
1.09398994091e-05
1.09422857413e-05
1.09434059948e-05
1.0943874882e-05
1.09439941815e-05
1.09436439792e-05
1.09432732785e-05
1.0942630873e-05
1.09413192717e-05
1.09385597562e-05
1.09304581472e-05
1.09081470905e-05
1.08445330991e-05
1.09925452672e-05
1.09372575355e-05
1.09339904718e-05
1.09363701642e-05
1.09396136928e-05
1.09412299282e-05
1.09418253865e-05
1.09421895661e-05
1.09421097216e-05
1.09414481185e-05
1.09404167277e-05
1.0938178184e-05
1.09341179528e-05
1.09243274428e-05
1.09072061081e-05
1.08713081339e-05
1.10047613651e-05
1.09414036597e-05
1.09347815391e-05
1.09357888486e-05
1.09383857459e-05
1.09401093162e-05
1.09408436781e-05
1.09409269264e-05
1.09409567413e-05
1.09402238683e-05
1.09390730975e-05
1.09370760141e-05
1.09327660602e-05
1.09254729192e-05
1.09150407511e-05
1.08909424865e-05
)
;
    }
    sides
    {
        type            calculated;
        value           nonuniform List<scalar> 0();
    }
    bottom
    {
        type            calculated;
        value           nonuniform List<scalar> 
12
(
1.10364052938e-05
1.10383218175e-05
1.10398626475e-05
1.10423809119e-05
1.10465873925e-05
1.10532553607e-05
1.10617607005e-05
1.10524267158e-05
1.09816876325e-05
1.09546642871e-05
1.09925452672e-05
1.10047613651e-05
)
;
    }
    front
    {
        type            calculated;
        value           nonuniform List<scalar> 
164
(
1.10364052938e-05
1.09677513621e-05
1.0956604068e-05
1.09548942451e-05
1.09541495167e-05
1.09535662659e-05
1.09529139445e-05
1.09522357376e-05
1.10383218175e-05
1.09687039652e-05
1.09573509367e-05
1.09555720447e-05
1.09544773089e-05
1.09533929511e-05
1.09524691213e-05
1.09515003452e-05
1.09497629898e-05
1.09466523662e-05
1.09402747219e-05
1.10398626475e-05
1.09697369475e-05
1.09581750251e-05
1.0956206358e-05
1.09546891581e-05
1.0953401507e-05
1.09523155721e-05
1.09508562111e-05
1.09485918647e-05
1.09450801032e-05
1.09390892508e-05
1.09279837672e-05
1.09081100437e-05
1.10423809119e-05
1.09714197555e-05
1.09592174455e-05
1.09568289286e-05
1.09549059964e-05
1.0953436395e-05
1.09519465854e-05
1.09504612797e-05
1.09492764954e-05
1.09478852316e-05
1.09462484936e-05
1.09443005872e-05
1.09391877028e-05
1.09272058541e-05
1.10465873925e-05
1.09737266623e-05
1.09603584117e-05
1.09572930011e-05
1.09548320699e-05
1.09530056722e-05
1.09516212475e-05
1.09504487281e-05
1.09494957393e-05
1.09485135844e-05
1.09470575288e-05
1.09450555681e-05
1.09399127126e-05
1.09171001571e-05
1.10532553607e-05
1.09762158244e-05
1.09610965158e-05
1.09572104939e-05
1.09541971403e-05
1.09522505522e-05
1.09509897323e-05
1.09499590058e-05
1.0948759932e-05
1.09477046756e-05
1.09473365209e-05
1.09476737192e-05
1.09481317602e-05
1.09429163239e-05
1.10617607005e-05
1.09777035768e-05
1.09607553597e-05
1.09556530087e-05
1.09525641815e-05
1.09507447238e-05
1.0949518335e-05
1.09486852873e-05
1.09480473692e-05
1.09477570604e-05
1.09484141366e-05
1.09507673223e-05
1.09554186855e-05
1.09626853972e-05
1.10524267158e-05
1.09728493328e-05
1.09566137672e-05
1.09518154382e-05
1.0949735224e-05
1.09486032002e-05
1.09478461704e-05
1.09473213596e-05
1.09470867356e-05
1.09472162514e-05
1.09477231118e-05
1.09494363283e-05
1.09531222606e-05
1.09601701857e-05
1.09816876325e-05
1.09508078383e-05
1.09463997941e-05
1.09459510405e-05
1.09461321079e-05
1.09461639822e-05
1.09460046714e-05
1.09456862538e-05
1.09454319175e-05
1.0945379437e-05
1.09454320269e-05
1.09457115519e-05
1.09457465554e-05
1.09453149183e-05
1.09546642871e-05
1.09346820463e-05
1.09371183114e-05
1.09398994091e-05
1.09422857413e-05
1.09434059948e-05
1.0943874882e-05
1.09439941815e-05
1.09436439792e-05
1.09432732785e-05
1.0942630873e-05
1.09413192717e-05
1.09385597562e-05
1.09304581472e-05
1.09081470905e-05
1.08445330991e-05
1.09925452672e-05
1.09372575355e-05
1.09339904718e-05
1.09363701642e-05
1.09396136928e-05
1.09412299282e-05
1.09418253865e-05
1.09421895661e-05
1.09421097216e-05
1.09414481185e-05
1.09404167277e-05
1.0938178184e-05
1.09341179528e-05
1.09243274428e-05
1.09072061081e-05
1.08713081339e-05
1.10047613651e-05
1.09414036597e-05
1.09347815391e-05
1.09357888486e-05
1.09383857459e-05
1.09401093162e-05
1.09408436781e-05
1.09409269264e-05
1.09409567413e-05
1.09402238683e-05
1.09390730975e-05
1.09370760141e-05
1.09327660602e-05
1.09254729192e-05
1.09150407511e-05
1.08909424865e-05
)
;
    }
    atmosphere
    {
        type            calculated;
        value           nonuniform List<scalar> 0();
    }
    floatingObject
    {
        type            calculated;
        value           nonuniform List<scalar> 0();
    }
    procBoundary7to6
    {
        type            processor;
        value           nonuniform List<scalar> 
11
(
1.08963194465e-05
1.091040337e-05
1.0940851879e-05
1.0974592492e-05
1.09701074203e-05
1.09357511311e-05
1.09357511311e-05
1.08534091083e-05
1.08786609822e-05
1.08766959949e-05
1.08815770824e-05
)
;
    }
    procBoundary7to8
    {
        type            processor;
        value           nonuniform List<scalar> 
17
(
1.1034800408e-05
1.09667057107e-05
1.09559317177e-05
1.09543730591e-05
1.09538485646e-05
1.09534421538e-05
1.09532711488e-05
1.09529416881e-05
1.09513844075e-05
1.09513844075e-05
1.09500502233e-05
1.09480383977e-05
1.09226576486e-05
1.09226576486e-05
1.08333455183e-05
1.0890840644e-05
1.0890840644e-05
)
;
    }
    procBoundary7to9
    {
        type            processor;
        value           nonuniform List<scalar> 
16
(
1.10102837303e-05
1.09446966215e-05
1.09367632727e-05
1.09363312227e-05
1.09381784431e-05
1.09395412524e-05
1.09403684206e-05
1.09405353586e-05
1.09403588869e-05
1.09397987323e-05
1.09384630598e-05
1.09368045905e-05
1.09333752126e-05
1.09277717513e-05
1.0919913674e-05
1.09031134124e-05
)
;
    }
}


// ************************************************************************* //
