/*--------------------------------*- C++ -*----------------------------------*\
| =========                 |                                                 |
| \\      /  F ield         | OpenFOAM: The Open Source CFD Toolbox           |
|  \\    /   O peration     | Version:  v2012                                 |
|   \\  /    A nd           | Website:  www.openfoam.com                      |
|    \\/     M anipulation  |                                                 |
\*---------------------------------------------------------------------------*/
FoamFile
{
    version     2.0;
    format      ascii;
    class       volScalarField;
    location    "0.8";
    object      ddt0(epsilon);
}
// * * * * * * * * * * * * * * * * * * * * * * * * * * * * * * * * * * * * * //

dimensions      [0 2 -4 0 0 0 0];


internalField   nonuniform List<scalar> 
164
(
-0.0640269738983
-0.064297006916
-0.0646140951558
-0.0649785120198
-0.0653943998358
-0.065868838151
-0.0664203601027
-0.0671266398298
-0.0683931579474
-0.0717637365899
-0.0786374957318
-0.0606660289927
0.112552263311
-0.0639787945574
-0.060899761431
-0.0632355382425
-0.0635015244421
-0.0636419383336
-0.0638280824374
-0.0640797747948
-0.0643895874369
-0.0647520440024
-0.0651646530401
-0.0656301452108
-0.0661533486157
-0.0667466415962
-0.0674665305949
-0.0686143145404
-0.0713396945045
-0.0752872690757
-0.00456219560711
-0.0438128212719
-0.0638514712346
-0.0607650374885
-0.0631498302363
-0.0634474006567
-0.0634980456809
-0.0636197591283
-0.0638293854783
-0.0641169008126
-0.0644743167252
-0.0648889289531
-0.0653547471887
-0.0658746523107
-0.0664502794941
-0.0670820215991
-0.0678056196585
-0.0688411796425
-0.0709900860818
-0.0734570312745
-0.0273551289143
0.526364145419
-0.0636992451971
-0.0606232120771
-0.0630461779449
-0.0633708959742
-0.0634368340263
-0.0635742120235
-0.0638096731038
-0.0641403768264
-0.0645532195362
-0.0650253040411
-0.0655501021309
-0.0661352213984
-0.0667783219838
-0.0674548066933
-0.068188810388
-0.0690741520604
-0.0707540027834
-0.0728154652288
-0.0449274405985
0.508144704446
-0.0635280955436
-0.0604823055397
-0.062930066888
-0.0632749674979
-0.063353578415
-0.0635053427683
-0.0637641595822
-0.0641254958641
-0.0645552251159
-0.06505554227
-0.0656362654465
-0.0663219895017
-0.0671001048133
-0.0678780634905
-0.0686958677935
-0.0695216435565
-0.0711891436412
-0.0755662498826
-0.128132113383
-0.348238509631
-0.063346104461
-0.060350880772
-0.0628092299449
-0.0631654213147
-0.063251231894
-0.0634075502006
-0.0636295998469
-0.0637039843863
-0.0637211152526
-0.0639765707555
-0.064548484248
-0.0654766517778
-0.0667238145593
-0.0679978519847
-0.0692504203478
-0.0705005241284
-0.0727197019911
-0.0761542891441
-0.0742259679116
-0.0237062706706
-0.0631623848886
-0.0602361415597
-0.0626931071453
-0.0630493596622
-0.0631273071897
-0.0632243885538
-0.062923989312
-0.0600527592037
-0.0739018997066
-0.0720378171301
-0.072533377497
-0.0751678823855
-0.0616707442221
-0.0659133921064
-0.0687428762343
-0.070964269944
-0.0734722545482
-0.0733322997458
0.082776978153
-0.0594451975818
-0.0629891653714
-0.0601476232396
-0.0625961374044
-0.0629355495318
-0.0629555783926
-0.0628014004941
-0.061234658184
-0.0670679026685
-0.0628511948148
-0.0600893601759
-0.0625442694456
-0.0628857547482
-0.0628967372082
-0.0626667508175
-0.0607047219019
-0.0642708547811
-0.0628511049115
-0.0600892773629
-0.0625442092268
-0.0628857297311
-0.0628967491748
-0.0626668089703
-0.0607048245521
-0.0642709044042
-0.0629889418201
-0.0601474277271
-0.0625960017092
-0.0629354974219
-0.062955623975
-0.0628015522371
-0.0612348915437
-0.0670680191874
)
;

boundaryField
{
    back
    {
        type            calculated;
        value           nonuniform List<scalar> 
164
(
-0.0640269738983
-0.064297006916
-0.0646140951558
-0.0649785120198
-0.0653943998358
-0.065868838151
-0.0664203601027
-0.0671266398298
-0.0683931579474
-0.0717637365899
-0.0786374957318
-0.0606660289927
0.112552263311
-0.0639787945574
-0.060899761431
-0.0632355382425
-0.0635015244421
-0.0636419383336
-0.0638280824374
-0.0640797747948
-0.0643895874369
-0.0647520440024
-0.0651646530401
-0.0656301452108
-0.0661533486157
-0.0667466415962
-0.0674665305949
-0.0686143145404
-0.0713396945045
-0.0752872690757
-0.00456219560711
-0.0438128212719
-0.0638514712346
-0.0607650374885
-0.0631498302363
-0.0634474006567
-0.0634980456809
-0.0636197591283
-0.0638293854783
-0.0641169008126
-0.0644743167252
-0.0648889289531
-0.0653547471887
-0.0658746523107
-0.0664502794941
-0.0670820215991
-0.0678056196585
-0.0688411796425
-0.0709900860818
-0.0734570312745
-0.0273551289143
0.526364145419
-0.0636992451971
-0.0606232120771
-0.0630461779449
-0.0633708959742
-0.0634368340263
-0.0635742120235
-0.0638096731038
-0.0641403768264
-0.0645532195362
-0.0650253040411
-0.0655501021309
-0.0661352213984
-0.0667783219838
-0.0674548066933
-0.068188810388
-0.0690741520604
-0.0707540027834
-0.0728154652288
-0.0449274405985
0.508144704446
-0.0635280955436
-0.0604823055397
-0.062930066888
-0.0632749674979
-0.063353578415
-0.0635053427683
-0.0637641595822
-0.0641254958641
-0.0645552251159
-0.06505554227
-0.0656362654465
-0.0663219895017
-0.0671001048133
-0.0678780634905
-0.0686958677935
-0.0695216435565
-0.0711891436412
-0.0755662498826
-0.128132113383
-0.348238509631
-0.063346104461
-0.060350880772
-0.0628092299449
-0.0631654213147
-0.063251231894
-0.0634075502006
-0.0636295998469
-0.0637039843863
-0.0637211152526
-0.0639765707555
-0.064548484248
-0.0654766517778
-0.0667238145593
-0.0679978519847
-0.0692504203478
-0.0705005241284
-0.0727197019911
-0.0761542891441
-0.0742259679116
-0.0237062706706
-0.0631623848886
-0.0602361415597
-0.0626931071453
-0.0630493596622
-0.0631273071897
-0.0632243885538
-0.062923989312
-0.0600527592037
-0.0739018997066
-0.0720378171301
-0.072533377497
-0.0751678823855
-0.0616707442221
-0.0659133921064
-0.0687428762343
-0.070964269944
-0.0734722545482
-0.0733322997458
0.082776978153
-0.0594451975818
-0.0629891653714
-0.0601476232396
-0.0625961374044
-0.0629355495318
-0.0629555783926
-0.0628014004941
-0.061234658184
-0.0670679026685
-0.0628511948148
-0.0600893601759
-0.0625442694456
-0.0628857547482
-0.0628967372082
-0.0626667508175
-0.0607047219019
-0.0642708547811
-0.0628511049115
-0.0600892773629
-0.0625442092268
-0.0628857297311
-0.0628967491748
-0.0626668089703
-0.0607048245521
-0.0642709044042
-0.0629889418201
-0.0601474277271
-0.0625960017092
-0.0629354974219
-0.062955623975
-0.0628015522371
-0.0612348915437
-0.0670680191874
)
;
    }
    sides
    {
        type            calculated;
        value           nonuniform List<scalar> 0();
    }
    bottom
    {
        type            calculated;
        value           nonuniform List<scalar> 10(-0.0639787945574 -0.0638514712346 -0.0636992451971 -0.0635280955436 -0.063346104461 -0.0631623848886 -0.0629891653714 -0.0628511948148 -0.0628511049115 -0.0629889418201);
    }
    front
    {
        type            calculated;
        value           nonuniform List<scalar> 
164
(
-0.0640269738983
-0.064297006916
-0.0646140951558
-0.0649785120198
-0.0653943998358
-0.065868838151
-0.0664203601027
-0.0671266398298
-0.0683931579474
-0.0717637365899
-0.0786374957318
-0.0606660289927
0.112552263311
-0.0639787945574
-0.060899761431
-0.0632355382425
-0.0635015244421
-0.0636419383336
-0.0638280824374
-0.0640797747948
-0.0643895874369
-0.0647520440024
-0.0651646530401
-0.0656301452108
-0.0661533486157
-0.0667466415962
-0.0674665305949
-0.0686143145404
-0.0713396945045
-0.0752872690757
-0.00456219560711
-0.0438128212719
-0.0638514712346
-0.0607650374885
-0.0631498302363
-0.0634474006567
-0.0634980456809
-0.0636197591283
-0.0638293854783
-0.0641169008126
-0.0644743167252
-0.0648889289531
-0.0653547471887
-0.0658746523107
-0.0664502794941
-0.0670820215991
-0.0678056196585
-0.0688411796425
-0.0709900860818
-0.0734570312745
-0.0273551289143
0.526364145419
-0.0636992451971
-0.0606232120771
-0.0630461779449
-0.0633708959742
-0.0634368340263
-0.0635742120235
-0.0638096731038
-0.0641403768264
-0.0645532195362
-0.0650253040411
-0.0655501021309
-0.0661352213984
-0.0667783219838
-0.0674548066933
-0.068188810388
-0.0690741520604
-0.0707540027834
-0.0728154652288
-0.0449274405985
0.508144704446
-0.0635280955436
-0.0604823055397
-0.062930066888
-0.0632749674979
-0.063353578415
-0.0635053427683
-0.0637641595822
-0.0641254958641
-0.0645552251159
-0.06505554227
-0.0656362654465
-0.0663219895017
-0.0671001048133
-0.0678780634905
-0.0686958677935
-0.0695216435565
-0.0711891436412
-0.0755662498826
-0.128132113383
-0.348238509631
-0.063346104461
-0.060350880772
-0.0628092299449
-0.0631654213147
-0.063251231894
-0.0634075502006
-0.0636295998469
-0.0637039843863
-0.0637211152526
-0.0639765707555
-0.064548484248
-0.0654766517778
-0.0667238145593
-0.0679978519847
-0.0692504203478
-0.0705005241284
-0.0727197019911
-0.0761542891441
-0.0742259679116
-0.0237062706706
-0.0631623848886
-0.0602361415597
-0.0626931071453
-0.0630493596622
-0.0631273071897
-0.0632243885538
-0.062923989312
-0.0600527592037
-0.0739018997066
-0.0720378171301
-0.072533377497
-0.0751678823855
-0.0616707442221
-0.0659133921064
-0.0687428762343
-0.070964269944
-0.0734722545482
-0.0733322997458
0.082776978153
-0.0594451975818
-0.0629891653714
-0.0601476232396
-0.0625961374044
-0.0629355495318
-0.0629555783926
-0.0628014004941
-0.061234658184
-0.0670679026685
-0.0628511948148
-0.0600893601759
-0.0625442694456
-0.0628857547482
-0.0628967372082
-0.0626667508175
-0.0607047219019
-0.0642708547811
-0.0628511049115
-0.0600892773629
-0.0625442092268
-0.0628857297311
-0.0628967491748
-0.0626668089703
-0.0607048245521
-0.0642709044042
-0.0629889418201
-0.0601474277271
-0.0625960017092
-0.0629354974219
-0.062955623975
-0.0628015522371
-0.0612348915437
-0.0670680191874
)
;
    }
    atmosphere
    {
        type            calculated;
        value           nonuniform List<scalar> 7(0 -1.8256045335e-09 1.59005271866 0.508089654324 -0.456460879257 4.62852158779e-17 0.00163489827111);
    }
    floatingObject
    {
        type            calculated;
        value           nonuniform List<scalar> 8(-0.0739018997066 -0.0720378171301 -0.072533377497 -0.0751678823855 -0.0670679026685 -0.0642708547811 -0.0642709044042 -0.0670680191874);
    }
    procBoundary3to4
    {
        type            processor;
        value           nonuniform List<scalar> 
13
(
-0.0639597866178
-0.0641945041351
-0.0644706381277
-0.064076419872
-0.0610200937474
-0.0632997726489
-0.0635319150033
-0.0636432233572
-0.0638072941045
-0.0638072941045
-0.0635362405395
-0.0635362405395
-0.0635362405395
)
;
    }
    procBoundary3to5
    {
        type            processor;
        value           nonuniform List<scalar> 10(-0.0647905601408 -0.0651586030656 -0.065582234136 -0.0660807245101 -0.0667469837541 -0.0680963869114 -0.0721596508136 -0.0815070275351 -0.0463512582722 0.250675627455);
    }
    procBoundary3to6
    {
        type            processor;
        value           nonuniform List<scalar> 8(-0.0781118366139 -0.0641802846017 -0.0675732712833 -0.0704426833542 -0.0732274981039 -0.074204133294 -0.034276256844 0.133921680684);
    }
    procBoundary3to8
    {
        type            processor;
        value           nonuniform List<scalar> 8(-0.063162018358 -0.0602357955822 -0.0626928514506 -0.0630492463339 -0.0631273539143 -0.0632246043486 -0.0629243254521 -0.0600530988492);
    }
}


// ************************************************************************* //
