/*--------------------------------*- C++ -*----------------------------------*\
| =========                 |                                                 |
| \\      /  F ield         | OpenFOAM: The Open Source CFD Toolbox           |
|  \\    /   O peration     | Version:  v2012                                 |
|   \\  /    A nd           | Website:  www.openfoam.com                      |
|    \\/     M anipulation  |                                                 |
\*---------------------------------------------------------------------------*/
FoamFile
{
    version     2.0;
    format      ascii;
    class       volVectorField;
    location    "0.8";
    object      U_0;
}
// * * * * * * * * * * * * * * * * * * * * * * * * * * * * * * * * * * * * * //

dimensions      [0 1 -1 0 0 0 0];


internalField   nonuniform List<vector> 
164
(
(0.117296783338 0.088860755074 3.96394361793e-23)
(0.126757233056 0.102384165513 2.99028121664e-22)
(0.138397183955 0.11557097698 -2.66967978509e-22)
(0.152060675284 0.128019507685 1.91452047412e-22)
(0.167546919365 0.139426760118 3.21872589407e-22)
(0.184715212736 0.149562513088 7.5890425902e-22)
(0.203606493091 0.157633830713 5.77290084595e-22)
(0.223988857636 0.163469268058 -1.43898849933e-21)
(0.246113813075 0.161239891259 9.75777314005e-21)
(0.271848695659 0.155940332883 -1.86301609202e-20)
(0.292293427406 0.113776341817 -4.44325044667e-21)
(0.284801100289 0.13599153907 5.26582784344e-20)
(0.277417601794 -0.374444977818 4.76929105302e-19)
(0.0787353954718 0.00680872169588 9.91558718964e-22)
(0.0819630380657 0.0163032424935 -1.34444334311e-21)
(0.0833637548913 0.0281013350292 -1.96175805726e-22)
(0.0850502715457 0.0405510685912 9.62187329314e-23)
(0.0909211477696 0.0671573340687 1.7231008453e-22)
(0.0958968677061 0.0818095310783 2.368173667e-22)
(0.102826589404 0.0973192836979 8.02328040239e-23)
(0.112408664006 0.113168371253 2.31041622182e-22)
(0.124708635456 0.128613339693 6.88180544509e-22)
(0.139343806705 0.143120822569 3.50611142038e-22)
(0.1559922386 0.156446636403 6.46382999815e-22)
(0.174594141486 0.168581126419 9.04155344902e-22)
(0.195639906214 0.178657854834 -5.69356557127e-22)
(0.219575013346 0.187576997233 -5.02765456118e-21)
(0.248949180443 0.187971221977 1.52284631451e-21)
(0.289305828012 0.190432828212 -1.8693905191e-20)
(0.330460528603 0.149814772794 -7.1354655033e-21)
(0.464577055526 0.144821001043 -3.10870492079e-19)
(1.11780032631 -0.744607764437 -1.8666963485e-19)
(0.0674694360756 0.00710726579107 3.77835079785e-21)
(0.0701787599599 0.0168285319269 -1.0849865003e-21)
(0.0711340762593 0.0291341218193 1.4725069051e-22)
(0.0721354423565 0.042228839912 1.5395995597e-22)
(0.0736171367481 0.0560051416713 2.95414568444e-22)
(0.0759744453704 0.071015244869 2.69469155592e-22)
(0.079855939678 0.087501283446 3.37240907838e-22)
(0.0858374485513 0.10560953 -3.90196350017e-22)
(0.0955742868357 0.124384598905 2.74121778233e-22)
(0.10879562925 0.142501093809 -3.11480251656e-23)
(0.124581011217 0.159280567522 6.04296650227e-22)
(0.142356340454 0.174730245883 1.81436829878e-21)
(0.162193659635 0.189306342383 -6.71574768167e-22)
(0.184849077237 0.202190363136 8.80237344106e-21)
(0.210439906156 0.216388397119 1.9428884325e-20)
(0.244285790435 0.224988129385 2.41530598852e-20)
(0.298723711416 0.238534113514 1.28147178341e-20)
(0.389176265103 0.221017102798 -7.29768826965e-20)
(0.75224539715 0.161789323411 -1.4308889263e-19)
(3.28360611287 -0.892358174476 3.37668592813e-20)
(0.0559173654202 0.00726836626251 4.90061598268e-21)
(0.0580553832967 0.016981558741 -9.86607365252e-22)
(0.0584657101933 0.0295283635515 7.23074256282e-22)
(0.0585696280572 0.0429714319636 1.1767884808e-21)
(0.0587548367885 0.0573651038563 7.66842114961e-22)
(0.059406336883 0.0735335263768 4.0560231711e-22)
(0.0614015259548 0.0919802630686 8.37779144687e-22)
(0.0653127495027 0.11356438282 -2.93986065479e-21)
(0.0756824034837 0.136174214465 -1.28074262193e-21)
(0.0905391127665 0.157439687818 -1.28689490636e-21)
(0.107842858874 0.176651216964 -2.18100388395e-21)
(0.126817725219 0.194382732026 -3.95350424467e-22)
(0.147682740945 0.211340299307 1.32590756761e-20)
(0.170695154964 0.226273776353 -2.1202555327e-20)
(0.194148100262 0.24506574551 -9.67975214941e-20)
(0.221582767038 0.273574437715 -7.94721192238e-20)
(0.259893473159 0.317678075506 -4.7802133578e-22)
(0.322206990761 0.481295099299 -1.69532954027e-20)
(0.611921125262 0.394618656612 4.46954817987e-19)
(0.753325555352 2.88437844876 3.55227720399e-19)
(0.0443516059138 0.00725299454239 3.46421072372e-21)
(0.0458982795945 0.0166839386207 -1.00250880951e-21)
(0.0456880822638 0.0291192131167 8.56686721544e-22)
(0.0447062027231 0.0424648079507 3.92749028211e-22)
(0.0431881010025 0.0569635888598 9.04025483237e-22)
(0.0412974832302 0.0738343124407 1.38138411229e-21)
(0.039858897977 0.0941395794817 5.75181058249e-21)
(0.0386279145456 0.120662120125 2.85990873538e-20)
(0.0500708832353 0.148075529698 8.65289263964e-20)
(0.0678739896251 0.172479421987 1.1014679333e-19)
(0.0869559289449 0.194311415641 3.95487993418e-20)
(0.107463951287 0.2155340809 -1.40888975135e-21)
(0.132782502085 0.234450292651 -9.18276088987e-20)
(0.156402081085 0.248021131681 1.67242340017e-19)
(0.173621930314 0.265303842131 4.10717761576e-19)
(0.184471388685 0.289226147712 3.55329263356e-19)
(0.184928137768 0.324009211352 1.15545307874e-19)
(0.153256184489 0.459294233066 -3.31266481928e-20)
(0.000659624404355 0.323159861369 3.05029251738e-20)
(-0.173796499638 2.7081779739 2.12141273714e-19)
(0.033102977833 0.00702612925444 1.97923883177e-21)
(0.0340846251895 0.0158995375155 -1.828475998e-22)
(0.0332605407028 0.0277964609351 -1.10645059184e-22)
(0.0311497439634 0.0404203097491 2.32169998907e-22)
(0.0277507499738 0.0540860951155 2.75162800936e-21)
(0.023031792788 0.0703058907649 5.72869486795e-21)
(0.0181543990551 0.0907304102504 3.62508967631e-20)
(0.0111975214398 0.122634526402 4.09320919051e-19)
(0.0332980015532 0.153819003125 1.09083643042e-18)
(0.0484489889358 0.183415092542 3.03059204114e-18)
(0.0633679731094 0.209301499036 2.23738303555e-18)
(0.0800847418737 0.24019415665 1.12038288338e-18)
(0.118295969463 0.261641752905 6.50471360512e-19)
(0.140580324829 0.265764525535 -4.11264537371e-19)
(0.15430885318 0.276551276793 -1.27619302162e-18)
(0.163389192626 0.283034023137 -9.66116275862e-19)
(0.163894427642 0.285376168113 -2.6143480736e-19)
(0.134543767514 0.264778068987 -1.3024881888e-19)
(-0.0992221620043 0.182838957362 -1.0592493488e-18)
(-2.57673824543 -1.1693468121 -6.29494997895e-19)
(0.022499452036 0.00659371321724 2.32837327658e-21)
(0.0229818448257 0.0147036432868 -1.27169717683e-21)
(0.0216510529412 0.0256574641837 3.65558268755e-22)
(0.0184235607112 0.0369636446875 2.98376927368e-22)
(0.0124452086416 0.0490535824091 1.46030905082e-20)
(0.00242109710583 0.0641033592609 5.39215196589e-20)
(-0.0136067982433 0.0818627569844 3.0992476409e-19)
(-0.0432783048373 0.111765529493 2.7150631692e-18)
(-0.0186099741274 0.138650608149 9.16970989342e-18)
(0.0123459011151 0.160303126105 2.18870128478e-17)
(0.0300469343723 0.193565738212 1.2059911399e-17)
(0.0460537074257 0.258589581671 1.57945096118e-17)
(0.134149960084 0.278215331157 1.08074563298e-17)
(0.139428507638 0.260465143239 5.09238246649e-18)
(0.143452374983 0.268455172911 3.10995237284e-18)
(0.155870998603 0.281594927862 1.58447210498e-18)
(0.185585472842 0.288938321736 5.07178211072e-19)
(0.222372363237 0.242730020907 1.94318193539e-19)
(0.300669556389 0.183930198659 -5.36897725959e-19)
(1.06535790455 -1.32239458213 -4.39018097323e-19)
(0.0128936677747 0.00600034494723 -8.64894297013e-22)
(0.0130681072147 0.0132344174511 -1.99191684097e-21)
(0.0118626165953 0.0227065810365 -1.43121716711e-22)
(0.00903310910432 0.0311297039728 2.33771341591e-21)
(0.00349567928152 0.0375959881826 2.64602070575e-20)
(-0.00649603246295 0.0412132030803 2.32524248577e-19)
(-0.0219615087962 0.0348140945648 1.32266349233e-18)
(-0.0449343958332 0.0325850089713 6.70631100386e-18)
(0.00419774909436 0.00565742558269 2.38491910001e-21)
(0.00424760875395 0.0124390503453 2.87474982692e-23)
(0.00382398599367 0.0212618763979 5.21893677008e-22)
(0.0029490654452 0.0287560366352 6.66607258674e-21)
(0.00151924634738 0.0338976739365 7.00281499219e-20)
(-0.000666189860717 0.0340851394421 6.98574160415e-19)
(-0.00315457003663 0.0262364384554 3.68426076759e-18)
(-0.0013668779565 0.0163477541027 2.35110688319e-17)
(-0.00419829464879 0.00565742258556 2.71774827162e-21)
(-0.00424799578909 0.0124390457716 2.35518710903e-22)
(-0.00382442184224 0.0212618877815 6.30437464885e-22)
(-0.00294966744231 0.0287560618978 6.04733501252e-21)
(-0.00152006468653 0.0338977304514 6.98038360194e-20)
(0.000665073143004 0.0340852122779 6.98033765308e-19)
(0.00315306209713 0.0262365179884 3.68350245818e-18)
(0.00136489798563 0.0163478240618 2.3514969008e-17)
(-0.0128942028049 0.0060003400021 2.30332174678e-21)
(-0.013068490346 0.0132344013698 4.30863727425e-21)
(-0.0118630496162 0.0227065962192 1.06648171521e-21)
(-0.00903370292747 0.0311297423062 2.53448892669e-21)
(-0.00349646931194 0.0375959902617 2.57300040434e-20)
(0.00649499342384 0.0412132091174 2.28450104088e-19)
(0.0219600567168 0.0348141098508 1.32100876302e-18)
(0.0449324274587 0.0325850352626 6.70350163285e-18)
)
;

boundaryField
{
    back
    {
        type            noSlip;
    }
    sides
    {
        type            noSlip;
    }
    bottom
    {
        type            noSlip;
    }
    front
    {
        type            noSlip;
    }
    atmosphere
    {
        type            pressureInletOutletVelocity;
        value           nonuniform List<vector> 7((0 -0.374444977818 0) (0 -0.744607764437 0) (0 -0.892358174476 0) (0.753325555352 2.88437844876 3.55227720399e-19) (-0.173796499638 2.7081779739 2.12141273714e-19) (0 -1.1693468121 0) (0 -1.32239458213 0));
    }
    floatingObject
    {
        type            movingWallVelocity;
        value           nonuniform List<vector> 8((0 -4.4408920985e-15 5.55111512313e-16) (0 0 5.55111512313e-16) (0 0 0) (0 -8.881784197e-15 5.55111512313e-16) (1.11022302463e-15 0 0) (0 0 5.55111512313e-16) (0 0 5.55111512313e-16) (0 0 0));
    }
    procBoundary3to4
    {
        type            processor;
        value           nonuniform List<vector> 
13
(
(0.129738851339 0.0803758033681 2.09492463172e-23)
(0.139032122475 0.0919750919526 7.95802166458e-23)
(0.150139627494 0.103253419323 -2.52522492969e-23)
(0.0895043249129 0.0064066090454 3.86451367103e-21)
(0.0931792365256 0.0154934163158 -8.16055488263e-22)
(0.0949275770426 0.0265947604649 1.35080838713e-22)
(0.0971087050117 0.0382110696951 3.22343266233e-22)
(0.104311899399 0.0624799201207 2.30361016554e-22)
(0.109926320979 0.0754496740566 2.95180440782e-23)
(0.109926320979 0.0754496740566 2.95180440782e-23)
(0.0874569557906 0.0534424604672 1.59713217029e-22)
(0.0874569557906 0.0534424604672 1.59713217029e-22)
(0.0874569557906 0.0534424604672 1.59713217029e-22)
)
;
    }
    procBoundary3to5
    {
        type            processor;
        value           nonuniform List<vector> 10((0.162986198855 0.113916814683 1.41500833199e-22) (0.177418946443 0.123706012632 3.56633977497e-23) (0.193237212041 0.132398676189 9.5869617539e-23) (0.210177985848 0.139510168828 -4.9973954379e-22) (0.227455377613 0.144986386438 3.49014721722e-22) (0.243676909518 0.145021871298 -2.73135581209e-21) (0.258383092191 0.142986247129 -2.23692287648e-20) (0.251346923251 0.118370987331 -1.45741676486e-20) (0.113884336523 0.0919072294552 5.83029811723e-20) (-1.02371868551 -0.303505220499 -7.49900781773e-21));
    }
    procBoundary3to6
    {
        type            processor;
        value           nonuniform List<vector> 8((0.116591579425 0.160234632753 9.41913149789e-18) (0.127698788827 0.149529975168 5.88344744613e-18) (0.134118526237 0.202011099079 4.03328094427e-18) (0.141898376953 0.262910202854 2.23226575785e-18) (0.184984772628 0.316009453711 1.17769599359e-18) (0.279878218678 0.343245158102 6.18457110173e-19) (0.583949775171 0.339283471436 8.41588775814e-21) (2.46654605644 -0.311340643624 1.25639123945e-20));
    }
    procBoundary3to8
    {
        type            processor;
        value           nonuniform List<vector> 8((-0.0224998909771 0.00659367087714 1.48740804787e-21) (-0.0229821692386 0.0147035631493 -9.6348731224e-22) (-0.0216514376715 0.0256574389921 -1.9900702815e-22) (-0.0184240982631 0.0369636628304 7.02656256683e-22) (-0.0124459323772 0.0490536296685 7.8277078355e-21) (-0.00242196872932 0.0641033447576 4.25945501236e-20) (0.013605682785 0.0818626436732 3.0613901611e-19) (0.0432768543 0.111764853448 2.71592950671e-18));
    }
}


// ************************************************************************* //
