/*--------------------------------*- C++ -*----------------------------------*\
| =========                 |                                                 |
| \\      /  F ield         | OpenFOAM: The Open Source CFD Toolbox           |
|  \\    /   O peration     | Version:  v2012                                 |
|   \\  /    A nd           | Website:  www.openfoam.com                      |
|    \\/     M anipulation  |                                                 |
\*---------------------------------------------------------------------------*/
FoamFile
{
    version     2.0;
    format      ascii;
    class       surfaceScalarField;
    location    "2.6";
    object      phi;
}
// * * * * * * * * * * * * * * * * * * * * * * * * * * * * * * * * * * * * * //

dimensions      [0 3 -1 0 0 0 0];
oriented        oriented;


internalField   nonuniform List<scalar> 
304
(
2.13232132454e-05
2.33607985841e-05
2.65930275141e-05
2.15717953098e-05
3.19971469745e-05
1.97853010187e-05
3.75445780741e-05
1.77405520453e-05
4.32389351175e-05
1.5378627824e-05
4.90695365454e-05
1.26776619659e-05
5.49727932501e-05
9.67262266245e-06
6.42043841842e-06
1.03324111897e-05
2.59610107695e-05
1.51670557022e-05
2.1211505213e-05
2.0003090626e-05
1.85255861682e-05
2.49244373402e-05
1.66516012507e-05
2.99765569332e-05
1.47344049568e-05
3.51750842472e-05
1.25428551276e-05
4.05409352518e-05
1.00128487388e-05
4.6077920425e-05
7.1388086226e-06
5.17067539792e-05
4.03821913484e-06
5.74022841057e-05
7.14071556326e-07
-2.66105974871e-06
9.6193910229e-06
2.12748357356e-05
1.40930534717e-05
1.67382196484e-05
1.85596812468e-05
1.40598039409e-05
2.31090626903e-05
1.21035555283e-05
2.77883503208e-05
1.00568947033e-05
3.26436691407e-05
7.68953561383e-06
3.76975995641e-05
4.96091601396e-06
4.2944697963e-05
1.89313575746e-06
4.83903281889e-05
-1.40978632314e-06
5.40177388011e-05
-4.91521694745e-06
8.82570590917e-06
1.70049837503e-05
1.29187019999e-05
1.26455654206e-05
1.69806601021e-05
9.998666926e-06
2.11300707303e-05
7.95560063206e-06
2.54267934628e-05
5.76235337981e-06
2.99113466461e-05
3.20781127485e-06
3.4634402255e-05
2.41195203753e-07
3.96107884973e-05
-3.0801734432e-06
4.49204671807e-05
-6.71707345004e-06
-1.05334471299e-05
4.13350962294e-06
1.7042550644e-05
7.9990312476e-06
1.31393493954e-05
1.16468517161e-05
8.9978947524e-06
1.52795014407e-05
6.36668612712e-06
1.90007035562e-05
4.23581070393e-06
2.28741251475e-05
1.89123165755e-06
2.6950542417e-05
-8.65416467992e-07
3.13140658248e-05
-4.11849539937e-06
3.59471964046e-05
-7.70952200478e-06
4.10395338849e-05
-1.1806884183e-05
-1.61852446543e-05
3.68945167027e-06
1.335265754e-05
7.11181856139e-06
9.71656293855e-06
1.03075415354e-05
5.8020373482e-06
1.34719455973e-05
3.20269450419e-06
1.67208818955e-05
9.88049288291e-07
2.01175034703e-05
-1.50330968042e-06
2.37309428267e-05
-4.47593053548e-06
2.76121574322e-05
-7.99622724446e-06
3.18203184606e-05
-1.19146849069e-05
3.66329343432e-05
-1.66150797137e-05
3.22325571291e-06
1.01286369505e-05
6.17090464934e-06
6.76820695602e-06
8.88628568357e-06
3.08624991687e-06
1.15553268591e-05
5.33761478309e-07
1.42871199313e-05
-1.74295574058e-06
1.71444092496e-05
-4.3590627958e-06
2.0187305211e-05
-7.51665368887e-06
2.34511284817e-05
-1.12576180708e-05
2.72383600743e-05
-1.56991558111e-05
2.73753780041e-06
7.390136936e-06
5.19386044066e-06
4.31099683812e-06
7.40608238647e-06
8.73410042804e-07
9.54038069901e-06
-1.60073730379e-06
1.17142623151e-05
-3.91653278934e-06
1.39758532184e-05
-6.6198695313e-06
1.63387563e-05
-9.87847825784e-06
1.90481669691e-05
-1.39667688439e-05
-1.85693184081e-05
2.23773659058e-06
5.15137343555e-06
4.19432073959e-06
2.35343902729e-06
5.86795380151e-06
-8.00995551916e-07
7.46374655196e-06
-3.19701493363e-06
9.05641208917e-06
-5.50939142193e-06
1.06078552987e-05
-8.1712868228e-06
1.23591030899e-05
-1.16301842631e-05
1.40835462305e-05
-1.56922191711e-05
-2.07525145625e-05
1.73076734156e-06
3.4195780036e-06
3.17560889639e-06
9.07574849574e-07
4.33231474322e-06
-1.95859674152e-06
5.3490027515e-06
-4.21443173797e-06
6.27713816902e-06
-6.43811891684e-06
7.24598287156e-06
-9.14070964739e-06
8.10364599579e-06
-1.24887932809e-05
9.09028900335e-06
-1.66814404328e-05
1.00173749455e-05
-2.16843071788e-05
-2.81264986409e-05
1.22126330679e-06
2.19726663736e-06
2.16904219803e-06
-4.13015748408e-08
2.81417509998e-06
-2.60475873951e-06
3.27601396047e-06
-4.677206498e-06
3.60873421531e-06
-6.77174415219e-06
3.85320012972e-06
-9.38615237231e-06
3.87426106973e-06
-1.25111301157e-05
3.780266293e-06
-1.65902301302e-05
3.72368471485e-06
-2.16322001003e-05
-2.79509173993e-05
7.1913180603e-07
1.4769885292e-06
1.18301630317e-06
-5.06429243455e-07
1.36129391974e-06
-2.78423952573e-06
1.28785483697e-06
-4.6048910732e-06
1.06191394446e-06
-6.54688385412e-06
5.47633145713e-07
-8.87297119003e-06
-1.13618676319e-07
-1.1851100779e-05
-1.29436590051e-06
-1.54115944171e-05
-2.67588003852e-06
-2.02534294388e-05
-2.61863572691e-05
2.09112494319e-07
1.26653632725e-06
2.57047246151e-07
-5.55826518112e-07
5.03152788273e-08
-2.57891686237e-06
-4.83351764253e-07
-4.07249648958e-06
-1.25959923134e-06
-5.77173340006e-06
-2.41787956379e-06
-7.71557864005e-06
-3.96827698508e-06
-1.0301371814e-05
-5.87846467152e-06
-1.3502046896e-05
-8.57917181407e-06
-1.75503075576e-05
-2.2893109853e-05
-2.67584272844e-07
1.53251805629e-06
-5.20677926421e-07
-3.04451736544e-07
-1.05007415681e-06
-2.05112793608e-06
-1.84168001929e-06
-3.28222664014e-06
-3.12212986904e-06
-4.49220992271e-06
-4.74881588357e-06
-6.08926086102e-06
-7.03727435089e-06
-8.01262034256e-06
-9.8989760026e-06
-1.06367329469e-05
-1.34822568346e-05
-1.39622474223e-05
-4.25519649014e-07
1.95602428399e-06
-7.81061455994e-07
4.91209318082e-08
-1.43789015284e-06
-1.39601636112e-06
-2.44660407277e-06
-2.2747607459e-06
-3.99718760108e-06
-2.94216548322e-06
-6.03573642683e-06
-4.05031297121e-06
-8.70255935361e-06
-5.34355753785e-06
-1.21826408495e-05
-7.15078331731e-06
-9.48383565354e-06
2.07268695727e-07
1.74653251587e-06
1.26969132872e-07
1.2737805979e-07
-5.1016273407e-07
-7.60534390089e-07
-1.62269380984e-06
-1.163212749e-06
-3.10676502443e-06
-1.45812505368e-06
-5.29859195974e-06
-1.85729315391e-06
-8.07343731044e-06
-2.56490284478e-06
-1.17056979988e-05
-3.50894682044e-06
-4.67812204832e-06
1.74544240949e-06
1.87189410159e-06
1.11073174212e-06
-5.26629871159e-08
-1.51037080071e-06
-3.36650481308e-06
-5.92692730119e-06
-9.42998618654e-06
)
;

boundaryField
{
    back
    {
        type            calculated;
        value           uniform 0;
    }
    sides
    {
        type            calculated;
        value           uniform 0;
    }
    bottom
    {
        type            calculated;
        value           uniform 0;
    }
    front
    {
        type            calculated;
        value           uniform 0;
    }
    atmosphere
    {
        type            calculated;
        value           nonuniform List<scalar> 0();
    }
    floatingObject
    {
        type            calculated;
        value           nonuniform List<scalar> 0();
    }
    procBoundary10to9
    {
        type            processor;
        value           nonuniform List<scalar> 
15
(
-2.85326792811e-05
-2.68400361647e-05
-2.51885294763e-05
-2.32891526548e-05
-2.10771551514e-05
-1.85188951488e-05
-1.55904789842e-05
-1.23452258946e-05
-3.10011910312e-05
-1.61501745969e-05
-2.60459680445e-05
-5.29354106626e-06
-4.93485666472e-06
-4.55463788827e-06
-2.11750447646e-05
)
;
    }
    procBoundary10to11
    {
        type            processor;
        value           nonuniform List<scalar> 
23
(
6.08683845699e-05
-2.96362845205e-06
6.30030348141e-05
5.9715712435e-05
-8.36651541988e-06
5.05379321148e-05
4.66935909663e-05
4.21361607606e-05
-2.16884103716e-05
3.14379051679e-05
-2.08136366965e-05
2.19182057062e-05
1.62627945541e-05
2.69136734983e-05
1.12216281792e-05
3.54247226616e-06
-4.44271626904e-06
-1.18716577508e-05
-1.8203812614e-05
-1.81652929072e-05
-1.66517152437e-05
-1.64998879569e-05
-1.41009489673e-05
)
;
    }
}


// ************************************************************************* //
