/*--------------------------------*- C++ -*----------------------------------*\
| =========                 |                                                 |
| \\      /  F ield         | OpenFOAM: The Open Source CFD Toolbox           |
|  \\    /   O peration     | Version:  v2012                                 |
|   \\  /    A nd           | Website:  www.openfoam.com                      |
|    \\/     M anipulation  |                                                 |
\*---------------------------------------------------------------------------*/
FoamFile
{
    version     2.0;
    format      ascii;
    class       volVectorField;
    location    "4.7";
    object      ddt0(rho,U);
}
// * * * * * * * * * * * * * * * * * * * * * * * * * * * * * * * * * * * * * //

dimensions      [1 -2 -2 0 0 0 0];


internalField   nonuniform List<vector> 
167
(
(-177.26569246 -6.98341984334 -2.54246198682e-20)
(-181.831698418 -8.72576351088 -8.11640015834e-21)
(-187.584834586 -10.2943380339 4.06151998526e-21)
(-194.605521126 -11.6461394559 2.04946406468e-21)
(-202.962310812 -12.7175053136 -1.01066517796e-20)
(-212.747651984 -13.466104033 1.21712629608e-20)
(-224.059821615 -13.8017278579 -5.49139855983e-22)
(-236.993348826 -13.6592946273 1.55222727424e-21)
(-169.132851658 -4.96516976574 -1.41670900702e-19)
(-171.503432881 -7.69312329962 2.12627399669e-20)
(-174.927973618 -10.9445917298 1.06347586247e-20)
(-179.608862616 -13.9517313384 2.6629419126e-21)
(-185.503013515 -16.7822622069 -2.01947133599e-20)
(-192.743865913 -19.4724438321 -3.32312414174e-21)
(-201.367332868 -21.9604925017 2.50199444427e-20)
(-211.476077578 -24.2134517049 -1.51429792366e-20)
(-223.1357452 -26.1696605809 -7.91598906834e-21)
(-236.524394513 -27.7778132535 1.09211862457e-19)
(-251.745906061 -29.0066233736 -1.49636299181e-19)
(-165.473058013 -6.70039862771 5.74518666484e-20)
(-167.808170896 -10.7087636177 4.09878200134e-20)
(-171.348319515 -15.0654173232 -9.09260543662e-21)
(-176.086433997 -19.2666579122 1.12807017456e-20)
(-182.117114973 -23.4076953356 2.94395050699e-20)
(-189.503131531 -27.4989988834 1.3134629941e-23)
(-198.274824311 -31.4468017352 3.97035550216e-21)
(-208.598845371 -35.2396500872 -9.15819575142e-22)
(-220.467739468 -38.8649477718 -8.45522689987e-21)
(-234.170079251 -42.3035853538 6.29553113522e-21)
(-249.71066093 -45.4770252848 -1.46030156888e-19)
(-160.715878214 -8.44182573094 -1.78820250881e-20)
(-162.978074731 -13.6713217292 -9.55071918272e-21)
(-166.506498295 -19.1998305391 -2.73583807274e-20)
(-171.262036322 -24.6882111419 -1.89927814201e-20)
(-177.352678633 -30.1801573903 -2.59069431604e-20)
(-184.777504963 -35.6228696946 2.75516917324e-21)
(-193.672582288 -41.0555461217 7.760431828e-20)
(-204.17754134 -46.4099073214 -1.05429581929e-19)
(-215.987234126 -51.7473582047 -2.48814879425e-21)
(-229.917023687 -57.043215955 -1.04662955795e-20)
(-153.777443353 -3.59886500566 -1.08065107294e-19)
(-154.759185463 -10.1696286797 -1.89531898939e-19)
(-156.973761365 -16.5961113198 -2.79476218878e-20)
(-160.461973697 -23.326211133 -3.60470996454e-21)
(-165.183855195 -30.0817133913 1.18259489694e-20)
(-171.193838091 -36.9052845369 -8.94305734324e-21)
(-178.548659597 -43.8125939154 3.42461568648e-21)
(-187.406575069 -50.8482290461 -7.17406246247e-20)
(-197.806898001 -57.554148 2.9493766534e-20)
(-209.936964385 -64.6018047769 -5.09841422283e-20)
(-223.982246524 -71.8668320832 -1.44779161682e-20)
(-146.656960442 -4.14256171223 -9.50204031339e-20)
(-147.617559478 -11.8595638664 -1.82892401492e-19)
(-149.786988443 -19.4684819027 5.74263670216e-21)
(-153.196961385 -27.3862616969 -5.86458021202e-21)
(-157.818939323 -35.3902190786 1.56046411835e-20)
(-163.699090495 -43.529712503 9.57740871797e-21)
(-170.906650633 -51.8318120489 -1.27572413197e-20)
(-179.537392956 -60.3086756165 -2.67722778769e-20)
(-189.65970177 -68.9272684662 -7.67854185037e-20)
(-201.835921673 -77.9115004968 -4.56678934791e-21)
(-215.526836871 -86.3201778128 -1.95001444047e-20)
(-138.387108681 -4.67223297017 2.00566624991e-19)
(-139.337775053 -13.5011830057 -2.2318198418e-19)
(-141.432777383 -22.2555138749 1.60486440955e-20)
(-144.723881362 -31.3329462245 1.23726725916e-20)
(-149.190823026 -40.5557341238 1.72320404467e-21)
(-154.873772449 -49.9790155164 -5.99193106622e-21)
(-161.848397805 -59.6429468347 -2.51015911165e-20)
(-170.214510129 -69.5880495314 5.13287056385e-20)
(-180.087917051 -79.833645521 -8.72235189854e-20)
(-191.650363262 -90.4476738935 -9.02584299691e-20)
(-129.035324544 -5.19239820072 9.48299050864e-20)
(-129.946732515 -15.0839139088 -1.67786330325e-19)
(-131.945343186 -24.9225041115 -2.74853149135e-20)
(-135.079504996 -35.1162538172 7.24581019174e-21)
(-139.333106016 -45.5116643188 2.06979581663e-20)
(-144.749639201 -56.173401793 -3.40991518591e-21)
(-151.406482004 -67.160831758 5.80213729596e-21)
(-159.403848251 -78.5299455051 3.26587515471e-21)
(-168.852264181 -90.3349773209 -2.46258079023e-21)
(-118.648570409 -5.66903804671 -1.40342552506e-19)
(-119.490384337 -16.575162118 -2.37072282282e-19)
(-121.370966576 -27.4448812349 -1.9764411427e-20)
(-124.309950661 -38.6922051095 5.31906352789e-21)
(-128.296912409 -50.1967294912 1.21748752853e-20)
(-133.378850909 -62.0352210139 3.39589866781e-20)
(-139.633077601 -74.285360383 -3.07628166498e-20)
(-147.151217016 -87.0168904563 -1.4991506381e-20)
(-156.045405216 -100.30552998 -8.7461025476e-20)
(-107.268842694 -6.10597597496 3.20674851585e-20)
(-108.044628137 -17.9571907589 -6.17260676082e-19)
(-109.775781479 -29.787265504 -1.29954656529e-19)
(-112.478963457 -42.0139250916 -5.87791746253e-21)
(-116.147753929 -54.551706546 2.75052419267e-20)
(-120.829184697 -67.4924691613 7.09611792882e-21)
(-126.594365647 -80.9221843973 1.22426294504e-20)
(-133.529602335 -94.9282890447 -2.62170197312e-20)
(-141.743699533 -109.603381035 2.6172590281e-20)
(-151.355578849 -125.057238536 -2.33103884009e-20)
(-94.9731678416 -6.50675569283 4.11640157525e-20)
(-95.6805713551 -19.2184406828 -1.11097440456e-19)
(-97.2340604338 -31.9155613295 -7.23357419823e-20)
(-99.6641243674 -45.0368835175 5.39432181744e-21)
(-102.964942605 -58.5194320837 1.47325406216e-20)
(-107.179750769 -72.4656275508 3.32751665498e-20)
(-112.372131982 -86.9747293958 -2.18010152405e-21)
(-118.628080151 -102.150663935 1.50569114609e-20)
(-126.04899803 -118.10602357 -2.90811076131e-21)
(-134.751953036 -134.952725413 -8.11112716356e-22)
(-81.8566371506 -6.86517868611 5.47327040029e-20)
(-82.4809382296 -20.3395823003 -4.54973882871e-19)
(-83.8316712363 -33.8005284737 -1.15848127448e-19)
(-85.9542565863 -47.7193862048 9.91592607886e-21)
(-88.8408016376 -62.0414856465 3.04965074454e-20)
(-92.5265774626 -76.882060922 1.7782703717e-20)
(-97.0720600629 -92.355330733 1.06009844001e-20)
(-102.557985021 -108.579094698 2.48050424955e-21)
(-109.092378939 -125.685220323 2.61132510841e-20)
(-116.811659129 -143.798842249 -7.53414767105e-21)
(-68.024452779 -7.17364559388 2.52760544236e-19)
(-68.5366174319 -21.2976176066 -1.78455494458e-19)
(-69.6694689649 -35.4119260398 -8.26180044066e-20)
(-71.4541175324 -50.0213676744 1.73999592556e-20)
(-73.8831966271 -65.0664881777 3.04890576549e-20)
(-76.9858961549 -80.6762830219 1.97288506733e-20)
(-80.8177653765 -96.9809743974 1.07978823099e-20)
(-85.4575403133 -114.116600369 -3.49278921095e-21)
(-91.0435972144 -132.275416732 -1.11354245954e-20)
(-97.6605054978 -151.548796941 4.39125462867e-20)
(-53.5881031833 -7.41083615178 -5.51514939403e-21)
(-53.9581121996 -22.0700585893 -1.97721459396e-19)
(-54.8605654888 -36.7339970254 -2.94748264038e-20)
(-56.2821218493 -51.9074037951 1.37690746212e-20)
(-58.2169481844 -67.5465663673 2.0824874596e-20)
(-60.690049469 -83.7922538721 9.19537790511e-21)
(-63.7524914196 -100.783361659 -2.42684261195e-21)
(-67.4843358793 -118.727000785 -1.6847110059e-20)
(-71.9991246504 -137.79116799 -1.6613689105e-20)
(-77.4149840815 -158.127754949 1.9882578998e-20)
(-38.6637830581 -7.57456477146 4.04191104728e-20)
(-38.8720234324 -22.6494874403 -8.3607620556e-19)
(-39.525888172 -37.7511719088 -1.06665283184e-19)
(-40.5646047874 -53.356942133 3.50376491629e-20)
(-41.9794119429 -69.4534925336 1.06822286846e-20)
(-43.7883787473 -86.1911241078 -6.41224545436e-20)
(-46.0312848464 -103.739742661 9.72909124309e-21)
(-48.7876253719 -122.307303647 -3.99302895443e-20)
(-52.1338336569 -142.11122809 -5.62048134096e-20)
(-23.4805399159 -7.69115677424 1.26513165674e-20)
(-23.559114947 -23.0675817119 -8.02341086912e-20)
(-23.9657968909 -38.4800699665 1.47888026289e-20)
(-24.61961976 -54.3858587877 3.07029933633e-19)
(-25.4949918655 -70.8054766947 3.29112078696e-22)
(-26.6026646942 -87.8901029662 -6.09034651095e-19)
(-27.9789804403 -105.829113732 5.41851081182e-19)
(-29.7023852145 -124.882075537 -1.05427897663e-19)
(-31.7863833764 -145.267631806 -4.24239633326e-19)
(-7.90034032037 -7.83110301379 4.57430315698e-20)
(-7.88422750862 -23.4019445078 1.85752105835e-20)
(-8.0326066413 -38.9681930916 3.74115509112e-20)
(-8.26734453943 -55.0019933505 -4.03233904589e-20)
(-8.56749390313 -71.5807682321 -2.3835383528e-20)
(-8.93316162501 -88.8576084841 -1.78501644334e-19)
(-9.3904493847 -107.070281819 9.9316487705e-21)
(-9.97700508294 -126.438941182 -5.38211685077e-19)
(-10.6612650151 -147.200483638 -1.26148352113e-19)
)
;

boundaryField
{
    back
    {
        type            calculated;
        value           uniform (0 0 0);
    }
    sides
    {
        type            calculated;
        value           uniform (0 0 0);
    }
    bottom
    {
        type            calculated;
        value           uniform (0 0 0);
    }
    front
    {
        type            calculated;
        value           uniform (0 0 0);
    }
    atmosphere
    {
        type            calculated;
        value           nonuniform List<vector> 0();
    }
    floatingObject
    {
        type            calculated;
        value           nonuniform List<vector> 0();
    }
    procBoundary10to9
    {
        type            processor;
        value           nonuniform List<vector> 
15
(
(-178.487215067 -3.07400046618 -2.43307094437e-20)
(-182.870711865 -3.66422665243 -3.10303061129e-21)
(-188.39889282 -4.02580244622 -2.4349253556e-21)
(-195.128137453 -4.10100161341 -1.23434564142e-20)
(-203.129888851 -3.81788516481 5.09091383308e-21)
(-212.487275895 -3.10829496296 -1.10850725419e-20)
(-223.304528848 -1.90438011891 -4.99396388826e-21)
(-235.662961248 -0.101005565034 -2.47637584012e-21)
(-171.945088685 -3.20187564065 -1.22133703858e-19)
(-173.940235795 -4.79781682718 -2.54370150094e-20)
(-173.940235795 -4.79781682718 -2.54370150094e-20)
(-168.257202684 -2.0026642035 1.79415255834e-21)
(-164.564281431 -2.49056452249 7.78123488505e-21)
(-159.735093132 -3.0396507172 5.89262656924e-20)
(-159.735093132 -3.0396507172 5.89262656924e-20)
)
;
    }
    procBoundary10to11
    {
        type            processor;
        value           nonuniform List<vector> 
23
(
(-251.700016789 -12.9884906794 -7.19932898946e-20)
(-251.700016789 -12.9884906794 -7.19932898946e-20)
(-268.939423561 -29.7163253338 -5.15175938027e-20)
(-267.297724685 -48.316216042 -6.18921680326e-20)
(-245.543019934 -62.1911897266 -1.3877752679e-19)
(-245.543019934 -62.1911897266 -1.3877752679e-19)
(-239.216851179 -78.962499315 -7.01945572921e-20)
(-231.290090746 -95.4758687532 3.70745247764e-20)
(-204.84373803 -101.307116894 6.70422345355e-20)
(-204.84373803 -101.307116894 6.70422345355e-20)
(-179.913053349 -102.631697312 4.06878917131e-20)
(-179.913053349 -102.631697312 4.06878917131e-20)
(-166.453529588 -114.242343446 -6.49024595145e-20)
(-166.453529588 -114.242343446 -6.49024595145e-20)
(-162.511195719 -141.413482754 -5.53778168261e-20)
(-144.862133928 -152.811298679 -1.48361554016e-20)
(-125.788875046 -163.034659451 1.01296938799e-20)
(-105.470805084 -172.070509258 2.15134638745e-21)
(-83.951928173 -179.92747069 -7.7916303374e-21)
(-56.2104918141 -163.40691647 4.29394606847e-22)
(-56.2104918141 -163.40691647 4.29394606847e-22)
(-34.3447087843 -167.307749827 3.43522728341e-19)
(-11.5284011858 -169.742570807 -3.24554172839e-19)
)
;
    }
}


// ************************************************************************* //
