/*--------------------------------*- C++ -*----------------------------------*\
| =========                 |                                                 |
| \\      /  F ield         | OpenFOAM: The Open Source CFD Toolbox           |
|  \\    /   O peration     | Version:  v2012                                 |
|   \\  /    A nd           | Website:  www.openfoam.com                      |
|    \\/     M anipulation  |                                                 |
\*---------------------------------------------------------------------------*/
FoamFile
{
    version     2.0;
    format      ascii;
    class       surfaceVectorField;
    location    "4.7";
    object      Uf;
}
// * * * * * * * * * * * * * * * * * * * * * * * * * * * * * * * * * * * * * //

dimensions      [0 1 -1 0 0 0 0];


internalField   nonuniform List<vector> 
304
(
(0.000804017568022 -0.000625701937959 2.51245661783e-23)
(0.00101736091278 -0.000526891121453 3.79880081696e-23)
(0.000605605227995 -0.00088860052498 -6.92865270246e-24)
(0.000799760765938 -0.000786834581059 -1.16282070272e-23)
(0.000441821569993 -0.00119587750598 -3.51068716405e-24)
(0.000661580262582 -0.00108807442896 -9.0829165349e-24)
(0.000249382940163 -0.00155773436109 1.66165900999e-23)
(0.000524658291892 -0.0014429757674 -6.12106693738e-25)
(-5.8528444469e-06 -0.00197722261044 4.7039338462e-23)
(0.000345221883503 -0.00186578478764 7.85722921787e-24)
(-0.000351216204291 -0.00249646338253 4.31743495114e-23)
(8.95695918656e-05 -0.002366761986 4.82534753988e-23)
(-0.000827003967048 -0.00311108174278 1.07048479921e-23)
(-0.000263574687728 -0.00299088550019 1.74133211713e-23)
(-0.000719037244421 -0.00376941684045 -2.34882924853e-23)
(0.00187103108215 -0.000238302651254 4.9532254499e-23)
(0.00224561329162 -0.000193301041479 9.88675587323e-23)
(0.0013527491828 -0.00043974389103 3.4475083683e-23)
(0.0016304423703 -0.00033549631222 5.37066436268e-23)
(0.0010611521054 -0.000685400474395 1.23523496415e-24)
(0.00126298539937 -0.000560274691142 3.47721717402e-23)
(0.000909470557191 -0.000977722845307 -1.37824708597e-23)
(0.00109201161474 -0.000838344239326 -1.15953342051e-23)
(0.000801810423066 -0.00132659159177 -6.18433606459e-24)
(0.00101035420542 -0.00116746253832 -8.72046611716e-24)
(0.0006816865519 -0.00174057918172 -9.37146757581e-24)
(0.000938546198583 -0.00156114679569 -4.64328067746e-24)
(0.000517882115381 -0.00224117330308 9.07136615465e-24)
(0.000845735086101 -0.00203753606725 -1.21691009101e-23)
(0.000281526013475 -0.00286284801474 2.24924470587e-23)
(0.00071120363888 -0.00261876137903 2.20904055927e-23)
(-5.05738115661e-05 -0.00363167029816 -1.67798193061e-23)
(0.000505275674948 -0.00335031314595 6.2936482606e-24)
(-0.000491966555652 -0.00457566674631 -5.98870948629e-23)
(0.000225175963169 -0.00426091609091 -4.63690960626e-23)
(-0.00016340597857 -0.00540395373336 -7.99125710739e-23)
(0.00204314225602 -0.000248612256661 1.0304194786e-22)
(0.00239154437198 -0.000193854049206 1.98286667518e-22)
(0.00157906394492 -0.000450146442388 5.4003731684e-23)
(0.00183183911992 -0.000333471594887 1.12913445544e-22)
(0.00133796465374 -0.000705547463409 2.1941602571e-23)
(0.00151822635928 -0.000558750901834 7.92955804888e-23)
(0.00124061069688 -0.00101659711076 -6.53332946256e-24)
(0.00140287930038 -0.000841574038953 9.05077655404e-24)
(0.00119878326537 -0.00138660716355 -7.17941073003e-24)
(0.00138017183629 -0.00118239636572 -3.77784532552e-24)
(0.00116499471033 -0.00183449332853 -7.44091401181e-24)
(0.00138625789238 -0.001593066482 -6.06859537812e-24)
(0.00111247936837 -0.00239146573856 8.49938527874e-25)
(0.00140257763109 -0.00209915151948 -4.06557186111e-24)
(0.00101978272781 -0.00307837587474 5.89160679454e-24)
(0.00139805711571 -0.00272902754229 4.57548881789e-24)
(0.000877159993507 -0.00394648143515 -2.32956284959e-23)
(0.00137352797342 -0.00352046306706 -1.37059690871e-24)
(0.000671546040155 -0.00503698695914 -6.63945722737e-23)
(0.00131592028374 -0.00451331778885 -3.63809470301e-23)
(0.0022150754004 -0.000238671782643 2.08158165202e-22)
(0.00253533738319 -0.000177036548696 3.46943020862e-22)
(0.0018052127599 -0.000432919876091 1.38205294349e-22)
(0.00202581860673 -0.0003054505771 2.2593746884e-22)
(0.00161885496739 -0.000682251132035 6.64047544719e-23)
(0.00176727715765 -0.000517809887972 1.25710242048e-22)
(0.00158133010153 -0.000991294460996 1.18062606911e-23)
(0.0017116312881 -0.000791076522152 2.95906972393e-23)
(0.001614153746 -0.0013672346965 -2.66702997361e-24)
(0.00175583287414 -0.00112445428462 1.58082410064e-24)
(0.00167554050586 -0.00183404265097 -2.69325322742e-24)
(0.00185283127964 -0.00153043156312 -4.94121827659e-24)
(0.00174540692282 -0.0024049918208 -3.40021571096e-25)
(0.00197337699599 -0.00203878252705 1.97399027216e-24)
(0.00181862388778 -0.00312047129928 -2.68671488536e-24)
(0.00211353001651 -0.00267265733013 -2.26389972476e-24)
(0.0018864646291 -0.00404325617875 -1.44559154429e-23)
(0.00229652472706 -0.00347614401287 -6.78613483489e-24)
(0.00245966302651 -0.00449902024649 -1.87456324162e-23)
(0.00275542056488 -8.1411642451e-05 4.4830752289e-22)
(0.00292540945011 7.71380708292e-05 4.92098066627e-22)
(0.00237313472469 -0.000196978320633 3.64722324501e-22)
(0.00265054478442 -0.00014275145456 4.84611028227e-22)
(0.00201960434247 -0.000376763034425 2.13442416539e-22)
(0.00220523139131 -0.000249618432791 3.07066473633e-22)
(0.001889069252 -0.000613124690302 8.88961848154e-23)
(0.00200325622324 -0.000435637586527 1.52742109286e-22)
(0.00191434284616 -0.000902084163177 1.93652606489e-23)
(0.00200021367999 -0.000683110926216 3.91259023298e-23)
(0.00202603005035 -0.00125956029031 -6.93364202343e-25)
(0.00211296868415 -0.000988819242109 2.03598648557e-24)
(0.00218796690614 -0.0017051971379 -2.73974777006e-25)
(0.00229821178315 -0.00136766044935 -2.54108841759e-24)
(0.002389496739 -0.00227119807577 5.01121185057e-26)
(0.00253925073613 -0.00184629694162 3.06041995192e-24)
(0.00263063218093 -0.00299466736837 -6.36331967428e-24)
(0.00283707867526 -0.002446044671 -2.13019664273e-24)
(0.00291072494201 -0.00388134242767 -1.10758518083e-23)
(0.00318369248059 -0.00321567145465 -3.1490064676e-24)
(0.00360029468697 -0.00419220638367 -1.24354438238e-23)
(0.00283776856771 -5.22187140672e-05 5.28401571964e-22)
(0.00297724181883 0.000108566318044 5.20940110134e-22)
(0.00250447695671 -0.000139783937191 4.2695517736e-22)
(0.00273768332615 -9.33290661168e-05 5.09744530005e-22)
(0.00220908499506 -0.000287187496935 2.4636616638e-22)
(0.00235218705126 -0.00016569638645 3.39788591397e-22)
(0.00213364876468 -0.000491578540404 1.029718268e-22)
(0.00220719593149 -0.000312899865924 1.69902559666e-22)
(0.00222031345663 -0.000746130919829 2.17966281665e-23)
(0.00225433911594 -0.000518496884614 4.49899901106e-23)
(0.00240838373676 -0.00106731978504 1.88262270323e-25)
(0.00243380201707 -0.000777914075843 4.03156968728e-24)
(0.00266998551234 -0.00147102832245 7.93306311337e-25)
(0.00270169156036 -0.00110450748384 3.83145609603e-25)
(0.00300097961386 -0.00197926173579 8.80111190685e-25)
(0.00304743363395 -0.0015217681146 6.19429151057e-24)
(0.00340766849979 -0.00262600848926 1.08411656396e-24)
(0.00348417788665 -0.00205000246917 8.44375411087e-24)
(0.00390549933559 -0.00347135768866 -4.50859848319e-24)
(0.00402970430538 -0.00273173812176 1.36987558774e-23)
(0.00288706109164 -1.31648391342e-05 5.02283068175e-22)
(0.0029899808626 0.000143218457715 5.42474257319e-22)
(0.00260119310573 -6.29457649359e-05 4.22577944043e-22)
(0.00278699545986 -3.10805690376e-05 5.64979931064e-22)
(0.00236050407749 -0.000170341797454 2.63324984683e-22)
(0.00245909644662 -5.8055236503e-05 4.12202226941e-22)
(0.00233640731793 -0.000323053593527 1.11920722976e-22)
(0.00235943078083 -0.000153894790844 2.09679968017e-22)
(0.00247942588908 -0.000526422517597 2.72249316313e-23)
(0.0024572822026 -0.000302381292382 6.26806644106e-23)
(0.00273670144337 -0.000785645176547 4.22645302656e-24)
(0.00269270626396 -0.000497854623855 1.14886824468e-23)
(0.00308813267929 -0.00111781735003 5.78413080884e-24)
(0.00303371715883 -0.000749017487353 3.13444852052e-24)
(0.00353784920276 -0.00154948642669 1.37579344308e-23)
(0.00347922479067 -0.00107456878108 7.65876239365e-24)
(0.00409966606698 -0.00211046394842 2.10583934243e-23)
(0.00404576539237 -0.00149213025436 1.34993913098e-23)
(0.00289454011503 3.25560710727e-05 6.05171120209e-22)
(0.0029569830775 0.000177722892998 6.619692032e-22)
(0.00265312593155 3.13669924628e-05 5.54604213962e-22)
(0.00278771222152 4.34644236477e-05 7.50886876368e-22)
(0.00246293423906 -2.17731296169e-05 3.58557210275e-22)
(0.00251175969789 6.95660993422e-05 5.63041761171e-22)
(0.00248356589646 -0.00011690182089 1.60439909451e-22)
(0.00245411266905 3.48156724242e-05 2.93511906941e-22)
(0.00267273190335 -0.000252106282324 4.69444152261e-23)
(0.00259211842182 -4.50137419776e-05 9.7395258546e-23)
(0.00298692617659 -0.000431685888988 1.03966779408e-23)
(0.00287205971072 -0.000160431408898 2.25219070386e-23)
(0.00341370862063 -0.000668538095644 5.00908010534e-24)
(0.00327054518005 -0.000315251702511 1.63879162275e-23)
(0.00396359629132 -0.00097721819651 7.40021927269e-24)
(0.00378827436689 -0.000522824911949 1.18396922918e-23)
(0.00445122995052 -0.000799949575258 1.27461424119e-23)
(0.00285080909161 8.49944983557e-05 8.0768495936e-22)
(0.00287157204247 0.000209209508472 8.22783345041e-22)
(0.00264990495325 0.000138989962858 7.59324423577e-22)
(0.00273329329571 0.000127218557223 8.99463752051e-22)
(0.00250407049705 0.000146784016032 4.97996457837e-22)
(0.00250355832031 0.000210222912623 7.06512983171e-22)
(0.00256093414582 0.000119583409805 2.30467256036e-22)
(0.00248095842274 0.00024434387326 3.80293934272e-22)
(0.0027846033857 6.47303795277e-05 7.29727503586e-23)
(0.0026467204135 0.000242123093645 1.38394636765e-22)
(0.00314050194195 -2.06745062012e-05 2.85131453254e-23)
(0.00295736568105 0.000219055545104 4.30763176156e-23)
(0.0036213184624 -0.000140998589618 2.3218528414e-23)
(0.00339100527897 0.000175058179366 2.46743887962e-23)
(0.00424067751165 -0.00030996358909 1.7185615431e-23)
(0.00395766714887 0.000101822067137 1.88928587198e-23)
(0.00468072558666 -9.03430046423e-06 8.42212827403e-24)
(0.00275080873729 0.000140370285958 9.14562137732e-22)
(0.00273086414226 0.000238062680821 7.8655988936e-22)
(0.00258567330564 0.000252989416347 8.46652311645e-22)
(0.002620360242 0.000214377584362 9.25644041182e-22)
(0.00247674656168 0.000326894048803 5.88810459606e-22)
(0.00242937908555 0.000355938871578 7.50543873353e-22)
(0.0025597020099 0.000375441551048 2.88221315001e-22)
(0.00243221013836 0.000464106712648 4.28994967226e-22)
(0.00280497249671 0.000407501652147 1.08498204022e-22)
(0.00261457304529 0.000545976477691 1.8113818213e-22)
(0.00318422845139 0.000427726899294 3.92375610864e-23)
(0.00293720572707 0.000621882830898 5.84021379343e-23)
(0.00369366000124 0.000435474066024 2.0348719102e-23)
(0.00338349671053 0.000696041122963 2.69282024556e-23)
(0.00434988751168 0.00042601963904 1.01293715628e-23)
(0.00396765271907 0.000767424378576 1.51722004447e-23)
(0.00518743982618 0.000392168446742 2.48163443843e-25)
(0.00471544321615 0.000837594668146 1.0630648365e-23)
(0.00566704819112 0.00090640246055 1.08546737218e-23)
(0.00259275746225 0.000194831522672 7.97641792811e-22)
(0.00253583134133 0.000262728772406 5.96827173792e-22)
(0.00245781608107 0.0003669142535 8.2953560289e-22)
(0.00244813261577 0.000298815260421 8.44884814723e-22)
(0.00237711062899 0.000510523566904 5.90728380973e-22)
(0.00228568684575 0.000499009652457 7.30407356879e-22)
(0.00247509443286 0.000638256329056 3.21911834355e-22)
(0.00230448311693 0.000683963447945 4.41682042419e-22)
(0.00272706323751 0.000762504714713 1.31042116042e-22)
(0.00249044865536 0.000852434215572 2.05766706853e-22)
(0.00310849086329 0.000894449209228 4.60927793035e-23)
(0.00280551785984 0.00102815750383 8.1869515344e-23)
(0.00361925974879 0.00103379586771 2.17516837983e-23)
(0.00324452735845 0.00122214504599 4.51461484013e-23)
(0.00427758946979 0.00118706739136 1.56734772469e-23)
(0.0038149381759 0.0014405155654 2.76765502211e-23)
(0.00511748162625 0.00136137967274 2.12371586429e-23)
(0.00454176587733 0.00169384941646 3.16460102033e-23)
(0.00546715490152 0.00199592633705 3.26482607665e-23)
(0.00237985222522 0.000242830550189 6.44070195704e-22)
(0.00229298617461 0.000281681290935 5.34882262003e-22)
(0.00226638119949 0.000475715756189 7.45756568712e-22)
(0.00221531967401 0.0003748400393 7.97852458271e-22)
(0.00220326482248 0.000689087902497 5.81361018326e-22)
(0.00207246718817 0.000633692137194 7.24490255803e-22)
(0.00230466905817 0.00089688534666 3.25536914917e-22)
(0.0020969315909 0.000897472145511 4.45146259894e-22)
(0.0025482789066 0.00111444497346 1.56594106155e-22)
(0.00227323588709 0.00115215691044 2.23628322313e-22)
(0.00291212649022 0.00135140566474 8.09228844418e-23)
(0.00256898451574 0.00142463714154 1.32455079393e-22)
(0.00339733130147 0.00162164370483 5.1071014824e-23)
(0.00297474307517 0.00173383213478 8.62354712514e-23)
(0.00402070809287 0.00193597080478 4.36490831775e-23)
(0.00350102754189 0.00209322682798 7.89008817136e-23)
(0.00481304869423 0.00231360556841 4.30571123269e-23)
(0.0041641995097 0.00252031953899 6.20862431347e-23)
(0.00500690795781 0.00304096622549 6.80256160426e-23)
(0.00211636575507 0.000282975825509 6.88664524569e-22)
(0.00201021504413 0.000294432919751 6.63581022033e-22)
(0.00201104116501 0.000580709563061 7.76586145361e-22)
(0.00191790093546 0.000446858103657 8.93593048159e-22)
(0.00195620788169 0.000863673818843 5.88275497372e-22)
(0.00178990605806 0.000768686011709 7.47035233409e-22)
(0.00205061159902 0.00114766006185 3.4323766729e-22)
(0.00181342909457 0.00111193252624 4.57274998407e-22)
(0.00227252677138 0.00145300822272 1.99489295551e-22)
(0.00196842416984 0.0014504958056 2.62604217556e-22)
(0.00260148411066 0.00179311915229 1.37767666202e-22)
(0.00222939435774 0.0018147303986 2.00302169074e-22)
(0.00303605401922 0.0021849507861 1.14065338141e-22)
(0.0025833116768 0.00223118439815 1.68061441752e-22)
(0.00359000454861 0.00265097326073 9.73380416708e-23)
(0.00303504096657 0.00271927534368 1.81579523942e-22)
(0.00429031674578 0.0032079648555 8.70547468504e-23)
(0.00360524614291 0.00330172695729 1.42893347322e-22)
(0.00431308520211 0.00401245163936 1.38690182821e-22)
(0.00180319227602 0.000323140077512 8.68509545622e-22)
(0.00168750659106 0.000316972034708 9.27741765258e-22)
(0.00168811009141 0.000684755798871 8.64042136207e-22)
(0.00155683760991 0.000545087360737 1.05913515062e-21)
(0.00163496240843 0.00104209855971 6.16034734444e-22)
(0.00143319553109 0.000937725466194 7.97336252053e-22)
(0.00171571362948 0.00140691756704 3.76641548673e-22)
(0.00144928309432 0.00135700315061 4.83113001843e-22)
(0.0019059058968 0.00179508631046 2.63417091079e-22)
(0.00158089767654 0.00177433757198 3.29373330588e-22)
(0.00218473655526 0.00223129987719 2.30595944624e-22)
(0.00179367336364 0.00222575014325 3.2308408581e-22)
(0.00254821206769 0.00273535713172 2.35575627553e-22)
(0.00207945137199 0.00274211150552 2.82584158777e-22)
(0.00300641175007 0.00333069571621 2.27134829593e-22)
(0.00243807446268 0.00334615272984 3.45470177611e-22)
(0.00357711796682 0.00404834042633 1.94528783293e-22)
(0.00288533923302 0.00406635736837 3.17046057379e-22)
(0.0014165643767 0.000402238932775 1.11836737025e-21)
(0.00128595532653 0.000383718319997 8.90423794827e-22)
(0.00127434904473 0.000836315869033 9.92429266463e-22)
(0.00112352083107 0.000714884624929 1.00114974938e-21)
(0.00121532872262 0.00127153386475 6.64414519451e-22)
(0.000998776153501 0.00117774944862 7.31505163783e-22)
(0.00127871373598 0.0017134383539 4.35844783758e-22)
(0.00100815003117 0.0016626261069 5.0229882053e-22)
(0.00143138534811 0.00218453468296 3.89040325319e-22)
(0.00111042958881 0.00215125574577 3.9864471974e-22)
(0.00164802964774 0.00270794438677 3.75072299963e-22)
(0.00127059111102 0.00268499110647 4.06910369741e-22)
(0.00192280193871 0.00331471784172 3.92478708835e-22)
(0.00147219107434 0.00329624701886 4.53217273964e-22)
(0.00226341724635 0.00403131032886 4.35381405396e-22)
(0.00171929122378 0.00400828264335 4.91025054206e-22)
(0.00202276314708 0.0048501240375 4.92665949044e-22)
(0.000956778098864 0.000561867589977 7.73206173955e-22)
(0.000724929309098 0.000488507936974 5.09659872125e-22)
(0.000819824509821 0.0010822039179 7.40225646701e-22)
(0.00060405506153 0.000933904833575 6.56929067714e-22)
(0.000759070938982 0.00157966789024 5.69389464861e-22)
(0.000502171154403 0.00145022689661 5.10345100621e-22)
(0.000800950800241 0.00208502448308 4.65098756513e-22)
(0.000503547710734 0.00196011935451 4.41771625585e-22)
(0.000905649501903 0.00262762715838 4.16514764163e-22)
(0.000568330368219 0.00248800718692 4.36897001749e-22)
(0.00104570662607 0.00323905041573 4.85055343742e-22)
(0.000659239514488 0.00307993564115 4.8514966186e-22)
(0.00121643452155 0.00394637260453 5.51763619335e-22)
(0.000763788641353 0.00376497640767 5.39684331774e-22)
(0.00142518087161 0.00477120314475 5.48309597854e-22)
(0.000890721493594 0.00456069255865 6.46632266432e-22)
(0.00104463123805 0.00549230889473 7.1828574619e-22)
(0.000518786162455 0.000725374253225 3.93382765884e-22)
(0.00043256921663 0.00132987316508 4.27048521634e-22)
(0.000400365312661 0.00183244976709 3.82727261345e-22)
(0.000431917971946 0.00233629849637 4.13569870821e-22)
(0.000489691518718 0.00290473563969 5.05531899445e-22)
(0.000552755809855 0.00356378348908 5.39778649892e-22)
(0.000622804995977 0.00432587826148 6.34552978871e-22)
(0.000704283489782 0.00521431913824 8.16608414768e-22)
)
;

boundaryField
{
    back
    {
        type            calculated;
        value           uniform (0 0 0);
    }
    sides
    {
        type            calculated;
        value           uniform (0 0 0);
    }
    bottom
    {
        type            calculated;
        value           uniform (0 0 0);
    }
    front
    {
        type            calculated;
        value           uniform (0 0 0);
    }
    atmosphere
    {
        type            calculated;
        value           nonuniform List<vector> 0();
    }
    floatingObject
    {
        type            calculated;
        value           nonuniform List<vector> 0();
    }
    procBoundary10to9
    {
        type            processor;
        value           nonuniform List<vector> 
15
(
(0.000791149713993 -0.000462390410985 5.50622304109e-23)
(0.000536782044296 -0.000691781379403 -1.36964873257e-24)
(0.000354277746569 -0.000951600148152 -7.67424053686e-24)
(0.00016280475643 -0.0012510298984 -1.64616735882e-24)
(-7.42570901996e-05 -0.00160247748677 1.35863839367e-23)
(-0.00042968843295 -0.00200848984587 4.9593651516e-23)
(-0.000878233039445 -0.00249451845769 2.51032427368e-23)
(-0.00149766993825 -0.00308958127599 -1.56220522946e-23)
(0.00210684623366 -0.000177852719271 6.88198784567e-23)
(0.00114047037186 -0.000399765247338 7.46443104932e-23)
(0.0014288785731 -0.000312576825665 7.11313860065e-23)
(0.00240164702237 -9.98140787405e-05 4.34706834284e-23)
(0.00252391163515 -0.000102570785443 9.42524539218e-23)
(0.00264668571332 -9.44090993372e-05 2.59259190848e-22)
(0.00284453822712 4.91431767478e-05 3.60623692876e-22)
)
;
    }
    procBoundary10to11
    {
        type            processor;
        value           nonuniform List<vector> 
23
(
(-0.00146750023035 -0.00388960587261 -3.43084375433e-23)
(-0.00137342851541 -0.00473053666865 -7.07072399209e-23)
(-0.00105714916699 -0.00578548398543 -1.72336452307e-22)
(0.000402986211762 -0.00640196174142 -1.85264419522e-22)
(0.0012018871408 -0.00577001018539 -7.61433983404e-23)
(0.00193925898133 -0.00518656508886 -4.61297730968e-23)
(0.00324819439387 -0.00502143370235 -3.91072761455e-23)
(0.00451707490451 -0.00457052093107 -5.80058042254e-23)
(0.00470022839573 -0.0036031713348 -1.55972369227e-23)
(0.00479893178357 -0.00281758771011 2.61011743794e-24)
(0.00473762883734 -0.00203743288836 3.83346492815e-24)
(0.00465311657973 -0.00138199199275 -3.7255371864e-24)
(0.00502657713136 -0.000538655507328 7.25771641243e-24)
(0.00560000848255 -0.000170829074891 -9.16248417758e-25)
(0.0062553342699 0.00032653500342 -1.68220206561e-23)
(0.0061906288032 0.0015618111481 3.27556376257e-24)
(0.00582282409869 0.00277318779397 2.26323231103e-23)
(0.00517448114886 0.00390042333118 7.77359121545e-23)
(0.00428609110173 0.00492842292811 1.79298511398e-22)
(0.00342948319512 0.00493641425251 2.43799100524e-22)
(0.00268084648924 0.00488980741887 3.6631637461e-22)
(0.00167961619994 0.00574464686517 5.76024248303e-22)
(0.000799347145952 0.00625584475272 7.92072424424e-22)
)
;
    }
}


// ************************************************************************* //
