/*--------------------------------*- C++ -*----------------------------------*\
| =========                 |                                                 |
| \\      /  F ield         | OpenFOAM: The Open Source CFD Toolbox           |
|  \\    /   O peration     | Version:  v2012                                 |
|   \\  /    A nd           | Website:  www.openfoam.com                      |
|    \\/     M anipulation  |                                                 |
\*---------------------------------------------------------------------------*/
FoamFile
{
    version     2.0;
    format      ascii;
    class       volVectorField;
    location    "2.8";
    object      ddt0(rho,U);
}
// * * * * * * * * * * * * * * * * * * * * * * * * * * * * * * * * * * * * * //

dimensions      [1 -2 -2 0 0 0 0];


internalField   nonuniform List<vector> 
166
(
(109.791036299 -68.9644741738 -2.71572972289e-20)
(111.514607364 -79.8031790466 1.01208692988e-20)
(113.867652324 -91.270114624 -5.89589388349e-20)
(117.101369978 -103.399193292 1.69541310425e-21)
(121.481692684 -116.201837888 -1.95722322664e-19)
(127.51885659 -129.683103109 -8.9845668158e-20)
(135.465880844 -143.855563812 -7.73196706641e-19)
(145.805199581 -157.466220464 -7.81113989072e-19)
(159.411618073 -173.519022677 6.4022247314e-18)
(175.413709251 -180.014145566 -1.43502131841e-18)
(178.249368645 -144.99410668 8.90494644425e-18)
(36.7513733953 -19.8562139911 -1.51943071804e-17)
(0.2863591685 -0.02752211256 -4.41466188102e-20)
(117.092937813 -47.848043955 -2.08264120301e-20)
(118.411396334 -57.3322797645 -6.75632784507e-20)
(120.14350989 -67.1825904841 -3.8138138084e-20)
(122.391249883 -77.4303132667 -5.1875786617e-21)
(125.30985742 -88.1116334824 -9.55825064095e-21)
(129.063749712 -99.2084312689 8.08769740675e-21)
(133.860546778 -110.567050362 -2.1957089862e-19)
(140.561248173 -122.264935791 -9.546133148e-20)
(148.59619194 -134.230470105 -4.51809634226e-19)
(158.846994055 -145.327943417 -7.87579881606e-19)
(170.856251215 -157.617887257 -1.56628688898e-18)
(188.90864433 -162.002311266 9.07688380541e-18)
(180.02405591 -126.98307672 -8.75696928911e-18)
(15.3202386289 -14.8112978288 5.62546741904e-17)
(0.237581878285 0.0441021266375 1.92171419519e-19)
(122.651252484 -4.55727801844 -4.36486684789e-20)
(123.286584032 -12.7619400563 -9.02042679354e-19)
(125.018986846 -37.7657244043 2.27586699493e-20)
(126.274707653 -46.5681198763 4.03424892508e-21)
(127.890173106 -55.64193039 5.0534257338e-21)
(129.963615363 -64.988640268 1.65706334622e-20)
(132.570852141 -74.6152862721 -4.34002960524e-20)
(135.830317173 -84.5494523404 6.88096318806e-21)
(139.926445328 -94.7736319135 3.30852803502e-21)
(145.018746946 -104.582437052 -2.9842419173e-20)
(151.350937066 -114.715648566 -1.21368810134e-19)
(159.138948582 -124.90035321 -1.00554973322e-18)
(168.585428203 -134.626622855 -3.00138925943e-18)
(178.65550488 -139.694807738 -7.99717452765e-18)
(203.919484154 -145.841254381 3.03594760332e-17)
(175.492514059 -115.08462099 -8.86800724905e-18)
(7.00388159037 -13.3981217727 9.52924324338e-18)
(0.236734651884 -0.0362552625427 -2.39847531653e-20)
(130.876853166 -4.25115642602 1.89145048404e-19)
(131.385349 -12.2862998649 -6.61719826174e-19)
(131.596872067 -20.0588074749 1.41068676293e-19)
(132.440718533 -28.272056597 1.07996301117e-19)
(133.616393324 -36.5608945407 3.5237959779e-20)
(135.093146147 -45.0192043208 -5.78297544448e-21)
(136.948139265 -53.6658326351 -3.05760863392e-20)
(139.257509303 -62.5084892817 4.25364342714e-20)
(142.088053877 -71.5560572204 -6.11358824547e-20)
(145.528581781 -80.7281263186 -1.53447863287e-19)
(149.708920105 -89.9713058334 2.34962529499e-20)
(154.81448377 -99.0571238556 2.92432166379e-20)
(160.455761643 -107.937131876 -1.89954047994e-19)
(167.758695798 -116.470960073 -1.08095567924e-18)
(176.646699365 -124.711251344 -2.34080013569e-18)
(188.918724172 -117.727221432 1.53702696548e-17)
(202.338888739 -135.842166784 1.15808253721e-17)
(175.777986235 -112.23674006 2.79451457358e-18)
(10.9628150784 -12.2778936532 -9.19736194635e-19)
(0.216491667898 -0.134310056045 -5.14664693645e-20)
(138.858494895 -4.02706949689 7.54742071476e-19)
(139.275404315 -11.8026844165 5.29730942123e-19)
(139.58889944 -19.3559662104 1.74026493778e-19)
(140.563682618 -27.2503319138 1.21658606311e-20)
(141.879883636 -35.1966958995 2.59179471965e-20)
(143.531457441 -43.2717425057 -1.68635577885e-20)
(145.556525638 -51.4886437866 7.44346375539e-21)
(148.024799893 -59.8483591927 1.75788964557e-21)
(150.978924792 -68.3394772183 -4.11430602017e-20)
(154.464214756 -76.9181961661 -1.58208234139e-20)
(158.498838364 -85.4605520771 5.94656364981e-21)
(163.164896714 -93.7738334269 -1.34931482306e-20)
(168.42702226 -101.593983396 -3.53934092314e-19)
(174.561925645 -108.369325869 -7.27688487551e-19)
(181.891844832 -112.478538443 -9.78137177924e-19)
(191.645261769 -110.188175406 -2.56549280568e-19)
(187.686431881 -124.230423724 -7.23491453612e-18)
(174.276284661 -95.6696152928 -3.79965783076e-19)
(21.5118512997 -11.6996698607 -3.52895942989e-18)
(0.0445897013649 0.0581937091649 -8.06298703654e-20)
(146.491016535 -3.80108827279 4.83182210264e-19)
(146.884740261 -11.2844543432 1.8589354872e-21)
(147.263960626 -18.5585299827 -5.91052052247e-20)
(148.346706614 -26.1078397372 -1.68607725844e-20)
(149.78613354 -33.6794567274 2.10991691333e-20)
(151.556363643 -41.3752423007 8.64597273814e-20)
(153.733337317 -49.1841294083 -1.6287979869e-21)
(156.311179694 -57.0877199753 -9.9808149109e-21)
(159.321585245 -65.109910467 -1.99370076109e-20)
(162.763927937 -73.1978197248 -1.86904256146e-21)
(166.627023491 -81.2531144123 -1.61793940572e-20)
(170.85647681 -89.081768687 -2.73579276654e-20)
(175.378171856 -96.4020291714 -3.71632651841e-19)
(180.007622508 -102.782508059 -2.72832724006e-19)
(184.48076557 -107.111982224 -1.22189400185e-18)
(187.195535111 -109.111716829 -1.93364979444e-19)
(182.002679448 -115.146078667 1.88658453265e-18)
(164.259852258 -79.0488680816 9.46550275166e-19)
(23.5070091942 -7.18675058561 2.25959612936e-17)
(-0.736974908225 0.756035692031 6.64494082601e-20)
(153.773263633 -3.5755303324 3.62983141913e-19)
(154.165485228 -10.7318919673 -3.26943581164e-19)
(154.599026082 -17.6791644058 -1.73607676405e-19)
(155.789746492 -24.8651501894 1.60132823052e-20)
(157.346472995 -32.0809646604 -1.02018876964e-20)
(159.24112946 -39.3617024284 -5.22701826837e-20)
(161.526242028 -46.7466873472 -6.03613118745e-21)
(164.187496807 -54.2638923499 2.3640325606e-20)
(167.237850656 -61.8860918452 6.30575053519e-20)
(170.645038801 -69.6031830754 3.87494932852e-20)
(174.334046212 -77.3479680008 -5.70066747682e-21)
(178.205697085 -84.9786581694 2.30250190939e-20)
(182.084240976 -92.3436380742 -1.13133669234e-19)
(185.63676311 -99.1714171994 -1.55006290771e-19)
(188.345259096 -105.126704591 -7.17353805852e-19)
(188.459088151 -110.682363425 8.4119103996e-19)
(182.653706474 -112.593829272 1.39524289525e-17)
(153.209906067 -68.6927268485 -6.11060128185e-18)
(21.8601346454 -3.60298682142 -1.78956444155e-17)
(-6.20897842609 4.04450358049 4.89715408066e-20)
(160.666415267 -3.34126746222 2.18892761659e-19)
(161.068839788 -10.1358292187 -1.20746149694e-19)
(161.571201471 -16.7200582983 3.75189605844e-20)
(162.875891449 -23.5119943675 -7.86743692485e-20)
(164.572574325 -30.3310789175 1.15322903871e-20)
(166.626254769 -37.2394433139 1.85546952176e-20)
(169.015345812 -44.2576678644 1.32379921069e-20)
(171.774633386 -51.3872333848 1.77116551735e-20)
(174.863834927 -58.6541527766 3.74660173743e-20)
(178.241511004 -66.0956929437 1.48119660093e-20)
(181.798641396 -73.6741866333 6.34721503059e-20)
(185.438807357 -81.2960272933 1.57527844389e-19)
(188.970918961 -88.9128234374 -1.94609085481e-21)
(192.138816887 -96.5396861314 -3.84823374939e-19)
(194.532939571 -104.421176321 -1.92141119063e-19)
(195.014277855 -113.496060895 -2.33903266933e-18)
(190.757214619 -117.299122989 2.27324658198e-18)
(151.381896181 -65.9706536316 3.34284650653e-18)
(30.547002086 -3.11154431468 -6.60649666134e-18)
(-18.3125404553 5.11425207627 -1.32071114578e-18)
(167.126270218 -3.09137443207 2.12081413194e-19)
(167.545707481 -9.48151739376 -3.18770095297e-19)
(168.148566687 -15.6634112405 4.91570913908e-20)
(169.590350407 -22.0269443856 3.36222130396e-20)
(171.451139635 -28.4413655985 2.93803696832e-20)
(173.664023421 -34.9668519117 1.24226201034e-20)
(176.226841352 -41.6194032809 8.55749890332e-21)
(179.119844049 -48.4246085129 6.4680950604e-21)
(182.275105802 -55.4215495239 8.37185311506e-21)
(185.677191222 -62.6634773149 1.37772904662e-20)
(189.170271147 -70.1373202656 1.45539065749e-20)
(192.660478304 -77.7759431233 9.66451291543e-20)
(196.042129536 -85.6067806013 3.55629497137e-20)
(199.360772891 -93.6911377735 4.14155025944e-20)
(202.586347538 -102.632219505 -3.10931099428e-19)
(205.807879276 -113.671401647 -6.38946744309e-19)
(208.056052032 -122.141342813 8.45438708436e-18)
(164.102516848 -67.1065583121 8.6100204431e-18)
(56.0422603098 -10.188835429 1.10286576576e-18)
(-31.5787744103 -10.1046197414 -1.04782559456e-18)
)
;

boundaryField
{
    back
    {
        type            calculated;
        value           uniform (0 0 0);
    }
    sides
    {
        type            calculated;
        value           nonuniform List<vector> 0();
    }
    bottom
    {
        type            calculated;
        value           uniform (0 0 0);
    }
    front
    {
        type            calculated;
        value           uniform (0 0 0);
    }
    atmosphere
    {
        type            calculated;
        value           nonuniform List<vector> 9((0.00317140851756 -0.0275221111499 1.71736187451e-21) (-0.00374131887274 0.0441021267549 2.68051173856e-20) (5.79025796534e-05 -0.0362984447422 -2.51777547814e-20) (-0.0465764784706 -0.134310349011 -4.67994077167e-20) (0.00888186831032 0.0581937087793 1.87095108848e-21) (0.000549840726766 0.756035722377 2.83775714862e-23) (2.2546464057e-05 4.04450358055 5.74893193959e-25) (-3.09403413844e-08 5.11405279252 -8.38677232739e-28) (-27.7309127918 -10.1046197414 -1.05857093706e-18));
    }
    floatingObject
    {
        type            calculated;
        value           nonuniform List<vector> 0();
    }
    procBoundary0to1
    {
        type            processor;
        value           nonuniform List<vector> 10((103.893516639 -106.868013345 2.61394237432e-19) (107.373093974 -121.057252054 -1.00935460136e-19) (112.452191957 -136.410944868 2.66504564136e-19) (119.683906355 -152.932327818 -4.12148843976e-19) (129.750075471 -169.357243502 -6.90994097262e-19) (143.652928257 -187.956757204 4.34703596337e-18) (160.673369068 -196.456702844 -1.41516936898e-17) (166.022971512 -157.555695239 9.94019221282e-18) (51.3715774691 -28.4880998684 1.33711486612e-17) (0.407524662474 -0.243280011578 5.15376038469e-20));
    }
    procBoundary0to2
    {
        type            processor;
        value           nonuniform List<vector> 
14
(
(98.961308539 -70.1781061409 1.19779876177e-21)
(99.9838938408 -81.5240311221 -6.62249264106e-20)
(101.545425052 -93.7286897242 -1.07553038183e-19)
(107.601293217 -48.8684725475 -9.09889223487e-20)
(108.533399148 -58.6771808062 -5.50652405135e-20)
(108.533399148 -58.6771808062 -5.50652405135e-20)
(114.290432181 -4.91506672546 1.07032433074e-19)
(114.947076378 -13.1952386112 -4.17027817995e-19)
(116.084868861 -38.7567356337 -2.18931458559e-20)
(116.084868861 -38.7567356337 -2.18931458559e-20)
(123.333223829 -20.6291465719 -5.36510852931e-20)
(123.333223829 -20.6291465719 -5.36510852931e-20)
(123.999936288 -29.1577796568 4.40622543941e-21)
(123.999936288 -29.1577796568 4.40622543941e-21)
)
;
    }
    procBoundary0to4
    {
        type            processor;
        value           nonuniform List<vector> 8((173.120370946 -2.82753311801 8.29341464079e-20) (173.567624431 -8.74665186644 6.52751772358e-20) (174.295799101 -14.4732325619 6.16033628811e-20) (175.916469329 -20.3814417651 2.83378162584e-20) (177.991144908 -26.3704092767 4.17089583984e-20) (180.437083577 -32.5075096126 -1.47751351868e-22) (183.234659833 -38.81879809 2.42283961552e-21) (186.321327287 -45.3467242758 -3.41632916811e-21));
    }
    procBoundary0to5
    {
        type            processor;
        value           nonuniform List<vector> 
12
(
(189.611143663 -52.0989815428 5.76424152933e-21)
(193.059855532 -59.1956974122 4.16465242008e-21)
(196.511378373 -66.6798834328 -3.58195654662e-20)
(199.878158695 -74.3998112639 3.45040597847e-20)
(203.166575357 -82.2044048617 3.39532432985e-20)
(206.575901162 -90.1018523315 2.8517833025e-20)
(210.584030972 -98.5182390754 -1.59261431643e-19)
(216.479777524 -107.517562077 -1.67550720007e-18)
(225.039121811 -111.033858343 -2.18705992377e-18)
(176.969446147 -59.4141639194 1.15195252015e-17)
(52.4645232741 -8.5565985901 -1.06157214932e-18)
(-9.07848442178 -19.8680088149 -6.53884411299e-19)
)
;
    }
}


// ************************************************************************* //
