/*--------------------------------*- C++ -*----------------------------------*\
| =========                 |                                                 |
| \\      /  F ield         | OpenFOAM: The Open Source CFD Toolbox           |
|  \\    /   O peration     | Version:  v2012                                 |
|   \\  /    A nd           | Website:  www.openfoam.com                      |
|    \\/     M anipulation  |                                                 |
\*---------------------------------------------------------------------------*/
FoamFile
{
    version     2.0;
    format      ascii;
    class       volScalarField;
    location    "2.8";
    object      rAU;
}
// * * * * * * * * * * * * * * * * * * * * * * * * * * * * * * * * * * * * * //

dimensions      [-1 3 1 0 0 0 0];


internalField   nonuniform List<scalar> 
166
(
2.16479085832e-05
2.16466715695e-05
2.16459129119e-05
2.16443403838e-05
2.16419357136e-05
2.16358462868e-05
2.16163182572e-05
2.16282958343e-05
2.1474082194e-05
2.12202779036e-05
2.47005038921e-05
0.000142545309474
0.00868507670927
2.16504003207e-05
2.16490396497e-05
2.16475522533e-05
2.16467668788e-05
2.16454936258e-05
2.16439768751e-05
2.16413566176e-05
2.16351318249e-05
2.16113969382e-05
2.16078398543e-05
2.14716043663e-05
2.12373597668e-05
2.49444233934e-05
0.000155305951159
0.00891034102567
2.19336812509e-05
2.17037494757e-05
2.16525280269e-05
2.16502783313e-05
2.16484091554e-05
2.16467886485e-05
2.16453369122e-05
2.16448577e-05
2.16442970643e-05
2.16420194451e-05
2.16365026328e-05
2.16170004414e-05
2.15857498536e-05
2.14919535878e-05
2.13513243216e-05
2.54178357835e-05
0.000168056933949
0.00924946473284
2.1944512914e-05
2.17081514081e-05
2.16670237342e-05
2.16567127405e-05
2.16517999295e-05
2.16491256033e-05
2.16473193013e-05
2.16461837586e-05
2.16447258441e-05
2.16433736743e-05
2.16423180046e-05
2.16411034776e-05
2.16367751119e-05
2.16252930373e-05
2.15767325253e-05
2.15233311304e-05
2.14405469312e-05
2.58694930738e-05
0.000182192263414
0.00976483018707
2.19584933958e-05
2.17106929282e-05
2.16661001987e-05
2.16547808419e-05
2.16502720153e-05
2.16475631453e-05
2.16457311128e-05
2.16446537113e-05
2.16438749576e-05
2.16420822708e-05
2.164035288e-05
2.16391735922e-05
2.163641742e-05
2.16301780927e-05
2.16096342779e-05
2.15821643106e-05
2.15097204704e-05
2.63142102087e-05
0.00019842898483
0.0102272903362
2.18605468302e-05
2.16986729836e-05
2.16603456304e-05
2.16508531411e-05
2.16461192758e-05
2.16449873373e-05
2.16443347315e-05
2.16425918738e-05
2.16413573316e-05
2.16405843254e-05
2.16393703677e-05
2.16376036601e-05
2.16351534284e-05
2.16307907387e-05
2.16167300656e-05
2.15839905444e-05
2.15135396191e-05
2.66608113703e-05
0.000214718729988
0.0105002803724
2.1800277045e-05
2.16726449532e-05
2.16491681861e-05
2.16453189791e-05
2.16424654615e-05
2.16406846821e-05
2.16402139621e-05
2.16395998468e-05
2.16391034649e-05
2.16384706128e-05
2.16376016592e-05
2.16357339787e-05
2.16329856788e-05
2.16281359399e-05
2.16118485608e-05
2.15778647979e-05
2.15302081861e-05
2.70410986685e-05
0.000231246705751
0.0106858920939
2.18625087703e-05
2.16599750812e-05
2.16376534333e-05
2.163931902e-05
2.16399993953e-05
2.16382202439e-05
2.16369665686e-05
2.16369286063e-05
2.16362041582e-05
2.16355972657e-05
2.16350715239e-05
2.16340109679e-05
2.1631983055e-05
2.16268207709e-05
2.16110080111e-05
2.15723680817e-05
2.15256057984e-05
2.74635372464e-05
0.000253922404801
0.0112300569344
2.18853933514e-05
2.16640629048e-05
2.16344772999e-05
2.16353135409e-05
2.16362584567e-05
2.16367216486e-05
2.16363880916e-05
2.16357102312e-05
2.16345659239e-05
2.16333774927e-05
2.16320479346e-05
2.16303965086e-05
2.16291817889e-05
2.16264780652e-05
2.1614362405e-05
2.15732232305e-05
2.15249380809e-05
2.7493531626e-05
0.000261158016153
0.0120830875879
)
;

boundaryField
{
    back
    {
        type            calculated;
        value           nonuniform List<scalar> 
166
(
2.16479085832e-05
2.16466715695e-05
2.16459129119e-05
2.16443403838e-05
2.16419357136e-05
2.16358462868e-05
2.16163182572e-05
2.16282958343e-05
2.1474082194e-05
2.12202779036e-05
2.47005038921e-05
0.000142545309474
0.00868507670927
2.16504003207e-05
2.16490396497e-05
2.16475522533e-05
2.16467668788e-05
2.16454936258e-05
2.16439768751e-05
2.16413566176e-05
2.16351318249e-05
2.16113969382e-05
2.16078398543e-05
2.14716043663e-05
2.12373597668e-05
2.49444233934e-05
0.000155305951159
0.00891034102567
2.19336812509e-05
2.17037494757e-05
2.16525280269e-05
2.16502783313e-05
2.16484091554e-05
2.16467886485e-05
2.16453369122e-05
2.16448577e-05
2.16442970643e-05
2.16420194451e-05
2.16365026328e-05
2.16170004414e-05
2.15857498536e-05
2.14919535878e-05
2.13513243216e-05
2.54178357835e-05
0.000168056933949
0.00924946473284
2.1944512914e-05
2.17081514081e-05
2.16670237342e-05
2.16567127405e-05
2.16517999295e-05
2.16491256033e-05
2.16473193013e-05
2.16461837586e-05
2.16447258441e-05
2.16433736743e-05
2.16423180046e-05
2.16411034776e-05
2.16367751119e-05
2.16252930373e-05
2.15767325253e-05
2.15233311304e-05
2.14405469312e-05
2.58694930738e-05
0.000182192263414
0.00976483018707
2.19584933958e-05
2.17106929282e-05
2.16661001987e-05
2.16547808419e-05
2.16502720153e-05
2.16475631453e-05
2.16457311128e-05
2.16446537113e-05
2.16438749576e-05
2.16420822708e-05
2.164035288e-05
2.16391735922e-05
2.163641742e-05
2.16301780927e-05
2.16096342779e-05
2.15821643106e-05
2.15097204704e-05
2.63142102087e-05
0.00019842898483
0.0102272903362
2.18605468302e-05
2.16986729836e-05
2.16603456304e-05
2.16508531411e-05
2.16461192758e-05
2.16449873373e-05
2.16443347315e-05
2.16425918738e-05
2.16413573316e-05
2.16405843254e-05
2.16393703677e-05
2.16376036601e-05
2.16351534284e-05
2.16307907387e-05
2.16167300656e-05
2.15839905444e-05
2.15135396191e-05
2.66608113703e-05
0.000214718729988
0.0105002803724
2.1800277045e-05
2.16726449532e-05
2.16491681861e-05
2.16453189791e-05
2.16424654615e-05
2.16406846821e-05
2.16402139621e-05
2.16395998468e-05
2.16391034649e-05
2.16384706128e-05
2.16376016592e-05
2.16357339787e-05
2.16329856788e-05
2.16281359399e-05
2.16118485608e-05
2.15778647979e-05
2.15302081861e-05
2.70410986685e-05
0.000231246705751
0.0106858920939
2.18625087703e-05
2.16599750812e-05
2.16376534333e-05
2.163931902e-05
2.16399993953e-05
2.16382202439e-05
2.16369665686e-05
2.16369286063e-05
2.16362041582e-05
2.16355972657e-05
2.16350715239e-05
2.16340109679e-05
2.1631983055e-05
2.16268207709e-05
2.16110080111e-05
2.15723680817e-05
2.15256057984e-05
2.74635372464e-05
0.000253922404801
0.0112300569344
2.18853933514e-05
2.16640629048e-05
2.16344772999e-05
2.16353135409e-05
2.16362584567e-05
2.16367216486e-05
2.16363880916e-05
2.16357102312e-05
2.16345659239e-05
2.16333774927e-05
2.16320479346e-05
2.16303965086e-05
2.16291817889e-05
2.16264780652e-05
2.1614362405e-05
2.15732232305e-05
2.15249380809e-05
2.7493531626e-05
0.000261158016153
0.0120830875879
)
;
    }
    sides
    {
        type            calculated;
        value           nonuniform List<scalar> 0();
    }
    bottom
    {
        type            calculated;
        value           nonuniform List<scalar> 7(2.19336812509e-05 2.1944512914e-05 2.19584933958e-05 2.18605468302e-05 2.1800277045e-05 2.18625087703e-05 2.18853933514e-05);
    }
    front
    {
        type            calculated;
        value           nonuniform List<scalar> 
166
(
2.16479085832e-05
2.16466715695e-05
2.16459129119e-05
2.16443403838e-05
2.16419357136e-05
2.16358462868e-05
2.16163182572e-05
2.16282958343e-05
2.1474082194e-05
2.12202779036e-05
2.47005038921e-05
0.000142545309474
0.00868507670927
2.16504003207e-05
2.16490396497e-05
2.16475522533e-05
2.16467668788e-05
2.16454936258e-05
2.16439768751e-05
2.16413566176e-05
2.16351318249e-05
2.16113969382e-05
2.16078398543e-05
2.14716043663e-05
2.12373597668e-05
2.49444233934e-05
0.000155305951159
0.00891034102567
2.19336812509e-05
2.17037494757e-05
2.16525280269e-05
2.16502783313e-05
2.16484091554e-05
2.16467886485e-05
2.16453369122e-05
2.16448577e-05
2.16442970643e-05
2.16420194451e-05
2.16365026328e-05
2.16170004414e-05
2.15857498536e-05
2.14919535878e-05
2.13513243216e-05
2.54178357835e-05
0.000168056933949
0.00924946473284
2.1944512914e-05
2.17081514081e-05
2.16670237342e-05
2.16567127405e-05
2.16517999295e-05
2.16491256033e-05
2.16473193013e-05
2.16461837586e-05
2.16447258441e-05
2.16433736743e-05
2.16423180046e-05
2.16411034776e-05
2.16367751119e-05
2.16252930373e-05
2.15767325253e-05
2.15233311304e-05
2.14405469312e-05
2.58694930738e-05
0.000182192263414
0.00976483018707
2.19584933958e-05
2.17106929282e-05
2.16661001987e-05
2.16547808419e-05
2.16502720153e-05
2.16475631453e-05
2.16457311128e-05
2.16446537113e-05
2.16438749576e-05
2.16420822708e-05
2.164035288e-05
2.16391735922e-05
2.163641742e-05
2.16301780927e-05
2.16096342779e-05
2.15821643106e-05
2.15097204704e-05
2.63142102087e-05
0.00019842898483
0.0102272903362
2.18605468302e-05
2.16986729836e-05
2.16603456304e-05
2.16508531411e-05
2.16461192758e-05
2.16449873373e-05
2.16443347315e-05
2.16425918738e-05
2.16413573316e-05
2.16405843254e-05
2.16393703677e-05
2.16376036601e-05
2.16351534284e-05
2.16307907387e-05
2.16167300656e-05
2.15839905444e-05
2.15135396191e-05
2.66608113703e-05
0.000214718729988
0.0105002803724
2.1800277045e-05
2.16726449532e-05
2.16491681861e-05
2.16453189791e-05
2.16424654615e-05
2.16406846821e-05
2.16402139621e-05
2.16395998468e-05
2.16391034649e-05
2.16384706128e-05
2.16376016592e-05
2.16357339787e-05
2.16329856788e-05
2.16281359399e-05
2.16118485608e-05
2.15778647979e-05
2.15302081861e-05
2.70410986685e-05
0.000231246705751
0.0106858920939
2.18625087703e-05
2.16599750812e-05
2.16376534333e-05
2.163931902e-05
2.16399993953e-05
2.16382202439e-05
2.16369665686e-05
2.16369286063e-05
2.16362041582e-05
2.16355972657e-05
2.16350715239e-05
2.16340109679e-05
2.1631983055e-05
2.16268207709e-05
2.16110080111e-05
2.15723680817e-05
2.15256057984e-05
2.74635372464e-05
0.000253922404801
0.0112300569344
2.18853933514e-05
2.16640629048e-05
2.16344772999e-05
2.16353135409e-05
2.16362584567e-05
2.16367216486e-05
2.16363880916e-05
2.16357102312e-05
2.16345659239e-05
2.16333774927e-05
2.16320479346e-05
2.16303965086e-05
2.16291817889e-05
2.16264780652e-05
2.1614362405e-05
2.15732232305e-05
2.15249380809e-05
2.7493531626e-05
0.000261158016153
0.0120830875879
)
;
    }
    atmosphere
    {
        type            calculated;
        value           nonuniform List<scalar> 9(0.00868507670927 0.00891034102567 0.00924946473284 0.00976483018707 0.0102272903362 0.0105002803724 0.0106858920939 0.0112300569344 0.0120830875879);
    }
    floatingObject
    {
        type            calculated;
        value           nonuniform List<scalar> 0();
    }
    procBoundary0to1
    {
        type            processor;
        value           nonuniform List<scalar> 10(2.16453997553e-05 2.16434284092e-05 2.16380783169e-05 2.16248202655e-05 2.16392299784e-05 2.14964718428e-05 2.13139916771e-05 2.47127144585e-05 0.00012944613923 0.00839133369529);
    }
    procBoundary0to2
    {
        type            processor;
        value           nonuniform List<scalar> 
14
(
2.16472864e-05
2.16467244798e-05
2.16462016835e-05
2.16499822387e-05
2.16487521555e-05
2.16487521555e-05
2.19284620184e-05
2.17011607022e-05
2.16519359632e-05
2.16519359632e-05
2.16638572965e-05
2.16638572965e-05
2.16561383621e-05
2.16561383621e-05
)
;
    }
    procBoundary0to4
    {
        type            processor;
        value           nonuniform List<scalar> 8(2.18939328242e-05 2.16688097542e-05 2.16362955925e-05 2.16350005383e-05 2.16350824829e-05 2.1634633203e-05 2.16345976101e-05 2.16343381219e-05);
    }
    procBoundary0to5
    {
        type            processor;
        value           nonuniform List<scalar> 
12
(
2.16337000582e-05
2.16321895504e-05
2.16299735263e-05
2.16272376564e-05
2.16240543955e-05
2.16194909132e-05
2.16082537606e-05
2.15519434786e-05
2.14720298646e-05
2.76796127983e-05
0.000264994377445
0.0121672254078
)
;
    }
}


// ************************************************************************* //
