/*--------------------------------*- C++ -*----------------------------------*\
| =========                 |                                                 |
| \\      /  F ield         | OpenFOAM: The Open Source CFD Toolbox           |
|  \\    /   O peration     | Version:  v2012                                 |
|   \\  /    A nd           | Website:  www.openfoam.com                      |
|    \\/     M anipulation  |                                                 |
\*---------------------------------------------------------------------------*/
FoamFile
{
    version     2.0;
    format      ascii;
    class       surfaceScalarField;
    location    "5.3";
    object      alphaPhi0.water;
}
// * * * * * * * * * * * * * * * * * * * * * * * * * * * * * * * * * * * * * //

dimensions      [0 3 -1 0 0 0 0];
oriented        oriented;


internalField   nonuniform List<scalar> 
305
(
-1.47641402021e-05
1.47639841161e-05
-3.0659240808e-05
1.58949750522e-05
-4.73722094364e-05
1.67129058701e-05
-6.4545785321e-05
1.71735337303e-05
-8.21199394216e-05
1.75743041438e-05
-0.000100195715648
1.80758120711e-05
-0.000119009148281
1.88135201208e-05
1.96758347649e-05
-1.57557431544e-05
3.05195882571e-05
-3.19852641101e-05
3.21244294743e-05
-4.85840530238e-05
3.33116317747e-05
-6.56957535554e-05
3.42854320961e-05
-8.33652977456e-05
3.52439040704e-05
-0.000101644449726
3.6354990896e-05
-0.000120595057123
3.77638503349e-05
3.95365367001e-05
-1.62429480372e-05
4.67624554557e-05
-3.24752727012e-05
4.83567598434e-05
-4.90440693817e-05
4.98804650768e-05
-6.60710521947e-05
5.13126132446e-05
-8.36151606011e-05
5.27880515892e-05
-0.000101813099384
5.45528222448e-05
-0.000120698096928
5.66487555123e-05
5.92688583236e-05
-1.61167030409e-05
6.28790957048e-05
-3.22564931736e-05
6.44965378598e-05
-4.86695529708e-05
6.62936650973e-05
-6.54870192263e-05
6.81302142254e-05
-8.28006501964e-05
7.01017349576e-05
-0.000100662971732
7.24150503743e-05
-0.000119238144105
7.52232289943e-05
-0.000138600201025
7.86304886052e-05
8.2716834046e-05
-1.56718957184e-05
7.8550945139e-05
-3.14863873128e-05
8.03110128422e-05
-4.75744020052e-05
8.23817145686e-05
-6.40307022219e-05
8.45866005065e-05
-8.09203930894e-05
8.69914700101e-05
-9.832644796e-05
8.98210663537e-05
-0.000116352278311
9.32485510756e-05
-0.000135106635621
9.73836013032e-05
-0.000154732388195
0.000102341041687
0.00010825128561
-1.50910960888e-05
9.36419969122e-05
-3.04139447897e-05
9.56338247015e-05
-4.60157799545e-05
9.7983534616e-05
-6.19544655694e-05
0.000100525302178
-7.82777230569e-05
0.00010331475859
-9.50647527955e-05
0.000106607994282
-0.000112384828704
0.000110568275996
-0.00013035489816
0.000115352541788
-0.000149061622649
0.000121045931146
0.000127834327792
-1.44378077597e-05
0.000108079733101
-2.91467203155e-05
0.000110342647827
-4.41403218625e-05
0.000112977048099
-5.94466685577e-05
0.000115831551062
-7.50948392487e-05
0.00011896288841
-9.11277172174e-05
0.000122640742344
-0.000107632047512
0.000127072371684
-0.000124664704053
0.000132384204411
-0.000142328537234
0.000138707409394
0.000146157908364
-1.37323765697e-05
0.00012181197154
-2.77373037114e-05
0.000124347371165
-4.20336084212e-05
0.000127273165127
-5.66151356717e-05
0.000130412955596
-7.14913768042e-05
0.000133839
-8.67006896341e-05
0.000137849977897
-0.000102295882035
0.000142667313665
-0.000118337700339
0.000148425048389
-0.000134882659673
0.000155250658958
0.000163258850258
-1.29694675965e-05
0.000134781189254
-2.62093819542e-05
0.000137586994789
-3.9740717328e-05
0.000140804170807
-5.35298946434e-05
0.000144201862395
-6.75749666405e-05
0.000147883851396
-8.18889558014e-05
0.00015216387038
-9.6510963492e-05
0.000157289234156
-0.000111497795488
0.000163411279253
-0.00012687750025
0.000170629800228
0.000179118711556
-1.21557599052e-05
0.000146936535172
-2.46340716758e-05
0.00015006478113
-3.73134988324e-05
0.000153483091702
-5.02296361489e-05
0.000157117503717
-6.33754916757e-05
0.000161029342574
-7.67510089725e-05
0.000165539211063
-9.03758770107e-05
0.00017091404872
-0.000104278202084
0.0001773134424
-0.000118507411643
0.000184859416716
0.000193724662336
-1.13086692172e-05
0.000158244556186
-2.28925694287e-05
0.000161647888709
-3.47161616354e-05
0.00016530582625
-4.67500018464e-05
0.000169150588924
-5.89741453342e-05
0.000173252913307
-7.13809058779e-05
0.000177945546491
-8.39684030934e-05
0.000183501460121
-9.68140207478e-05
0.000190159696737
-0.00010992589029
0.000197972341929
0.000207097173958
-1.04255862987e-05
0.000168669203974
-2.11019626402e-05
0.000172323144729
-3.20186112939e-05
0.000176221282917
-4.31397452843e-05
0.000180270567983
-5.43989506879e-05
0.000184511221566
-6.58315354787e-05
0.000189377592784
-7.74389946484e-05
0.000195109060904
-8.91595008768e-05
0.000201880334722
-0.000101066884919
0.000209879445728
0.000219131437049
-9.52319414242e-06
0.000178191148844
-1.9261324652e-05
0.000182059803382
-2.92418887234e-05
0.000186200255234
-3.94193285826e-05
0.00019044636792
-4.97345529119e-05
0.000194824983307
-6.01311709292e-05
0.000199773782498
-7.06492586551e-05
0.000205626724956
-8.12859475565e-05
0.000212516362064
-9.20221506983e-05
0.000220615393164
0.000229890607531
-8.5725420677e-06
0.000186762037118
-1.73647606161e-05
0.00019085012099
-2.64014220253e-05
0.000195234864753
-3.55927375604e-05
0.000199635679433
-4.49124013256e-05
0.000204142807121
-5.43224553789e-05
0.000209182233548
-6.38191960385e-05
0.000215122417733
-7.33748584663e-05
0.000222070842927
-8.29024578476e-05
0.000230141160957
0.000239443728606
-7.59454432862e-06
0.000194355092555
-1.54508766078e-05
0.000198704593162
-2.34931260929e-05
0.000203274783788
-3.17083585155e-05
0.00020784863228
-4.00369191446e-05
0.000212469307564
-4.84272086998e-05
0.000217570201806
-5.68218098579e-05
0.000223513637246
-6.52821736849e-05
0.000230528295756
-7.37655217378e-05
0.000238620980436
0.000247917165186
-6.62565179782e-06
0.000200978637905
-1.34680741656e-05
0.000205544819673
-2.05218939221e-05
0.000210326585105
-2.7719773925e-05
0.000215043914755
-3.49957295746e-05
0.000219740525525
-4.23322656064e-05
0.000224900406557
-4.97093916603e-05
0.000230887209354
-5.71320800198e-05
-6.45150339842e-05
-5.64492060677e-06
0.000206620751061
-1.14704091715e-05
0.000211367532981
-1.74620833621e-05
0.000216315434907
-2.35845161602e-05
0.000221160414161
-2.97883323421e-05
0.00022593954413
-3.60610746237e-05
-4.6466908625e-06
-9.44269202968e-06
-1.44192980797e-05
0.000221286255543
-1.94892705752e-05
0.000226227967292
-1.14051155645e-05
)
;

boundaryField
{
    back
    {
        type            calculated;
        value           uniform 0;
    }
    sides
    {
        type            calculated;
        value           uniform 0;
    }
    bottom
    {
        type            calculated;
        value           uniform 0;
    }
    front
    {
        type            calculated;
        value           uniform 0;
    }
    atmosphere
    {
        type            calculated;
        value           nonuniform List<scalar> 0();
    }
    floatingObject
    {
        type            calculated;
        value           nonuniform List<scalar> 0();
    }
    procBoundary2to0
    {
        type            processor;
        value           nonuniform List<scalar> 
14
(
0.000237946443704
0.000245999724991
0.000255329963741
0.000231168243478
-4.24160329305e-05
0.000237235482528
0.000211264610234
0.000216160010213
-2.46310613553e-05
0.000231077380364
7.43354591107e-06
0.00022525370776
-1.54728135341e-05
0.000230291686427
)
;
    }
    procBoundary2to1
    {
        type            processor;
        value           nonuniform List<scalar> 
18
(
-0.000138685152565
-0.000140455635707
-0.000140431560511
-6.24001789898e-05
-0.000158918882337
-8.75489179021e-05
-0.000175438967176
-0.000168647943984
-0.000160653510271
-0.000151983545202
-0.000142734787807
-0.000133109982602
-0.000123296667516
-0.00011310166046
-0.000102782010801
-9.24572632218e-05
-8.22420615897e-05
-7.19330197304e-05
)
;
    }
}


// ************************************************************************* //
