/*--------------------------------*- C++ -*----------------------------------*\
| =========                 |                                                 |
| \\      /  F ield         | OpenFOAM: The Open Source CFD Toolbox           |
|  \\    /   O peration     | Version:  v2012                                 |
|   \\  /    A nd           | Website:  www.openfoam.com                      |
|    \\/     M anipulation  |                                                 |
\*---------------------------------------------------------------------------*/
FoamFile
{
    version     2.0;
    format      ascii;
    class       volVectorField;
    location    "5.3";
    object      ddt0(rho,U);
}
// * * * * * * * * * * * * * * * * * * * * * * * * * * * * * * * * * * * * * //

dimensions      [1 -2 -2 0 0 0 0];


internalField   nonuniform List<vector> 
167
(
(-3.54489974149 3.56288359013 -1.48702764529e-20)
(-3.44044029214 11.3010924588 -3.43686201249e-20)
(-3.58401989791 18.9055178867 -1.66487641295e-19)
(-3.81235857229 26.9271113436 -8.19653751213e-20)
(-4.11954122965 35.5251746751 1.9327144851e-20)
(-4.52665427323 44.8581718325 1.16451639368e-19)
(-5.04862276075 55.1406430813 1.06104712741e-19)
(-5.71657338721 66.6403690644 3.06324194479e-19)
(-11.1331152139 3.30727870956 -4.40743576887e-20)
(-11.1693462469 10.9070607625 -1.66885432724e-19)
(-11.621640053 18.3757599175 -1.3993218323e-19)
(-12.3106172365 26.1776635839 -7.32847187739e-20)
(-13.245747582 34.5233151365 -1.80506149067e-19)
(-14.475080497 43.5723225785 6.99865194714e-20)
(-16.0545096839 53.5180118291 1.22004645196e-19)
(-18.0687780616 64.5985937495 9.28701364193e-20)
(-18.1553378987 3.13963184484 -1.32788788551e-19)
(-18.3581016523 10.4844586252 -1.48299328212e-19)
(-19.0702567822 17.6510037297 -1.79783070924e-19)
(-20.1662597008 25.1156916144 -1.47538806011e-19)
(-21.6778423138 33.0839611371 -6.20665455906e-20)
(-23.6738725581 41.6890243702 5.88341819473e-22)
(-26.2486652248 51.1086864013 7.43820273814e-20)
(-29.5219198492 61.5369850667 6.80634248063e-20)
(-24.8579301845 2.93201924211 1.26328013923e-20)
(-25.1299694176 9.86865744349 -1.39956690103e-19)
(-26.08655802 16.5885486155 -1.97516188098e-19)
(-27.5475268929 23.5688945012 -1.83747747075e-19)
(-29.5707293123 30.9960356343 -1.14254939824e-19)
(-32.2403536769 38.9684396526 -6.12193866402e-20)
(-35.6725250298 47.6278198393 -2.37430555253e-20)
(-40.0238343613 57.1475573107 2.08090402234e-20)
(-45.5057364897 67.6830439653 -2.83153032735e-20)
(-31.1053629319 2.67471034026 -8.92994707901e-21)
(-31.4428663211 9.0800199066 7.18755482139e-20)
(-32.6171199564 15.2384304535 -1.47416103734e-19)
(-34.3942065117 21.6111367359 -1.25762832657e-19)
(-36.848357857 28.3520803648 -9.70270086529e-20)
(-40.0836881039 35.5331650511 -6.73299037716e-20)
(-44.2294174404 43.258670608 -3.13935308247e-20)
(-49.4616908338 51.6393306947 -7.23458843118e-22)
(-56.0327680027 60.7867719613 -1.09854109113e-20)
(-64.2437223518 70.8374010184 -5.43471583613e-20)
(-36.7884063086 2.38118997639 -7.28421041293e-20)
(-37.1748234127 8.15976782259 1.92074871372e-20)
(-38.5247220714 13.6622767894 -8.1201419253e-20)
(-40.5550097455 19.3288493873 -6.59489237025e-20)
(-43.3482737891 25.2766144956 -5.66941029863e-20)
(-47.0167875409 31.5452425559 -6.34327227186e-20)
(-51.7029228883 38.1999026144 -1.77312567775e-20)
(-57.5902101048 45.2957114163 -3.7772252043e-21)
(-64.92684258 52.8746896252 -1.20948064325e-20)
(-74.0399291802 61.0032622314 -7.25643320133e-20)
(-41.8322367985 2.05672937137 2.70447866128e-20)
(-42.2424484693 7.13947319688 -8.92493911592e-20)
(-43.7227229991 11.9167468983 -6.41114299235e-20)
(-45.9368238862 16.8043488156 -4.44058421294e-20)
(-48.9708860715 21.883255343 -5.52270670381e-20)
(-52.9375625713 27.1618200678 -1.95687543555e-20)
(-57.9798101431 32.6667858859 -1.35897151849e-20)
(-64.2784108076 38.3975521625 -1.39295893234e-20)
(-72.0654556068 44.3389832039 6.7782093417e-21)
(-81.646070478 50.4867266865 -3.78712242312e-20)
(-46.1808192021 1.71180343948 -8.00123803138e-20)
(-46.5895820255 6.04870579999 5.6777756211e-20)
(-48.1553802107 10.0542195947 -8.62363612454e-20)
(-50.4825532389 14.1188068965 -6.78818939467e-20)
(-53.6565248291 18.2869993293 -4.41771282543e-20)
(-57.7865675985 22.5381111442 -1.79527793165e-20)
(-63.0034801473 26.8614410662 -1.51855099448e-20)
(-69.4778835815 31.2171650469 -7.96514223914e-21)
(-77.4135972281 35.5319490765 -1.5666935328e-20)
(-87.0733844539 39.7261403334 -1.99725884634e-20)
(-49.7978970653 1.35673825043 4.24261044353e-20)
(-50.1839999547 4.91907355743 -6.18643924877e-20)
(-51.7917892976 8.1301491897 -8.20017042591e-20)
(-54.163128188 11.3552891886 -6.58339024525e-20)
(-57.380948459 14.60031533 -2.42058169641e-20)
(-61.5447521851 17.8250675062 -1.22409996786e-20)
(-66.7705470389 20.986979745 -1.43065645421e-20)
(-73.203549138 24.0100456408 -4.96810170844e-21)
(-81.0130467887 26.7839909075 -1.00228742451e-20)
(-90.3976434831 29.1659210489 -4.00160634645e-20)
(-52.6666778094 1.00146511483 1.18916442841e-19)
(-53.0213322433 3.78072753659 2.75475733308e-19)
(-54.621670322 6.19748821257 5.73700315379e-21)
(-56.9752728173 8.59070330147 -1.09057846748e-21)
(-60.1510107909 10.9306903452 -3.29242323812e-21)
(-64.2347776712 13.1608808651 3.43512685964e-21)
(-69.3249421548 15.2160957494 2.34363467877e-21)
(-75.5363290633 17.000045227 -1.4683011962e-21)
(-82.989644889 18.3755710351 -1.70315510459e-20)
(-91.8196149597 19.1573422674 -2.51050771663e-20)
(-54.7944402072 0.650222256937 1.56855910705e-19)
(-55.1042980631 2.66072871768 -1.77094084319e-20)
(-56.6606142134 4.31118194032 5.99640530446e-20)
(-58.943503033 5.89343584477 -5.69560854588e-21)
(-62.0026297269 7.36901171137 5.10242937112e-21)
(-65.9144719183 8.66445077832 7.12732217063e-21)
(-70.7515044597 9.69846152491 1.33519575147e-21)
(-76.6012942354 10.3615513195 7.26896457141e-21)
(-83.5280388923 10.4972468747 1.94372819938e-20)
(-91.6131081947 9.91632366975 -1.51541808405e-20)
(-56.2040307765 0.312936847425 5.88781134445e-20)
(-56.4507495592 1.58449839562 1.28149277849e-19)
(-57.9437803917 2.50450128115 -1.69282463505e-20)
(-60.1111460305 3.32150579359 -2.36420770786e-20)
(-62.9959827107 3.992137519 -5.86590344779e-22)
(-66.6651639334 4.43127550317 5.24781318496e-21)
(-71.163147619 4.53920982835 1.58617417253e-20)
(-76.537417369 4.20628942069 8.18192280263e-21)
(-82.8347354361 3.29217070363 3.49892652818e-20)
(-90.0871929462 1.60572295518 1.76396661396e-20)
(-56.9338012236 -0.00401178260281 1.56405706041e-20)
(-57.1049359419 0.570091233575 1.44850403645e-19)
(-58.515065189 0.809157021071 8.46799405509e-21)
(-60.5355975573 0.918162357041 -3.19586338405e-21)
(-63.2081435387 0.849486162503 1.791008201e-20)
(-66.5768975021 0.515034876248 1.09994044357e-20)
(-70.6773762828 -0.17961648241 -1.01351537639e-21)
(-75.5213716237 -1.35423002977 2.05136212327e-20)
(-81.144788619 -3.13469977191 5.37443613182e-20)
(-87.5362180298 -5.69165095665 2.03972319607e-20)
(-57.0293638135 -0.292544072292 1.82456448439e-19)
(-57.1192380032 -0.366515653756 1.33843031739e-19)
(-58.4323046654 -0.755673891804 1.16235066208e-19)
(-60.2831946786 -1.28894064176 5.05869040062e-20)
(-62.7148029196 -2.0170993914 3.67665980862e-20)
(-65.7535828198 -3.0341215983 2.05360947757e-20)
(-69.4267933697 -4.42596036016 9.47474604052e-21)
(-73.7344849665 -6.30293509316 -1.2260947187e-21)
(-78.6673812993 -8.78408977034 3.35317371261e-20)
(-84.2131010636 -12.0130074386 7.87497794833e-21)
(-56.5405657549 -0.549148358083 2.61811058944e-19)
(-56.5535925382 -1.21308694747 3.06968146468e-19)
(-57.7522838512 -2.1721966261 2.16963984782e-19)
(-59.4218184166 -3.28040844416 1.07530193403e-19)
(-61.595126237 -4.59622203905 4.6209718646e-20)
(-64.3049798923 -6.20454495886 1.72908683997e-20)
(-67.5526359316 -8.18736184021 1.34787642217e-20)
(-71.3237110909 -10.6384286493 -1.64923376981e-20)
(-75.5895661692 -13.6798439613 -8.96399318772e-21)
(-80.3254454397 -17.4326370714 -7.36355255618e-21)
(-55.5263332646 -0.784405529607 1.99235468704e-19)
(-55.46195911 -1.9765915172 1.3811690375e-19)
(-56.5361645414 -3.44008859054 1.45390232665e-19)
(-58.0191398017 -5.05613839934 7.33858551168e-20)
(-59.9481113545 -6.884471876 2.87434908368e-20)
(-62.3352791047 -9.00254878164 4.64527142546e-21)
(-65.1683359807 -11.4700913903 -1.33031713515e-20)
(-68.4217246046 -14.3854636806 -1.3449332526e-20)
(-72.0751346492 -17.8633365325 -2.20745025191e-20)
(-76.0458415273 -22.0130413093 -1.85442476534e-20)
(-54.0458359867 -0.987771247262 -6.80477886272e-20)
(-53.9016520733 -2.64983381293 -5.30199896023e-20)
(-54.8618702148 -4.54484734697 -3.43293389499e-20)
(-56.1761220491 -6.59735918964 -2.61384983381e-20)
(-57.8576334534 -8.85384011244 -8.5369263893e-21)
(-59.9273315205 -11.3861900423 1.03102961515e-20)
(-62.3778976258 -14.2655078348 1.39985781042e-20)
(-52.1570113074 -1.15972039141 -2.43491087719e-19)
(-51.9421245392 -3.22875835755 -2.00817764123e-19)
(-52.8031693609 -5.51332814598 -1.52770169492e-19)
(-53.9495607672 -7.92871251932 -8.26623806891e-20)
(-55.3943995399 -10.5323908182 -2.10504467534e-20)
(-50.4115761227 -6.33780301859 -1.11881724643e-19)
(-51.3938782774 -9.06768015415 -7.19608750427e-20)
)
;

boundaryField
{
    back
    {
        type            calculated;
        value           uniform (0 0 0);
    }
    sides
    {
        type            calculated;
        value           uniform (0 0 0);
    }
    bottom
    {
        type            calculated;
        value           uniform (0 0 0);
    }
    front
    {
        type            calculated;
        value           uniform (0 0 0);
    }
    atmosphere
    {
        type            calculated;
        value           nonuniform List<vector> 0();
    }
    floatingObject
    {
        type            calculated;
        value           nonuniform List<vector> 0();
    }
    procBoundary2to0
    {
        type            processor;
        value           nonuniform List<vector> 
14
(
(-65.1574914322 -17.5642188684 1.80895387954e-21)
(-68.2100031569 -21.3591279103 1.09970427755e-20)
(-71.4837345636 -25.7558459636 -5.14499128228e-22)
(-57.175711591 -13.4164527992 1.61382456696e-20)
(-65.1574914322 -17.5642188684 1.80895387954e-21)
(-59.2552707458 -16.6183093809 1.48630778072e-20)
(-49.9294643705 -1.31111936948 -1.58084494257e-19)
(-49.6538614603 -3.73274677317 -1.57815474893e-19)
(-57.175711591 -13.4164527992 1.61382456696e-20)
(-52.6367314616 -11.9857637864 -2.07810107756e-20)
(-49.6538614603 -3.73274677317 -1.57815474893e-19)
(-47.7178261213 -7.05125608758 3.5154787698e-20)
(-52.6367314616 -11.9857637864 -2.07810107756e-20)
(-48.5564095789 -10.0603741896 -3.56490711816e-22)
)
;
    }
    procBoundary2to1
    {
        type            processor;
        value           nonuniform List<vector> 
18
(
(-6.57381847377 79.682273841 3.16542732501e-20)
(-20.6400512226 77.1140770737 1.97813751325e-19)
(-33.6594831874 73.2220264372 2.68338724958e-20)
(-33.6594831874 73.2220264372 2.68338724958e-20)
(-52.4165598795 79.498176929 -5.22834566408e-20)
(-52.4165598795 79.498176929 -5.22834566408e-20)
(-74.527766541 82.0163655455 -1.15437556509e-19)
(-85.3283666599 69.750890335 -9.91300625698e-20)
(-93.399261882 56.7588040206 -1.19838135558e-19)
(-98.7818229624 43.6391645348 -1.03542220072e-19)
(-101.622633768 30.9268381626 -1.32134415616e-19)
(-102.217598476 19.0786950931 -9.19778698434e-20)
(-100.96971062 8.36576439046 -7.70352469749e-20)
(-98.3411855291 -1.0762551682 -7.4500234365e-20)
(-94.6943181072 -9.22770602691 -2.84242619776e-20)
(-90.322420511 -16.1877197408 -6.34941895243e-20)
(-85.4794999867 -22.0633829931 -3.73146273528e-20)
(-80.2914525781 -26.9410155653 -5.81328346432e-20)
)
;
    }
}


// ************************************************************************* //
