/*--------------------------------*- C++ -*----------------------------------*\
| =========                 |                                                 |
| \\      /  F ield         | OpenFOAM: The Open Source CFD Toolbox           |
|  \\    /   O peration     | Version:  v2012                                 |
|   \\  /    A nd           | Website:  www.openfoam.com                      |
|    \\/     M anipulation  |                                                 |
\*---------------------------------------------------------------------------*/
FoamFile
{
    version     2.0;
    format      ascii;
    class       volScalarField;
    location    "5.3";
    object      rAU;
}
// * * * * * * * * * * * * * * * * * * * * * * * * * * * * * * * * * * * * * //

dimensions      [-1 3 1 0 0 0 0];


internalField   nonuniform List<scalar> 
167
(
2.21370961071e-05
2.20729659156e-05
2.20653875829e-05
2.2063771651e-05
2.20639097317e-05
2.20651975109e-05
2.20669144978e-05
2.20684587948e-05
2.20697362021e-05
2.19543518276e-05
2.19355733011e-05
2.1932357378e-05
2.19316696949e-05
2.19321910043e-05
2.19334652938e-05
2.19349372745e-05
2.20604454048e-05
2.19313619545e-05
2.19100437474e-05
2.19059251759e-05
2.19045402641e-05
2.1904090642e-05
2.19043575081e-05
2.19050191113e-05
2.20589369628e-05
2.19272654437e-05
2.19052723967e-05
2.19010295146e-05
2.18997021529e-05
2.18993567421e-05
2.1899587892e-05
2.19002683394e-05
2.19012637497e-05
2.20593532624e-05
2.1926351371e-05
2.19039782564e-05
2.18996411437e-05
2.18983901436e-05
2.189817045e-05
2.18984052744e-05
2.18989964807e-05
2.18999791722e-05
2.19015726558e-05
2.20599491782e-05
2.19263545475e-05
2.19037532276e-05
2.18992687441e-05
2.18980050263e-05
2.18978828676e-05
2.18981664164e-05
2.18986862897e-05
2.18994932705e-05
2.19004758366e-05
2.20604976636e-05
2.19267904433e-05
2.19040916032e-05
2.18995019402e-05
2.18982231119e-05
2.1898073295e-05
2.1898435165e-05
2.18989375744e-05
2.18996026105e-05
2.19002826627e-05
2.20612023031e-05
2.19273910537e-05
2.19046702981e-05
2.19000223337e-05
2.18987404092e-05
2.18986237367e-05
2.18989584235e-05
2.18994808002e-05
2.19001030673e-05
2.19004594425e-05
2.20621890312e-05
2.19280301095e-05
2.19054553099e-05
2.1900758774e-05
2.18994489651e-05
2.1899313969e-05
2.18996387352e-05
2.1900270258e-05
2.19009779411e-05
2.19010966118e-05
2.20634301768e-05
2.19289418246e-05
2.1906453691e-05
2.19016033143e-05
2.1900275677e-05
2.19000557606e-05
2.19003589511e-05
2.19009639263e-05
2.19017933708e-05
2.19019700033e-05
2.20649513376e-05
2.19303848835e-05
2.19075121531e-05
2.19025815689e-05
2.19011903026e-05
2.19008494945e-05
2.19010496801e-05
2.19016271145e-05
2.19021922672e-05
2.19021165826e-05
2.20667552062e-05
2.19320652589e-05
2.19087235331e-05
2.19037279878e-05
2.19021385084e-05
2.19018923084e-05
2.19020167587e-05
2.19020958375e-05
2.19019540653e-05
2.19017132116e-05
2.20688425093e-05
2.19337380429e-05
2.19101733493e-05
2.1905079568e-05
2.19033634381e-05
2.19029250823e-05
2.19027615925e-05
2.19024002408e-05
2.19022530212e-05
2.19021699598e-05
2.20715647381e-05
2.19355864117e-05
2.19120298498e-05
2.19066889616e-05
2.19046761621e-05
2.19035950733e-05
2.19031559598e-05
2.19027326559e-05
2.19024260592e-05
2.19019881492e-05
2.20750315729e-05
2.19382458813e-05
2.19144516382e-05
2.19083419858e-05
2.19056786892e-05
2.19040706688e-05
2.19031910518e-05
2.19023599979e-05
2.19008109276e-05
2.18992883617e-05
2.20791570878e-05
2.19420839288e-05
2.19173635593e-05
2.19103589533e-05
2.19067216561e-05
2.19043117416e-05
2.19022638196e-05
2.19006217954e-05
2.18992870232e-05
2.18976010091e-05
2.20843788072e-05
2.19466619828e-05
2.19208647999e-05
2.1913782741e-05
2.19096873032e-05
2.19065067808e-05
2.19033055126e-05
2.20906399494e-05
2.19516972821e-05
2.19247518178e-05
2.19170900261e-05
2.19129327507e-05
2.19294897551e-05
2.19198003172e-05
)
;

boundaryField
{
    back
    {
        type            calculated;
        value           nonuniform List<scalar> 
167
(
2.21370961071e-05
2.20729659156e-05
2.20653875829e-05
2.2063771651e-05
2.20639097317e-05
2.20651975109e-05
2.20669144978e-05
2.20684587948e-05
2.20697362021e-05
2.19543518276e-05
2.19355733011e-05
2.1932357378e-05
2.19316696949e-05
2.19321910043e-05
2.19334652938e-05
2.19349372745e-05
2.20604454048e-05
2.19313619545e-05
2.19100437474e-05
2.19059251759e-05
2.19045402641e-05
2.1904090642e-05
2.19043575081e-05
2.19050191113e-05
2.20589369628e-05
2.19272654437e-05
2.19052723967e-05
2.19010295146e-05
2.18997021529e-05
2.18993567421e-05
2.1899587892e-05
2.19002683394e-05
2.19012637497e-05
2.20593532624e-05
2.1926351371e-05
2.19039782564e-05
2.18996411437e-05
2.18983901436e-05
2.189817045e-05
2.18984052744e-05
2.18989964807e-05
2.18999791722e-05
2.19015726558e-05
2.20599491782e-05
2.19263545475e-05
2.19037532276e-05
2.18992687441e-05
2.18980050263e-05
2.18978828676e-05
2.18981664164e-05
2.18986862897e-05
2.18994932705e-05
2.19004758366e-05
2.20604976636e-05
2.19267904433e-05
2.19040916032e-05
2.18995019402e-05
2.18982231119e-05
2.1898073295e-05
2.1898435165e-05
2.18989375744e-05
2.18996026105e-05
2.19002826627e-05
2.20612023031e-05
2.19273910537e-05
2.19046702981e-05
2.19000223337e-05
2.18987404092e-05
2.18986237367e-05
2.18989584235e-05
2.18994808002e-05
2.19001030673e-05
2.19004594425e-05
2.20621890312e-05
2.19280301095e-05
2.19054553099e-05
2.1900758774e-05
2.18994489651e-05
2.1899313969e-05
2.18996387352e-05
2.1900270258e-05
2.19009779411e-05
2.19010966118e-05
2.20634301768e-05
2.19289418246e-05
2.1906453691e-05
2.19016033143e-05
2.1900275677e-05
2.19000557606e-05
2.19003589511e-05
2.19009639263e-05
2.19017933708e-05
2.19019700033e-05
2.20649513376e-05
2.19303848835e-05
2.19075121531e-05
2.19025815689e-05
2.19011903026e-05
2.19008494945e-05
2.19010496801e-05
2.19016271145e-05
2.19021922672e-05
2.19021165826e-05
2.20667552062e-05
2.19320652589e-05
2.19087235331e-05
2.19037279878e-05
2.19021385084e-05
2.19018923084e-05
2.19020167587e-05
2.19020958375e-05
2.19019540653e-05
2.19017132116e-05
2.20688425093e-05
2.19337380429e-05
2.19101733493e-05
2.1905079568e-05
2.19033634381e-05
2.19029250823e-05
2.19027615925e-05
2.19024002408e-05
2.19022530212e-05
2.19021699598e-05
2.20715647381e-05
2.19355864117e-05
2.19120298498e-05
2.19066889616e-05
2.19046761621e-05
2.19035950733e-05
2.19031559598e-05
2.19027326559e-05
2.19024260592e-05
2.19019881492e-05
2.20750315729e-05
2.19382458813e-05
2.19144516382e-05
2.19083419858e-05
2.19056786892e-05
2.19040706688e-05
2.19031910518e-05
2.19023599979e-05
2.19008109276e-05
2.18992883617e-05
2.20791570878e-05
2.19420839288e-05
2.19173635593e-05
2.19103589533e-05
2.19067216561e-05
2.19043117416e-05
2.19022638196e-05
2.19006217954e-05
2.18992870232e-05
2.18976010091e-05
2.20843788072e-05
2.19466619828e-05
2.19208647999e-05
2.1913782741e-05
2.19096873032e-05
2.19065067808e-05
2.19033055126e-05
2.20906399494e-05
2.19516972821e-05
2.19247518178e-05
2.19170900261e-05
2.19129327507e-05
2.19294897551e-05
2.19198003172e-05
)
;
    }
    sides
    {
        type            calculated;
        value           nonuniform List<scalar> 8(2.21370961071e-05 2.20729659156e-05 2.20653875829e-05 2.2063771651e-05 2.20639097317e-05 2.20651975109e-05 2.20669144978e-05 2.20684587948e-05);
    }
    bottom
    {
        type            calculated;
        value           nonuniform List<scalar> 
18
(
2.21370961071e-05
2.20697362021e-05
2.20604454048e-05
2.20589369628e-05
2.20593532624e-05
2.20599491782e-05
2.20604976636e-05
2.20612023031e-05
2.20621890312e-05
2.20634301768e-05
2.20649513376e-05
2.20667552062e-05
2.20688425093e-05
2.20715647381e-05
2.20750315729e-05
2.20791570878e-05
2.20843788072e-05
2.20906399494e-05
)
;
    }
    front
    {
        type            calculated;
        value           nonuniform List<scalar> 
167
(
2.21370961071e-05
2.20729659156e-05
2.20653875829e-05
2.2063771651e-05
2.20639097317e-05
2.20651975109e-05
2.20669144978e-05
2.20684587948e-05
2.20697362021e-05
2.19543518276e-05
2.19355733011e-05
2.1932357378e-05
2.19316696949e-05
2.19321910043e-05
2.19334652938e-05
2.19349372745e-05
2.20604454048e-05
2.19313619545e-05
2.19100437474e-05
2.19059251759e-05
2.19045402641e-05
2.1904090642e-05
2.19043575081e-05
2.19050191113e-05
2.20589369628e-05
2.19272654437e-05
2.19052723967e-05
2.19010295146e-05
2.18997021529e-05
2.18993567421e-05
2.1899587892e-05
2.19002683394e-05
2.19012637497e-05
2.20593532624e-05
2.1926351371e-05
2.19039782564e-05
2.18996411437e-05
2.18983901436e-05
2.189817045e-05
2.18984052744e-05
2.18989964807e-05
2.18999791722e-05
2.19015726558e-05
2.20599491782e-05
2.19263545475e-05
2.19037532276e-05
2.18992687441e-05
2.18980050263e-05
2.18978828676e-05
2.18981664164e-05
2.18986862897e-05
2.18994932705e-05
2.19004758366e-05
2.20604976636e-05
2.19267904433e-05
2.19040916032e-05
2.18995019402e-05
2.18982231119e-05
2.1898073295e-05
2.1898435165e-05
2.18989375744e-05
2.18996026105e-05
2.19002826627e-05
2.20612023031e-05
2.19273910537e-05
2.19046702981e-05
2.19000223337e-05
2.18987404092e-05
2.18986237367e-05
2.18989584235e-05
2.18994808002e-05
2.19001030673e-05
2.19004594425e-05
2.20621890312e-05
2.19280301095e-05
2.19054553099e-05
2.1900758774e-05
2.18994489651e-05
2.1899313969e-05
2.18996387352e-05
2.1900270258e-05
2.19009779411e-05
2.19010966118e-05
2.20634301768e-05
2.19289418246e-05
2.1906453691e-05
2.19016033143e-05
2.1900275677e-05
2.19000557606e-05
2.19003589511e-05
2.19009639263e-05
2.19017933708e-05
2.19019700033e-05
2.20649513376e-05
2.19303848835e-05
2.19075121531e-05
2.19025815689e-05
2.19011903026e-05
2.19008494945e-05
2.19010496801e-05
2.19016271145e-05
2.19021922672e-05
2.19021165826e-05
2.20667552062e-05
2.19320652589e-05
2.19087235331e-05
2.19037279878e-05
2.19021385084e-05
2.19018923084e-05
2.19020167587e-05
2.19020958375e-05
2.19019540653e-05
2.19017132116e-05
2.20688425093e-05
2.19337380429e-05
2.19101733493e-05
2.1905079568e-05
2.19033634381e-05
2.19029250823e-05
2.19027615925e-05
2.19024002408e-05
2.19022530212e-05
2.19021699598e-05
2.20715647381e-05
2.19355864117e-05
2.19120298498e-05
2.19066889616e-05
2.19046761621e-05
2.19035950733e-05
2.19031559598e-05
2.19027326559e-05
2.19024260592e-05
2.19019881492e-05
2.20750315729e-05
2.19382458813e-05
2.19144516382e-05
2.19083419858e-05
2.19056786892e-05
2.19040706688e-05
2.19031910518e-05
2.19023599979e-05
2.19008109276e-05
2.18992883617e-05
2.20791570878e-05
2.19420839288e-05
2.19173635593e-05
2.19103589533e-05
2.19067216561e-05
2.19043117416e-05
2.19022638196e-05
2.19006217954e-05
2.18992870232e-05
2.18976010091e-05
2.20843788072e-05
2.19466619828e-05
2.19208647999e-05
2.1913782741e-05
2.19096873032e-05
2.19065067808e-05
2.19033055126e-05
2.20906399494e-05
2.19516972821e-05
2.19247518178e-05
2.19170900261e-05
2.19129327507e-05
2.19294897551e-05
2.19198003172e-05
)
;
    }
    atmosphere
    {
        type            calculated;
        value           nonuniform List<scalar> 0();
    }
    floatingObject
    {
        type            calculated;
        value           nonuniform List<scalar> 0();
    }
    procBoundary2to0
    {
        type            processor;
        value           nonuniform List<scalar> 
14
(
2.19011518096e-05
2.18993518851e-05
2.18961586287e-05
2.19097818836e-05
2.19011518096e-05
2.19073765851e-05
2.21013075814e-05
2.19586890605e-05
2.19097818836e-05
2.19150570767e-05
2.19586890605e-05
2.19337912524e-05
2.19150570767e-05
2.19204572798e-05
)
;
    }
    procBoundary2to1
    {
        type            processor;
        value           nonuniform List<scalar> 
18
(
2.20698850494e-05
2.19363340063e-05
2.19054796568e-05
2.19054796568e-05
2.19028936782e-05
2.19028936782e-05
2.19027224161e-05
2.19009815107e-05
2.18992317205e-05
2.18992594035e-05
2.18996145624e-05
2.19006448235e-05
2.19009670186e-05
2.19008749145e-05
2.19011676966e-05
2.19007058541e-05
2.18982911559e-05
2.18950675428e-05
)
;
    }
}


// ************************************************************************* //
