/*--------------------------------*- C++ -*----------------------------------*\
| =========                 |                                                 |
| \\      /  F ield         | OpenFOAM: The Open Source CFD Toolbox           |
|  \\    /   O peration     | Version:  v2012                                 |
|   \\  /    A nd           | Website:  www.openfoam.com                      |
|    \\/     M anipulation  |                                                 |
\*---------------------------------------------------------------------------*/
FoamFile
{
    version     2.0;
    format      ascii;
    class       volScalarField;
    location    "1.4";
    object      k_0;
}
// * * * * * * * * * * * * * * * * * * * * * * * * * * * * * * * * * * * * * //

dimensions      [0 2 -2 0 0 0 0];


internalField   nonuniform List<scalar> 
1984
(
0.00830394236089
0.00952243440108
0.00983382987815
0.00993124535693
0.00998316576748
0.0100274357388
0.0100711618284
0.0101155533719
0.0101610305036
0.0102088277524
0.0102647588537
0.0103527206053
0.0105554172736
0.0111068628725
0.0125330484163
0.015765829431
0.0221954322804
0.0338491458131
0.0529457663156
0.0794101009416
0.00956183408122
0.0115396268863
0.0120308925949
0.012175440838
0.012236252951
0.0122802905889
0.0123217978895
0.0123633841913
0.0124058059352
0.0124510680103
0.0125081425351
0.0126118774836
0.0128757267565
0.0135994589539
0.0153945715896
0.0191486116152
0.0256699477504
0.0354599149875
0.0500752524612
0.077521738103
0.00995929020647
0.0121621870245
0.0127208343537
0.0128821752439
0.0129455704472
0.0129896126041
0.0130312388282
0.0130734381502
0.0131169669941
0.0131638936427
0.01322376548
0.0133330091043
0.0136078381043
0.0143499132846
0.0161673393659
0.0199483960162
0.0265812897861
0.0368433874924
0.0524058843507
0.0790512608681
0.0101044876891
0.0123875943048
0.0129714455799
0.0131379536968
0.0132007882545
0.0132435544021
0.0132843740448
0.0133263641737
0.0133701860524
0.0134178381088
0.0134787360858
0.013588997235
0.013863331875
0.0145988817979
0.0163959775782
0.0201445962479
0.0267773906158
0.0371717463607
0.0530893306247
0.0795336729554
0.0101708201777
0.0124808144964
0.0130728303268
0.013239618988
0.0133004311894
0.013341057626
0.0133801772758
0.0134209651911
0.0134640265754
0.0135112283754
0.0135716664775
0.0136805433487
0.0139499897778
0.0146714917763
0.0164378431672
0.020139378946
0.026732267118
0.0371354914849
0.0531026939885
0.0795355296739
0.0102134556246
0.0125321560822
0.0131263856455
0.0132918431595
0.0133502005489
0.0133883553502
0.0134253197117
0.0134643168069
0.0135059222492
0.0135518959534
0.0136109604898
0.0137171346083
0.0139794314135
0.0146829173001
0.0164121739178
0.0200563365883
0.0265873258814
0.0369476361783
0.0529055977854
0.0794345936333
0.0102490458701
0.0125708848267
0.0131656892249
0.0133295853857
0.0133855691292
0.0134212676913
0.0134559619768
0.0134929455218
0.0135327841468
0.0135771337859
0.0136343159804
0.0137370344548
0.0139907972815
0.0146734858205
0.0163602180858
0.0199367241881
0.0263864132785
0.0366730910876
0.0525965801145
0.07928926215
0.0102822754784
0.012605848997
0.0132010472954
0.0133636219155
0.0134175075885
0.0134509324647
0.0134834296436
0.0135183807499
0.013556360003
0.0135989279495
0.0136539818963
0.0137528002438
0.0139970324755
0.0146565795414
0.0162956397901
0.0197941782589
0.0261443189981
0.0363349383321
0.0522169082232
0.0791241316306
0.0103143381458
0.0126395056235
0.0132353309192
0.0133969304312
0.0134490342923
0.0134804254854
0.0135108833524
0.0135438867164
0.0135800307081
0.0136207869808
0.013673609505
0.0137682455975
0.0140021371484
0.0146363456245
0.01622250319
0.0196323873493
0.0258645878353
0.0359341784471
0.051758740536
0.0789292753467
0.010345467865
0.0126724372198
0.0132692018866
0.0134301605023
0.0134807808948
0.013510383672
0.0135389897162
0.0135701774546
0.0136045693392
0.0136435511361
0.0136941166447
0.0137843827446
0.014007239576
0.0146139995818
0.0161419549303
0.0194523215466
0.0255474089727
0.0354648041659
0.0511945913333
0.0786854426369
0.0103756520707
0.0127047113679
0.0133027148435
0.0134633260395
0.0135127270935
0.0135407712211
0.0135677164907
0.0135972393571
0.0136299910656
0.0136672729455
0.01371560338
0.0138013862371
0.0140126564961
0.0145901464088
0.0160551293112
0.0192558378744
0.0251950730074
0.0349275000141
0.0505224898561
0.0783982469959
0.0104048218402
0.0127362668339
0.0133357775742
0.013496293881
0.0135447049623
0.0135713983594
0.0135968660646
0.0136248789001
0.0136561161703
0.0136917931687
0.0137379434009
0.0138191888578
0.0140184404595
0.0145650387276
0.0159625024688
0.0190438688248
0.0248123813894
0.0343483645891
0.049827209812
0.0781427140998
0.0104328984078
0.0127670160014
0.0133682732791
0.0135289130406
0.0135765330541
0.0136020615408
0.0136262226191
0.0136528775603
0.0136827305383
0.0137169107066
0.0137609594395
0.0138376715361
0.0140246212062
0.0145390573343
0.0158651308088
0.018818187471
0.0243978667846
0.0336956226532
0.0489850157848
0.0778171212171
0.0104598024435
0.0127968688529
0.0134000884188
0.013561043028
0.0136080457126
0.0136325751131
0.0136555877404
0.0136810313907
0.0137096309957
0.0137424276934
0.0137844736044
0.0138567101003
0.0140312277465
0.0145126063254
0.0157641496739
0.0185810636559
0.0239551015238
0.0329601059857
0.0478866340066
0.077315035277
0.0104854546158
0.0128257368849
0.0134311163962
0.0135925565707
0.0136390959495
0.0136627765723
0.0136847892848
0.0137091612322
0.0137366336634
0.0137681671698
0.0138083200124
0.0138761900187
0.0140382849562
0.0144860373036
0.015660478993
0.0183344363528
0.023489917197
0.0321479819201
0.0463187129341
0.0760824519513
0.0105097748803
0.0128535326859
0.0134612563661
0.0136233380529
0.0136695558321
0.0136925277059
0.0137136796793
0.0137371160771
0.013763590209
0.0137939757086
0.0138323732092
0.0138960265746
0.0140458546934
0.014459766778
0.0155551927017
0.0180803127009
0.0230093261839
0.0312810760704
0.0435874260285
0.0642114146065
0.0105326826226
0.012880170916
0.0134904126425
0.0136532837149
0.0136993129135
0.013721705262
0.0137421221058
0.0137647686889
0.0137903538842
0.0138197279384
0.0138564961274
0.0139161391667
0.0140539976419
0.014434270268
0.0154495678321
0.0178206233998
0.0225205771269
0.0305727982973
0.0430026962247
0.0649863014144
0.0105540957096
0.0129055652584
0.0135184960513
0.0136822949098
0.0137282499546
0.0137501758742
0.0137699465234
0.0137918276931
0.0138166552849
0.013845123388
0.0138804143868
0.0139362873291
0.0140626273892
0.0144099134554
0.0153450942219
0.0175583368845
0.0220145670966
0.0298895344845
0.0433654137872
0.0715723192097
0.0105739268735
0.0129296336961
0.013545414118
0.0137102542875
0.0137562450501
0.0137777330639
0.0137969766084
0.0138182816005
0.013842467918
0.0138701530789
0.0139041164162
0.0139564826581
0.0140718723997
0.0143872359579
0.0152434763739
0.0172981242306
0.0214977474859
0.0290952711987
0.0432225042226
0.0755985416459
0.0105920417364
0.0129522300409
0.013571051073
0.0137370618913
0.0137831269153
0.0138043521632
0.0138231885228
0.0138440339858
0.0138676985953
0.0138947301002
0.0139275278457
0.0139766810998
0.0140817879729
0.0143666126001
0.0151459003555
0.0170426754272
0.0209798529884
0.0282271891072
0.042041850018
0.075265933663
0.0106083464205
0.0129732525372
0.0135952426947
0.0137625577434
0.0138088641359
0.0138299352015
0.0138484777686
0.0138689777589
0.0138922439441
0.0139187567603
0.0139505619264
0.0139968205812
0.0140923915838
0.0143483306869
0.0150533968477
0.0167944475782
0.0204669258877
0.0273460162288
0.0407488409002
0.0748590052766
0.0106227273056
0.0129926073461
0.0136179401586
0.0137866941449
0.0138333534936
0.0138543730088
0.0138727342873
0.0138930077513
0.0139160051409
0.0139421422906
0.0139731392411
0.0140168421221
0.0141036850943
0.0143326172545
0.0149669156922
0.0165562882664
0.0199654265463
0.0264729221475
0.0395136951279
0.074521749904
0.0106350500275
0.0130101670856
0.0136390250735
0.0138093573012
0.0138564791038
0.0138775525541
0.0138958497428
0.013916024474
0.0139388927629
0.0139648091489
0.013995196706
0.0140367016359
0.0141156680434
0.0143196318854
0.0148871568608
0.0163308716996
0.0194818240788
0.0256205179736
0.0383432207348
0.0742493091321
0.010645170346
0.013025785941
0.0136583599096
0.0138304203423
0.0138781201827
0.013899360629
0.0139177193947
0.0139379350838
0.013960828086
0.0139866945511
0.0140166905208
0.0140563762975
0.0141283524272
0.0143095164486
0.0148147104981
0.0161204156079
0.0190225545552
0.0248009263451
0.0372451805749
0.0740254383599
0.0106529441217
0.0130392903226
0.013675789362
0.0138497469699
0.0138981505143
0.0139196813408
0.0139382390469
0.0139586505743
0.0139817413197
0.0140077471064
0.014037593526
0.0140758638709
0.0141417660665
0.0143024242307
0.0147502935994
0.0159265331578
0.0185955852653
0.0240284119032
0.0361992622634
0.0735584824245
0.0106582292424
0.013050408369
0.013691111466
0.0138671760031
0.0139164272733
0.0139383861227
0.0139572937991
0.0139780750844
0.014001560503
0.0140279160086
0.0140578824611
0.0140951693074
0.0141559298063
0.0142984310416
0.0146948632594
0.0157525288561
0.0182144367228
0.0232963764344
0.0346960741022
0.0713991555364
0.0106613001318
0.0130583387085
0.0137037967914
0.0138823612065
0.0139326987016
0.0139552564753
0.0139746818697
0.0139960115024
0.0140201012368
0.0140470517356
0.0140774452075
0.0141142327862
0.0141709010452
0.0142979912399
0.0146507628882
0.0156086527743
0.0178867003655
0.0226517493661
0.0334001738907
0.0692862966732
0.0106639998942
0.0130624833775
0.0137130901986
0.0138948483051
0.0139467487708
0.0139701764988
0.0139903267264
0.014012419627
0.0140373569331
0.0140651816399
0.014096343702
0.0141332200963
0.0141870824942
0.0143019381989
0.0146180982327
0.0154907350333
0.0176156822917
0.0222336661993
0.0336421458756
0.0707184726313
0.0106656617252
0.0130628251118
0.0137187836955
0.0139044216408
0.0139583684174
0.013982965368
0.0140040656941
0.0140271445641
0.0140531509647
0.0140821659856
0.0141144953372
0.0141520507382
0.0142042993782
0.0143095534337
0.01459465333
0.0153935447583
0.0174044649691
0.0221355036525
0.0354406327919
0.0738684578599
0.0106652395125
0.0130593791841
0.0137208128504
0.0139108996239
0.0139673395664
0.0139934080372
0.014015706791
0.0140400183981
0.0140673745704
0.0140978972263
0.0141317828061
0.0141705778345
0.0142222453764
0.0143199930277
0.0145779779904
0.0153112401551
0.0172333324808
0.022167601321
0.0371596377185
0.0758148197006
0.010662165225
0.013051865226
0.013718962115
0.0139140373796
0.0139734032049
0.0140012545708
0.0140250213816
0.0140508421127
0.0140798507827
0.0141121971697
0.0141480326841
0.0141886085868
0.0142406022123
0.0143325115505
0.0145665516452
0.015241495897
0.0171062371177
0.0223066581155
0.0385169498988
0.0769441850415
0.0106560240836
0.0130399836713
0.0137129038951
0.013913505757
0.0139762525536
0.0140062215364
0.0140317432699
0.014059365271
0.0140903496575
0.0141248747413
0.0141630510396
0.0142058879451
0.0142589636153
0.0143463695699
0.0145570355211
0.0151673848619
0.0169686752284
0.0226614813749
0.0409879869813
0.0791932163761
0.0106464145291
0.0130233920436
0.0137022739705
0.0139089369038
0.0139755454486
0.0140079978249
0.0140355861195
0.0140653183775
0.0140986080227
0.0141356618443
0.0141765695441
0.0142221496247
0.0142770296647
0.0143612624508
0.0145494976753
0.0150821204974
0.0167466867339
0.0227837662458
0.0437677314908
0.0826946829581
0.0106329355658
0.0130017151549
0.0136866619026
0.0138999212242
0.0139709023759
0.0140062393975
0.014036236821
0.0140684144089
0.0141043580186
0.0141443013549
0.0141883059434
0.0142370074863
0.0142942518298
0.0143768684144
0.0145472245181
0.0150025876692
0.0163756304817
0.0216172474189
0.0450444031637
0.0872281574391
0.0106151836052
0.0129745695526
0.0136656361371
0.013886015191
0.01396190772
0.0140005700051
0.0140333567556
0.0140683494598
0.014107326777
0.0141505467366
0.0141980263052
0.0142502019139
0.0143101718677
0.0143918068503
0.0145474085661
0.0149450392724
0.0161507132821
0.0210707092335
0.0451481486247
0.0907759955402
0.0105927478581
0.0129415758955
0.0136387506252
0.0138667478561
0.0139481124561
0.0139905829195
0.014026584688
0.0140648072904
0.0141072437291
0.0141541769691
0.0142055609313
0.0142616163128
0.0143247152305
0.0144059247919
0.0145479387979
0.0148925711603
0.0159410243415
0.0203446814783
0.0414570977651
0.0815742972472
0.0105652112732
0.0129023654879
0.0136055647752
0.0138416320206
0.0139290403105
0.0139758428541
0.0140155362484
0.0140574586588
0.014103842856
0.0141550010755
0.0142108115638
0.0142712831534
0.014338146762
0.0144201562998
0.0145528454841
0.0148717874837
0.0161340213541
0.0242847296968
0.0492959192961
0.0924531932283
0.0105321650309
0.0128566277359
0.0135656804066
0.0138101926933
0.0139042021091
0.0139558911953
0.0139998048572
0.0140459632822
0.0140968648886
0.0141528550898
0.0142137279122
0.0142793036719
0.0143508439368
0.0144355236325
0.0145634791266
0.0148525230792
0.0158940073292
0.0221267154371
0.0540192885072
0.0928446100061
0.0104932425573
0.0128041764316
0.0135187966288
0.0137720036858
0.013873119496
0.0139302596506
0.0139789698309
0.0140299739481
0.0140860563787
0.0141475949235
0.0142142780076
0.0142857234498
0.0143627294882
0.0144509202266
0.0145748557191
0.0148297905171
0.015673118427
0.0203501450495
0.0461077432191
0.0931029255263
0.010448166328
0.0127450045934
0.0134647732677
0.013726744191
0.0138353643505
0.0138984963697
0.0139526146748
0.014009147622
0.0140711804054
0.0141391185269
0.0142124824467
0.0142906324056
0.0143737256489
0.0144654329012
0.0145839495974
0.0148027724212
0.0154905106007
0.019265844084
0.0400272580724
0.0813187607616
0.0103967947075
0.0126793406043
0.0134037069919
0.0136742736964
0.0137906256605
0.0138602137402
0.0139203519532
0.0139831676859
0.0140520589101
0.0141274048554
0.0142085343611
0.0142944183434
0.0143845425696
0.0144806701001
0.0145965972905
0.0148068578172
0.0156968539054
0.0221502558065
0.0473411991289
0.0910322195559
0.0103392062616
0.0126077667512
0.0133360578223
0.0136147525391
0.0137388032963
0.0138151509089
0.0138818712876
0.0139518019665
0.0140285898481
0.0141125892941
0.0142027544874
0.0142977658811
0.0143968070308
0.0145010608829
0.0146214134639
0.0148263663071
0.0156498383
0.0214099121224
0.0479188638667
0.0885304268072
0.0102758451589
0.0125314317782
0.0132628414211
0.013548807434
0.0136801296043
0.0137632874989
0.0138370119327
0.0139148098396
0.0140007902227
0.0140949057617
0.0141956110201
0.0143013264277
0.0144113255903
0.0145266656884
0.0146562043309
0.0148553520939
0.0155507820699
0.0202043425578
0.0436233937993
0.0853873270203
0.0102076501559
0.0124522596121
0.0131858155409
0.0134776539915
0.0136152813535
0.0137047749138
0.0137856875102
0.0138721437596
0.0139687331124
0.0140745606811
0.0141872131377
0.0143048469634
0.0144270323455
0.0145545166069
0.0146949380667
0.0148908805693
0.0155025919531
0.0195604890017
0.0432599103968
0.0864894747382
0.0101363157989
0.0123732366862
0.0131078172297
0.0134035039506
0.0135456315325
0.013640227776
0.0137273369544
0.013821655994
0.0139291762395
0.01404752806
0.0141730511768
0.0143038001294
0.0144394092881
0.0145797727714
0.0147317720461
0.0149289296153
0.0154814383754
0.0190620408477
0.0418924152145
0.0899522744594
0.0100642749856
0.0122983003838
0.0130326623488
0.0133294997305
0.0134731535746
0.0135691301124
0.0136556276839
0.0137440720863
0.0138519915157
0.0139762889053
0.0141129193254
0.0142601614879
0.0144171001791
0.0145798390356
0.0147502269893
0.0149554680759
0.0154347923892
0.0184631037455
0.0408219378599
0.0937961564442
0.00999468237827
0.0122320266232
0.0129649219337
0.0132595314592
0.0133994392017
0.0134852999342
0.0135362932456
0.013515553412
0.0135619228073
0.0136531071366
0.013789745457
0.0139682536079
0.0141941015311
0.0144366381535
0.0146688632207
0.0149101015329
0.0153121127238
0.0173316671568
0.0316360935873
0.0779385396716
0.00993111609269
0.0121785635928
0.0129090639903
0.0131975873257
0.0133247207326
0.0133711425559
0.0132659790411
0.0127372687607
0.0120154154171
0.0118370123826
0.0119375832341
0.0122431123877
0.0131518855354
0.0138187937934
0.0142885648431
0.0146571709822
0.0150697086047
0.0166664033373
0.030130130421
0.0860306885191
0.00987784959077
0.0121413180243
0.0128694664602
0.013147742845
0.013248753199
0.0132188613263
0.0128576465048
0.0110544930158
0.0121214814288
0.0132539988
0.0138874760933
0.0143601913954
0.0148777578034
0.01674630487
0.0326898364836
0.096523686478
0.0098416980306
0.0121188398931
0.0128483327092
0.0131229704725
0.0132120691906
0.0131428491505
0.0126646494071
0.010511115624
0.0110478934438
0.0130119923903
0.0136731603418
0.0141400662272
0.014668399333
0.0162449067546
0.0260248072521
0.0775656951036
0.00984170337214
0.0121188452921
0.0128483355367
0.0131229698698
0.0132120655204
0.0131428435483
0.012664644522
0.0105111153391
0.011047994999
0.013012193262
0.0136735144348
0.0141404324454
0.0146688132111
0.0162453022297
0.0260247244955
0.0775661158134
0.00987786255238
0.0121413327107
0.012869475354
0.0131477443033
0.0132487468209
0.0132188510461
0.0128576375808
0.0110544967213
0.0121217060213
0.0132543655057
0.013888133064
0.0143608781276
0.0148784582819
0.0167469412245
0.0326902867814
0.096524147211
0.00993113601837
0.0121785875384
0.0129090815246
0.0131975950615
0.0133247179566
0.0133711311226
0.0132659704614
0.0127372740618
0.0120154333091
0.0118370594877
0.0119376788532
0.0122432851322
0.013152186022
0.0138192873751
0.0142894728508
0.0146581322774
0.0150706731736
0.0166672579088
0.0301310540793
0.0860315094694
0.00999469166207
0.0122320424715
0.0129649347232
0.0132595410091
0.0133994467713
0.0134853083259
0.0135363086467
0.0135155881951
0.0135619855919
0.0136532075885
0.0137898991151
0.0139684704172
0.0141944040701
0.014437122135
0.0146698137852
0.0149111619915
0.0153132349872
0.0173329101092
0.0316384728275
0.0779396035183
0.0100642848943
0.0122983168574
0.0130326793241
0.0133295164598
0.0134731709298
0.0135691562373
0.0136556693106
0.0137441373854
0.0138520920408
0.0139764332941
0.0141131186659
0.0142604301805
0.014417459268
0.0145803836821
0.0147512430247
0.0149565717728
0.0154359275404
0.0184642676218
0.0408240824633
0.0937961207336
0.010136330823
0.0123732555919
0.0131078389176
0.013403524394
0.0135456463184
0.0136402615185
0.0137273970916
0.0138217487994
0.013929309426
0.0140477088464
0.0141732874749
0.014304104847
0.014439805316
0.0145803545438
0.0147328079924
0.0149300126226
0.0154824835898
0.0190629536037
0.0418933344707
0.0899523446918
0.0102076718078
0.0124522843726
0.0131858426017
0.0134776700197
0.0136152669927
0.0137047972998
0.0137857508491
0.0138722505926
0.0139688869196
0.014074764114
0.0141874709012
0.014305172144
0.0144274474912
0.0145551139877
0.014695964843
0.0148919163065
0.0155035476771
0.0195612367461
0.0432607192273
0.0864896336796
0.0102758720638
0.0125314666504
0.0132628760227
0.0135488317695
0.0136801431675
0.0137632928649
0.0138370670548
0.0139149187642
0.0140009535868
0.0140951174681
0.0141958751011
0.0143016641321
0.014411760617
0.0145272843599
0.0146572311686
0.0148563589819
0.0155517084066
0.0202049959225
0.0436242769869
0.0853874885976
0.0103392723085
0.0126078573413
0.0133361514549
0.013614847251
0.0137388938376
0.0138152480304
0.0138819882016
0.0139519151862
0.0140287665398
0.0141128096506
0.0142030281372
0.0142981326525
0.014397287317
0.014501729486
0.0146224734118
0.0148273834397
0.0156507637398
0.0214105464094
0.0479196177584
0.0885305409015
0.0103968962507
0.0126794854354
0.0134038573717
0.0136744252758
0.0137907804698
0.0138603755946
0.0139205293346
0.0139833698577
0.0140523042762
0.0141276943889
0.0142088585191
0.0142948414518
0.0143850785863
0.0144813960512
0.0145976982965
0.0148079023817
0.0156977790131
0.0221507810561
0.0473416311236
0.0910322247083
0.0104483017544
0.0127451977076
0.0134649761582
0.0137269479708
0.013835572705
0.0138987143311
0.0139528497458
0.0140094120015
0.0140714951077
0.0141394574497
0.0142128609662
0.0142911118365
0.0143743183003
0.0144662099948
0.0145850931087
0.0148038401682
0.0154914379024
0.019266276234
0.0400273200431
0.0813185986702
0.0104934106049
0.0128044190223
0.0135190523262
0.0137722611062
0.0138733803781
0.0139305305197
0.013979260585
0.0140302985229
0.0140864405754
0.0141479841966
0.0142146929801
0.0142862572595
0.0143633656707
0.0144517360887
0.0145760129225
0.0148308446831
0.0156740250695
0.0203506682982
0.0461081924965
0.0931029023424
0.0105323565098
0.0128569047097
0.0135659734943
0.0138104887371
0.0139045017861
0.0139562004636
0.0140001338055
0.0140463309656
0.0140973014571
0.0141532875905
0.0142141894371
0.0142799076189
0.0143515290307
0.0144363850632
0.0145646465327
0.0148535594648
0.0158949199543
0.0221272560743
0.0540196931107
0.0928446490287
0.010565412678
0.0129026560237
0.0136058737569
0.0138419450999
0.01392935739
0.0139761691233
0.0140158805565
0.0140578394821
0.014104294143
0.0141554520861
0.0142113046976
0.0142719335545
0.0143388722882
0.0144210711187
0.0145540234709
0.0148728173167
0.0161349647256
0.0242851273451
0.0492958723689
0.09245316575
0.0105929427453
0.0129418553919
0.0136390511948
0.0138670560008
0.0139484276768
0.0139909087929
0.0140269270559
0.0140651757538
0.0141076602156
0.0141546201637
0.0142060539052
0.0142622649164
0.0143254457684
0.0144068544252
0.0145491063823
0.0148935855121
0.0159419702981
0.0203450767002
0.0414560801858
0.0815734134774
0.0106153831445
0.0129748541653
0.0136659446888
0.0138863343807
0.0139622367221
0.0140009114622
0.0140337142365
0.0140687257634
0.0141077246138
0.0141509687446
0.0141984884907
0.014250787909
0.0143108657051
0.0143926994579
0.0145485133144
0.0149460139967
0.0161516453723
0.0210711621594
0.0451472016342
0.0907754323812
0.0106331394661
0.0130020051873
0.0136869784543
0.0139002506791
0.0139712437175
0.0140065949615
0.0140366094075
0.0140688056648
0.0141047680553
0.0141447334691
0.0141887697734
0.0142375517977
0.0142948882753
0.0143776705156
0.0145482503706
0.0150035242726
0.0163765589283
0.0216177315948
0.0450435556182
0.0872278423653
0.0106466216703
0.013023686529
0.0137025965276
0.0139092738128
0.0139758956211
0.0140083635288
0.0140359699197
0.0140657217494
0.0140990309499
0.014136107375
0.0141770467224
0.0142226946696
0.0142776514082
0.0143620117069
0.0145504732155
0.0150830385227
0.0167475992976
0.0227841888786
0.0437672422268
0.0826946286621
0.0106562335579
0.0130402816005
0.0137132306103
0.0139138476483
0.01397660863
0.0140065940432
0.0140321345494
0.014059776473
0.0140907809162
0.0141253303411
0.014163540836
0.0142064408371
0.0142595877457
0.0143471110501
0.0145579853043
0.0151683030358
0.0169696015481
0.0226620932273
0.0409883863296
0.0791932941876
0.0106623763431
0.013052165993
0.0137192918126
0.0139143826788
0.0139737633231
0.0140016317713
0.0140254175248
0.0140512573198
0.0140802847656
0.0141126584124
0.0141485331003
0.0141891714539
0.0142412337815
0.0143332533916
0.0145674820355
0.0152424282598
0.0171072517733
0.02230765167
0.0385177016313
0.076944318634
0.0106654517833
0.0130596821002
0.0137211448971
0.0139112476887
0.0139677030446
0.013993789172
0.0140161065957
0.0140404347651
0.0140678052687
0.0140983599083
0.0141322932056
0.0141711527543
0.014222886693
0.0143207345982
0.0145788852207
0.0153121904338
0.0172344018982
0.0221686455529
0.037160305952
0.0758149599914
0.0106658747943
0.0130631297505
0.0137191179602
0.0139047725841
0.0139587355653
0.0139833509471
0.0140044694729
0.0140275608935
0.0140535734547
0.0140826281561
0.0141150176858
0.0141526404575
0.0142049530545
0.0143102922845
0.0145955233012
0.0153944896673
0.0174055413725
0.022136466199
0.0354413392561
0.0738686068481
0.0106642127859
0.0130627889677
0.0137134265302
0.01389520244
0.0139471203197
0.013970567766
0.0139907363496
0.0140128379817
0.0140377716128
0.0140656485113
0.0140968835931
0.0141338285493
0.0141877504987
0.0143026728868
0.014618918317
0.0154916400163
0.0176167165557
0.0222345851125
0.0336427824856
0.0707185975195
0.0106615106866
0.013058643999
0.0137041342411
0.0138827178519
0.013933074255
0.0139556535687
0.0139751019225
0.0139964491339
0.0140205550787
0.0140475637722
0.0140780143729
0.0141148608482
0.0141715834982
0.0142987243193
0.0146515395765
0.0156094843146
0.017887641081
0.0226526359102
0.0334007069452
0.0692863592651
0.0106584300073
0.0130507003246
0.0136914349865
0.0138675194523
0.0139167909025
0.0139387729271
0.0139577066294
0.0139785132075
0.014002024196
0.0140284395114
0.0140584609259
0.0140958035463
0.0141566171403
0.0142991601386
0.0146956140626
0.0157532976979
0.0182152672882
0.0232971876071
0.034696537996
0.0713992189181
0.0106531514699
0.0130395902199
0.013676122182
0.0138501021981
0.0138985290067
0.0139200864735
0.0139386746735
0.0139591202213
0.0139822491914
0.014008307156
0.0140382074476
0.0140765338481
0.0141424875484
0.0143031797862
0.0147510553825
0.0159272911471
0.0185963694809
0.0240291559278
0.0361997157771
0.0735585616256
0.0106453665132
0.0130260672097
0.0136586723777
0.0138307558967
0.0138784805571
0.0138997490958
0.0139181400076
0.0139383926846
0.0139613280026
0.0139872439218
0.0140172938717
0.0140570351415
0.0141290589188
0.0143102467398
0.0148154281517
0.0161211044416
0.0190232475057
0.0248015819158
0.0372456708805
0.0740255696478
0.0106352387969
0.0130104373604
0.0136393248451
0.0138096818073
0.0138568316853
0.0138779360138
0.0138962672674
0.0139164812649
0.0139393942614
0.0139653612791
0.0139958042632
0.0140373646671
0.0141163743935
0.0143203514495
0.014887845651
0.0163315117486
0.0194824552416
0.0256211021954
0.0383436352005
0.0742494422601
0.0106229046555
0.0129928607683
0.0136182187452
0.0137869998481
0.0138336924884
0.0138547475779
0.0138731452067
0.0138934604187
0.0139165044508
0.0139426940783
0.0139737483792
0.0140175067299
0.0141043868764
0.0143333202638
0.0149675699447
0.0165568758488
0.0199659952701
0.0264734392518
0.0395140447202
0.0745218683224
0.0106085085606
0.0129734831379
0.0135954903198
0.0137628360334
0.0138091819597
0.0138302963728
0.0138488783181
0.0138694239237
0.0138927388576
0.013919306202
0.0139511718759
0.0139974868504
0.0140930858437
0.0143490123613
0.0150540126056
0.0167949812192
0.0204674332818
0.0273464753352
0.0407491786353
0.0748591363325
0.0105921869417
0.0129524369906
0.0135712653109
0.0137373112763
0.0137834158623
0.0138046942805
0.0138235732542
0.0138444709306
0.013868186779
0.013895275113
0.0139281393162
0.0139773523233
0.014082472727
0.0143672684924
0.0151464757146
0.0170431587816
0.0209803100853
0.0282276082764
0.0420421203244
0.0752660698533
0.0105740634386
0.0129298439086
0.0135456592637
0.0137105385336
0.0137565034935
0.0137780491363
0.0137973351051
0.0138187019057
0.0138429420644
0.0138706867369
0.0139047261076
0.0139571632764
0.0140725440884
0.0143878589729
0.0152440079794
0.0172985625305
0.0214981764059
0.0290956897231
0.0432226934309
0.0755986429858
0.010554248555
0.0129058143402
0.0135187741348
0.013682596565
0.0137285324117
0.0137504506871
0.0137702531105
0.0137922042618
0.0138170881233
0.0138456162887
0.0138810002187
0.0139369566993
0.0140632678759
0.0144104778839
0.0153455580439
0.0175587078228
0.022014950247
0.0298899552826
0.0433654461601
0.0715722400983
0.010532839927
0.0128804269132
0.0134906815175
0.0136535778372
0.0136995984184
0.0137219965124
0.0137424266823
0.0137650761915
0.0137907191848
0.013820152951
0.0138570246786
0.0139167692838
0.0140545813856
0.0144347492883
0.0154499268508
0.0178208659403
0.0225208012457
0.0305730160983
0.0430027192554
0.0649862265311
0.010509919887
0.0128537667537
0.0134614887697
0.0136235725123
0.0136698058061
0.0136927968686
0.0137139697373
0.0137374359776
0.0137639570902
0.0137944134323
0.0138329082233
0.0138966636425
0.0140464328063
0.014460227177
0.0155555176092
0.0180805276152
0.0230095326597
0.0312812315912
0.043587510683
0.0642113955469
0.0104855787727
0.0128259197368
0.0134313063717
0.0135927637476
0.0136393264462
0.013663033836
0.0136850760049
0.013709485339
0.0137370078757
0.0137686083341
0.0138088661228
0.01387680043
0.0140388299694
0.0144864734121
0.0156607750516
0.0183346194285
0.0234900947941
0.0321481156901
0.0463186905748
0.076082348527
0.0104599090725
0.0127970203484
0.0134002553593
0.0135612298371
0.0136082563032
0.0136328137225
0.0136558593479
0.0136813435347
0.0137099940751
0.0137428629697
0.0137849988153
0.0138572836012
0.0140317139864
0.0145129979939
0.0157643989945
0.0185812029942
0.0239552477529
0.0329602734694
0.0478866528297
0.0773149637431
0.0104329872197
0.0127671430865
0.0133684210403
0.0135290807972
0.013576723603
0.0136022792183
0.0136264735101
0.0136531720949
0.0136830809865
0.0137173302716
0.0137614493861
0.0138381736339
0.0140250598206
0.0145394031197
0.0158653349786
0.0188182865463
0.0243979812798
0.0336957773857
0.0489850990295
0.0778171051434
0.0104048932944
0.0127363770613
0.0133359079883
0.0134964430054
0.013544875378
0.0135715946428
0.0135970957953
0.0136251570569
0.0136564592399
0.0136922140253
0.0137383949364
0.0138196318003
0.0140188340817
0.0145653408606
0.0159626665515
0.0190439356275
0.0248124705164
0.0343485055767
0.0498273197693
0.0781427418249
0.0103757137715
0.0127048072213
0.0133028287725
0.0134634568323
0.0135128772646
0.0135409456425
0.013567924585
0.0135975001696
0.0136303294626
0.0136676707996
0.0137160105565
0.0138017649652
0.0140130040124
0.0145904056399
0.0160552567588
0.019255876738
0.0251951396374
0.03492762232
0.050522585276
0.0783982715787
0.0103455207291
0.0126725195904
0.0132692999977
0.0134302733572
0.0134809108363
0.0135105355544
0.0135391733154
0.013570412953
0.0136048719029
0.0136439065584
0.0136944475172
0.0137847120694
0.0140075422973
0.0146142177116
0.0161420502788
0.0194523388997
0.0255474589849
0.0354649158229
0.0511946999791
0.078685487135
0.010314382672
0.0126395752802
0.0132354139701
0.0133970259626
0.0134491443107
0.0134805541743
0.013511038554
0.0135440838897
0.0135802815088
0.0136210836975
0.0136739032917
0.0137685317204
0.0140023963078
0.0146365254004
0.0162225714594
0.0196323892503
0.0258646246686
0.0359342683741
0.0517588131231
0.0789292909614
0.0102823122651
0.0126059068224
0.0132011162241
0.0133637010379
0.0134175985054
0.0134510385318
0.0134835570903
0.0135185418113