/*--------------------------------*- C++ -*----------------------------------*\
| =========                 |                                                 |
| \\      /  F ield         | OpenFOAM: The Open Source CFD Toolbox           |
|  \\    /   O peration     | Version:  v2012                                 |
|   \\  /    A nd           | Website:  www.openfoam.com                      |
|    \\/     M anipulation  |                                                 |
\*---------------------------------------------------------------------------*/
FoamFile
{
    version     2.0;
    format      ascii;
    class       volScalarField;
    location    "1.4";
    object      rAU;
}
// * * * * * * * * * * * * * * * * * * * * * * * * * * * * * * * * * * * * * //

dimensions      [-1 3 1 0 0 0 0];


internalField   nonuniform List<scalar> 
1984
(
8.29969891804e-06
8.27352071641e-06
8.270432615e-06
8.27040615785e-06
8.27055044739e-06
8.27075311575e-06
8.27096579908e-06
8.27119293573e-06
8.27150679989e-06
8.27184732371e-06
8.27160518937e-06
8.27046564222e-06
8.26796970667e-06
8.26708062321e-06
8.2864420177e-06
8.2881724199e-06
8.83111449938e-06
3.48795244398e-05
0.00508233761842
0.0070826507493
8.27156458418e-06
8.22525511977e-06
8.21797211456e-06
8.21741916545e-06
8.21738289757e-06
8.21747496515e-06
8.21761567075e-06
8.21778554126e-06
8.21805018919e-06
8.21843008276e-06
8.2184754576e-06
8.21827280631e-06
8.21915531823e-06
8.22239622565e-06
8.2213598525e-06
8.15721995381e-06
8.6587802865e-06
3.2317620512e-05
0.00445206893603
0.00727767999981
8.26807622758e-06
8.21628005954e-06
8.20812013809e-06
8.20731691263e-06
8.20708248889e-06
8.20697661265e-06
8.2069247248e-06
8.2069015164e-06
8.20696287318e-06
8.20713875064e-06
8.20693756786e-06
8.20600823621e-06
8.20488757071e-06
8.20734389178e-06
8.21082514708e-06
8.14634832438e-06
8.62373129563e-06
3.22548632397e-05
0.00438121525876
0.00719891846441
8.26895717167e-06
8.21626544141e-06
8.20791106659e-06
8.20716178014e-06
8.20696276202e-06
8.20686279079e-06
8.20680017608e-06
8.20675927007e-06
8.20679915452e-06
8.20695036352e-06
8.20672109486e-06
8.20559242651e-06
8.20367429182e-06
8.20545389095e-06
8.21118784526e-06
8.15093874968e-06
8.61307358899e-06
3.17555433721e-05
0.00433156401527
0.00719330891061
8.26861737559e-06
8.2157288897e-06
8.20731274759e-06
8.20656093492e-06
8.20639924923e-06
8.20634702268e-06
8.20632919267e-06
8.20632967871e-06
8.20640394166e-06
8.20658598483e-06
8.20640004506e-06
8.20529105043e-06
8.20317339255e-06
8.20441104953e-06
8.21044390383e-06
8.15157243012e-06
8.58053985605e-06
3.09286213659e-05
0.00428365930337
0.00719495489516
8.26832823282e-06
8.21537048102e-06
8.20697138497e-06
8.2061949075e-06
8.20603241868e-06
8.20599189401e-06
8.20598599396e-06
8.20599576404e-06
8.20607140288e-06
8.20624573476e-06
8.2060711983e-06
8.20497567315e-06
8.20274757004e-06
8.20364017424e-06
8.21015311881e-06
8.15454140532e-06
8.54961697714e-06
2.99716668279e-05
0.00422998689247
0.00720936454057
8.26820265841e-06
8.21523081053e-06
8.20690932044e-06
8.20612290447e-06
8.20595683569e-06
8.20592253628e-06
8.2059250568e-06
8.20594274477e-06
8.20601929047e-06
8.20618647377e-06
8.20603258208e-06
8.20497562638e-06
8.20264843405e-06
8.20309538824e-06
8.20992723957e-06
8.15787551523e-06
8.51351029279e-06
2.88380521966e-05
0.00415879008278
0.00722148157665
8.26815237282e-06
8.21516360498e-06
8.20694572313e-06
8.20616216977e-06
8.20599713383e-06
8.20597060827e-06
8.20598320057e-06
8.20601179426e-06
8.20609336975e-06
8.20625862916e-06
8.20613656411e-06
8.20514415978e-06
8.20274360452e-06
8.2026174164e-06
8.20948116623e-06
8.16110969325e-06
8.47254593012e-06
2.75614136143e-05
0.00408022433341
0.00723118455302
8.2681136821e-06
8.2150899721e-06
8.20698336198e-06
8.20620620216e-06
8.2060435457e-06
8.20602462142e-06
8.20604677505e-06
8.20608640908e-06
8.20617410203e-06
8.206339098e-06
8.20625390541e-06
8.20534551624e-06
8.2029052744e-06
8.20209464847e-06
8.20881174438e-06
8.16471900353e-06
8.42913873749e-06
2.6174760269e-05
0.00398772943636
0.00724080295509
8.2680907822e-06
8.21501933439e-06
8.20702571457e-06
8.20625502334e-06
8.20609435503e-06
8.20608231154e-06
8.20611318987e-06
8.20616342549e-06
8.20625752285e-06
8.2064229147e-06
8.20637547724e-06
8.20556072397e-06
8.20311855407e-06
8.20156998091e-06
8.20796759718e-06
8.16890955373e-06
8.38466649647e-06
2.47116589055e-05
0.00388312428751
0.00725169916643
8.26809458908e-06
8.21496846625e-06
8.20708539089e-06
8.20632059613e-06
8.20616126787e-06
8.2061557362e-06
8.20619517477e-06
8.20625634558e-06
8.20635827327e-06
8.2065260023e-06
8.20651733816e-06
8.20580712209e-06
8.20342127922e-06
8.20110754178e-06
8.20682172103e-06
8.17336372624e-06
8.34018119848e-06
2.3199057311e-05
0.00376799600782
0.00726394579453
8.2681257303e-06
8.21494130614e-06
8.20716120367e-06
8.2064012699e-06
8.20624232977e-06
8.20624299053e-06
8.20629113239e-06
8.20636409549e-06
8.20647598702e-06
8.20664912156e-06
8.2066793794e-06
8.20607543223e-06
8.20377590297e-06
8.20067829971e-06
8.20533670539e-06
8.17811863801e-06
8.29790543915e-06
2.16653722511e-05
0.00364212825794
0.00727371890698
8.26818356848e-06
8.21493887144e-06
8.20724893771e-06
8.20649233693e-06
8.20633234683e-06
8.20633852508e-06
8.20639550625e-06
8.20648149724e-06
8.20660667369e-06
8.2067899787e-06
8.20686077394e-06
8.20636656399e-06
8.2042015981e-06
8.20038121829e-06
8.20349639272e-06
8.18314894355e-06
8.259681509e-06
2.01375700307e-05
0.00350936676206
0.00728214441166
8.26826938206e-06
8.21496307336e-06
8.20734583291e-06
8.20659045179e-06
8.20642728037e-06
8.20643777956e-06
8.20650360006e-06
8.2066038029e-06
8.20674645743e-06
8.20694796883e-06
8.20706511851e-06
8.20668456949e-06
8.2046903453e-06
8.20018892942e-06
8.20091920059e-06
8.18781551908e-06
8.22728551901e-06
1.86384352279e-05
0.0033738850652
0.00728856509651
8.26838455435e-06
8.2150154629e-06
8.2074496505e-06
8.20669227363e-06
8.20652288036e-06
8.2065349014e-06
8.20660760886e-06
8.20672369346e-06
8.20688961004e-06
8.20712041426e-06
8.20729727183e-06
8.20704030656e-06
8.20524339529e-06
8.20013559214e-06
8.19705177326e-06
8.19114856973e-06
8.20233144347e-06
1.71818925598e-05
0.00322929702918
0.00730057280577
8.26852956323e-06
8.21509631041e-06
8.20755805191e-06
8.20679421568e-06
8.20661234872e-06
8.20662104047e-06
8.20669895121e-06
8.20683103639e-06
8.20702655312e-06
8.20730296622e-06
8.20756383674e-06
8.20746176177e-06
8.20591382141e-06
8.20040844449e-06
8.19082289856e-06
8.19116149293e-06
8.18516605433e-06
1.57651153799e-05
0.00308926224136
0.00806740929771
8.26870533317e-06
8.21520588518e-06
8.20766949254e-06
8.20689087904e-06
8.20669027827e-06
8.20668798365e-06
8.20676186774e-06
8.20690341043e-06
8.20713428358e-06
8.20747551211e-06
8.20786074636e-06
8.20797462698e-06
8.2067621493e-06
8.20126573359e-06
8.18187417156e-06
8.18678211239e-06
8.17853548031e-06
1.4460455496e-05
0.00293586766448
0.00798782199992
8.26891490443e-06
8.21534645952e-06
8.20778504073e-06
8.20698119273e-06
8.20674675029e-06
8.20671797788e-06
8.20677739909e-06
8.20692125148e-06
8.20718037718e-06
8.20760064632e-06
8.20815487226e-06
8.2085763741e-06
8.20782070661e-06
8.20287721506e-06
8.18140963951e-06
8.15633301645e-06
8.17284201118e-06
1.34470002631e-05
0.00118164433589
0.00791802031819
8.2691652855e-06
8.21552284664e-06
8.20790846032e-06
8.20706204271e-06
8.20677535893e-06
8.20670164993e-06
8.20672121053e-06
8.20684267557e-06
8.20711185272e-06
8.20760648318e-06
8.20836652902e-06
8.2092150511e-06
8.20911896244e-06
8.2049658791e-06
8.19235705949e-06
8.17236789238e-06
8.18091826099e-06
1.26276431952e-05
0.000419487354631
0.00692666516085
8.26947624276e-06
8.21574964879e-06
8.20804780396e-06
8.20713484981e-06
8.20677094337e-06
8.20661903055e-06
8.206561627e-06
8.20661598644e-06
8.20684458412e-06
8.2073621122e-06
8.20830675484e-06
8.20968020237e-06
8.21054558168e-06
8.20726380999e-06
8.20434121203e-06
8.18767266468e-06
8.18450474418e-06
1.18887222225e-05
0.00023543994045
0.00662545098629
8.2698751035e-06
8.21605331289e-06
8.2082264623e-06
8.20720662749e-06
8.2067279177e-06
8.20645556169e-06
8.20627097898e-06
8.20619271659e-06
8.20628838483e-06
8.20669373506e-06
8.20764199281e-06
8.20943618012e-06
8.21165449843e-06
8.20908093301e-06
8.21391165365e-06
8.19672644298e-06
8.18683121041e-06
1.123526093e-05
0.000153809970469
0.00630670390643
8.27039920418e-06
8.21647377408e-06
8.20847451748e-06
8.20728725998e-06
8.2066451818e-06
8.20620138521e-06
8.20583180031e-06
8.20554391355e-06
8.20538374414e-06
8.20545224737e-06
8.20595562971e-06
8.20731531075e-06
8.20997864578e-06
8.20970355825e-06
8.22023880969e-06
8.19346049332e-06
8.18198323523e-06
1.06766593495e-05
0.000109607081998
0.00597378146056
8.27109744123e-06
8.21708197831e-06
8.20882699108e-06
8.2073714014e-06
8.20651250536e-06
8.20584533483e-06
8.20523848327e-06
8.20467446258e-06
8.20414686748e-06
8.20364629198e-06
8.2031337156e-06
8.20225804289e-06
8.19742745247e-06
8.19186861664e-06
8.15314970266e-06
8.1698068583e-06
8.16506975265e-06
1.01996054092e-05
8.26647561131e-05
0.0056379452905
8.27219195705e-06
8.21802567969e-06
8.20929299377e-06
8.20742307995e-06
8.20630509494e-06
8.20536732595e-06
8.2044930304e-06
8.20362939647e-06
8.20269283206e-06
8.20153914624e-06
8.19983532625e-06
8.19639480244e-06
8.18735191089e-06
8.17303590401e-06
8.09984047828e-06
8.14859961395e-06
8.15417482275e-06
9.72847447355e-06
6.4995790475e-05
0.00530606170888
8.27300162694e-06
8.21915575427e-06
8.20971552129e-06
8.20734514955e-06
8.20595747792e-06
8.20472099885e-06
8.20359945353e-06
8.20246742465e-06
8.20119177558e-06
8.19951579604e-06
8.19701262468e-06
8.192506729e-06
8.182512061e-06
8.16420071428e-06
8.12942817909e-06
8.15256197138e-06
8.16227889758e-06
9.36296561244e-06
5.28685593375e-05
0.00499169882102
8.27723344845e-06
8.22120193814e-06
8.20978898058e-06
8.20712290688e-06
8.20536263808e-06
8.20385028746e-06
8.20255394902e-06
8.20127718644e-06
8.19979583596e-06
8.19788981413e-06
8.19516809273e-06
8.19107975894e-06
8.18330743359e-06
8.17843492003e-06
8.1641564013e-06
8.16165398819e-06
8.17332338943e-06
9.132440717e-06
4.46163682403e-05
0.0047309497482
8.28411823399e-06
8.2245198554e-06
8.20988526743e-06
8.20670773947e-06
8.20431139233e-06
8.20268267616e-06
8.20136310661e-06
8.20005350109e-06
8.19854677963e-06
8.19666182233e-06
8.19414238933e-06
8.19098068884e-06
8.18538404613e-06
8.18525021047e-06
8.1762600959e-06
8.16680976282e-06
8.18182359512e-06
8.93582566458e-06
3.90935370813e-05
0.00452223760984
8.28620774246e-06
8.22417623015e-06
8.20913425758e-06
8.20529430518e-06
8.20255187142e-06
8.20116984334e-06
8.20003291203e-06
8.19877809837e-06
8.19739167023e-06
8.19570185755e-06
8.19358592724e-06
8.19129356539e-06
8.18751669761e-06
8.18795004992e-06
8.18308062723e-06
8.16595465543e-06
8.18406951111e-06
8.77976697911e-06
3.5470624143e-05
0.00433119222876
8.24803028635e-06
8.21152094173e-06
8.20415454741e-06
8.20171031214e-06
8.20018875884e-06
8.1993717496e-06
8.19848451431e-06
8.19751784315e-06
8.19639604696e-06
8.19503873946e-06
8.19332423426e-06
8.19170644026e-06
8.18931206082e-06
8.18888208311e-06
8.18703430571e-06
8.16944256284e-06
8.18062889837e-06
8.65661785557e-06
3.33586763566e-05
0.0041650114096
8.2216666224e-06
8.1942543578e-06
8.19622557404e-06
8.1970217558e-06
8.19743969668e-06
8.19734716246e-06
8.19693306918e-06
8.19637208184e-06
8.19557658944e-06
8.19445942384e-06
8.19331061108e-06
8.19199910635e-06
8.19029137477e-06
8.18966218167e-06
8.18859660083e-06
8.17666087779e-06
8.15676481276e-06
8.57913072103e-06
3.29639058239e-05
0.0040648057363
8.23844956805e-06
8.18938508321e-06
8.19130297798e-06
8.19359100395e-06
8.19494639965e-06
8.19545978727e-06
8.1955829742e-06
8.19534583972e-06
8.19478314977e-06
8.19411268316e-06
8.19330249929e-06
8.19218503979e-06
8.19113102438e-06
8.19031423638e-06
8.18895644186e-06
8.18156450865e-06
8.16480386338e-06
8.56109373805e-06
3.3939313836e-05
0.00405315593013
8.2473953938e-06
8.19385124633e-06
8.19073523553e-06
8.19220633585e-06
8.19345828416e-06
8.1941772285e-06
8.19453569933e-06
8.19454599278e-06
8.19427565659e-06
8.19393845878e-06
8.19327818707e-06
8.19261598725e-06
8.19208973199e-06
8.19100120385e-06
8.18938351546e-06
8.18549218498e-06
8.17098264769e-06
8.51588191782e-06
3.42279493723e-05
0.00400258721548
8.25222098396e-06
8.19820765661e-06
8.19194755774e-06
8.19222457776e-06
8.1929471859e-06
8.19353746787e-06
8.19392656985e-06
8.19406891106e-06
8.19404520464e-06
8.19379731486e-06
8.19354121648e-06
8.19339131474e-06
8.19313878248e-06
8.19273619771e-06
8.19136822354e-06
8.18749906799e-06
8.17946472313e-06
8.37240717048e-06
3.31552014052e-05
0.00384738827662
8.2553895803e-06
8.20144664019e-06
8.19359790298e-06
8.19293113304e-06
8.19310756439e-06
8.19342683231e-06
8.19370496857e-06
8.193841432e-06
8.19386927866e-06
8.19383282243e-06
8.19388557905e-06
8.19417084834e-06
8.19470509329e-06
8.1960154046e-06
8.19744803595e-06
8.18465435972e-06
8.20721779768e-06
8.10063622355e-06
3.10745659788e-05
0.00362520400927
8.25773979787e-06
8.20393265577e-06
8.195185016e-06
8.19392083752e-06
8.19365676433e-06
8.19367647514e-06
8.19376960298e-06
8.1938228176e-06
8.1938382029e-06
8.19388443239e-06
8.19408876352e-06
8.1946839436e-06
8.19607754945e-06
8.19932020625e-06
8.211014763e-06
8.18480609536e-06
8.10099319513e-06
8.1089739938e-06
2.52286725664e-05
0.00272733022135
8.25963153809e-06
8.20592604274e-06
8.1965852506e-06
8.19499096127e-06
8.1943951872e-06
8.194135244e-06
8.19402292897e-06
8.19394308044e-06
8.19387673051e-06
8.19388947218e-06
8.19409709819e-06
8.19473751672e-06
8.19649099347e-06
8.20091383919e-06
8.20330628905e-06
8.0906592121e-06
8.02321105404e-06
8.05261072107e-06
9.09843853536e-06
5.30307589572e-05
8.26125184899e-06
8.20759580842e-06
8.1978004311e-06
8.19605846974e-06
8.19521469776e-06
8.19470765753e-06
8.19438854441e-06
8.19414320292e-06
8.19393619298e-06
8.19381348471e-06
8.19382882305e-06
8.19399072393e-06
8.1938371811e-06
8.19023840221e-06
8.16913568199e-06
8.02973264619e-06
8.03119891294e-06
8.08770973838e-06
2.24131074945e-05
0.00250330104453
8.26270021435e-06
8.20904587331e-06
8.19886905313e-06
8.19710314863e-06
8.19606946046e-06
8.19534022849e-06
8.19481075182e-06
8.19437856522e-06
8.19400165738e-06
8.19370362913e-06
8.19346123026e-06
8.19303755155e-06
8.191201967e-06
8.18487695682e-06
8.15864295459e-06
8.1145788878e-06
8.1165083675e-06
7.91298639722e-06
2.57478207786e-05
0.0029809570254
8.26403718789e-06
8.21034413589e-06
8.19982748683e-06
8.19812067029e-06
8.19692943712e-06
8.19599073137e-06
8.19524925049e-06
8.19461787431e-06
8.19406999674e-06
8.19364345336e-06
8.19333868172e-06
8.19310510061e-06
8.19274849851e-06
8.19286937074e-06
8.19155467144e-06
8.17536043327e-06
8.14367567158e-06
7.97899059934e-06
1.96978951696e-05
0.00226105907514
8.26528095512e-06
8.21152493038e-06
8.20070483224e-06
8.19910620828e-06
8.19777274738e-06
8.19662735413e-06
8.19567024307e-06
8.19482173238e-06
8.1941027555e-06
8.19361152166e-06
8.19344412444e-06
8.19385305016e-06
8.19583726043e-06
8.20205745784e-06
8.21620206918e-06
8.04794886231e-06
8.00356410118e-06
7.94442850638e-06
8.23836891558e-06
3.87295804092e-05
8.26643500707e-06
8.21261513463e-06
8.20153321244e-06
8.20006974277e-06
8.19859133224e-06
8.197226835e-06
8.19604025693e-06
8.19492526317e-06
8.19401270963e-06
8.19348451838e-06
8.19344640651e-06
8.1942210047e-06
8.19674592086e-06
8.19990896835e-06
8.2038664235e-06
7.99890068075e-06
8.00155754758e-06
7.97236206396e-06
1.90952653299e-05
0.00220640793366
8.26750421539e-06
8.21363145958e-06
8.20233688864e-06
8.20101484858e-06
8.19937231601e-06
8.19776742146e-06
8.19633400091e-06
8.19484828945e-06
8.19372980757e-06
8.19318507595e-06
8.19305533122e-06
8.19303317222e-06
8.19211489439e-06
8.18667969638e-06
8.15927366096e-06
8.09726406061e-06
8.07984116771e-06
7.91530365315e-06
1.95058392121e-05
0.00285233450495
8.2684900013e-06
8.21457863237e-06
8.20312867062e-06
8.20192797204e-06
8.20008805852e-06
8.19821030819e-06
8.19649355001e-06
8.19445603533e-06
8.19322547861e-06
8.19282847668e-06
8.19249202043e-06
8.19115783227e-06
8.18752723141e-06
8.18274175634e-06
8.17329865543e-06
8.19270486939e-06
8.17331735182e-06
7.95093983987e-06
1.71047733419e-05
0.00275117149669
8.26936272644e-06
8.21542411578e-06
8.2038887666e-06
8.20277846449e-06
8.20068387707e-06
8.19848796182e-06
8.19631632567e-06
8.19343698437e-06
8.19262635094e-06
8.19304647787e-06
8.19296974069e-06
8.19062988017e-06
8.18609998536e-06
8.18317356015e-06
8.18035214646e-06
8.16992549179e-06
8.10677147283e-06
8.00353643094e-06
1.56424330717e-05
0.00245306479773
8.27008306648e-06
8.21612198636e-06
8.2045967318e-06
8.20353194042e-06
8.20111820393e-06
8.19856197881e-06
8.19535990916e-06
8.19096005528e-06
8.19071499418e-06
8.19325933748e-06
8.19423361582e-06
8.19115932842e-06
8.18748345593e-06
8.18370887417e-06
8.18049989053e-06
8.14949348887e-06
8.11616904537e-06
8.01015431916e-06
1.44364884096e-05
0.00164039295551
8.27061065635e-06
8.21662932326e-06
8.20526188376e-06
8.20425136377e-06
8.20155723139e-06
8.19894611326e-06
8.19471015724e-06
8.19062406029e-06
8.19570284408e-06
8.19951883893e-06
8.19821873155e-06
8.18853659462e-06
8.18490104669e-06
8.18649359666e-06
8.18361634237e-06
8.13164709886e-06
8.08264654793e-06
7.95732415885e-06
1.17414750857e-05
0.0013959787645
8.27088150886e-06
8.21687760994e-06
8.20584459851e-06
8.2049527302e-06
8.20212350537e-06
8.20007055902e-06
8.19392522512e-06
8.17937140734e-06
8.19948644702e-06
8.20933500601e-06
8.19218630096e-06
8.18110163251e-06
8.21428420257e-06
8.14260669232e-06
8.14246214058e-06
8.07424658929e-06
7.93358126799e-06
7.68154140887e-06
7.27367301857e-06
2.36058721701e-05
8.27087723513e-06
8.21689625931e-06
8.20626998776e-06
8.2049580017e-06
8.20116664e-06
8.19983684683e-06
8.19080558766e-06
8.16694124864e-06
8.21287067401e-06
8.23463136951e-06
8.22320087731e-06
8.21519383984e-06
8.21926796521e-06
8.1502620999e-06
8.12761109493e-06
8.00273588534e-06
7.8753765723e-06
7.88561473855e-06
8.08530353501e-06
0.000214394732191
8.27050058615e-06
8.21682002519e-06
8.20749544739e-06
8.20703129631e-06
8.20341323888e-06
8.19591268568e-06
8.19490570368e-06
8.24327915038e-06
8.21494933801e-06
8.14702416354e-06
8.12203242439e-06
8.13207577066e-06
7.97552574721e-06
7.89393714512e-06
8.59271406995e-06
0.00105192198822
8.26991495262e-06
8.21635828694e-06
8.20785037451e-06
8.20976110768e-06
8.20434914447e-06
8.19371817049e-06
8.20154371438e-06
8.25941919906e-06
8.23901621905e-06
8.19404299173e-06
8.18349286079e-06
8.16084045087e-06
8.01790494566e-06
7.73492754632e-06
7.14588452838e-06
1.87217163588e-05
8.26991433978e-06
8.21635793268e-06
8.20785044298e-06
8.20976189528e-06
8.2043438759e-06
8.19371278649e-06
8.20154306493e-06
8.25942038852e-06
8.23900842127e-06
8.19404192812e-06
8.18349039716e-06
8.16083911775e-06
8.01790272316e-06
7.73492121911e-06
7.14588205827e-06
1.87218307354e-05
8.27049920853e-06
8.21681908245e-06
8.20749564225e-06
8.20703251527e-06
8.2034148008e-06
8.19591377394e-06
8.19490722653e-06
8.24327976989e-06
8.2149446437e-06
8.14702178054e-06
8.1220287788e-06
8.13207444071e-06
7.97551992194e-06
7.89393462515e-06
8.59274550681e-06
0.00105197491187
8.27087541329e-06
8.21689532632e-06
8.2062705714e-06
8.20495990139e-06
8.20116977943e-06
8.19984015656e-06
8.19080839692e-06
8.16694631085e-06
8.2128720535e-06
8.23462673064e-06
8.22319279795e-06
8.2151773982e-06
8.219253111e-06
8.15024398798e-06
8.12756626783e-06
8.00272351543e-06
7.87536164548e-06
7.88560421282e-06
8.0852797226e-06
0.000214403623669
8.27088118917e-06
8.21687690737e-06
8.20584447329e-06
8.20495389449e-06
8.20212426598e-06
8.20007112118e-06
8.19392485379e-06
8.17937107114e-06
8.19948486441e-06
8.2093315135e-06
8.19217922619e-06
8.18109054349e-06
8.21428366151e-06
8.14260028147e-06
8.14242046914e-06
8.07423342348e-06
7.93357294529e-06
7.68153208058e-06
7.27366931858e-06
2.36054829341e-05
8.27061301711e-06
8.21663122135e-06
8.20526397596e-06
8.2042539854e-06
8.20155871906e-06
8.19894683823e-06
8.19470950255e-06
8.19062295703e-06
8.19569986349e-06
8.19951349777e-06
8.19821045251e-06
8.18852555943e-06
8.18488958219e-06
8.18648298501e-06
8.18360159085e-06
8.13163429234e-06
8.08263245755e-06
7.95731431186e-06
1.17416918374e-05
0.00139560985197
8.27008677049e-06
8.21612693341e-06
8.20460340057e-06
8.20353781263e-06
8.20112144048e-06
8.19856437589e-06
8.19536166173e-06
8.19095977921e-06
8.19071180338e-06
8.19325286577e-06
8.19422463553e-06
8.19114975253e-06
8.18747530806e-06
8.18370125951e-06
8.18048908812e-06
8.14948291151e-06
8.11615955419e-06
8.01015521061e-06
1.44365914933e-05
0.00164025970824
8.26936923138e-06
8.21543073742e-06
8.20389461411e-06
8.20278092969e-06
8.20068597344e-06
8.19849064197e-06
8.19631816998e-06
8.19343620372e-06
8.19262268185e-06
8.19304049095e-06
8.19296301355e-06
8.19062470282e-06
8.18609748421e-06
8.18317152321e-06
8.18034714867e-06
8.16991569412e-06
8.10676437489e-06
8.00353410087e-06
1.56426463236e-05
0.00245305035089
8.26849276668e-06
8.21458164283e-06
8.203131249e-06
8.201931493e-06
8.2000894764e-06
8.19820850036e-06
8.19649300065e-06
8.19445506566e-06
8.19322294683e-06
8.19282538802e-06
8.19248954976e-06
8.19115712159e-06
8.18752716478e-06
8.18274036254e-06
8.17329214889e-06
8.19269103222e-06
8.17331002101e-06
7.95093483985e-06
1.71050480154e-05
0.00275118124931
8.26750492996e-06
8.21363308214e-06
8.20233969449e-06
8.20101572881e-06
8.19937252798e-06
8.19776740883e-06
8.19633446582e-06
8.19484924759e-06
8.19372844166e-06
8.19318336379e-06
8.1930533829e-06
8.1930311443e-06
8.1921103657e-06
8.18667104679e-06
8.15925974002e-06
8.09724839102e-06
8.07983254145e-06
7.91529795057e-06
1.95061261894e-05
0.00285234401635
8.26643262138e-06
8.2126140213e-06
8.20153441e-06
8.20007281922e-06
8.19859385401e-06
8.19722889319e-06
8.19604233346e-06
8.19492637396e-06
8.19401345485e-06
8.19348274204e-06
8.1934452941e-06
8.19421788056e-06
8.19673977464e-06
8.19989879581e-06
8.20385010153e-06
7.99888579072e-06
8.00154651573e-06
7.97235939032e-06
1.90955569675e-05
0.00220646689339
8.26527575288e-06
8.21152117312e-06
8.20070356476e-06
8.19910849275e-06
8.1977778124e-06
8.19663308171e-06
8.19567449311e-06
8.19482449322e-06
8.19410368727e-06
8.19361235847e-06
8.19344421923e-06
8.19385024269e-06
8.19582967246e-06
8.20204595326e-06
8.2161852743e-06
8.04793489493e-06
8.00355559027e-06
7.94442672298e-06
8.23838619821e-06
3.87296281859e-05
8.26402813218e-06
8.2103349006e-06
8.19982073492e-06
8.19811880922e-06
8.19693150953e-06
8.19599496263e-06
8.19525170751e-06
8.19461905512e-06
8.1940705117e-06
8.19364306212e-06
8.19334013827e-06
8.19310209335e-06
8.19274081303e-06
8.19285806051e-06
8.19153895884e-06
8.1753481906e-06
8.14367111225e-06
7.97898732669e-06
1.96980103798e-05
0.00226106317935
8.26269268056e-06
8.20903585527e-06
8.19885856887e-06
8.19709540621e-06
8.1960656107e-06
8.19533799425e-06
8.19480870159e-06
8.19437612542e-06
8.19399930037e-06
8.19370096179e-06
8.19346068124e-06
8.19303175655e-06
8.19119248215e-06
8.18486573523e-06
8.15862859167e-06
8.1145734568e-06
8.11650288794e-06
7.91298241281e-06
2.57480032477e-05
0.00298096260746
8.26124751851e-06
8.20758851005e-06
8.19779009974e-06
8.19604583169e-06
8.19520387445e-06
8.19470153089e-06
8.19438551898e-06
8.19414097331e-06
8.19393343684e-06
8.19380951629e-06
8.1938251679e-06
8.19398044398e-06
8.19382448835e-06
8.19022435723e-06
8.16911755872e-06
8.02972724694e-06
8.03117861475e-06
8.08770538919e-06
2.24133018042e-05
0.00250331561846
8.25963176844e-06
8.20592418999e-06
8.19657993423e-06
8.19498207529e-06
8.19438400609e-06
8.19412677087e-06
8.19402015129e-06
8.1939432517e-06
8.19387816274e-06
8.19389052641e-06
8.19409751679e-06
8.1947286734e-06
8.19647759937e-06
8.20089740697e-06
8.20328654922e-06
8.09064948075e-06
8.0231916064e-06
8.05261265627e-06
9.09846912908e-06
5.30312757816e-05
8.25774191625e-06
8.20393323509e-06
8.19518624789e-06
8.19392094386e-06
8.19365345904e-06
8.19367123535e-06
8.1937665223e-06
8.19382204369e-06
8.19384034299e-06
8.19388868647e-06
8.19409412587e-06
8.19468269636e-06
8.19607107116e-06
8.1993083358e-06
8.21100200038e-06
8.18479813488e-06
8.10098839566e-06
8.1089742097e-06
2.52287091251e-05
0.00272734718263
8.25539332539e-06
8.20144876919e-06
8.19359980414e-06
8.19293445285e-06
8.19311096948e-06
8.19342728247e-06
8.19370224417e-06
8.19383884697e-06
8.1938680295e-06
8.19383263265e-06
8.19388690784e-06
8.19417120014e-06
8.19470377722e-06
8.19601103501e-06
8.19743915936e-06
8.18464892673e-06
8.20721393445e-06
8.10063599178e-06
3.10745667545e-05
0.00362521743114
8.25222488041e-06
8.198210793e-06
8.19195049477e-06
8.19222769521e-06
8.19295148793e-06
8.19354065672e-06
8.19392706318e-06
8.1940682111e-06
8.19404388591e-06
8.1937953312e-06
8.1935388944e-06
8.19338816666e-06
8.1931352043e-06
8.19273227936e-06
8.19135983433e-06
8.18749465676e-06
8.179461986e-06
8.3724093284e-06
3.31551670894e-05
0.00384739392538
8.24739795658e-06
8.19385584136e-06
8.19073931113e-06
8.19220967331e-06
8.19346045049e-06
8.19417902375e-06
8.19453761464e-06
8.19454597622e-06
8.19427386063e-06
8.19393561317e-06
8.19327634593e-06
8.19261109865e-06
8.19208354175e-06
8.19099600972e-06
8.18937634571e-06
8.18548612836e-06
8.17097873932e-06
8.51588330989e-06
3.42279166881e-05
0.0040025795502
8.23845210668e-06
8.18938604652e-06
8.19130079075e-06
8.19358883912e-06
8.19494396617e-06
8.19545661465e-06
8.19557985284e-06
8.19534212329e-06
8.19477924178e-06
8.19410943567e-06
8.19330122457e-06
8.19218218964e-06
8.1911248625e-06
8.1903065893e-06
8.18894895661e-06
8.18155963404e-06
8.16480007996e-06
8.5610929754e-06
3.39393597918e-05
0.00405315008527
8.22166972136e-06
8.19424159745e-06
8.19621446709e-06
8.19701341627e-06
8.19743308988e-06
8.19733854535e-06
8.19692376244e-06
8.19636485394e-06
8.19557238864e-06
8.19445797347e-06
8.19331000978e-06
8.19199858271e-06
8.19029149563e-06
8.18965396835e-06
8.18858560011e-06
8.17665848483e-06
8.15676475525e-06
8.57912619655e-06
3.29638782734e-05
0.00406479282813
8.24802295712e-06
8.2115067056e-06
8.20414826636e-06
8.20170348984e-06
8.20018358352e-06
8.19936872662e-06
8.19847970179e-06
8.19751441333e-06
8.19639560649e-06
8.19504040539e-06
8.19332448161e-06
8.1917038118e-06
8.18931347733e-06
8.18887856657e-06
8.18702451748e-06
8.16944109369e-06
8.18062761437e-06
8.65660437853e-06
3.33586982271e-05
0.00416500133018
8.2862025123e-06
8.22417907197e-06
8.20914098225e-06
8.20530034507e-06
8.2025559074e-06
8.20117609601e-06
8.20003836809e-06
8.19878144211e-06
8.19739538683e-06
8.19570389408e-06
8.19358494596e-06
8.1912906601e-06
8.18751244621e-06
8.18794951217e-06
8.18307545612e-06
8.16595206925e-06
8.18406784535e-06
8.77975526965e-06
3.54707551467e-05
0.00433118660167
8.28413116039e-06
8.22453208261e-06
8.20989578951e-06
8.20671946329e-06
8.20432083823e-06
8.20268946484e-06
8.20137025149e-06
8.20005944488e-06
8.1985524515e-06
8.19666399737e-06
8.19414273006e-06
8.19098052436e-06
8.18538053572e-06
8.18524604433e-06
8.1762536715e-06
8.16680436496e-06
8.18182219563e-06
8.93581734461e-06
3.90936991281e-05
0.00452223425227
8.2772479525e-06
8.22121078359e-06
8.20979395759e-06
8.2071262102e-06
8.20536587026e-06
8.20385227738e-06
8.20255562928e-06
8.201278749e-06
8.19979599165e-06
8.19788778862e-06
8.19516486008e-06
8.1910773653e-06
8.18330880706e-06
8.1784347748e-06
8.1641572281e-06
8.16165140576e-06
8.17332093491e-06
9.13243358775e-06
4.46166342249e-05
0.00473095130521
8.2730079476e-06
8.21915751099e-06
8.20971391392e-06
8.20734222596e-06
8.20595463373e-06
8.20471857291e-06
8.20359705295e-06
8.20246449864e-06
8.20118739495e-06
8.19951113546e-06
8.19700820888e-06
8.19250340558e-06
8.18251000316e-06
8.16419317311e-06
8.12942569994e-06
8.15255776876e-06
8.1622732036e-06
9.36296025581e-06
5.28688823216e-05
0.00499170085234
8.27219283346e-06
8.21802492638e-06
8.2092912389e-06
8.20742114431e-06
8.20630352992e-06
8.20536601452e-06
8.20449150333e-06
8.20362745117e-06
8.20269091111e-06
8.20153762281e-06
8.19983444308e-06
8.19639487403e-06
8.18735435321e-06
8.17304311424e-06
8.09983001548e-06
8.14859158128e-06
8.15416807192e-06
9.7284752065e-06
6.49960760549e-05
0.00530605876124
8.2710953533e-06
8.21708080848e-06
8.20882688398e-06
8.20737205139e-06
8.20651309453e-06
8.20584529719e-06
8.20523775419e-06
8.20467306878e-06
8.20414484153e-06
8.20364372059e-06
8.2031307871e-06
8.20225504574e-06
8.19742694281e-06
8.19188076609e-06
8.15314842071e-06
8.16980687036e-06
8.16506724148e-06
1.01996114162e-05
8.26649256158e-05
0.00563793907231
8.27039565239e-06
8.21647303971e-06
8.20847660113e-06
8.20728999893e-06
8.20664699265e-06
8.20620206268e-06
8.20583153116e-06
8.20554272984e-06
8.20538154932e-06
8.20544910351e-06
8.20595153465e-06
8.20731006757e-06
8.20997215355e-06
8.20969534577e-06
8.22023620721e-06
8.19346061158e-06
8.18198210352e-06
1.0676662155e-05
0.000109607314291
0.00597378009584
8.26987556502e-06
8.21605580676e-06
8.20823104633e-06
8.20720977674e-06
8.20672956642e-06
8.2064553636e-06
8.20626916061e-06
8.20618943859e-06
8.20628372809e-06
8.20668791106e-06
8.20763486634e-06
8.20942815465e-06
8.21164610597e-06
8.2090736935e-06
8.21390598607e-06
8.1967228922e-06
8.18683043833e-06
1.12352653279e-05
0.00015381069881
0.00630670652013
8.26948159552e-06
8.21575333698e-06
8.20805092985e-06
8.20713513726e-06
8.20677032649e-06
8.20661658108e-06
8.20655710134e-06
8.20660945648e-06
8.20683648489e-06
8.20735254935e-06
8.2082959343e-06
8.20966931521e-06
8.21053579315e-06
8.20725587567e-06
8.20433452025e-06
8.18766860762e-06
8.18450286298e-06
1.1888727119e-05
0.000235442382145
0.00662545497219
8.26917038139e-06
8.21552372074e-06
8.20790657305e-06
8.20705885084e-06
8.20677309205e-06
8.20669795454e-06
8.20671522432e-06
8.20683490343e-06
8.20710273356e-06
8.20759573928e-06
8.20835469239e-06
8.20920389923e-06
8.20911023819e-06
8.20496048341e-06
8.19234867055e-06
8.17235875588e-06
8.18091364055e-06
1.26276525034e-05
0.000419496762632
0.00692667458174
8.2689162317e-06
8.21534374677e-06
8.20778132287e-06
8.20697694173e-06
8.20674364503e-06
8.2067155021e-06
8.20677302478e-06
8.20691644005e-06
8.2071743382e-06
8.2075916983e-06
8.20814315905e-06