/*--------------------------------*- C++ -*----------------------------------*\
| =========                 |                                                 |
| \\      /  F ield         | OpenFOAM: The Open Source CFD Toolbox           |
|  \\    /   O peration     | Version:  v2012                                 |
|   \\  /    A nd           | Website:  www.openfoam.com                      |
|    \\/     M anipulation  |                                                 |
\*---------------------------------------------------------------------------*/
FoamFile
{
    version     2.0;
    format      ascii;
    class       volVectorField;
    location    "1.4";
    object      U;
}
// * * * * * * * * * * * * * * * * * * * * * * * * * * * * * * * * * * * * * //

dimensions      [0 1 -1 0 0 0 0];


internalField   nonuniform List<vector> 
1984
(
(0.00202853993503 -0.00201876485354 3.38343351463e-22)
(0.0030375339283 -0.00475378785936 1.66427535586e-21)
(0.00313502725006 -0.0095318082887 -1.78639674557e-22)
(0.00307581860585 -0.0138829795802 -2.5093605835e-22)
(0.00306058369441 -0.018203363633 -6.11657339111e-22)
(0.00309011503127 -0.0225785145547 -4.04469734498e-22)
(0.00315051125732 -0.0270619989458 -4.98835938379e-22)
(0.00323556355619 -0.0316926146393 1.84209630567e-21)
(0.0033429700224 -0.0365043480049 1.7229517771e-21)
(0.00347067975979 -0.0415301739147 2.22497018077e-21)
(0.0036125460301 -0.0468294811427 -1.38828880492e-22)
(0.0037329496356 -0.0524398209763 5.47966549864e-22)
(0.00367233354562 -0.0582261652282 1.63293656816e-22)
(0.00312394619362 -0.0639909922729 7.61311529052e-22)
(0.00217167178164 -0.0694205811986 -1.8626377715e-22)
(0.00274309567096 -0.0755564671881 -1.26678119812e-21)
(0.0131845500618 -0.0927830431467 -8.14665324574e-21)
(0.0552214343183 -0.106211544517 -3.13539573744e-20)
(0.13819333882 -0.116347533561 -2.61599114023e-20)
(0.00747328117346 -0.220412017369 -3.61708417241e-21)
(0.00479159656824 -0.00304886134965 2.439070419e-22)
(0.00595219446144 -0.00588511289004 8.3221442147e-22)
(0.00614562564666 -0.0105213382912 -4.89687244619e-23)
(0.0061566133743 -0.0149769088229 -9.41770125958e-22)
(0.0062324376059 -0.0194815183905 -3.65888192153e-21)
(0.00638061305863 -0.0240974157854 -1.7282685528e-21)
(0.00658691234732 -0.0288492561488 -2.36090595237e-21)
(0.00684581675091 -0.0337612040641 -6.5122331272e-22)
(0.00715739626745 -0.0388610161612 9.85467251156e-22)
(0.00752399685194 -0.0441776540315 -2.10987827067e-21)
(0.00794994141361 -0.0497705607794 -6.12457834087e-22)
(0.00842860032661 -0.0557113450629 -1.25584630242e-21)
(0.00889573757303 -0.061965163709 -7.10135880774e-22)
(0.00925265080706 -0.0686240076578 4.4158279301e-22)
(0.0096810771494 -0.0763606980186 -3.12543242836e-23)
(0.0110380144386 -0.087424805196 -3.93724782641e-21)
(0.0132261637267 -0.104883650003 -5.6799590104e-21)
(0.0156539725657 -0.108911781903 -1.76454628955e-20)
(0.0110673204293 -0.0901259809908 -1.98295821286e-20)
(0.028486333337 -0.0327844733144 3.96307896505e-21)
(0.00946338459 -0.00317876154315 6.88140659156e-22)
(0.0104592738622 -0.00603730946819 4.57532622979e-21)
(0.0107248695282 -0.0106793991922 6.17383346231e-22)
(0.0108700775506 -0.0151314487261 -2.61283402025e-22)
(0.0110594265471 -0.0196348348643 -8.09089531678e-22)
(0.0113212926623 -0.0242541993636 -2.37627578648e-22)
(0.0116585675754 -0.029010460814 -3.88754907872e-22)
(0.0120741120047 -0.033925057098 3.75319064153e-22)
(0.0125726520648 -0.0390244272313 2.42964502749e-22)
(0.0131605838748 -0.0443360095211 -6.32522913434e-22)
(0.0138473006196 -0.0499173899845 -8.34074785202e-23)
(0.0146422248957 -0.0558436494737 7.13323567261e-23)
(0.015549656213 -0.0620657102016 2.199724046e-22)
(0.0165987979951 -0.0685115284186 9.61041947839e-22)
(0.0179558786232 -0.0753558865594 -2.06382090105e-21)
(0.0203240374418 -0.0845330732237 -5.9490961432e-21)
(0.0241258409789 -0.100550305761 -7.59492460962e-21)
(0.027072027465 -0.103158828098 -1.73567846933e-20)
(0.0276590667153 -0.092971989327 -1.27619232343e-20)
(-0.00705124336451 -0.0876295535801 -2.22012403532e-22)
(0.0138360726358 -0.00307421437791 1.14095859154e-21)
(0.0148597762309 -0.00588301456728 2.70980427497e-21)
(0.0151866054862 -0.0105479291714 5.34787809627e-22)
(0.0154378086326 -0.0149658808521 2.97300108424e-23)
(0.015742002628 -0.0194143445695 -8.60475816657e-23)
(0.0161316315858 -0.0239685197638 2.1680299121e-22)
(0.0166173074001 -0.0286528095753 2.65323970776e-22)
(0.0172073116162 -0.0334885216124 -8.45021199507e-23)
(0.0179108243489 -0.0385007482801 -7.28939887517e-23)
(0.0187392993532 -0.0437151747413 2.38699268364e-22)
(0.0197079201145 -0.0491863689556 -8.80487901949e-23)
(0.0208312747405 -0.054986749169 1.08737405504e-22)
(0.0221249197417 -0.0610616641308 -9.04330552817e-23)
(0.0236231966411 -0.0672795983149 2.52609701329e-22)
(0.0253622665087 -0.0736442775904 -1.92666118885e-22)
(0.0275263995829 -0.0820377011425 1.16039661129e-21)
(0.0301112730622 -0.0978009373044 -2.7513626448e-21)
(0.0299746871384 -0.100824850591 -4.96801710314e-21)
(0.0277752702777 -0.0922031058066 -4.88945314115e-21)
(0.00322833263593 -0.105035993888 -1.09798388314e-21)
(0.0179580871584 -0.00296220481862 -2.90922828658e-22)
(0.0191022554297 -0.00568871477976 4.07524230237e-21)
(0.0194816956326 -0.01031436044 9.79150951273e-22)
(0.0198073551073 -0.0146610408053 1.20200610698e-22)
(0.0202058617251 -0.0190234255004 1.21986945859e-23)
(0.0207088996197 -0.0234792555565 6.27611843124e-23)
(0.0213296770915 -0.0280548397426 6.31227694495e-23)
(0.0220796558673 -0.0327710382927 -2.44370324853e-23)
(0.0229715098413 -0.0376514601432 -1.17276802685e-24)
(0.0240207831137 -0.0427190599734 4.57818127533e-23)
(0.025247752442 -0.0480234940886 -2.81580957876e-23)
(0.0266703007769 -0.0536319609403 8.74558202428e-24)
(0.0283031691716 -0.059486093537 1.69283000822e-22)
(0.0301689111896 -0.0654379388507 6.15901139112e-22)
(0.0322324445356 -0.0714479969397 -6.4007160609e-23)
(0.0344373085966 -0.0793738863681 -8.50193372285e-22)
(0.0366455829142 -0.0950005187053 -5.97099818554e-21)
(0.0354475144301 -0.098340330483 -5.97080874313e-21)
(0.0332634875893 -0.0901244447428 -5.47666990441e-21)
(0.00381424028659 -0.103828170441 -1.98662229648e-21)
(0.0219292505757 -0.00286620761515 -1.62069753161e-22)
(0.0232495707707 -0.00549539664436 3.11797427513e-21)
(0.0236850768464 -0.0100319054909 9.41333867819e-22)
(0.0240702710844 -0.0142754443727 1.30530109661e-22)
(0.0245481111411 -0.0185264249353 2.84219565784e-23)
(0.0251510450917 -0.0228596190622 -1.01427671093e-24)
(0.0258931971433 -0.0273007039196 1.27448149344e-23)
(0.0267878871848 -0.0318690847774 -1.19293353466e-23)
(0.0278501926137 -0.0365862443284 -2.53395430679e-23)
(0.0290986422536 -0.0414721957528 -1.46638692345e-23)
(0.030556788552 -0.0465709549506 -1.93740168671e-23)
(0.0322446254845 -0.0519441235822 -3.32571324726e-23)
(0.0341746740151 -0.0575332018021 2.32436905371e-22)
(0.0363567613224 -0.0631809651967 6.06625920659e-22)
(0.038713657889 -0.0688188560708 -1.12678430429e-22)
(0.0411092834866 -0.0762702070565 -1.37500266417e-21)
(0.0434002081437 -0.0917045893729 -7.42077758221e-21)
(0.0417848489311 -0.0953441294262 -7.34819718669e-21)
(0.0393101745854 -0.0871756585074 -6.88111943478e-21)
(0.00673409292901 -0.100826968724 -2.80201612825e-21)
(0.0257713306242 -0.00277480939201 6.86992733599e-23)
(0.027295499043 -0.00529449939425 1.01487310854e-21)
(0.0277910545221 -0.00971058869527 5.01836690202e-23)
(0.0282289400567 -0.0138259573958 3.082401345e-23)
(0.028775842151 -0.0179433681024 -1.30926423154e-23)
(0.0294671278575 -0.0221323958975 6.54894208973e-25)
(0.0303176444185 -0.0264166026512 -1.33765063507e-23)
(0.0313419220548 -0.0308131138224 -1.65798136204e-23)
(0.0325567472664 -0.0353408232578 -2.89788952354e-24)
(0.0339826848513 -0.0400166403118 -3.6526393188e-23)
(0.0356454507623 -0.0448789294145 -8.36179416326e-24)
(0.0375660991131 -0.0499843959967 2.23844220351e-24)
(0.0397554925846 -0.0552794903623 1.85569373599e-22)
(0.0422134421802 -0.0606050007054 3.49843823991e-22)
(0.0448303567113 -0.0658594752391 -1.38149030088e-21)
(0.04743270125 -0.072795055164 -6.69867218616e-21)
(0.0499070041209 -0.0879130839598 -3.27651169589e-21)
(0.0480676414673 -0.0918406966025 3.68766401192e-21)
(0.0452013279617 -0.0835135016175 3.36034147173e-21)
(0.00898328367186 -0.0965536432782 -2.43427767825e-21)
(0.0294727333575 -0.00268124473314 6.70442005992e-23)
(0.0312105349156 -0.00508040726686 3.48954221142e-21)
(0.0317669639211 -0.00935452318408 8.40972891144e-22)
(0.0322521545072 -0.0133215083458 9.12746921129e-23)
(0.0328589702971 -0.017286170629 -1.97827844738e-25)
(0.0336269479862 -0.0213119561027 -6.87693814422e-24)
(0.0345717799369 -0.0254195305662 -1.0251260439e-23)
(0.0357089043915 -0.0296231852954 -2.14314496727e-23)
(0.0370563658997 -0.0339388686504 3.24232995499e-24)
(0.0386362535843 -0.0383803105196 -2.55656699169e-23)
(0.0404759205145 -0.0429802940685 -4.89796894196e-23)
(0.0425975756083 -0.0477908715518 -7.09607978831e-23)
(0.0450118502993 -0.0527660208208 1.41812910111e-22)
(0.0477128144775 -0.0577496778344 1.3471377659e-22)
(0.0505690681285 -0.062605129065 -3.20588893542e-21)
(0.0533882241738 -0.0689726032854 -1.01666460852e-20)
(0.0560793455473 -0.0836195884942 -1.63382651707e-20)
(0.0541817307129 -0.0878248203716 -1.82065943304e-20)
(0.0509319618478 -0.0792205669993 -1.66682760684e-20)
(0.0110784107166 -0.0918177658642 -3.51807830067e-21)
(0.0330225342727 -0.00258274551876 4.02861528749e-22)
(0.0349751189293 -0.00485209181471 2.18302352204e-21)
(0.0355911072244 -0.00896800925873 5.04437686658e-22)
(0.0361179485775 -0.0127702415369 -8.7859697759e-24)
(0.0367754563496 -0.0165661299729 -4.65371260935e-25)
(0.0376079276201 -0.0204124873285 3.3765279162e-24)
(0.0386319726336 -0.0243266637308 -2.49091149494e-23)
(0.0398637362691 -0.0283197472421 -6.55800714834e-25)
(0.0413222147348 -0.032404458344 -5.31262918976e-24)
(0.0430306971194 -0.0365911964217 -8.25749096642e-24)
(0.045017982639 -0.0409070096303 1.00176593142e-23)
(0.0473079893924 -0.0453988640629 -5.16368671337e-23)
(0.0499129152441 -0.0500285383503 -2.68242430726e-23)
(0.0528244857312 -0.0546457211158 -1.34300110094e-22)
(0.0558945700504 -0.0590760195723 -1.01275302371e-21)
(0.0589151880711 -0.0647977891047 -1.12033521002e-21)
(0.0618129772435 -0.0787900733836 -6.63020555431e-21)
(0.0600491367735 -0.0832906039991 -9.70570239392e-21)
(0.0564609943455 -0.0743857403298 -9.63228643586e-21)
(0.0133689360931 -0.0865067037713 -3.46203111743e-21)
(0.0364125007325 -0.00247838792386 4.5882133253e-22)
(0.0385771958337 -0.00461053287332 3.94777071159e-21)
(0.0392503510376 -0.00855566887498 1.02319785041e-21)
(0.0398127895037 -0.0121801453283 9.95260468037e-23)
(0.0405115380999 -0.0157943992179 7.15854367688e-24)
(0.0413959109392 -0.0194482425091 -3.59107951745e-25)
(0.042483400772 -0.0231554771446 -9.46547292663e-24)
(0.043790650094 -0.026923746719 4.02677338958e-24)
(0.0453373218754 -0.0307622787394 3.72525110988e-24)
(0.0471476115724 -0.0346778982599 -9.35926071584e-24)
(0.0492515306661 -0.038691545562 -8.0612312023e-24)
(0.0516749859162 -0.0428441020766 -3.93420293389e-23)
(0.0544327276403 -0.0471038797306 1.31613612315e-22)
(0.0575152012152 -0.0513268256339 3.88855469063e-22)
(0.0607580146274 -0.0553024127958 -5.87420200289e-22)
(0.0639344608854 -0.0603059066783 -2.32840136675e-21)
(0.0669948327909 -0.073448574755 -1.03982821208e-20)
(0.0655519383206 -0.078304159911 -8.25323907957e-21)
(0.0616783508548 -0.0690422818355 -7.72704979941e-21)
(0.0159569230025 -0.0803129267559 -2.30572438387e-21)
(0.0396347912968 -0.00236833731671 -4.99664132431e-22)
(0.0420071383553 -0.00435793552185 -2.36397140616e-22)
(0.0427344732465 -0.0081225858734 -1.72157099025e-22)
(0.0433261228128 -0.0115593437063 -1.39079811392e-22)
(0.0440564456532 -0.0149821988627 -2.13279535577e-23)
(0.0449798578495 -0.0184336360349 -7.2007932809e-24)
(0.0461145971272 -0.0219237741286 -1.74771981812e-24)
(0.0474775384049 -0.0254566458443 3.78351160969e-25)
(0.0490886841357 -0.0290377614939 -2.40821431285e-24)
(0.050972770687 -0.0326701055788 -1.04690179847e-23)
(0.0531606428688 -0.0363681815814 -1.61944690321e-23)
(0.0556800577284 -0.040165845396 -5.33510792168e-23)
(0.0585486948092 -0.0440363840466 -2.96469056254e-23)
(0.0617570250559 -0.047843996679 3.90322569547e-22)
(0.0651254003148 -0.0513524402705 4.29677565119e-22)
(0.0683984144501 -0.0555972802912 1.5882660609e-21)
(0.0715285822586 -0.06766955325 -8.42179803872e-21)
(0.0705441541075 -0.0729470860374 -1.3737622366e-20)
(0.0663379061472 -0.0632672835842 -1.30109502805e-20)
(0.0186574005101 -0.0733958298891 -1.79603075731e-21)
(0.0426825855408 -0.00225334628019 -1.13891960208e-21)
(0.0452572180347 -0.00409726185138 1.21911850303e-21)
(0.0460354604117 -0.00767427081328 3.08589400546e-23)
(0.0466497677752 -0.0109162126665 -1.34366749082e-22)
(0.0474019119895 -0.0141409512533 -2.79199028485e-23)
(0.0483514094283 -0.0173833493152 -1.19129961803e-23)
(0.0495170209533 -0.020649768403 -1.48832389924e-23)
(0.050915517563 -0.0239405361217 -1.21187504013e-23)
(0.0525668378304 -0.0272572546262 -1.67217691428e-23)
(0.0544958004268 -0.0305988181773 -1.10664745301e-23)
(0.0567335444398 -0.0339730288977 -6.72592256052e-24)
(0.0593092182687 -0.0374057659849 -7.76270021534e-23)
(0.06224320517 -0.0408733523419 1.09927704187e-22)
(0.0655257407629 -0.0442483038528 4.98014565882e-22)
(0.0689592747499 -0.0472765911737 6.08856594799e-22)
(0.0722442341457 -0.0507218286281 3.30438167478e-22)
(0.0753109772805 -0.0614665647384 -9.66687263264e-21)
(0.074922261011 -0.0672291761475 -8.36005554195e-21)
(0.07051535726 -0.0570658000247 -8.112834161e-21)
(0.0221598810202 -0.0673178879339 -2.20066849769e-21)
(0.0455510054757 -0.00213440833956 -8.03377389164e-22)
(0.0483220560393 -0.00383179025338 3.45858711904e-21)
(0.0491479064839 -0.00721639820406 8.22386154154e-22)
(0.0497783942286 -0.0102591881703 4.51113265255e-23)
(0.0505427605494 -0.0132820873259 -5.78277483424e-24)
(0.0515055752825 -0.0163120995302 -1.09910284229e-23)
(0.0526858349074 -0.0193518093137 -2.1931752424e-23)
(0.0540997960741 -0.0223978103426 -2.9934743552e-23)
(0.0557668493356 -0.0254476770218 -3.02628958542e-23)
(0.0577113331184 -0.0284960130247 -1.58881226526e-23)
(0.0599640162245 -0.0315438032299 -3.03774136806e-23)
(0.0625546834376 -0.0346083320265 -9.29230344785e-23)
(0.0655055037267 -0.0376671223431 1.68393384476e-22)
(0.0688060682577 -0.0406019836782 5.67543260827e-22)
(0.0722410335713 -0.0431564877023 -1.26158805599e-21)
(0.0754489124885 -0.0458124030308 -8.41876041667e-21)
(0.0783027373504 -0.0550026368339 -2.06857983325e-20)
(0.078665575929 -0.0613750243427 -8.992461303e-21)
(0.0745082023825 -0.0507127663231 -8.59122200885e-21)
(0.0275342704758 -0.0614922320045 -1.64820002877e-21)
(0.0482373342827 -0.00201257414318 -1.43967922455e-21)
(0.0511986536812 -0.00356481006614 1.20513482047e-21)
(0.0520689935246 -0.00675452277293 4.71215743333e-22)
(0.0527095262679 -0.00959647135264 -4.23676623659e-23)
(0.0534769696863 -0.0124167076662 -2.60657805834e-23)
(0.0544408722138 -0.0152342359222 -1.38210232705e-23)
(0.0556201347462 -0.0180479327252 -1.97475033235e-23)
(0.0570300112323 -0.0208507115562 -2.9644761033e-23)
(0.0586887623577 -0.0236360353499 -3.13082876308e-23)
(0.0606196233973 -0.0263940636709 -6.13018059534e-24)
(0.0628522792276 -0.0291190526174 -1.10920791981e-23)
(0.0654164506486 -0.0318195780024 -5.40437783419e-23)
(0.0683353109441 -0.0344732363011 -1.41416181321e-23)
(0.0715979877958 -0.0369727295538 3.10955964652e-22)
(0.0749734290318 -0.0390762243686 -6.61213571357e-22)
(0.078014355505 -0.0409842323439 5.4598452284e-22)
(0.0804544975104 -0.048381178493 -1.91898211886e-21)
(0.0815013119274 -0.0555437443719 -8.69524666808e-21)
(0.0783897128344 -0.0443699377945 -8.66220823389e-21)
(0.0348819598083 -0.054987946584 2.80092047229e-22)
(0.0507409116686 -0.00188883885778 -6.04572861775e-22)
(0.0538862213769 -0.00329940802846 1.7937154479e-21)
(0.0547982901147 -0.0062938226925 -1.88808022915e-22)
(0.0554433480541 -0.00893572103312 -1.24572179822e-22)
(0.0562055372096 -0.0115552560247 -4.06317615104e-23)
(0.0571592907308 -0.0141634435265 -1.70679588595e-23)
(0.0583229689612 -0.0167555145132 -1.2778662873e-23)
(0.0597102785562 -0.0193207735243 -1.06024105548e-23)
(0.0613377457057 -0.0218486419391 -2.04757659649e-23)
(0.0632267513483 -0.0243248160544 -4.30178533519e-24)
(0.0654052451465 -0.0267368208006 -1.33956021856e-23)
(0.0679022528317 -0.0290844439004 -3.30102445629e-23)
(0.0707419833671 -0.0313446098742 1.28561522636e-22)
(0.0739142643499 -0.0334221239353 6.51220477481e-22)
(0.0771781405337 -0.0351049846388 1.36272385851e-22)
(0.0799823701925 -0.0363395468817 1.09269926105e-22)
(0.0818014247587 -0.0417645651862 -1.42005385613e-20)
(0.083012075908 -0.0500005530938 -1.11879813622e-20)
(0.0811648047695 -0.0383561997735 -1.07262413835e-20)
(0.0418366885444 -0.0404562080329 2.12546900121e-21)
(0.0530629693322 -0.00176413549066 -1.44851503767e-21)
(0.05638597364 -0.00303837492132 -7.73997835891e-22)
(0.0573375325057 -0.00583891176483 -5.47550705039e-22)
(0.0579825362973 -0.00828384654156 -1.88217579429e-22)
(0.058732344442 -0.0107072405656 -3.09903353471e-23)
(0.0596660556228 -0.0131120778476 -7.87980582681e-24)
(0.0608011143176 -0.0154902402292 -3.70764848144e-24)
(0.0621491284275 -0.017827804761 -1.2225527689e-24)
(0.0637240665151 -0.0201102639278 -5.5531507638e-24)
(0.0655446326072 -0.0223186354017 1.96114922161e-23)
(0.0676360963584 -0.0244336503287 9.91523516309e-24)
(0.07002629825 -0.0264458788885 -1.78394338789e-23)
(0.0727408929544 -0.0283299222526 -1.76305763698e-23)
(0.0757738288288 -0.0300025380279 6.64301329118e-23)
(0.0788897800104 -0.0312909079105 -2.8739970263e-22)
(0.0814444967225 -0.0319381365713 6.371457296e-22)
(0.0825050252676 -0.0353456221954 -5.58001687432e-21)
(0.0824042465434 -0.0450981637561 -1.28529125025e-20)
(0.0739370675243 -0.0321067918658 -1.2726458485e-20)
(0.040731210696 0.0109267274704 -5.9116462135e-21)
(0.0552063730379 -0.00163919905446 -1.88961769372e-21)
(0.0587008622569 -0.00278398217399 -8.97885900598e-22)
(0.0596903859212 -0.00539367081956 -4.33175541698e-22)
(0.0603319349753 -0.00764658995945 -1.98413682877e-22)
(0.0610636764679 -0.00988035120014 -5.63601743779e-23)
(0.061969421536 -0.0120905075874 -1.43949165125e-24)
(0.0630652277794 -0.0142660488143 2.93950029518e-25)
(0.0643597290676 -0.0163900086142 9.10180328461e-25)
(0.0658634897001 -0.0184439941757 -1.14727503435e-23)
(0.0675914579306 -0.0204044777254 2.8997744512e-24)
(0.0695648816759 -0.0222452253079 1.05513669723e-23)
(0.0718091806384 -0.0239463829745 -7.30092996166e-25)
(0.0743508629015 -0.0254765363837 8.49955337713e-23)
(0.077190678364 -0.0267586700319 3.03832164208e-22)
(0.0801172177939 -0.0276459239932 -2.14089257305e-22)
(0.0824383556359 -0.0277443019793 2.36269056718e-21)
(0.0827849498709 -0.0291478735898 1.74231136513e-21)
(0.0786096314411 -0.0402866826049 -6.46271968084e-21)
(0.0185425776941 -0.019184236812 -6.80839961014e-21)
(-0.0012980442995 0.137625310475 -2.1712158623e-20)
(0.0571752085866 -0.00151449753893 -1.49781200686e-21)
(0.0608351904328 -0.00253784399472 -2.80522600803e-22)
(0.0618619568337 -0.00496065951481 -2.30625024012e-22)
(0.0624980399314 -0.00702787970751 -1.10507155317e-22)
(0.0632081464714 -0.00908059554945 -8.65796998221e-24)
(0.0640805117835 -0.0111071126074 -1.14446250929e-23)
(0.0651292603017 -0.013093801586 -1.38681647554e-23)
(0.0663594219713 -0.0150215480434 4.43562805748e-24)
(0.067777108938 -0.0168689586402 9.21312892498e-25)
(0.06939196609 -0.0186080717112 3.99344785597e-24)
(0.0712193937192 -0.0202055099975 -1.69380815148e-23)
(0.0732796854739 -0.0216298884294 -2.49621525694e-23)
(0.0755968009192 -0.0228389711595 1.20236511446e-22)
(0.0781740037537 -0.0237513483904 5.03503300156e-22)
(0.080818055546 -0.0242153059192 8.89514071401e-22)
(0.082839681372 -0.0237533077357 -9.38353806244e-22)
(0.0826800733911 -0.0229299300387 -1.01986528427e-20)
(0.0735643165241 -0.0341717361 -3.61987011322e-21)
(-0.0817359974676 -0.0113263811924 -3.47767681405e-21)
(-0.0233508377302 0.0771348172545 3.49475166828e-22)
(0.0589744001862 -0.0013904715126 -3.86792214879e-22)
(0.0627941079042 -0.00230089449537 9.035031766e-22)
(0.0638582694169 -0.00454134195226 1.17331365019e-22)
(0.0644887293887 -0.00643008897038 -4.95283409136e-23)
(0.0651759790798 -0.00831114521188 -9.10563894439e-24)
(0.0660124397701 -0.0101663768457 -1.9073071669e-23)
(0.0670101938533 -0.0119806301532 -2.45738071539e-23)
(0.0681698964244 -0.0137334135384 -2.2290907355e-23)
(0.0694918160853 -0.0154009291174 6.69927918161e-24)
(0.0709786893756 -0.0169516485456 -1.72031356205e-23)
(0.0726377143978 -0.0183459509181 -1.62066658443e-23)
(0.0744804020416 -0.0195413344372 -2.64088804026e-23)
(0.0765223686475 -0.020483091043 5.34943176093e-23)
(0.0787602071268 -0.0210819753981 1.30769303404e-22)
(0.0809994978877 -0.0211895122385 -1.1644521631e-21)
(0.0825435259841 -0.0203132787716 -2.74823319866e-21)
(0.0816393579632 -0.0177839105595 -1.69643492755e-20)
(0.0724176383602 -0.0278840814197 -1.26478363071e-21)
(-0.0973169522636 -0.0160947672048 6.62604311026e-21)
(-0.0185368881395 -0.0338293918062 1.1819722407e-20)
(0.0606089425984 -0.00126659762855 7.4743071882e-24)
(0.0645829570238 -0.002072596599 2.71300546773e-21)
(0.0656857534131 -0.00413531905347 1.28455894694e-22)
(0.0663123799609 -0.00585293356425 -5.89446580373e-23)
(0.0669782340747 -0.00757225700038 -1.14234589406e-23)
(0.0677801351978 -0.00926979787 1.66501464137e-24)
(0.0687276517021 -0.0109296169447 5.52874934148e-24)
(0.0698162665054 -0.0125309596556 -5.23616995596e-23)
(0.0710394996911 -0.0140490626576 2.83699646289e-24)
(0.0723915679407 -0.0154503776193 8.86257153738e-24)
(0.0738690341409 -0.0166908868782 -7.24049540472e-23)
(0.0754708417863 -0.0177191319424 1.65374520318e-23)
(0.0771985887971 -0.0184692117052 5.14768073877e-23)
(0.0790349528553 -0.0188448999579 2.29426691003e-22)
(0.0807781239808 -0.0187201074346 -1.58969629873e-21)
(0.0817325151439 -0.0177587090045 -6.81650067188e-21)
(0.0799568213979 -0.0139772164878 -2.88643741211e-20)
(0.0723525154337 -0.02311135599 -7.15776277827e-21)
(-0.0824939713573 -0.0127401059772 6.18804373893e-21)
(-0.0217241462867 -0.0355411618147 1.22869272428e-20)
(0.0620832984931 -0.00114252672475 -6.54031204332e-22)
(0.0662067377533 -0.00185187788774 3.18413555209e-22)
(0.067350504351 -0.00374053219887 -2.26414705106e-22)
(0.0679772636302 -0.00529379937818 -1.31967167866e-22)
(0.0686263937085 -0.00686104022913 -4.36516582547e-23)
(0.0693991332014 -0.0084142116899 -3.09417198161e-23)
(0.070302336484 -0.00993773401998 4.23963834845e-24)
(0.0713259815232 -0.0114122152323 -1.28071129676e-23)
(0.0724560613393 -0.0128137966763 -1.53070100787e-24)
(0.0736769347218 -0.0141090539606 1.48792230129e-25)
(0.0749724216334 -0.0152523113048 -3.37295077349e-23)
(0.0763255977731 -0.0161865489433 -1.561124415e-23)
(0.0777191007462 -0.0168370708708 -1.10534681112e-23)
(0.0791171174047 -0.0171003790871 2.18337085201e-23)
(0.0803123871584 -0.0168819637545 -9.13893336373e-22)
(0.0806133487084 -0.0161217357955 -4.4214795686e-21)
(0.078052215074 -0.0114431084531 -9.1808183198e-21)
(0.072129069487 -0.0194254998047 -8.55697281371e-21)
(-0.0678534064354 -0.00978499216636 -8.27485118872e-21)
(-0.023210347601 -0.0308500481985 -3.87089753282e-21)
(0.0634010110058 -0.0010175324495 -1.22895654615e-21)
(0.0676693630924 -0.00163702314731 -5.21189478256e-22)
(0.0688574775739 -0.00335382749448 -4.82030959747e-22)
(0.0694907735654 -0.00474766153922 -2.24374560303e-22)
(0.0701309712369 -0.00617068221976 -5.05429051841e-23)
(0.0708841643237 -0.00759117293276 1.37763813459e-23)
(0.0717547882007 -0.00899526799634 -7.43476459325e-24)
(0.0727272279887 -0.0103668114407 -2.18386447947e-23)
(0.0737795131821 -0.0116850496994 2.01244289111e-23)
(0.0748853026813 -0.0129193897509 -1.08903614982e-23)
(0.0760141832352 -0.0140260503036 -2.84030226878e-23)
(0.077130745904 -0.0149470366345 5.44355079528e-23)
(0.0781939116748 -0.0156025147016 -4.24985224933e-23)
(0.0791430779778 -0.0158792884996 5.13755074946e-23)
(0.0797649906777 -0.0157182212851 -7.10418758101e-22)
(0.0793866777694 -0.0153905810169 -1.91449951255e-21)
(0.0761178383808 -0.0102034065122 1.36944618271e-21)
(0.0715975015784 -0.0167216646519 -7.08785593509e-21)
(-0.0555665843337 -0.00813992632804 -1.23149442363e-20)
(-0.0222748491744 -0.0287329265701 -9.95249334545e-21)
(0.0645641846509 -0.000890491374918 -1.39367885623e-21)
(0.06897283785 -0.00142537452234 9.66034949304e-23)
(0.0702094002256 -0.00296999804898 2.65295839857e-22)
(0.0708580601276 -0.00420617968835 -9.77802115397e-23)
(0.0715001662494 -0.00549007551379 -1.32247860055e-23)
(0.0722478091794 -0.00678670098851 8.64220885672e-24)
(0.0731036651778 -0.00808537136184 9.79907692306e-24)
(0.0740467828502 -0.00937515718647 2.63401856925e-23)
(0.0750473237446 -0.0106408564578 7.67393077154e-24)
(0.0760681405027 -0.0118578748522 2.35320286951e-23)
(0.0770640412232 -0.012988664202 2.46254181146e-24)
(0.0779797364244 -0.0139804088512 6.20027144298e-23)
(0.0787466893651 -0.0147553025167 6.37542408334e-23)
(0.0792661810838 -0.015189843927 1.3918325356e-22)
(0.0793181869159 -0.0152312928882 -6.56853164206e-22)
(0.078297524829 -0.0155638730204 -3.00148374225e-21)
(0.0743162019664 -0.0103590519119 -1.20133111376e-20)
(0.070832517652 -0.0151470851435 -5.18394105494e-21)
(-0.0450074496124 -0.0080671876307 3.18658777113e-21)
(-0.018740553766 -0.0291182259022 2.54159261421e-21)
(0.0655737035875 -0.000760387074052 -9.72809010642e-22)
(0.0701161545757 -0.0012137805049 -1.68730836599e-22)
(0.0714057849797 -0.00258154692837 1.78507889428e-22)
(0.0720813555497 -0.0036572937128 3.17909442489e-23)
(0.072738779796 -0.0048037885952 -6.9589729259e-25)
(0.0734990237523 -0.00598131728247 -1.27682545425e-23)
(0.074363849351 -0.00718399484062 -1.45537668812e-23)
(0.0753076067038 -0.00840815822814 -8.67660917903e-24)
(0.0762932298322 -0.00964660578471 1.7009106354e-23)
(0.0772738640405 -0.0108842149091 -6.19721674794e-24)
(0.0781901903722 -0.0120945417309 3.29017205802e-23)
(0.0789676894913 -0.0132375150941 8.74585811827e-23)
(0.0795110618511 -0.0142510082398 2.03540440808e-23)
(0.0796776560557 -0.0150073699455 1.95461630642e-22)
(0.0791931293747 -0.0153851264451 1.94389855816e-22)
(0.0776474563723 -0.0166059419098 -4.67688105894e-21)
(0.0730017463055 -0.0119677448664 -5.6972749676e-21)
(0.0700347639608 -0.0148613242201 -3.97252613429e-21)
(-0.035474254531 -0.00970465741007 -1.19262618164e-21)
(-0.0126432799912 -0.0329413585736 4.04392849754e-22)
(0.0664235526739 -0.000627521988676 -8.88088660057e-22)
(0.0710934015565 -0.000999841594995 6.49480140055e-22)
(0.0724424282856 -0.00217664980017 1.24451975329e-22)
(0.0731586301738 -0.00308443375759 3.72012979286e-23)
(0.0738467147218 -0.00409263180664 4.78000163853e-24)
(0.0746415683952 -0.00515061566676 -1.37708777843e-23)
(0.0755443785804 -0.00626038521725 -4.46378754178e-24)
(0.0765257292083 -0.0074275286745 -4.04279236337e-23)
(0.0775432258174 -0.00865504045443 -2.5714905927e-23)
(0.0785422948916 -0.00994050610718 -5.86102448691e-24)
(0.079452240165 -0.0112735953076 -4.58124421861e-23)
(0.0801817098309 -0.0126334211829 3.91669308918e-23)
(0.0806148518195 -0.0139894784515 5.32152138202e-23)
(0.0805668488272 -0.0152434925447 6.08564907466e-22)
(0.0796644444573 -0.016072197617 4.60319578829e-23)
(0.0777089662157 -0.0183858501197 -4.34406100134e-21)
(0.0726068697933 -0.0149994695354 -9.71796550801e-21)
(0.0696317826706 -0.0161482060606 -4.27248143835e-21)
(-0.0253619003163 -0.0138062929317 7.69011192536e-22)
(-0.00372068815044 -0.0425301319765 1.78606577707e-21)
(0.0671342082781 -0.000485474524282 -5.29088904132e-22)
(0.0719025251369 -0.000767423448226 9.0525316085e-23)
(0.0733120698485 -0.00173455524567 -4.92743396548e-23)
(0.0740832886783 -0.00246853622171 5.87452040067e-23)
(0.0748186557485 -0.00333557785165 -1.29455642494e-23)
(0.0756732617389 -0.0042668009118 -3.12014395683e-23)
(0.0766466326433 -0.0052788655998 -1.21377658249e-23)
(0.0777086356752 -0.00638788028524 -1.82190186352e-23)
(0.0788120404941 -0.00760825246818 -6.42047627402e-24)
(0.0798998765526 -0.00895309747567 -2.36672942319e-23)
(0.0808936484236 -0.0104328097062 -6.82846507513e-23)
(0.0816885696068 -0.0120500031541 -2.68397485977e-23)
(0.0821534301808 -0.0138144682771 1.48522009646e-24)
(0.0820954843892 -0.0157219186846 3.43941610752e-23)
(0.0810099251164 -0.0171715714782 4.54552407898e-22)
(0.0787805917174 -0.0207608329094 -3.42699165795e-21)
(0.073573402825 -0.0194807251781 -4.01474900096e-21)
(0.07044183012 -0.0195968161513 -2.8810461037e-21)
(-0.0119210066099 -0.0212125853833 -6.97778341768e-22)
(0.00860834069957 -0.0560315997114 -5.82638807461e-22)
(0.0676002889838 -0.000298955428509 -3.80515423188e-22)
(0.072506360046 -0.000495398259697 1.44827806706e-22)
(0.0740099747102 -0.00124215457398 -3.03267287204e-22)
(0.074837757355 -0.00179548154376 -6.41550553549e-23)
(0.0756414777099 -0.00251109045548 -2.75647523119e-23)
(0.0765832005638 -0.00330022891478 9.20767039659e-24)
(0.077662027774 -0.00420058674562 2.15695332743e-23)
(0.0788476403234 -0.00523789346486 -3.21323964247e-25)
(0.0800974048921 -0.00643983596211 7.09985535875e-24)
(0.0813495303107 -0.0078347537619 3.92287442987e-25)
(0.0825312493216 -0.00945958832214 -2.47137675825e-23)
(0.0835281396378 -0.0113472777678 3.86245864779e-23)
(0.0841970218593 -0.0135339785801 1.0723957392e-22)
(0.0843633163599 -0.0161603456149 4.53491689197e-22)
(0.0834643671322 -0.0184258353686 -2.77811505163e-22)
(0.0811863867077 -0.023428012064 -3.5184171887e-21)
(0.076483391667 -0.0248641681261 -2.72965426582e-21)
(0.0734670028788 -0.0248225274376 -1.92339464118e-21)
(0.00480541711221 -0.0304889078486 -2.67965363794e-21)
(0.0241727021285 -0.0698432725794 -1.55591156389e-21)
(0.0678835984127 -0.000165925864793 -2.90023068082e-22)
(0.0728971564431 -0.000215878342761 3.85076224785e-22)
(0.0745169194605 -0.000708321735369 -4.05876272084e-23)