/*--------------------------------*- C++ -*----------------------------------*\
| =========                 |                                                 |
| \\      /  F ield         | OpenFOAM: The Open Source CFD Toolbox           |
|  \\    /   O peration     | Version:  v2012                                 |
|   \\  /    A nd           | Website:  www.openfoam.com                      |
|    \\/     M anipulation  |                                                 |
\*---------------------------------------------------------------------------*/
FoamFile
{
    version     2.0;
    format      ascii;
    class       surfaceVectorField;
    location    "1.4";
    object      Uf;
}
// * * * * * * * * * * * * * * * * * * * * * * * * * * * * * * * * * * * * * //

dimensions      [0 1 -1 0 0 0 0];


internalField   nonuniform List<vector> 
3840
(
(0.00253303693166 -0.0031559347315 1.00130935366e-21)
(0.0031559725719 -0.0025338131016 2.91125196682e-22)
(0.00308628058918 -0.00737211460552 7.4281784065e-22)
(0.00421621960809 -0.0053194503747 1.24824488866e-21)
(0.00310542292796 -0.0117201505205 -2.14787866454e-22)
(0.00434807368626 -0.0100265732899 -1.1380419951e-22)
(0.00306820115013 -0.016035571528 -4.3129669873e-22)
(0.00431545490283 -0.0144299442016 -5.96353092154e-22)
(0.00307534936284 -0.0203757910217 -5.08063536804e-22)
(0.00434024740475 -0.0188424410118 -2.13526963032e-21)
(0.0031203131443 -0.0247994525631 -4.51652836438e-22)
(0.00442371741018 -0.02333796517 -1.06636914365e-21)
(0.00319303740676 -0.0293502088695 6.71630183643e-22)
(0.00455084211929 -0.0279556275473 -1.42987094537e-21)
(0.0032892667893 -0.034065557502 1.78252404138e-21)
(0.00471546353285 -0.0327269093517 5.95436496473e-22)
(0.0034068248911 -0.0389817358001 1.97396097893e-21)
(0.00491632211046 -0.0376826820831 1.35420951413e-21)
(0.00354161289495 -0.0441351835542 1.04307065014e-21)
(0.00515357509186 -0.0428539139731 5.75459550514e-23)
(0.00367274783285 -0.0495617993927 2.04568834686e-22)
(0.00542677958964 -0.048300020961 -3.75643357289e-22)
(0.00370264159061 -0.0552768564626 3.5563010334e-22)
(0.00571524213698 -0.0540755830196 -3.53939876276e-22)
(0.00339813986962 -0.0611779106275 4.62302592934e-22)
(0.00590123430859 -0.0600956644686 -2.73421111979e-22)
(0.00264780898763 -0.0669475896654 2.87523875951e-22)
(0.00576984365474 -0.0663074999653 6.01447161031e-22)
(0.0024573837263 -0.0724029935263 -7.26522487637e-22)
(0.00545552704099 -0.0728906396086 -1.08759050717e-22)
(0.0079638228664 -0.0787148948755 -4.70671722193e-21)
(0.00631197018747 -0.0814906361921 -2.60201451227e-21)
(0.0342029921901 -0.0903680866013 -1.97503053101e-20)
(0.0116532082211 -0.0988333465751 -6.91330612807e-21)
(0.096707386569 -0.121582789135 -2.87569343884e-20)
(0.0312144649783 -0.10756166321 -2.4499710135e-20)
(0.0728333099965 -0.183013675643 -1.48884977874e-20)
(0.061430223696 -0.103236757276 -2.29947467654e-20)
(0.0256352501816 -0.126598245342 1.72997396317e-22)
(0.00537189551484 -0.00420967928821 5.38060731685e-22)
(0.00736569037603 -0.0031138114464 4.66023850528e-22)
(0.00604891005405 -0.00843519169862 3.91622848504e-22)
(0.00844176990513 -0.00596121117911 2.70377032563e-21)
(0.00615111951048 -0.0127683328714 -4.9536942521e-22)
(0.00868124992922 -0.0106003687417 2.84207310885e-22)
(0.0061945254901 -0.017220047895 -2.30032602374e-21)
(0.0087671998179 -0.0150541787745 -6.01526763992e-22)
(0.00630652533227 -0.0217823402393 -2.69357523716e-21)
(0.00890256280423 -0.0195581766274 -2.2339857266e-21)
(0.00648376270298 -0.0264670523709 -2.04458725258e-21)
(0.00910847785517 -0.0241758075745 -9.82948065724e-22)
(0.00671636454912 -0.03129701075 -1.50606463254e-21)
(0.00938089883638 -0.0289298584814 -1.37483043012e-21)
(0.00700160650918 -0.0363005376849 1.67121969218e-22)
(0.00971904594744 -0.0338431305811 -1.37952124283e-22)
(0.0073406965597 -0.041509442114 -5.62205509757e-22)
(0.0101254549938 -0.0389427216962 6.14215876952e-22)
(0.00773696913278 -0.046959885029 -1.36116805238e-21)
(0.0106041574234 -0.0442568317763 -1.37120059205e-21)
(0.00818927087011 -0.0526942145373 -9.34152068252e-22)
(0.0111612851195 -0.0498439753819 -3.47932656304e-22)
(0.00866216894982 -0.0587768116002 -9.82991091595e-22)
(0.011798039662 -0.0557774972683 -5.92256972845e-22)
(0.00907419419005 -0.0653684538696 -1.34276543882e-22)
(0.0124930805734 -0.0620154369553 -2.45081738087e-22)
(0.00946686397823 -0.0728299787879 2.05164234363e-22)
(0.0132315439992 -0.0685677680382 7.01312370425e-22)
(0.010359545794 -0.081564495989 -1.98425107535e-21)
(0.0141901805826 -0.075858292289 -1.04753761267e-21)
(0.0121320890826 -0.0914801226822 -4.80860341841e-21)
(0.0162276711413 -0.0859789392098 -4.94317198481e-21)
(0.0144400681462 -0.0999701178423 -1.1662710953e-20)
(0.0201432190758 -0.102716977882 -6.63744181001e-21)
(0.0133606464975 -0.0930291633666 -1.8737522512e-20)
(0.0242722794619 -0.106035305001 -1.75011237944e-20)
(0.0197768268831 -0.0594492967777 -7.93325158176e-21)
(0.0278506950929 -0.0915489851589 -1.62957526814e-20)
(0.00677994470576 -0.0602070134473 1.87053328076e-21)
(0.00996132922612 -0.00433621662809 2.63173344447e-21)
(0.0117019396837 -0.00312648796053 9.14549625349e-22)
(0.0105920716952 -0.008601404061 2.59635478801e-21)
(0.0127069878498 -0.00596016201773 3.64256525238e-21)
(0.0107974735394 -0.0129292068256 1.78049972103e-22)
(0.0130090794463 -0.0106136641818 5.76085577929e-22)
(0.0109647520489 -0.0173759652398 -5.35186466851e-22)
(0.0132139799306 -0.0150486647891 -1.15776695591e-22)
(0.0111903596047 -0.0219396259527 -5.23358555163e-22)
(0.0134662374725 -0.0195245897169 -4.47568556672e-22)
(0.0114899301188 -0.0266286212648 -3.1319124326e-22)
(0.0137975145338 -0.0241113595637 -1.0412293719e-23)
(0.01186633979 -0.0314626238664 -6.71792185946e-24)
(0.0142149292474 -0.0288316351946 -6.17154685478e-23)
(0.0123233820348 -0.0364675670452 3.09141783451e-22)
(0.0147241734297 -0.0337067893552 1.45408472101e-22)
(0.0128666179698 -0.0416743502614 -1.94779205343e-22)
(0.0153323125846 -0.0387625877557 8.50352569985e-23)
(0.0135039422472 -0.047118610672 -3.57965195977e-22)
(0.016048677348 -0.0440255921312 -1.96911822535e-22)
(0.0142447627576 -0.0528424956976 -6.03756089705e-24)
(0.0168853736383 -0.04955187947 -8.57281343576e-23)
(0.0150959405543 -0.0588981277882 1.45652380663e-22)
(0.0178538961031 -0.0554151993214 9.00348811152e-23)
(0.016074227104 -0.0653697873661 5.9050717622e-22)
(0.0189649594017 -0.0615636871662 6.47696746593e-23)
(0.0172773383091 -0.072392425393 -5.51389476607e-22)
(0.0202543810336 -0.0678955633667 6.06825824584e-22)
(0.0191399580325 -0.0800118100505 -4.00645852213e-21)
(0.0218097131972 -0.0745000820749 -1.12824350997e-21)
(0.0222249392104 -0.0877436642423 -6.77201037641e-21)
(0.0239596093937 -0.0832853871831 -2.39434976596e-21)
(0.025598934222 -0.0943463810363 -1.24758546515e-20)
(0.0267459598874 -0.099175621533 -5.17314362721e-21)
(0.0273655470902 -0.0977592311654 -1.50593539638e-20)
(0.0276835608196 -0.101991839344 -1.11624008982e-20)
(0.0103039116754 -0.0951043583976 -6.49196781891e-21)
(0.0251964917734 -0.0925875475668 -8.82568818772e-21)
(-0.000926805728689 -0.0963327737342 -6.59998143334e-22)
(0.0143479244333 -0.00420101015394 1.92538143326e-21)
(0.0159029722926 -0.00301820959827 4.25017881442e-22)
(0.0150231908586 -0.00846707157066 1.6222960423e-21)
(0.016973067975 -0.00578586467352 3.39252328867e-21)
(0.0153122070594 -0.0127833092714 2.82258910235e-22)
(0.017325331479 -0.0104311448057 7.5696938045e-22)
(0.0155899056303 -0.0171850127923 -2.81587854116e-23)
(0.0176156922163 -0.0148134608287 7.496531077e-23)
(0.0159368171069 -0.0216880774929 6.53777047722e-23)
(0.0179693022929 -0.0192188850349 -3.69244435399e-23)
(0.0163744694929 -0.0263085336097 2.41063480993e-22)
(0.0184179778664 -0.0237238876602 1.39782087761e-22)
(0.0169123095081 -0.031067274931 9.04109254126e-23)
(0.018973733222 -0.0283538246589 1.64223370113e-22)
(0.0175590679825 -0.0359896558135 -7.86980543512e-23)
(0.0196465847962 -0.0331297799526 -5.4469576218e-23)
(0.018325061851 -0.0411045616859 8.29026398062e-23)
(0.0204476135767 -0.0380761042117 -3.70333783893e-23)
(0.0192236097339 -0.0464461826286 7.53252390846e-23)
(0.0213904842278 -0.0432171173574 1.42240540559e-22)
(0.0202695974275 -0.052053941025 1.03443076547e-23)
(0.0224934180432 -0.0486049315221 -5.81034429913e-23)
(0.0214780972411 -0.0579723525981 9.15217511131e-24)
(0.0237725660708 -0.0543093550547 5.87414937643e-23)
(0.0228740581914 -0.0642503184117 8.10883230236e-23)
(0.0252431771273 -0.0602738788339 3.94249727703e-23)
(0.0244927315749 -0.0709313071811 2.99717912222e-23)
(0.0269355901955 -0.0663587685828 4.3425542022e-22)
(0.0264443330458 -0.0779763638086 4.83865246201e-22)
(0.0288549403659 -0.0725461372651 -1.28336639747e-22)
(0.0288188363226 -0.0850643360959 -7.95483016758e-22)
(0.0310476786782 -0.0807057937553 1.55101619501e-22)
(0.0300429801003 -0.0917163695816 -3.85968987397e-21)
(0.0333980204264 -0.0964007280049 -4.36118041517e-21)
(0.0288749787081 -0.0967024975334 -4.92873512214e-21)
(0.0326683844646 -0.0995825905368 -5.46941292313e-21)
(0.0155018014568 -0.102110263571 -2.99371851214e-21)
(0.0306046810468 -0.0911637752747 -5.18306152278e-21)
(0.00260016812321 -0.104432082165 -1.54230308981e-21)
(0.0185301712941 -0.00404991169731 1.89215973685e-21)
(0.0199528934859 -0.00291420621688 -2.2649629091e-22)
(0.0192919755312 -0.00825465261684 2.52719662682e-21)
(0.0211778132389 -0.00559205571206 3.59660828875e-21)
(0.01964452537 -0.012513803623 5.49675780985e-22)
(0.0215844820486 -0.0101731329654 9.60242409546e-22)
(0.0200066084162 -0.01683880651 6.61996526418e-23)
(0.0219406892043 -0.014468242589 1.25365360179e-22)
(0.0204573806724 -0.0212498250725 3.74799394492e-23)
(0.0223803068025 -0.0187749252178 2.03103255821e-23)
(0.0210192883556 -0.0257669839022 6.2941976881e-23)
(0.0229351199126 -0.0231694373094 3.08734538007e-23)
(0.0217046664794 -0.0304120190594 1.93428684821e-23)
(0.0236187826801 -0.0276777718311 3.7933792192e-23)
(0.0225255828543 -0.0352090886314 -1.28049002561e-23)
(0.0244437566977 -0.032320061535 -1.81831839159e-23)
(0.0234961464775 -0.0401853313498 2.23045223632e-23)
(0.0254240288659 -0.0371188522358 -1.32561555474e-23)
(0.0246342677779 -0.0453711486171 8.81185848284e-24)
(0.0265767890522 -0.0420956278631 1.55589717594e-23)
(0.0259590266095 -0.0508013803933 -9.70625688167e-24)
(0.0279240516956 -0.0472972245196 -2.37660563274e-23)
(0.0274867349743 -0.0565135940605 8.90142914233e-23)
(0.0294850781568 -0.0527880422612 -1.22557752242e-23)
(0.0292360401806 -0.0625438980514 3.92592069967e-22)
(0.0312737637216 -0.0585096476695 2.00859953097e-22)
(0.0312006778626 -0.0689144295038 2.75946989251e-22)
(0.0333063739536 -0.0643094520237 6.11263529885e-22)
(0.0333348765661 -0.075586872852 -4.57100266447e-22)
(0.0355275799465 -0.0701334265053 -8.8342795519e-23)
(0.0355414457554 -0.0823805867323 -3.41059577891e-21)
(0.0378415053356 -0.0778220467123 -1.11259801823e-21)
(0.0360465486721 -0.089088122555 -5.97090346433e-21)
(0.0401055888386 -0.0933525540391 -6.69588788388e-21)
(0.0343555010097 -0.0951059551178 -5.72373932377e-21)
(0.038684842208 -0.0968422299546 -6.65950296491e-21)
(0.018538863938 -0.100825055827 -3.73164610044e-21)
(0.0363243036375 -0.0886500516251 -6.1788946696e-21)
(0.00548625879734 -0.102327569583 -2.39431921237e-21)
(0.0225894106732 -0.003910247301 1.47795226098e-21)
(0.0238631358231 -0.00282050850358 -4.66852399007e-23)
(0.0234673238086 -0.00801516288752 2.02965407147e-21)
(0.0252827175464 -0.0053949480193 2.06642369183e-21)
(0.0238776739654 -0.012178890137 5.3593198874e-22)
(0.0257481930886 -0.00987124709307 4.95758768419e-22)
(0.0243091911127 -0.0163989905242 7.94760331197e-23)
(0.0261607684054 -0.0140507008842 8.06770615555e-23)
(0.0248495781164 -0.0206935068549 1.37038399337e-23)
(0.0266747970728 -0.0182348965188 7.66465713151e-24)
(0.0255221211175 -0.0250825163754 5.86526911175e-24)
(0.0273241011524 -0.0224960074799 -1.79691250978e-25)
(0.026340542164 -0.0295869100416 4.07739793907e-25)
(0.0281231683304 -0.0268586532854 -3.15845708116e-25)
(0.0273190398992 -0.0342290243334 -1.86344392073e-23)
(0.0290859660111 -0.0313410992999 -1.42545744835e-23)
(0.0284744174336 -0.0390332767617 -2.00017061512e-23)
(0.0302285048294 -0.0359635337931 -1.41187162957e-23)
(0.0298277154028 -0.0440265792144 -1.70189430508e-23)
(0.031570428455 -0.0407444180323 -2.55951312113e-23)
(0.0314007070183 -0.0492384350563 -2.63155746698e-23)
(0.0331363979237 -0.0457249421825 -1.38679055152e-23)
(0.0332096497498 -0.0546998740208 9.95898864493e-23)
(0.0349468524845 -0.0509642597894 -1.55093451345e-23)
(0.0352657176687 -0.0604394803005 4.19531413015e-22)
(0.0370136907915 -0.0564063460822 2.09003139485e-22)
(0.0375352096057 -0.0664743820945 2.46973745115e-22)
(0.039341562553 -0.0618929829511 4.78234872325e-22)
(0.0399114706878 -0.0727807598521 -7.438405473e-22)
(0.0418341825287 -0.0673391656549 -7.47084365653e-22)
(0.0422547458152 -0.0792671223369 -4.39789012319e-21)
(0.044327997941 -0.0745326311102 -4.03683742517e-21)
(0.0425925285374 -0.0858682255359 -7.38448738445e-21)
(0.0467067304971 -0.0898088366663 -5.34864463905e-21)
(0.0405475117582 -0.0921468297054 -7.11465831074e-21)
(0.0449621003809 -0.0935924130144 -1.83026658738e-21)
(0.0230221337572 -0.0980652068081 -4.84156778152e-21)
(0.0422432236399 -0.0853445800625 -1.76038898153e-21)
(0.00793397968286 -0.098690306001 -2.61814690325e-21)
(0.0265334148336 -0.00377033447343 5.4178619095e-22)
(0.0276334504373 -0.00272802706257 6.78717369795e-23)
(0.0275432767826 -0.00775120105769 5.32528388781e-22)
(0.0292635571931 -0.00518745333056 2.25220765998e-21)
(0.0280099972894 -0.0117926433823 4.05038412351e-23)
(0.0297896035486 -0.00953255593968 4.45578280082e-22)
(0.0285023911039 -0.0158842490309 8.86568556734e-24)
(0.0302523377863 -0.0135737328708 6.10493527815e-23)
(0.0291214850043 -0.0200405164588 -6.21887405319e-24)
(0.0308310258254 -0.0176147693657 -6.64523508005e-24)
(0.029892386138 -0.0242795241674 -6.36080607084e-24)
(0.0315630749421 -0.0217221760001 -3.11102196762e-24)
(0.0308297832367 -0.028620145315 -1.49781599855e-23)
(0.0324637780329 -0.0259180666087 -1.18138833948e-23)
(0.0319493346606 -0.0330822489103 -9.73885157198e-24)
(0.0335481659272 -0.0302181495589 -1.90056316465e-23)
(0.0332697160589 -0.0376872187299 -1.97121413558e-23)
(0.0348337213515 -0.0346398459541 1.72220215725e-25)
(0.0348140678068 -0.0424582729207 -2.24440936756e-23)
(0.0363418554038 -0.0391984754157 -3.10460315524e-23)
(0.0366057749377 -0.0474204113787 -3.06167597987e-24)
(0.0380990816673 -0.0439296117415 -2.86707417914e-23)
(0.0386607958488 -0.052600063396 9.39039079012e-23)
(0.0401268779684 -0.0488876337742 -3.43611778398e-23)
(0.0409844673824 -0.0580220979795 2.67706598795e-22)
(0.0424360841774 -0.0540227555916 1.63691141855e-22)
(0.0435218994458 -0.0637038512542 -5.15823238443e-22)
(0.0450236385303 -0.0591773392699 2.4227880029e-22)
(0.0461315289806 -0.0696363454778 -4.04008124352e-21)
(0.0477669312346 -0.064232302152 -2.29368961815e-21)
(0.0486698526854 -0.0757829389201 -4.98759194103e-21)
(0.050474739295 -0.0708838292247 -8.43265913566e-21)
(0.0489873227941 -0.0821354444334 2.05576158015e-22)
(0.053059280604 -0.085766336227 -9.80738843327e-21)
(0.0466344847145 -0.0883432639043 3.52400274183e-21)
(0.05116859942 -0.0898327584871 -7.25946515924e-21)
(0.0270923058168 -0.0941559413581 4.63031896738e-22)
(0.0480564739031 -0.0813670343084 -6.65396729835e-21)
(0.010049927615 -0.0941857045712 -2.97617798946e-21)
(0.0303416341365 -0.00362367141722 1.77829320601e-21)
(0.0312570877342 -0.00263199512595 2.34952864674e-22)
(0.0314887494183 -0.00746247037203 2.16525755128e-21)
(0.0331023146042 -0.00496624954079 2.83628286673e-21)
(0.0320095592142 -0.0113614882563 4.66123791629e-22)
(0.0336885751664 -0.00916126622141 6.72705288901e-22)
(0.0325555624022 -0.0153050528008 4.55384321341e-23)
(0.0341958521966 -0.0130458749413 4.12443611685e-23)
(0.0332429591417 -0.0193040075755 -3.53738299448e-24)
(0.0348299300612 -0.016926150301 -3.31599552837e-25)
(0.0340993639616 -0.0233736609685 -8.56409929162e-24)
(0.0356326870315 -0.0208622217156 -1.75020511401e-24)
(0.0351403421642 -0.0275302034985 -1.58413550558e-23)
(0.0366203095999 -0.0248730971485 -1.75801876942e-23)
(0.0363826351456 -0.0317905835555 -9.09455985884e-24)
(0.0378086450187 -0.0289714662688 -1.10436251937e-23)
(0.037846309742 -0.0361728715912 -1.11616699809e-23)
(0.0392162837346 -0.0331716634972 -1.03514961738e-24)
(0.0395560870494 -0.0406966165596 -3.72726796682e-23)
(0.0408659988442 -0.0374857534707 -1.69115804416e-23)
(0.0415367480614 -0.0453828067548 -5.99702436513e-23)
(0.0427858723774 -0.0419436518494 -1.94810150527e-23)
(0.0438047129538 -0.0502543638741 3.54260561142e-23)
(0.0449988445153 -0.0465948678074 -6.12988325084e-23)
(0.0463623323884 -0.0553343320589 1.3826334335e-22)
(0.0475164472746 -0.0513972795856 5.74943335194e-23)
(0.049140941303 -0.0606422118175 -1.53558757941e-21)
(0.0503318748857 -0.0561976994751 2.06833247841e-25)
(0.0519786461512 -0.06617972718 -6.68626751029e-21)
(0.0533047288882 -0.0608405743186 -2.10932097956e-21)
(0.0547337848606 -0.0719340616326 -1.32524556279e-20)
(0.0562292383371 -0.066885196195 -5.64349064759e-21)
(0.0551305381301 -0.0779041766629 -1.72724297505e-20)
(0.0590294461297 -0.0812048309389 -1.14842353625e-20)
(0.0525568462803 -0.0839031340865 -1.74374351994e-20)
(0.0571662588086 -0.0855577121854 -1.39561483622e-20)
(0.0310051862822 -0.0895397212931 -1.00931771845e-20)
(0.0536936647682 -0.0768031536646 -1.31502812521e-20)
(0.0122170921286 -0.0891622348177 -3.49005470905e-21)
(0.033998826601 -0.00346826625495 1.2929425254e-21)
(0.0347253072655 -0.00253056672131 4.30841430639e-22)
(0.0352831130769 -0.00715071087377 1.34373060435e-21)
(0.0367847051364 -0.00473131234401 3.06539711682e-21)
(0.035854527901 -0.0108915636495 2.47825858441e-22)
(0.0374293694708 -0.00876183906686 7.63817768534e-22)
(0.0364467024636 -0.0146711116268 -4.62567051842e-24)
(0.0379753384652 -0.0124751934326 4.53700385139e-23)
(0.0371916919848 -0.0184966991249 1.45557832763e-24)
(0.0386554566905 -0.0161802645954 3.34658620797e-24)
(0.0381199501268 -0.0223805629154 -1.07662935166e-23)
(0.0395165032729 -0.0199303649188 1.50870998223e-24)
(0.0392478544514 -0.0263358412946 -1.27824578321e-23)
(0.0405755764273 -0.0237410704377 -1.7187293938e-23)
(0.040592975502 -0.0303762245629 -2.9842149523e-24)
(0.0418491350701 -0.0276217469805 1.68548633737e-24)
(0.0421764559271 -0.0345162448405 -6.78506007809e-24)
(0.0433565950827 -0.0315833685417 -7.93689039938e-25)
(0.0440243398792 -0.0387716227035 8.80084173912e-25)
(0.0451218029918 -0.0356345473408 -8.80837584113e-24)
(0.0461629860157 -0.0431593232056 -2.08096039097e-23)
(0.0471742137147 -0.0397992775961 9.78214055973e-25)
(0.0486104523183 -0.0476987618481 -3.92305551032e-23)
(0.0495387220757 -0.0441214830697 -4.54894482363e-23)
(0.0513687004877 -0.0524109904899 -8.05621765833e-23)
(0.0522291007318 -0.0485662090404 5.23946846211e-23)
(0.0543595278908 -0.057315826291 -5.73526566904e-22)
(0.0552370952959 -0.0529862733748 1.27277679485e-22)
(0.0574048790607 -0.0624167307279 -1.06654411687e-21)
(0.0584059385513 -0.057189216184 -8.00086612001e-22)
(0.0603640826573 -0.0676975125427 -3.87527038216e-21)
(0.0615101986585 -0.0625518478915 -1.72436828839e-21)
(0.0609310570085 -0.0731669108882 -8.16795397411e-21)
(0.0644989001324 -0.0761193240693 -8.51424383756e-21)
(0.0582550655595 -0.0788692417853 -9.66899441489e-21)
(0.0628673121262 -0.0807973819551 -8.97947073675e-21)
(0.0349149652193 -0.0842503751114 -6.54715877664e-21)
(0.0590754221072 -0.0717140110827 -8.67966811764e-21)
(0.014635455395 -0.0834098152636 -2.88387775065e-21)
(0.0374948482831 -0.00330406819796 2.20329602206e-21)
(0.0380293187814 -0.00242336262028 -2.04213999507e-23)
(0.0389137734357 -0.00681874846854 2.485484281e-21)
(0.0402993216896 -0.00448423419759 1.85568678549e-21)
(0.0395315702707 -0.0103891341015 5.61361948607e-22)
(0.0409996872548 -0.00833912737419 4.25520375692e-22)
(0.0401621638018 -0.0139919675764 5.33422952403e-23)
(0.0415781013105 -0.0118697445173 -1.97768822942e-23)
(0.0409537245196 -0.0176312478923 3.39971786257e-24)
(0.0422946683364 -0.0153882990403 -7.08470494041e-24)
(0.0419396558556 -0.0213160324336 -4.91229043919e-24)
(0.0432012343704 -0.018940939272 -3.77995061632e-24)
(0.043137025433 -0.0250561909021 -2.71934976852e-24)
(0.0443157220323 -0.0225396256366 -5.60659637238e-24)
(0.0445639859847 -0.0288619146047 3.87601224973e-24)
(0.0456549691141 -0.0261901962816 2.20256227527e-24)
(0.0462424667239 -0.0327439188733 -2.81700480298e-24)
(0.0472389039462 -0.0299000201166 6.58518398518e-25)
(0.0481995711192 -0.0367137970196 -8.71024595907e-24)
(0.049092121168 -0.0336740019194 -9.91413935028e-24)
(0.0504632582911 -0.040784047103 -2.37016302706e-23)
(0.0512451338055 -0.0375298635717 -1.21278501172e-23)
(0.0530538567783 -0.0449696474059 4.6135791488e-23)
(0.0537247808098 -0.0415049737363 -4.63465542779e-23)
(0.0559739644278 -0.0492876143127 2.60234540689e-22)
(0.056547512353 -0.0455701318886 5.09833533447e-23)
(0.0591366079213 -0.0537544221184 -9.9282365613e-23)
(0.0597043064268 -0.0495854111565 3.89589019305e-22)
(0.0623462377564 -0.058371282361 -1.45791078352e-21)
(0.0630231194127 -0.0533274265332 -7.88713175853e-23)
(0.0654646468381 -0.0631153633734 -6.36334174379e-21)
(0.0662544678366 -0.0579515934848 -3.70067652925e-22)
(0.0662733855558 -0.0679808597567 -9.3257606002e-21)
(0.0693644560042 -0.0705590640025 -9.41004007977e-21)
(0.0636151445877 -0.0732464231314 -7.99014443949e-21)
(0.0681316216943 -0.0756256229742 -1.09954307228e-20)
(0.0388176369287 -0.0782086041639 -5.01638709164e-21)
(0.0640382221221 -0.0661547827099 -1.03690000399e-20)
(0.0172771247004 -0.0768543783225 -2.05087757059e-21)
(0.040820964826 -0.00313220091852 -3.68030636524e-22)
(0.0411614565041 -0.00231084179845 -8.19291867253e-22)
(0.0423708058009 -0.00647020912641 -2.04277119821e-22)
(0.0436372602087 -0.00422759868662 4.91360681207e-22)
(0.0430302980297 -0.00986076499994 -1.55618455209e-22)
(0.0443901693127 -0.00789842834334 -7.06490794854e-23)
(0.043691284233 -0.0132772481839 -8.02038824749e-23)
(0.0449945078925 -0.0112377781864 -1.36723280237e-22)
(0.0445181517514 -0.0167204111006 -1.42643734193e-23)
(0.0457377569517 -0.014561575058 -2.46239282031e-23)
(0.0455472274883 -0.0201961016669 -4.47425654951e-24)
(0.0466768672835 -0.017908492675 -9.55689473062e-24)
(0.0467960677661 -0.023710797854 -6.84684328578e-25)
(0.0478304030639 -0.0212867712658 -8.31547940529e-24)
(0.0482831112703 -0.0272709923477 -1.01493157594e-24)
(0.049215275183 -0.024698590983 -5.87019962019e-24)
(0.0500307274114 -0.0308833512215 -6.43861614879e-24)
(0.0508515687697 -0.0281475080601 -9.56499172781e-24)
(0.0520667067779 -0.0345549892638 -1.33317435084e-23)
(0.0527642009712 -0.0316344618781 -1.07677462574e-23)
(0.0544203502986 -0.0382934613678 -3.47727741244e-23)
(0.0549842819249 -0.0351706052396 -1.14601957963e-23)
(0.0571143762688 -0.042108538554 -4.14989924211e-23)
(0.0575403222145 -0.0387858056904 -6.54890406851e-23)
(0.0601528599325 -0.0460122671476 1.80337831961e-22)
(0.0604516925388 -0.0424548681942 4.01403992809e-23)
(0.0634412126853 -0.0500171051131 4.10000067333e-22)
(0.0637095546583 -0.0460461502659 4.44168567715e-22)
(0.0667619073824 -0.0541196323631 1.00897181301e-21)
(0.0671259730144 -0.0493145157221 5.19267079959e-22)
(0.0699634983543 -0.0582813124144 -3.41676598891e-21)
(0.0704163401397 -0.0531595544596 9.59352114191e-22)
(0.071036368183 -0.0624508379339 -1.10797102023e-20)
(0.0735340428029 -0.0645680589942 -9.04433533568e-21)
(0.0684410301273 -0.0671407748125 -1.33742863232e-20)
(0.072820325959 -0.0700881310924 -1.1048838954e-20)
(0.0424976533286 -0.0714878131095 -7.40349051889e-21)
(0.0683858483698 -0.0601665418045 -1.05618922207e-20)
(0.0202270196943 -0.0703568589115 -1.9983496275e-21)
(0.0439699017878 -0.00295446507557 4.00994504768e-23)
(0.0441158559706 -0.00219387730988 -9.7114849562e-22)
(0.0456463392232 -0.00610929175909 6.24988721542e-22)
(0.0467920155122 -0.00396452605238 2.33885281104e-21)
(0.0463426140935 -0.00931336364262 -5.17539045138e-23)
(0.0475941653852 -0.00744533450867 4.26622547104e-22)
(0.0470258398823 -0.0125367970289 -8.11433259653e-23)
(0.048217862191 -0.0105877004184 -4.46277112783e-23)
(0.0478766607089 -0.0157771693978 -1.99164495144e-23)
(0.0489780523418 -0.0137115192896 -1.68513388414e-23)
(0.0489342151908 -0.0190371305751 -1.33981175864e-23)
(0.0499367681135 -0.0168477244227 -1.14520123016e-23)
(0.0502162692581 -0.0223197034221 -1.35009946969e-23)
(0.0511129582609 -0.0200007888584 -1.84074957082e-23)
(0.0517411776967 -0.0256275554157 -1.44202597721e-23)
(0.0525232350633 -0.0231691732322 -2.10267469767e-23)
(0.0535313191286 -0.0289630717405 -1.38941218364e-23)
(0.0541873799794 -0.026352465824 -2.34923324985e-23)
(0.0556146724333 -0.0323285757674 -8.8961985453e-24)
(0.0561301312001 -0.029547415601 -1.34772985913e-23)
(0.0580213813542 -0.0357262134596 -4.2176462357e-23)
(0.0583825762357 -0.0327584160638 -1.85516681205e-23)
(0.0607762117194 -0.0391596841659 1.61503510169e-23)
(0.0609742464231 -0.0360070490057 -8.52750183159e-23)
(0.0638844729665 -0.0426342445641 3.03971135035e-22)
(0.0639266953901 -0.0392702373425 1.39160544332e-22)
(0.0672425077564 -0.0461548671879 5.53435580341e-22)
(0.067230580568 -0.0424251437655 5.32778913354e-22)
(0.0706017544478 -0.0497090337081 4.69647381139e-22)
(0.0706804596605 -0.045216539438 -3.26365730598e-22)
(0.0737776057131 -0.0532302887634 -4.66821723258e-21)
(0.0739377844819 -0.0482671158294 -4.04416112459e-21)
(0.0751166191457 -0.0566089059587 -9.0134640873e-21)
(0.0769127197905 -0.0582346007861 -1.51763354826e-20)
(0.0727188091355 -0.0606683596793 -8.23644485147e-21)
(0.0768785742811 -0.0643021002451 -8.67625842247e-21)
(0.0463376191401 -0.0646989201004 -5.15675132934e-21)
(0.0724169264417 -0.0538892831739 -8.35202808492e-21)
(0.0245922288248 -0.0644050599692 -1.92443426323e-21)
(0.0469365307575 -0.00277293567803 1.32760486494e-21)
(0.0468887282352 -0.00207349124137 -1.12152830686e-21)
(0.0487349812616 -0.00574043319398 2.1404866366e-21)
(0.0497594448608 -0.00369830015976 2.33186096975e-21)
(0.0494631503562 -0.00875395603637 4.3374874034e-22)
(0.0506076152339 -0.00698546048849 6.46800948743e-22)
(0.050160577389 -0.0117804856498 1.96642758456e-23)
(0.0512443147944 -0.00992782976149 1.37183207982e-24)
(0.051024167916 -0.014814515913 -8.38690162856e-24)
(0.052012007057 -0.0128493974961 -1.59242777088e-23)
(0.052095705095 -0.0178555516419 -1.64613904235e-23)
(0.0529777440053 -0.0157731677262 -1.24060258467e-23)
(0.0533928154907 -0.0209031591248 -2.5933247988e-23)
(0.0541605465136 -0.0186998710195 -2.08396278738e-23)
(0.0549333227048 -0.0239561049473 -3.00988197031e-23)
(0.0555762793329 -0.0216242609494 -2.97897522925e-23)
(0.056739091227 -0.027012355776 -2.30755092534e-23)
(0.0572439037988 -0.0245418561858 -3.07855917425e-23)
(0.0588376746714 -0.0300691806822 -2.31327681666e-23)
(0.0591873465407 -0.0274450383478 -1.1009151624e-23)
(0.061259349831 -0.0331229609604 -6.16502240795e-23)
(0.0614369682031 -0.0303314279236 -2.07347464393e-23)
(0.0640300935821 -0.0361708163547 3.77351749988e-23)
(0.0640225288216 -0.0332139550145 -7.34834064102e-23)
(0.0671557859922 -0.039210469904 3.67968322651e-22)
(0.0669667677311 -0.0360701793221 7.7125883172e-23)
(0.0705235509145 -0.0422388744908 -3.47022397584e-22)
(0.0702593671568 -0.038787356616 4.39249612739e-22)
(0.0738449730299 -0.0452364545953 -4.84017423633e-21)
(0.0736783417971 -0.0411163560354 -9.61400813676e-22)
(0.0768758249194 -0.0481117898712 -1.45522793746e-20)
(0.0768132974397 -0.0433983176873 -3.93638794691e-21)
(0.0784841566397 -0.0506681740111 -1.48391298177e-20)
(0.0794691583903 -0.0516919076635 -1.13023902257e-20)
(0.0765868891558 -0.0539846294823 -8.79184165592e-21)
(0.0801938597703 -0.0584593843573 -8.84385398554e-21)
(0.0510212364292 -0.057783786634 -5.11971101881e-21)
(0.0762164813689 -0.0475413520588 -8.62671512137e-21)
(0.0309689469249 -0.0582400892943 -6.84053990771e-22)
(0.049717993982 -0.00258971848577 -1.17272202043e-22)
(0.0494783906593 -0.00195070650048 -1.02212604316e-21)
(0.0516338236029 -0.00536801936443 8.381752819e-22)
(0.0525376864256 -0.0034321090473 1.49942513418e-21)
(0.0523892598962 -0.00818939592935 2.14424040484e-22)
(0.0534289273839 -0.00652417273271 1.41203860209e-22)
(0.0530932479771 -0.0110179002506 -3.42167214746e-23)
(0.0540727499715 -0.00926609619288 -8.3469921094e-23)
(0.05395892095 -0.0138450866004 -1.99434019269e-23)
(0.0548391244852 -0.0119859818454 -3.33487710469e-23)
(0.05503050348 -0.0166674403884 -1.6784263297e-23)
(0.0558000418884 -0.0146988397244 -1.5444491065e-23)
(0.0563250729893 -0.0194811633977 -2.46961321783e-23)
(0.056974248353 -0.0174017236192 -1.62630830982e-23)
(0.057859386795 -0.0222811112715 -3.04765243319e-23)
(0.0583763119376 -0.0200857425402 -2.01235857939e-23)
(0.0596541928775 -0.0250607082834 -1.87192341131e-23)
(0.0600237374134 -0.0227423386445 -2.58920267978e-23)
(0.0617359513124 -0.0278120217158 -8.6111298967e-24)
(0.0619390264245 -0.0253594398626 -5.21598296526e-24)
(0.0641343649381 -0.0305255922072 -3.256792877e-23)
(0.0641510824026 -0.027927936709 -1.22438406919e-23)
(0.0668758807963 -0.0331919579393 -3.4092698237e-23)
(0.0666893069147 -0.0304520109514 -4.35270114524e-23)
(0.06996664937 -0.0358019343139 1.4840717326e-22)
(0.0695771552306 -0.0329089230877 5.72099522522e-23)
(0.0732857084138 -0.0383459835971 -1.75128803353e-22)
(0.0728038053053 -0.0351974267446 4.81088221066e-22)
(0.0764938922684 -0.0408007080192 -5.76145242586e-23)
(0.0761333693104 -0.0370906045037 -2.62470592753e-22)
(0.0792344265077 -0.0430477383112 -6.86498798009e-22)
(0.0790605178464 -0.0386618896128 3.27627224472e-22)
(0.0809779047189 -0.0447642049616 -5.30711439347e-21)
(0.0811856868418 -0.0450728718396 -8.05976034006e-21)
(0.0799455123809 -0.0469835921729 -8.67872745099e-21)
(0.0824120953657 -0.0527721487328 -9.94161401515e-21)
(0.0566358363214 -0.050726072973 -4.19105809333e-21)