/*--------------------------------*- C++ -*----------------------------------*\
| =========                 |                                                 |
| \\      /  F ield         | OpenFOAM: The Open Source CFD Toolbox           |
|  \\    /   O peration     | Version:  v2012                                 |
|   \\  /    A nd           | Website:  www.openfoam.com                      |
|    \\/     M anipulation  |                                                 |
\*---------------------------------------------------------------------------*/
FoamFile
{
    version     2.0;
    format      ascii;
    class       volVectorField;
    location    "0.6";
    object      ddt0(rho,U);
}
// * * * * * * * * * * * * * * * * * * * * * * * * * * * * * * * * * * * * * //

dimensions      [1 -2 -2 0 0 0 0];


internalField   nonuniform List<vector> 
167
(
(7.21533608584 -95.9748396186 1.14913024367e-18)
(7.34579942687 -108.232792048 2.06477044837e-18)
(7.4849958122 -120.772253133 2.35212013574e-20)
(7.62919695864 -133.607667738 -3.6065150388e-19)
(7.77436320937 -146.753769161 -6.30804872942e-21)
(7.90624602204 -160.180256114 6.82160586938e-19)
(7.94630241832 -173.800963307 6.45458085285e-20)
(7.66339169431 -188.039128912 1.97177440736e-19)
(6.59505135743 -202.724001462 8.35557841954e-19)
(5.25776369157 -210.730631298 -2.43870591013e-18)
(26.3096881256 -212.56057204 -4.55964428416e-17)
(4.6096117018 41.9952103911 -2.07974960514e-18)
(18.0286188721 -97.8698644014 -5.01888342202e-19)
(18.4414972751 -110.359479472 -2.50370805702e-18)
(18.8784332009 -123.132730858 -2.70850773836e-18)
(19.3313102983 -136.203095438 6.51596336586e-19)
(19.7922233128 -149.587319508 -1.75021313666e-18)
(20.2488904196 -163.263980359 2.48727627352e-19)
(20.6647282307 -177.090704164 1.13279587936e-18)
(21.0049380993 -191.589618844 8.41449212929e-19)
(21.2694568088 -208.644117725 2.02920197241e-18)
(20.9089719372 -221.104081426 1.50395052004e-17)
(17.3986010998 -216.173043329 -1.55064584454e-17)
(3.15961798414 51.0227421994 -1.43144618258e-17)
(30.4557211347 -97.6769802886 3.56719365999e-19)
(31.1334488705 -110.160608767 -4.49369135753e-19)
(31.8526260066 -122.935593392 -2.78748225117e-20)
(32.5999664558 -136.016372892 -2.11412491236e-19)
(33.3616442544 -149.420441293 2.75582399798e-20)
(34.1236867373 -163.126800875 2.98163427211e-19)
(34.8656015716 -176.976586361 4.67570055939e-19)
(35.5489038791 -191.434622814 -3.94160341788e-19)
(36.2123867797 -208.100393667 1.54172754079e-18)
(37.0104728309 -219.356748008 -1.58778398493e-17)
(36.2700365294 -215.291209854 -4.0533379258e-18)
(6.48682195832 52.0046798687 -1.22980143869e-18)
(43.9449002073 -109.375254277 2.16773331146e-19)
(44.9656258027 -122.113344343 9.85577756363e-20)
(46.0263068315 -135.1733782 3.56305111027e-19)
(47.1058646433 -148.573384535 -2.13102054098e-19)
(48.185312796 -162.292699947 1.32865547092e-19)
(49.2364497089 -176.168963749 4.28192378645e-19)
(50.1749643808 -190.639761195 4.0822183597e-19)
(50.9590202611 -207.38321999 2.48312163629e-19)
(51.6773956797 -218.663540655 -3.16015378931e-19)
(47.8967326683 -212.359162514 -3.4977495538e-19)
(7.63530967959 54.908875175 -3.23778267325e-19)
(57.8562317782 -120.922304611 -4.40169328148e-21)
(59.2485362353 -133.94831384 2.1980677327e-20)
(60.6663916909 -147.338105376 4.17791765494e-21)
(62.0841899192 -161.070178222 5.32665357825e-20)
(63.463556282 -174.977793567 5.56015119272e-20)
(64.6879315344 -189.479197776 1.92578272167e-19)
(65.6458815787 -206.394319369 2.65627268095e-19)
(66.4396916626 -217.916296087 -6.2188910056e-19)
(61.8290330859 -210.018851996 -5.54712226534e-18)
(9.06373567352 59.5463969426 -5.98606284539e-20)
(70.673923792 -119.38711619 3.33653962186e-21)
(72.4226029322 -132.36870059 -5.65268349064e-22)
(74.2052218562 -145.743998932 1.69804718228e-20)
(75.9881651616 -159.492697322 1.12908747242e-19)
(77.7217485552 -173.445239175 3.22583730475e-20)
(79.2576779778 -188.010024463 1.52632790213e-19)
(80.4120856775 -205.136792377 7.96415433766e-19)
(81.3651106619 -216.950311276 -5.14533638242e-19)
(76.4456985752 -207.761383965 -8.38819821511e-18)
(10.249304098 65.6477594956 1.21053562383e-19)
(83.4355770895 -117.488006966 1.06004346203e-20)
(85.5722252724 -130.413256039 3.52964012847e-21)
(87.7534121662 -143.769367841 1.6705559213e-20)
(89.9370832283 -157.538959644 1.34352827668e-19)
(92.0616043027 -171.552048659 -4.77550560788e-20)
(93.9474323288 -186.216924247 -9.86149391423e-19)
(95.3398108308 -203.597770091 2.94062949908e-18)
(96.4912742167 -215.720481999 2.1014557275e-17)
(91.4169756359 -205.37553093 -1.13069367923e-17)
(11.0237965122 73.1871390897 2.6168951868e-18)
(96.115818377 -115.192924772 2.62440075897e-21)
(98.6788865192 -128.046104775 1.61362601596e-21)
(101.301369554 -141.375147445 2.49013239563e-20)
(103.932530222 -155.167201023 1.1324835432e-19)
(106.498541602 -169.253636043 -4.51590147104e-20)
(108.79017891 -184.051701548 -1.32583959079e-19)
(110.484420205 -201.735461918 -8.85076518264e-19)
(111.872507975 -214.188531803 -4.06515587239e-18)
(106.692196228 -202.752186504 -8.04092346568e-18)
(11.2473395568 82.2071560275 5.47115264616e-19)
(108.690895503 -112.462400119 1.01616337126e-20)
(111.725978762 -125.222519286 2.49551966794e-21)
(114.841343127 -138.511512175 1.04716111396e-20)
(117.977660701 -152.322542187 3.29205497819e-20)
(121.049129453 -166.48957377 1.21523708066e-19)
(123.819390529 -181.447765977 6.05389192146e-19)
(125.904003101 -199.496172956 -9.0591351042e-20)
(127.620209492 -212.373825493 -1.33719633205e-18)
(122.131490129 -199.867290749 -2.78884294973e-18)
(10.5788970085 92.8372434605 3.23240325488e-18)
(121.133395152 -109.250500727 4.01195397897e-21)
(124.692991063 -121.890014453 -5.40020896444e-21)
(128.361378261 -135.119018299 1.25077461425e-20)
(132.070892411 -148.938138292 1.3433256936e-19)
(135.723682831 -163.183595841 4.7432645471e-20)
(139.057354229 -178.312870214 1.8846237129e-19)
(141.627485184 -196.744273478 1.50539509675e-19)
(143.745886545 -209.968115739 -2.23111263845e-18)
(136.870183645 -194.165610019 -3.10883815657e-18)
(9.71460665426 102.30670875 6.00609220376e-19)
(133.408357495 -105.505415205 2.48103474879e-21)
(137.551437624 -117.988477211 -1.18286991812e-20)
(141.841262102 -131.128958832 1.52670151403e-20)
(146.202273069 -144.936671296 6.63494835709e-20)
(150.524397555 -159.250677696 6.96752851751e-20)
(154.518583446 -174.560069741 2.02610993426e-19)
(157.673815545 -193.431309757 -2.89687649905e-18)
(160.233974608 -207.072308691 -2.07045349986e-17)
(151.154083037 -186.831432993 -6.52640575259e-19)
(8.42141670072 112.155088865 1.83615632118e-18)
(145.471999116 -101.169699189 7.46028321214e-21)
(150.263339155 -113.450668974 -1.86737606454e-20)
(155.250809412 -126.463332097 2.79628150992e-21)
(160.351924856 -140.228816034 5.06565135808e-20)
(165.445034793 -154.589711671 7.28202403405e-20)
(170.215412192 -170.077966694 8.39562920695e-19)
(174.083177478 -189.432241012 -5.16863815507e-19)
(177.166442355 -203.462844639 -3.02563398206e-18)
(165.718564478 -179.587410934 -1.34370437298e-17)
(5.79952303249 123.966302807 -6.96705589039e-19)
(157.270374697 -96.1815582835 4.94906037106e-21)
(162.779414642 -108.202879394 -5.13365564873e-20)
(168.547502396 -121.035309121 2.77635905951e-20)
(174.486844362 -134.713197437 1.3693517383e-19)
(180.465725876 -149.083203413 -5.10566947564e-20)
(186.145847489 -164.733292968 -1.04948222444e-18)
(190.875136499 -184.592229226 6.93824824297e-20)
(194.553851695 -198.991471123 -2.99980433173e-18)
(179.622277188 -170.032626725 -2.88773609882e-17)
(2.7287884908 135.404094894 4.51689615932e-19)
(168.737676247 -90.4758081367 1.75356421067e-20)
(175.036834643 -102.166508893 -2.93925171994e-20)
(181.673268272 -114.750668696 5.88457177521e-20)
(188.556300634 -128.277706957 1.17029858054e-20)
(195.547390588 -142.598767479 1.24002314461e-19)
(202.28975978 -158.374546593 2.38077153562e-18)
(208.056725637 -178.755290641 -2.25992653641e-18)
(212.409522015 -193.505922106 -6.73705842565e-18)
(193.216248029 -158.953037432 1.36113824583e-17)
(-1.2081599035 147.276353867 -2.89190567705e-19)
(179.794981016 -83.9862663358 2.59722636184e-20)
(186.957022174 -95.2601918374 -1.85851920302e-20)
(194.551124998 -107.510476499 3.42637157773e-20)
(202.487071097 -120.801821543 8.49924097566e-20)
(210.624537515 -134.98838689 1.56666814403e-19)
(218.59829218 -150.820312471 9.00280654576e-19)
(225.611312471 -171.68234176 -4.8982898569e-18)
(230.739119421 -186.68611222 -2.26886009799e-17)
(206.426890615 -146.051931413 -6.24609547204e-18)
(-5.98720599891 159.126243573 -7.459725873e-19)
(190.349632125 -76.6475707122 2.02824299797e-20)
(198.445511062 -87.40312191 6.74348165393e-21)
(207.085569984 -99.214870521 3.77463038228e-20)
(216.183026046 -112.16154175 4.89738370216e-20)
(225.601008482 -126.095823212 2.1505093026e-19)
(234.976669306 -141.870732388 2.39124587848e-18)
(243.442245797 -163.060456153 -4.47768897914e-18)
(249.410296628 -178.037254643 -2.2575378131e-17)
(219.384382347 -131.201866262 1.25410246021e-17)
(-11.5496054952 170.531904351 -1.91704334061e-18)
)
;

boundaryField
{
    back
    {
        type            calculated;
        value           uniform (0 0 0);
    }
    sides
    {
        type            calculated;
        value           uniform (0 0 0);
    }
    bottom
    {
        type            calculated;
        value           nonuniform List<vector> 0();
    }
    front
    {
        type            calculated;
        value           uniform (0 0 0);
    }
    atmosphere
    {
        type            calculated;
        value           nonuniform List<vector> 
16
(
(0 -0.273866635382 0)
(0 -0.249375906409 0)
(0 -0.255019905176 0)
(0 -0.257839373461 0)
(0 -0.259065520065 0)
(0 -0.259830914774 0)
(0 -0.26032840085 0)
(0 -0.260612357733 0)
(0 -0.260471960878 0)
(0 -0.260482765879 0)
(0 -0.260023168614 0)
(0 -0.259869553493 0)
(0 -0.260052048344 0)
(0 -0.260478574666 0)
(0 -0.261576523218 0)
(0 -0.263574684416 0)
)
;
    }
    floatingObject
    {
        type            calculated;
        value           nonuniform List<vector> 0();
    }
    procBoundary1to0
    {
        type            processor;
        value           nonuniform List<vector> 10((200.295361767 -68.3980232779 -2.74956899855e-21) (209.391264852 -78.5169605553 -7.98882905809e-20) (219.160236658 -89.7667595529 -2.60764499717e-21) (229.520941739 -102.237077441 8.09033321196e-20) (240.342698825 -115.773478989 2.88375778153e-19) (251.268835334 -131.346145476 -5.66478386886e-19) (261.312428227 -152.524744904 -7.15521749435e-19) (267.955598614 -166.76606787 8.48631219068e-19) (232.613883062 -115.309928609 1.80448307941e-17) (-18.286111763 181.876166541 -3.97372327393e-19));
    }
    procBoundary1to2
    {
        type            processor;
        value           nonuniform List<vector> 
18
(
(7.09675239421 -83.9775915237 9.45429774818e-19)
(17.6464538908 -85.6435955027 4.75788533018e-19)
(29.8295029309 -85.4636130392 3.35269294442e-19)
(42.9812433292 -96.941793691 3.21514136759e-20)
(42.9812433292 -96.941793691 3.21514136759e-20)
(56.5168744907 -108.239475486 2.96435107355e-20)
(56.5168744907 -108.239475486 2.96435107355e-20)
(68.9918825501 -106.774590136 -8.66510253317e-21)
(81.382527741 -104.964651182 -1.07411894237e-20)
(93.6581337438 -102.781226009 1.29063708427e-21)
(105.788818101 -100.189737849 -2.34292130329e-21)
(117.74165717 -97.1505844226 -1.11582430502e-20)
(129.476643704 -93.6194461446 -2.53181095396e-21)
(140.945822302 -89.5479466365 -3.50195088545e-20)
(152.0921146 -84.8845811615 -2.73303928223e-20)
(162.848234357 -79.5760594287 -3.73757470672e-20)
(173.135608392 -73.5688099628 -2.29376898449e-20)
(182.86419141 -66.8109622475 -6.722217452e-20)
)
;
    }
}


// ************************************************************************* //
