/*--------------------------------*- C++ -*----------------------------------*\
| =========                 |                                                 |
| \\      /  F ield         | OpenFOAM: The Open Source CFD Toolbox           |
|  \\    /   O peration     | Version:  v2012                                 |
|   \\  /    A nd           | Website:  www.openfoam.com                      |
|    \\/     M anipulation  |                                                 |
\*---------------------------------------------------------------------------*/
FoamFile
{
    version     2.0;
    format      ascii;
    class       volScalarField;
    location    "5";
    object      epsilon_0;
}
// * * * * * * * * * * * * * * * * * * * * * * * * * * * * * * * * * * * * * //

dimensions      [0 2 -3 0 0 0 0];


internalField   nonuniform List<scalar> 
167
(
0.000712193280244
0.000721788918052
0.000726403017134
0.000729605684238
0.000732694046242
0.000736214694872
0.000740691507826
0.000747250652083
0.000623613445015
0.00068547981327
0.000709516779729
0.000719169292952
0.00072384108507
0.000727097135642
0.000730239998791
0.000733825792427
0.000738403808611
0.000745151942614
0.000757038824944
0.000620870994362
0.0006825973751
0.000706655171968
0.00071637387614
0.000721115100873
0.0007244366001
0.000727645572366
0.000731308994588
0.00073600051781
0.000742947771212
0.000755196533543
0.000617956984384
0.000679535352327
0.000703620291337
0.000713415166539
0.000718237988175
0.000721638144431
0.000724926506198
0.000728681420677
0.000733500699154
0.00074066772263
0.000589832125484
0.000614867068633
0.000676301585507
0.000700424426707
0.000710308375035
0.000715226395778
0.000718719267631
0.000722100109729
0.000725958427128
0.000730919275063
0.000738330822602
0.000586630563665
0.000611630211623
0.000672918746686
0.000697085907343
0.000707070997384
0.000712099064896
0.000715699689498
0.000719186527123
0.000723158558792
0.000728280944317
0.000735936543876
0.000583238921505
0.000608255374423
0.000669403917793
0.000693624810926
0.000703723805114
0.000708877665632
0.000712601376076
0.000716207494508
0.000720315652639
0.00072559802477
0.000579682684648
0.000604772147591
0.000665775426966
0.000690058311487
0.000700286808717
0.000705584081583
0.000709448238615
0.000713193339706
0.000717444470966
0.000575971899327
0.000601164371092
0.000662036989812
0.000686395940347
0.00069677265198
0.000702233670762
0.000706258647867
0.000710161599856
0.000714566890041
0.000572095328
0.000597440533323
0.000658179153483
0.000682624017049
0.000693167177294
0.000698813601422
0.000703020728315
0.000707094366493
0.000711668279129
0.000717479238014
0.000568008946992
0.000593532116355
0.000654108821924
0.000678638469171
0.000689363485438
0.000695215137774
0.000699622196155
0.000703881104581
0.000708633182835
0.000714638375907
0.000563543053437
0.000589174772244
0.000649490689721
0.000674074037703
0.000684983581424
0.000691053484999
0.00069567222913
0.000700122229886
0.000705048845892
0.000711236784351
0.000558103769283
0.000583540015274
0.000643316803922
0.000667841819257
0.000678902317757
0.000685184082576
0.000690010384873
0.00069463966934
0.000699720987252
0.000706063630604
0.000549920599142
0.000574235596718
0.00063275435836
0.000656907943878
0.000667996308842
0.000674436793146
0.000679434908942
0.000684206350824
0.000689402427174
0.000695810086607
0.000533906597488
0.000554667224785
0.000610119969825
0.000633131456522
0.000643924911827
0.000650371612055
0.00065544448026
0.000660274118589
0.000665467725078
0.00049580822662
0.000507186543516
0.000555213665186
0.000575289141621
0.000585027368521
0.000591108885641
0.000596012122813
0.000600704544449
0.00060570294926
0.000439547488924
0.000494021061444
0.000532853037923
0.000549755768446
0.000558806244773
0.000565191042651
0.000570788050206
0.00057633809828
0.000582215324547
)
;

boundaryField
{
    back
    {
        lowReCorrection 0;
        blending        stepwise;
        n               2;
        type            epsilonWallFunction;
        value           nonuniform List<scalar> 
167
(
0.000712193280244
0.000721788918052
0.000726403017134
0.000729605684238
0.000732694046242
0.000736214694872
0.000740691507826
0.000747250652083
0.000623613445015
0.00068547981327
0.000709516779729
0.000719169292952
0.00072384108507
0.000727097135642
0.000730239998791
0.000733825792427
0.000738403808611
0.000745151942614
0.000757038824944
0.000620870994362
0.0006825973751
0.000706655171968
0.00071637387614
0.000721115100873
0.0007244366001
0.000727645572366
0.000731308994588
0.00073600051781
0.000742947771212
0.000755196533543
0.000617956984384
0.000679535352327
0.000703620291337
0.000713415166539
0.000718237988175
0.000721638144431
0.000724926506198
0.000728681420677
0.000733500699154
0.00074066772263
0.000589832125484
0.000614867068633
0.000676301585507
0.000700424426707
0.000710308375035
0.000715226395778
0.000718719267631
0.000722100109729
0.000725958427128
0.000730919275063
0.000738330822602
0.000586630563665
0.000611630211623
0.000672918746686
0.000697085907343
0.000707070997384
0.000712099064896
0.000715699689498
0.000719186527123
0.000723158558792
0.000728280944317
0.000735936543876
0.000583238921505
0.000608255374423
0.000669403917793
0.000693624810926
0.000703723805114
0.000708877665632
0.000712601376076
0.000716207494508
0.000720315652639
0.00072559802477
0.000579682684648
0.000604772147591
0.000665775426966
0.000690058311487
0.000700286808717
0.000705584081583
0.000709448238615
0.000713193339706
0.000717444470966
0.000575971899327
0.000601164371092
0.000662036989812
0.000686395940347
0.00069677265198
0.000702233670762
0.000706258647867
0.000710161599856
0.000714566890041
0.000572095328
0.000597440533323
0.000658179153483
0.000682624017049
0.000693167177294
0.000698813601422
0.000703020728315
0.000707094366493
0.000711668279129
0.000717479238014
0.000568008946992
0.000593532116355
0.000654108821924
0.000678638469171
0.000689363485438
0.000695215137774
0.000699622196155
0.000703881104581
0.000708633182835
0.000714638375907
0.000563543053437
0.000589174772244
0.000649490689721
0.000674074037703
0.000684983581424
0.000691053484999
0.00069567222913
0.000700122229886
0.000705048845892
0.000711236784351
0.000558103769283
0.000583540015274
0.000643316803922
0.000667841819257
0.000678902317757
0.000685184082576
0.000690010384873
0.00069463966934
0.000699720987252
0.000706063630604
0.000549920599142
0.000574235596718
0.00063275435836
0.000656907943878
0.000667996308842
0.000674436793146
0.000679434908942
0.000684206350824
0.000689402427174
0.000695810086607
0.000533906597488
0.000554667224785
0.000610119969825
0.000633131456522
0.000643924911827
0.000650371612055
0.00065544448026
0.000660274118589
0.000665467725078
0.00049580822662
0.000507186543516
0.000555213665186
0.000575289141621
0.000585027368521
0.000591108885641
0.000596012122813
0.000600704544449
0.00060570294926
0.000439547488924
0.000494021061444
0.000532853037923
0.000549755768446
0.000558806244773
0.000565191042651
0.000570788050206
0.00057633809828
0.000582215324547
)
;
    }
    sides
    {
        lowReCorrection 0;
        blending        stepwise;
        n               2;
        type            epsilonWallFunction;
        value           nonuniform List<scalar> 9(0.000439547488924 0.000494021061444 0.000532853037923 0.000549755768446 0.000558806244773 0.000565191042651 0.000570788050206 0.00057633809828 0.000582215324547);
    }
    bottom
    {
        lowReCorrection 0;
        blending        stepwise;
        n               2;
        type            epsilonWallFunction;
        value           nonuniform List<scalar> 
13
(
0.000589832125484
0.000586630563665
0.000583238921505
0.000579682684648
0.000575971899327
0.000572095328
0.000568008946992
0.000563543053437
0.000558103769283
0.000549920599142
0.000533906597488
0.00049580822662
0.000439547488924
)
;
    }
    front
    {
        lowReCorrection 0;
        blending        stepwise;
        n               2;
        type            epsilonWallFunction;
        value           nonuniform List<scalar> 
167
(
0.000712193280244
0.000721788918052
0.000726403017134
0.000729605684238
0.000732694046242
0.000736214694872
0.000740691507826
0.000747250652083
0.000623613445015
0.00068547981327
0.000709516779729
0.000719169292952
0.00072384108507
0.000727097135642
0.000730239998791
0.000733825792427
0.000738403808611
0.000745151942614
0.000757038824944
0.000620870994362
0.0006825973751
0.000706655171968
0.00071637387614
0.000721115100873
0.0007244366001
0.000727645572366
0.000731308994588
0.00073600051781
0.000742947771212
0.000755196533543
0.000617956984384
0.000679535352327
0.000703620291337
0.000713415166539
0.000718237988175
0.000721638144431
0.000724926506198
0.000728681420677
0.000733500699154
0.00074066772263
0.000589832125484
0.000614867068633
0.000676301585507
0.000700424426707
0.000710308375035
0.000715226395778
0.000718719267631
0.000722100109729
0.000725958427128
0.000730919275063
0.000738330822602
0.000586630563665
0.000611630211623
0.000672918746686
0.000697085907343
0.000707070997384
0.000712099064896
0.000715699689498
0.000719186527123
0.000723158558792
0.000728280944317
0.000735936543876
0.000583238921505
0.000608255374423
0.000669403917793
0.000693624810926
0.000703723805114
0.000708877665632
0.000712601376076
0.000716207494508
0.000720315652639
0.00072559802477
0.000579682684648
0.000604772147591
0.000665775426966
0.000690058311487
0.000700286808717
0.000705584081583
0.000709448238615
0.000713193339706
0.000717444470966
0.000575971899327
0.000601164371092
0.000662036989812
0.000686395940347
0.00069677265198
0.000702233670762
0.000706258647867
0.000710161599856
0.000714566890041
0.000572095328
0.000597440533323
0.000658179153483
0.000682624017049
0.000693167177294
0.000698813601422
0.000703020728315
0.000707094366493
0.000711668279129
0.000717479238014
0.000568008946992
0.000593532116355
0.000654108821924
0.000678638469171
0.000689363485438
0.000695215137774
0.000699622196155
0.000703881104581
0.000708633182835
0.000714638375907
0.000563543053437
0.000589174772244
0.000649490689721
0.000674074037703
0.000684983581424
0.000691053484999
0.00069567222913
0.000700122229886
0.000705048845892
0.000711236784351
0.000558103769283
0.000583540015274
0.000643316803922
0.000667841819257
0.000678902317757
0.000685184082576
0.000690010384873
0.00069463966934
0.000699720987252
0.000706063630604
0.000549920599142
0.000574235596718
0.00063275435836
0.000656907943878
0.000667996308842
0.000674436793146
0.000679434908942
0.000684206350824
0.000689402427174
0.000695810086607
0.000533906597488
0.000554667224785
0.000610119969825
0.000633131456522
0.000643924911827
0.000650371612055
0.00065544448026
0.000660274118589
0.000665467725078
0.00049580822662
0.000507186543516
0.000555213665186
0.000575289141621
0.000585027368521
0.000591108885641
0.000596012122813
0.000600704544449
0.00060570294926
0.000439547488924
0.000494021061444
0.000532853037923
0.000549755768446
0.000558806244773
0.000565191042651
0.000570788050206
0.00057633809828
0.000582215324547
)
;
    }
    atmosphere
    {
        type            inletOutlet;
        inletValue      nonuniform List<scalar> 0();
        value           nonuniform List<scalar> 0();
    }
    floatingObject
    {
        lowReCorrection 0;
        blending        stepwise;
        n               2;
        type            epsilonWallFunction;
        value           nonuniform List<scalar> 0();
    }
    procBoundary10to9
    {
        type            processor;
        value           nonuniform List<scalar> 
15
(
0.000714675543485
0.000724218678919
0.000728784221716
0.000731945014757
0.000734991318241
0.000738459186986
0.00074284458891
0.000749230515925
0.000626181609896
0.000688180110032
0.000688180110032
0.000598218239385
0.000595626156608
0.000592831431751
0.000592831431751
)
;
    }
    procBoundary10to11
    {
        type            processor;
        value           nonuniform List<scalar> 
23
(
0.000758791830952
0.000758791830952
0.000781881914118
0.000780695457007
0.000753334193527
0.000753334193527
0.000751450175164
0.000749498747575
0.000733499103383
0.000733499103383
0.000722897239847
0.000722897239847
0.000720199079919
0.000720199079919
0.000726090580517
0.000723480550798
0.000720304678235
0.000715310280976
0.000705114444288
0.000671782743016
0.000671782743016
0.000611646268271
0.000588932332072
)
;
    }
}


// ************************************************************************* //
