/*--------------------------------*- C++ -*----------------------------------*\
| =========                 |                                                 |
| \\      /  F ield         | OpenFOAM: The Open Source CFD Toolbox           |
|  \\    /   O peration     | Version:  v2012                                 |
|   \\  /    A nd           | Website:  www.openfoam.com                      |
|    \\/     M anipulation  |                                                 |
\*---------------------------------------------------------------------------*/
FoamFile
{
    version     2.0;
    format      ascii;
    class       volScalarField;
    location    "5";
    object      nut;
}
// * * * * * * * * * * * * * * * * * * * * * * * * * * * * * * * * * * * * * //

dimensions      [0 2 -1 0 0 0 0];


internalField   nonuniform List<scalar> 
167
(
0.000487280393394
0.000489487789491
0.000490554827983
0.000491300819541
0.000492021882794
0.000492842715112
0.000493883575867
0.000495399880114
0.0004661478205
0.000481089652496
0.000486673492404
0.000488897543642
0.000489981054758
0.000490743419047
0.000491482041101
0.000492324687547
0.000493398832535
0.000494976151662
0.000497732795322
0.000465483636549
0.000480421879759
0.000486019714036
0.000488262836392
0.000489365879447
0.00049014773728
0.000490907103152
0.000491775017476
0.00049288644816
0.00049452928804
0.000497412787294
0.000464770567919
0.000479707081371
0.000485321352139
0.000487586490061
0.000488712333806
0.00048951714287
0.000490300933922
0.00049119803883
0.000492351027431
0.000494066748859
0.000311898220656
0.000464009689558
0.000478946852257
0.000484581086327
0.000486871755018
0.000488023991636
0.000488855486059
0.000489667305423
0.000490597077058
0.000491796312217
0.00049359284055
0.000311343859993
0.000463205093375
0.000478145757723
0.000483802756015
0.000486122472015
0.000487305102044
0.000488167241159
0.000489010669663
0.000489976213401
0.0004912281573
0.000493106760038
0.000310750053103
0.000462359686895
0.000477307534969
0.000482990608556
0.000485343197854
0.000486560447661
0.000487457382732
0.000488335984607
0.000489344098994
0.000490647561754
0.000310121234485
0.000461478730803
0.000476435759995
0.000482148332374
0.000484538293673
0.000485794933409
0.000486731140539
0.00048765048505
0.000488701853671
0.000309458079355
0.000460558162475
0.000475530643827
0.000481277547809
0.000483710135042
0.000485011534886
0.000485992341552
0.000486956811065
0.000488055074837
0.000308757266564
0.00045959892695
0.00047458828826
0.000480373354203
0.000482853858195
0.000484205683232
0.000485236431666
0.000486249184077
0.000487398173702
0.000488875920364
0.000308009033771
0.000458578979653
0.000473582459492
0.00047940764078
0.000481940867425
0.000483348360756
0.000484433377331
0.00048549772754
0.000486698941069
0.000488238355113
0.00030717822073
0.000457422351604
0.000472424163291
0.000478286087627
0.000480874508452
0.00048234141651
0.000483483280146
0.000484599935379
0.000485851320522
0.000487448089135
0.000306147589484
0.000455898544961
0.000470852171293
0.000476733805255
0.000479373633954
0.00048089989439
0.000482097737191
0.000483263058859
0.000484556653778
0.000486205881526
0.000304573378932
0.000453352205121
0.000468139946268
0.000473992718484
0.000476666443853
0.00047824462073
0.000479492556255
0.000480696833992
0.000482028113226
0.00048370162968
0.000301468113501
0.000447963614687
0.000462298706488
0.000468007928741
0.000470671719583
0.000472284201545
0.00047357064214
0.000474805953879
0.000476150168287
0.000293950018506
0.000434545164407
0.000447729673286
0.000453033710909
0.000455594607556
0.000457209274084
0.000458520219306
0.000459779380958
0.000461135820572
0.000241352442114
0.000293649626349
0.000301143222494
0.000304321241772
0.000306031782369
0.000307256764738
0.000308341724358
0.000309425635131
0.000310582483718
)
;

boundaryField
{
    back
    {
        type            nutkWallFunction;
        blending        stepwise;
        Cmu             0.09;
        kappa           0.41;
        E               9.8;
        value           nonuniform List<scalar> 
167
(
5.18247395909e-05
5.20368115677e-05
5.21385578039e-05
5.22092127095e-05
5.2277283066e-05
5.23546840515e-05
5.24527777547e-05
5.25956932708e-05
4.97755284306e-05
5.12260117288e-05
5.17657338812e-05
5.19795328179e-05
5.2082827212e-05
5.21549166722e-05
5.2224471727e-05
5.23036701771e-05
5.24044845732e-05
5.25523816549e-05
5.28106896811e-05
4.9709770142e-05
5.1160841508e-05
5.17023432897e-05
5.19181222005e-05
5.20232535737e-05
5.20970662617e-05
5.21683897888e-05
5.22496891309e-05
5.23535509965e-05
5.25067358411e-05
5.27748405916e-05
4.96394800282e-05
5.10912647619e-05
5.16348003952e-05
5.1852835817e-05
5.19601073344e-05
5.20359615877e-05
5.2109379952e-05
5.21931218819e-05
5.2300397541e-05
5.24594222734e-05
4.485099687e-05
4.95645881571e-05
5.10174314446e-05
5.1563351399e-05
5.1783981563e-05
5.18937287993e-05
5.19719666071e-05
5.2047801625e-05
5.21342871735e-05
5.22453429932e-05
5.24108646781e-05
4.47774800302e-05
4.94856697473e-05
5.09398063635e-05
5.14883697854e-05
5.17119218447e-05
5.18245143158e-05
5.19055004906e-05
5.19840801882e-05
5.20735722138e-05
5.21889416474e-05
5.23610067324e-05
4.46990699435e-05
4.94029426533e-05
5.08587481094e-05
5.14102705121e-05
5.16370929296e-05
5.17529218896e-05
5.18370344619e-05
5.19186822611e-05
5.20117572765e-05
5.21313748e-05
4.4616321004e-05
4.93170256625e-05
5.0774628527e-05
5.13294105795e-05
5.15599161912e-05
5.16794206136e-05
5.17670778705e-05
5.18522850676e-05
5.19490678024e-05
4.45293785743e-05
4.92274973034e-05
5.06874877396e-05
5.12459656349e-05
5.14806404275e-05
5.16043212181e-05
5.1696017589e-05
5.17852198103e-05
5.18860103408e-05
4.44378772095e-05
4.91344987211e-05
5.05970231605e-05
5.11595436266e-05
5.1398874749e-05
5.15272669564e-05
5.16235154296e-05
5.1717021071e-05
5.182217853e-05
5.19560321558e-05
4.43406436668e-05
4.90361164476e-05
5.05008867425e-05
5.10676113332e-05
5.13120491949e-05
5.14456603258e-05
5.15468967076e-05
5.16450565692e-05
5.17547903218e-05
5.18938111297e-05
4.42333600695e-05
4.89253557325e-05
5.03908469632e-05
5.0961446966e-05
5.12112419097e-05
5.13504683518e-05
5.14570103827e-05
5.15599855815e-05
5.16742261562e-05
5.18181582997e-05
4.4101228925e-05
4.87805184632e-05
5.02423076025e-05
5.08151871543e-05
5.10700374212e-05
5.12149766768e-05
5.13268825521e-05
5.14345134631e-05
5.15528364034e-05
5.17012957362e-05
4.39001568737e-05
4.85388547051e-05
4.99858567946e-05
5.05564595437e-05
5.08148184122e-05
5.09649602566e-05
5.10819153155e-05
5.11937014476e-05
5.13157921309e-05
5.14669817242e-05
4.35015729095e-05
4.80236935837e-05
4.94288320312e-05
4.99863646112e-05
5.02442637755e-05
5.03982015312e-05
5.05195261194e-05
5.06350495306e-05
5.07594580453e-05
4.25250171315e-05
4.67264032349e-05
4.80234633078e-05
4.85431330718e-05
4.87918835833e-05
4.89468856004e-05
4.90716883992e-05
4.91908768091e-05
4.93179564975e-05
3.95543501164e-05
4.24811536975e-05
4.34689773586e-05
4.38847775087e-05
4.41055486438e-05
4.42612741259e-05
4.43977183369e-05
4.4532851762e-05
4.46757939694e-05
)
;
    }
    sides
    {
        type            nutkWallFunction;
        blending        stepwise;
        Cmu             0.09;
        kappa           0.41;
        E               9.8;
        value           nonuniform List<scalar> 9(2.09524146688e-05 2.25201180804e-05 2.30490557288e-05 2.32716734259e-05 2.33898673048e-05 2.347323528e-05 2.35462792714e-05 2.36186199894e-05 2.3695139276e-05);
    }
    bottom
    {
        type            nutkWallFunction;
        blending        stepwise;
        Cmu             0.09;
        kappa           0.41;
        E               9.8;
        value           nonuniform List<scalar> 
13
(
2.37889259114e-05
2.37495724529e-05
2.3707599144e-05
2.36633026619e-05
2.36167607302e-05
2.35677776207e-05
2.35157251424e-05
2.34582915835e-05
2.33875547026e-05
2.32799071831e-05
2.30665077887e-05
2.25436069216e-05
2.09524146688e-05
)
;
    }
    front
    {
        type            nutkWallFunction;
        blending        stepwise;
        Cmu             0.09;
        kappa           0.41;
        E               9.8;
        value           nonuniform List<scalar> 
167
(
5.18247395909e-05
5.20368115677e-05
5.21385578039e-05
5.22092127095e-05
5.2277283066e-05
5.23546840515e-05
5.24527777547e-05
5.25956932708e-05
4.97755284306e-05
5.12260117288e-05
5.17657338812e-05
5.19795328179e-05
5.2082827212e-05
5.21549166722e-05
5.2224471727e-05
5.23036701771e-05
5.24044845732e-05
5.25523816549e-05
5.28106896811e-05
4.9709770142e-05
5.1160841508e-05
5.17023432897e-05
5.19181222005e-05
5.20232535737e-05
5.20970662617e-05
5.21683897888e-05
5.22496891309e-05
5.23535509965e-05
5.25067358411e-05
5.27748405916e-05
4.96394800282e-05
5.10912647619e-05
5.16348003952e-05
5.1852835817e-05
5.19601073344e-05
5.20359615877e-05
5.2109379952e-05
5.21931218819e-05
5.2300397541e-05
5.24594222734e-05
4.485099687e-05
4.95645881571e-05
5.10174314446e-05
5.1563351399e-05
5.1783981563e-05
5.18937287993e-05
5.19719666071e-05
5.2047801625e-05
5.21342871735e-05
5.22453429932e-05
5.24108646781e-05
4.47774800302e-05
4.94856697473e-05
5.09398063635e-05
5.14883697854e-05
5.17119218447e-05
5.18245143158e-05
5.19055004906e-05
5.19840801882e-05
5.20735722138e-05
5.21889416474e-05
5.23610067324e-05
4.46990699435e-05
4.94029426533e-05
5.08587481094e-05
5.14102705121e-05
5.16370929296e-05
5.17529218896e-05
5.18370344619e-05
5.19186822611e-05
5.20117572765e-05
5.21313748e-05
4.4616321004e-05
4.93170256625e-05
5.0774628527e-05
5.13294105795e-05
5.15599161912e-05
5.16794206136e-05
5.17670778705e-05
5.18522850676e-05
5.19490678024e-05
4.45293785743e-05
4.92274973034e-05
5.06874877396e-05
5.12459656349e-05
5.14806404275e-05
5.16043212181e-05
5.1696017589e-05
5.17852198103e-05
5.18860103408e-05
4.44378772095e-05
4.91344987211e-05
5.05970231605e-05
5.11595436266e-05
5.1398874749e-05
5.15272669564e-05
5.16235154296e-05
5.1717021071e-05
5.182217853e-05
5.19560321558e-05
4.43406436668e-05
4.90361164476e-05
5.05008867425e-05
5.10676113332e-05
5.13120491949e-05
5.14456603258e-05
5.15468967076e-05
5.16450565692e-05
5.17547903218e-05
5.18938111297e-05
4.42333600695e-05
4.89253557325e-05
5.03908469632e-05
5.0961446966e-05
5.12112419097e-05
5.13504683518e-05
5.14570103827e-05
5.15599855815e-05
5.16742261562e-05
5.18181582997e-05
4.4101228925e-05
4.87805184632e-05
5.02423076025e-05
5.08151871543e-05
5.10700374212e-05
5.12149766768e-05
5.13268825521e-05
5.14345134631e-05
5.15528364034e-05
5.17012957362e-05
4.39001568737e-05
4.85388547051e-05
4.99858567946e-05
5.05564595437e-05
5.08148184122e-05
5.09649602566e-05
5.10819153155e-05
5.11937014476e-05
5.13157921309e-05
5.14669817242e-05
4.35015729095e-05
4.80236935837e-05
4.94288320312e-05
4.99863646112e-05
5.02442637755e-05
5.03982015312e-05
5.05195261194e-05
5.06350495306e-05
5.07594580453e-05
4.25250171315e-05
4.67264032349e-05
4.80234633078e-05
4.85431330718e-05
4.87918835833e-05
4.89468856004e-05
4.90716883992e-05
4.91908768091e-05
4.93179564975e-05
3.95543501164e-05
4.24811536975e-05
4.34689773586e-05
4.38847775087e-05
4.41055486438e-05
4.42612741259e-05
4.43977183369e-05
4.4532851762e-05
4.46757939694e-05
)
;
    }
    atmosphere
    {
        type            calculated;
        value           nonuniform List<scalar> 0();
    }
    floatingObject
    {
        type            nutkWallFunction;
        blending        stepwise;
        Cmu             0.09;
        kappa           0.41;
        E               9.8;
        value           nonuniform List<scalar> 0();
    }
    procBoundary10to9
    {
        type            processor;
        value           nonuniform List<scalar> 
15
(
0.00048783816819
0.000490031154104
0.000491084273006
0.000491817176557
0.000492523849674
0.000493326531487
0.000494337128848
0.000495798718513
0.000466763592531
0.000481709396265
0.000481709396265
0.00031331808362
0.000312884897993
0.000312412122289
0.000312412122289
)
;
    }
    procBoundary10to11
    {
        type            processor;
        value           nonuniform List<scalar> 
23
(
0.000498040621075
0.000498040621075
0.000503423214006
0.000503368273084
0.000497094484739
0.000497094484739
0.000496776191061
0.000496447254134
0.000492611835431
0.000492611835431
0.000490062317485
0.000490062317485
0.000489474234327
0.000489474234327
0.000491096493218
0.000490544366465
0.000489837860447
0.000488662519239
0.000486200266033
0.000477820724793
0.000477820724793
0.000462780385868
0.000311925110788
)
;
    }
}


// ************************************************************************* //
