/*--------------------------------*- C++ -*----------------------------------*\
| =========                 |                                                 |
| \\      /  F ield         | OpenFOAM: The Open Source CFD Toolbox           |
|  \\    /   O peration     | Version:  v2012                                 |
|   \\  /    A nd           | Website:  www.openfoam.com                      |
|    \\/     M anipulation  |                                                 |
\*---------------------------------------------------------------------------*/
FoamFile
{
    version     2.0;
    format      ascii;
    class       volScalarField;
    location    "6";
    object      epsilon;
}
// * * * * * * * * * * * * * * * * * * * * * * * * * * * * * * * * * * * * * //

dimensions      [0 2 -3 0 0 0 0];


internalField   nonuniform List<scalar> 
166
(
0.000375203668727
0.000390992316497
0.000429965047462
0.000445332063148
0.000451621161915
0.000454721464555
0.000456902551122
0.000459004273943
0.000461371386792
0.000464303355278
0.000468495900803
0.000476133256638
0.000494690168031
0.000550692683553
0.000735842763789
0.00135224740643
0.00352436937467
0.0123731224582
0.0427393726101
0.118644886393
0.000374921488427
0.000390769514508
0.000429671424051
0.000444980516749
0.000451233942608
0.000454316139884
0.000456489589124
0.000458591445533
0.000460969170217
0.000463932889723
0.000468201242161
0.000475988810197
0.000494768704797
0.00055103325667
0.000738472859398
0.00138308639908
0.00372757436139
0.0128321738616
0.04244183679
0.137344896993
0.000374467821272
0.000390377941606
0.000429203421781
0.000444457069364
0.00045068061921
0.000453750534752
0.000455922187908
0.000458030337752
0.000460425195688
0.000463429013676
0.000467786099596
0.000475742564692
0.000494747756631
0.000551030272089
0.000739431804324
0.00140741655535
0.0038852198957
0.0130245935624
0.0418488378986
0.142270404278
0.000373853546778
0.000389812876416
0.000428556947492
0.000443761583405
0.000449963000007
0.000453027234042
0.000455203425807
0.000457323807514
0.000459742330893
0.000462796276151
0.000467259907229
0.000475422567232
0.000494698378898
0.000550896078154
0.00073852422207
0.00141515687515
0.00392863694852
0.0126792730112
0.0397225768053
0.14285663979
0.000373106845014
0.000389075791496
0.000427732296968
0.000442894026622
0.000449082083056
0.000452148823694
0.0004543373471
0.000456478262422
0.000458930296604
0.000462048656311
0.000466645461875
0.000475076666582
0.000494810991373
0.000551456061294
0.000738336548774
0.0014141198
0.00389684652353
0.0119796940213
0.0359078017861
0.124171606186
0.000372258633468
0.000388172177253
0.000426727603171
0.000441853095941
0.000448037981706
0.000451117682914
0.000453327381231
0.000455497505817
0.000457994583721
0.00046119384774
0.000465956751446
0.000474737585721
0.000495169253201
0.00055292277684
0.000741302621029
0.0014216457372
0.00389588080775
0.0117011073318
0.0351002263361
0.113579536105
0.000371333377115
0.000387109738488
0.000425544497362
0.000440639777723
0.00044683281066
0.00044993589133
0.000452175458749
0.000454383264316
0.000456935541856
0.000460232795233
0.000465196414891
0.00047442245592
0.000495823208347
0.000555675061784
0.000749229242355
0.0014500463882
0.00400254859586
0.0120705961514
0.0370439549802
0.119867782136
0.000370292086569
0.000385888242782
0.000424190545367
0.000439261306587
0.000445472539584
0.000448607661284
0.000450885799316
0.00045314027024
0.000455759004206
0.000459170011464
0.000464371654541
0.000474122478461
0.000496778377943
0.0005598029754
0.000763011860474
0.00150374496697
0.00423076915119
0.0129910056065
0.0400657496463
0.123070844258
0.000369078932805
0.000384503702768
0.000422676221452
0.000367691396626
0.000366140337967
0.000364434102712
)
;

boundaryField
{
    back
    {
        lowReCorrection 0;
        blending        stepwise;
        n               2;
        type            epsilonWallFunction;
        value           nonuniform List<scalar> 
166
(
0.000375203668727
0.000390992316497
0.000429965047462
0.000445332063148
0.000451621161915
0.000454721464555
0.000456902551122
0.000459004273943
0.000461371386792
0.000464303355278
0.000468495900803
0.000476133256638
0.000494690168031
0.000550692683553
0.000735842763789
0.00135224740643
0.00352436937467
0.0123731224582
0.0427393726101
0.118644886393
0.000374921488427
0.000390769514508
0.000429671424051
0.000444980516749
0.000451233942608
0.000454316139884
0.000456489589124
0.000458591445533
0.000460969170217
0.000463932889723
0.000468201242161
0.000475988810197
0.000494768704797
0.00055103325667
0.000738472859398
0.00138308639908
0.00372757436139
0.0128321738616
0.04244183679
0.137344896993
0.000374467821272
0.000390377941606
0.000429203421781
0.000444457069364
0.00045068061921
0.000453750534752
0.000455922187908
0.000458030337752
0.000460425195688
0.000463429013676
0.000467786099596
0.000475742564692
0.000494747756631
0.000551030272089
0.000739431804324
0.00140741655535
0.0038852198957
0.0130245935624
0.0418488378986
0.142270404278
0.000373853546778
0.000389812876416
0.000428556947492
0.000443761583405
0.000449963000007
0.000453027234042
0.000455203425807
0.000457323807514
0.000459742330893
0.000462796276151
0.000467259907229
0.000475422567232
0.000494698378898
0.000550896078154
0.00073852422207
0.00141515687515
0.00392863694852
0.0126792730112
0.0397225768053
0.14285663979
0.000373106845014
0.000389075791496
0.000427732296968
0.000442894026622
0.000449082083056
0.000452148823694
0.0004543373471
0.000456478262422
0.000458930296604
0.000462048656311
0.000466645461875
0.000475076666582
0.000494810991373
0.000551456061294
0.000738336548774
0.0014141198
0.00389684652353
0.0119796940213
0.0359078017861
0.124171606186
0.000372258633468
0.000388172177253
0.000426727603171
0.000441853095941
0.000448037981706
0.000451117682914
0.000453327381231
0.000455497505817
0.000457994583721
0.00046119384774
0.000465956751446
0.000474737585721
0.000495169253201
0.00055292277684
0.000741302621029
0.0014216457372
0.00389588080775
0.0117011073318
0.0351002263361
0.113579536105
0.000371333377115
0.000387109738488
0.000425544497362
0.000440639777723
0.00044683281066
0.00044993589133
0.000452175458749
0.000454383264316
0.000456935541856
0.000460232795233
0.000465196414891
0.00047442245592
0.000495823208347
0.000555675061784
0.000749229242355
0.0014500463882
0.00400254859586
0.0120705961514
0.0370439549802
0.119867782136
0.000370292086569
0.000385888242782
0.000424190545367
0.000439261306587
0.000445472539584
0.000448607661284
0.000450885799316
0.00045314027024
0.000455759004206
0.000459170011464
0.000464371654541
0.000474122478461
0.000496778377943
0.0005598029754
0.000763011860474
0.00150374496697
0.00423076915119
0.0129910056065
0.0400657496463
0.123070844258
0.000369078932805
0.000384503702768
0.000422676221452
0.000367691396626
0.000366140337967
0.000364434102712
)
;
    }
    sides
    {
        lowReCorrection 0;
        blending        stepwise;
        n               2;
        type            epsilonWallFunction;
        value           nonuniform List<scalar> 0();
    }
    bottom
    {
        lowReCorrection 0;
        blending        stepwise;
        n               2;
        type            epsilonWallFunction;
        value           nonuniform List<scalar> 
12
(
0.000375203668727
0.000374921488427
0.000374467821272
0.000373853546778
0.000373106845014
0.000372258633468
0.000371333377115
0.000370292086569
0.000369078932805
0.000367691396626
0.000366140337967
0.000364434102712
)
;
    }
    front
    {
        lowReCorrection 0;
        blending        stepwise;
        n               2;
        type            epsilonWallFunction;
        value           nonuniform List<scalar> 
166
(
0.000375203668727
0.000390992316497
0.000429965047462
0.000445332063148
0.000451621161915
0.000454721464555
0.000456902551122
0.000459004273943
0.000461371386792
0.000464303355278
0.000468495900803
0.000476133256638
0.000494690168031
0.000550692683553
0.000735842763789
0.00135224740643
0.00352436937467
0.0123731224582
0.0427393726101
0.118644886393
0.000374921488427
0.000390769514508
0.000429671424051
0.000444980516749
0.000451233942608
0.000454316139884
0.000456489589124
0.000458591445533
0.000460969170217
0.000463932889723
0.000468201242161
0.000475988810197
0.000494768704797
0.00055103325667
0.000738472859398
0.00138308639908
0.00372757436139
0.0128321738616
0.04244183679
0.137344896993
0.000374467821272
0.000390377941606
0.000429203421781
0.000444457069364
0.00045068061921
0.000453750534752
0.000455922187908
0.000458030337752
0.000460425195688
0.000463429013676
0.000467786099596
0.000475742564692
0.000494747756631
0.000551030272089
0.000739431804324
0.00140741655535
0.0038852198957
0.0130245935624
0.0418488378986
0.142270404278
0.000373853546778
0.000389812876416
0.000428556947492
0.000443761583405
0.000449963000007
0.000453027234042
0.000455203425807
0.000457323807514
0.000459742330893
0.000462796276151
0.000467259907229
0.000475422567232
0.000494698378898
0.000550896078154
0.00073852422207
0.00141515687515
0.00392863694852
0.0126792730112
0.0397225768053
0.14285663979
0.000373106845014
0.000389075791496
0.000427732296968
0.000442894026622
0.000449082083056
0.000452148823694
0.0004543373471
0.000456478262422
0.000458930296604
0.000462048656311
0.000466645461875
0.000475076666582
0.000494810991373
0.000551456061294
0.000738336548774
0.0014141198
0.00389684652353
0.0119796940213
0.0359078017861
0.124171606186
0.000372258633468
0.000388172177253
0.000426727603171
0.000441853095941
0.000448037981706
0.000451117682914
0.000453327381231
0.000455497505817
0.000457994583721
0.00046119384774
0.000465956751446
0.000474737585721
0.000495169253201
0.00055292277684
0.000741302621029
0.0014216457372
0.00389588080775
0.0117011073318
0.0351002263361
0.113579536105
0.000371333377115
0.000387109738488
0.000425544497362
0.000440639777723
0.00044683281066
0.00044993589133
0.000452175458749
0.000454383264316
0.000456935541856
0.000460232795233
0.000465196414891
0.00047442245592
0.000495823208347
0.000555675061784
0.000749229242355
0.0014500463882
0.00400254859586
0.0120705961514
0.0370439549802
0.119867782136
0.000370292086569
0.000385888242782
0.000424190545367
0.000439261306587
0.000445472539584
0.000448607661284
0.000450885799316
0.00045314027024
0.000455759004206
0.000459170011464
0.000464371654541
0.000474122478461
0.000496778377943
0.0005598029754
0.000763011860474
0.00150374496697
0.00423076915119
0.0129910056065
0.0400657496463
0.123070844258
0.000369078932805
0.000384503702768
0.000422676221452
0.000367691396626
0.000366140337967
0.000364434102712
)
;
    }
    atmosphere
    {
        type            inletOutlet;
        inletValue      uniform 0.1;
        value           nonuniform List<scalar> 8(0.1 0.1 0.1 0.1 0.124171606186 0.113579536105 0.119867782136 0.123070844258);
    }
    floatingObject
    {
        lowReCorrection 0;
        blending        stepwise;
        n               2;
        type            epsilonWallFunction;
        value           nonuniform List<scalar> 0();
    }
    procBoundary9to6
    {
        type            processor;
        value           nonuniform List<scalar> 4(0.00341814184167 0.0120940541427 0.0429387879227 0.115768823177);
    }
    procBoundary9to7
    {
        type            processor;
        value           nonuniform List<scalar> 
16
(
0.000375310013467
0.000391049582331
0.000430085790421
0.000445510770663
0.000451839307482
0.000454963084461
0.000457158155734
0.000459267842041
0.00046163506667
0.000464549751589
0.000468684970924
0.000476183812675
0.000494450240732
0.000549859014053
0.000732787014151
0.00133407797794
)
;
    }
    procBoundary9to10
    {
        type            processor;
        value           nonuniform List<scalar> 
15
(
0.000437729014154
0.000443964641624
0.000447138942719
0.000449462594561
0.000451771662168
0.000454465175598
0.000458006472843
0.000463461767716
0.000382973888042
0.000437729014154
0.00042101064148
0.000382973888042
0.000381294474839
0.000379480410102
0.000362568781057
)
;
    }
    procBoundary9to11
    {
        type            processor;
        value           nonuniform List<scalar> 9(0.000473800342779 0.000497943887828 0.000565208990904 0.000782605674279 0.00157667982865 0.0045141493286 0.0139741303621 0.0415307126226 0.111030649154);
    }
}


// ************************************************************************* //
