/*--------------------------------*- C++ -*----------------------------------*\
| =========                 |                                                 |
| \\      /  F ield         | OpenFOAM: The Open Source CFD Toolbox           |
|  \\    /   O peration     | Version:  v2012                                 |
|   \\  /    A nd           | Website:  www.openfoam.com                      |
|    \\/     M anipulation  |                                                 |
\*---------------------------------------------------------------------------*/
FoamFile
{
    version     2.0;
    format      ascii;
    class       volScalarField;
    location    "6";
    object      nut;
}
// * * * * * * * * * * * * * * * * * * * * * * * * * * * * * * * * * * * * * //

dimensions      [0 2 -1 0 0 0 0];


internalField   nonuniform List<scalar> 
166
(
0.000270622171082
0.000402559969536
0.000415515436651
0.000420414521092
0.000422392948814
0.00042336606305
0.000424050391231
0.000424708382285
0.000425447144618
0.000426359444319
0.000427661287008
0.000430031952481
0.000435756368944
0.000452347707711
0.000500275261723
0.000617549349696
0.000860752819748
0.00129938660038
0.0019057854218
0.00294869232337
0.000270555865167
0.000402474620158
0.000415418980943
0.000420306905753
0.000422278177701
0.000423247549532
0.000423930491485
0.000424589137204
0.000425331495323
0.000426253082974
0.000427574497542
0.000429975876878
0.000435712925501
0.000452219105448
0.00050035887656
0.000620875827997
0.000870546377491
0.00130525406833
0.00194199901952
0.00305617258676
0.000270450149107
0.000402328874114
0.000415263668623
0.000420142871501
0.000422109669156
0.000423077658673
0.000423761368551
0.000424422853938
0.000425171222115
0.000426105387007
0.000427452645586
0.000429894619166
0.000435649332978
0.000451973803856
0.000499855952942
0.000622948988336
0.000877079532741
0.00130247728131
0.00193133363246
0.0030557700226
0.000270303647308
0.000402121612258
0.00041504885633
0.000419922627219
0.000421887786364
0.000422856759387
0.000423543419383
0.000424209879137
0.000424966709485
0.000425917064116
0.000427295547097
0.000429791271827
0.00043558922133
0.000451763666094
0.000499136025537
0.000622009623196
0.00087455944801
0.00128390250064
0.00189620187299
0.00302319660967
0.000270122048242
0.000401852358147
0.000414774252819
0.000419645882815
0.000421612574412
0.000422585303115
0.000423277447975
0.000423951443517
0.000424719773017
0.000425690751585
0.000427109155903
0.000429679384401
0.00043558365207
0.000451769768467
0.000498576292382
0.000620209388327
0.000867487824768
0.00125380502524
0.00180964593295
0.00240127917568
0.000269912179013
0.000401524017919
0.000414439368413
0.000419312182168
0.000421284106727
0.000422263883576
0.000422964364756
0.000423648683962
0.00042443188297
0.00042542832469
0.000426896356466
0.000429564328805
0.000435640491973
0.000452012693913
0.000498763077607
0.000619932165666
0.000863147775365
0.00123671294882
0.00176357132778
0.00232501818784
0.000269679645038
0.000401139541746
0.000414044933856
0.000418921632112
0.000420902641046
0.0004218927727
0.000422604348044
0.000423301626326
0.000424102741115
0.000425129828724
0.000426657064373
0.000429449987356
0.000435773902093
0.000452574891887
0.000499961439716
0.000622278919253
0.000866311101021
0.0012402366477
0.00177282193637
0.0023283143297
0.000269417141391
0.000400698478529
0.000413591902304
0.000418475803496
0.000420469094137
0.000421472653549
0.00042219806873
0.000422911078573
0.00042373391306
0.000424795557518
0.000426394261347
0.000429335706176
0.000435987569548
0.00045348721229
0.000502363913605
0.00062789646098
0.000877343349964
0.00125860292259
0.00179241826564
0.00232929857873
0.000269111832158
0.000400197191041
0.000413083886465
0.000268761843975
0.00026837006895
0.000267936272126
)
;

boundaryField
{
    back
    {
        type            nutkWallFunction;
        blending        stepwise;
        Cmu             0.09;
        kappa           0.41;
        E               9.8;
        value           nonuniform List<scalar> 
166
(
3.93176568428e-05
4.34503625424e-05
4.47231178766e-05
4.52029637406e-05
4.53961568857e-05
4.54908153639e-05
4.555719686e-05
4.56209691027e-05
4.56925524957e-05
4.57808811081e-05
4.59066084997e-05
4.61340977138e-05
4.66780720136e-05
4.82411758373e-05
5.27274454308e-05
6.35310412802e-05
8.51950882391e-05
0.000124638672386
0.000227016609736
0.000318252740783
3.93087122718e-05
4.34426188037e-05
4.47137913439e-05
4.51921948881e-05
4.53844758355e-05
4.5478672685e-05
4.55448779558e-05
4.56086997353e-05
4.56806446255e-05
4.57699545909e-05
4.5897906135e-05
4.61295377953e-05
4.66786996056e-05
4.82448445942e-05
5.27722938772e-05
6.3935869994e-05
8.65107060847e-05
0.000125814232226
0.000227644217928
0.000331895213045
3.92943536913e-05
4.34291083565e-05
4.4698880355e-05
4.51760587742e-05
4.53676643436e-05
4.54616080992e-05
4.5527834946e-05
4.55919109327e-05
4.56644365339e-05
4.57550117197e-05
4.58856514861e-05
4.61221139049e-05
4.66766965089e-05
4.82388226091e-05
5.27758022459e-05
6.42387034692e-05
8.74783696644e-05
0.000126188592142
0.000226607149734
0.000334588799789
3.92747856437e-05
4.34096746752e-05
4.46782622743e-05
4.5154547336e-05
4.53457628595e-05
4.5439680005e-05
4.55061383241e-05
4.55706672457e-05
4.56439945974e-05
4.57361656172e-05
4.58700462672e-05
4.61125188614e-05
4.6674168013e-05
4.82310381356e-05
5.27437417217e-05
6.42968259314e-05
8.76425027149e-05
0.000125017486508
0.000222909850252
0.0003340803627
3.92508594671e-05
4.33843298332e-05
4.46519233467e-05
4.51276393793e-05
4.53187825975e-05
4.54129463253e-05
4.5479888358e-05
4.5545133491e-05
4.56195729424e-05
4.57137867282e-05
4.58517395077e-05
4.61021390757e-05
4.66764524369e-05
4.82423479841e-05
5.27272212441e-05
6.42437307474e-05
8.73193518382e-05
0.000122755353303
0.000215350935252
0.000306733324908
3.92235310111e-05
4.33532673929e-05
4.46197896091e-05
4.50952766989e-05
4.52867122206e-05
4.53814614085e-05
4.54491719732e-05
4.55154115462e-05
4.55913210357e-05
4.56880856608e-05
4.5831109786e-05
4.60918284577e-05
4.66855363051e-05
4.82774506419e-05
5.27798639921e-05
6.43148086688e-05
8.72148896346e-05
0.000121725242693
0.000212920017475
0.000298252451742
3.91935632151e-05
4.3316735326e-05
4.45818963036e-05
4.50574645493e-05
4.52495880703e-05
4.53452625141e-05
4.5414022112e-05
4.54815273629e-05
4.55592276578e-05
4.56590755126e-05
4.58082090016e-05
4.60820617219e-05
4.67028313193e-05
4.83457589398e-05
5.29367157476e-05
6.46604139537e-05
8.78253421868e-05
0.000122674182858
0.000215852494388
0.000302084224731
3.91597632532e-05
4.32746927138e-05
4.45384224155e-05
4.50143866054e-05
4.52075491006e-05
4.53044437644e-05
4.5374534125e-05
4.54435928001e-05
4.55234498028e-05
4.5626855048e-05
4.57832665488e-05
4.60726286262e-05
4.67285278017e-05
4.8449532074e-05
5.32148630488e-05
6.53309220264e-05
8.91962974157e-05
0.000125164737495
0.000218490272983
0.000303942858792
3.91203385928e-05
4.32269201245e-05
4.44896797167e-05
3.90751366106e-05
3.90244828217e-05
3.89685364293e-05
)
;
    }
    sides
    {
        type            nutkWallFunction;
        blending        stepwise;
        Cmu             0.09;
        kappa           0.41;
        E               9.8;
        value           nonuniform List<scalar> 0();
    }
    bottom
    {
        type            nutkWallFunction;
        blending        stepwise;
        Cmu             0.09;
        kappa           0.41;
        E               9.8;
        value           nonuniform List<scalar> 
12
(
2.08255974103e-05
2.08208049142e-05
2.08131115784e-05
2.08026269743e-05
2.07898072235e-05
2.07751644472e-05
2.07591074095e-05
2.07409969534e-05
2.07198725683e-05
2.06956524091e-05
2.06685108179e-05
2.06385330185e-05
)
;
    }
    front
    {
        type            nutkWallFunction;
        blending        stepwise;
        Cmu             0.09;
        kappa           0.41;
        E               9.8;
        value           nonuniform List<scalar> 
166
(
3.93176568428e-05
4.34503625424e-05
4.47231178766e-05
4.52029637406e-05
4.53961568857e-05
4.54908153639e-05
4.555719686e-05
4.56209691027e-05
4.56925524957e-05
4.57808811081e-05
4.59066084997e-05
4.61340977138e-05
4.66780720136e-05
4.82411758373e-05
5.27274454308e-05
6.35310412802e-05
8.51950882391e-05
0.000124638672386
0.000227016609736
0.000318252740783
3.93087122718e-05
4.34426188037e-05
4.47137913439e-05
4.51921948881e-05
4.53844758355e-05
4.5478672685e-05
4.55448779558e-05
4.56086997353e-05
4.56806446255e-05
4.57699545909e-05
4.5897906135e-05
4.61295377953e-05
4.66786996056e-05
4.82448445942e-05
5.27722938772e-05
6.3935869994e-05
8.65107060847e-05
0.000125814232226
0.000227644217928
0.000331895213045
3.92943536913e-05
4.34291083565e-05
4.4698880355e-05
4.51760587742e-05
4.53676643436e-05
4.54616080992e-05
4.5527834946e-05
4.55919109327e-05
4.56644365339e-05
4.57550117197e-05
4.58856514861e-05
4.61221139049e-05
4.66766965089e-05
4.82388226091e-05
5.27758022459e-05
6.42387034692e-05
8.74783696644e-05
0.000126188592142
0.000226607149734
0.000334588799789
3.92747856437e-05
4.34096746752e-05
4.46782622743e-05
4.5154547336e-05
4.53457628595e-05
4.5439680005e-05
4.55061383241e-05
4.55706672457e-05
4.56439945974e-05
4.57361656172e-05
4.58700462672e-05
4.61125188614e-05
4.6674168013e-05
4.82310381356e-05
5.27437417217e-05
6.42968259314e-05
8.76425027149e-05
0.000125017486508
0.000222909850252
0.0003340803627
3.92508594671e-05
4.33843298332e-05
4.46519233467e-05
4.51276393793e-05
4.53187825975e-05
4.54129463253e-05
4.5479888358e-05
4.5545133491e-05
4.56195729424e-05
4.57137867282e-05
4.58517395077e-05
4.61021390757e-05
4.66764524369e-05
4.82423479841e-05
5.27272212441e-05
6.42437307474e-05
8.73193518382e-05
0.000122755353303
0.000215350935252
0.000306733324908
3.92235310111e-05
4.33532673929e-05
4.46197896091e-05
4.50952766989e-05
4.52867122206e-05
4.53814614085e-05
4.54491719732e-05
4.55154115462e-05
4.55913210357e-05
4.56880856608e-05
4.5831109786e-05
4.60918284577e-05
4.66855363051e-05
4.82774506419e-05
5.27798639921e-05
6.43148086688e-05
8.72148896346e-05
0.000121725242693
0.000212920017475
0.000298252451742
3.91935632151e-05
4.3316735326e-05
4.45818963036e-05
4.50574645493e-05
4.52495880703e-05
4.53452625141e-05
4.5414022112e-05
4.54815273629e-05
4.55592276578e-05
4.56590755126e-05
4.58082090016e-05
4.60820617219e-05
4.67028313193e-05
4.83457589398e-05
5.29367157476e-05
6.46604139537e-05
8.78253421868e-05
0.000122674182858
0.000215852494388
0.000302084224731
3.91597632532e-05
4.32746927138e-05
4.45384224155e-05
4.50143866054e-05
4.52075491006e-05
4.53044437644e-05
4.5374534125e-05
4.54435928001e-05
4.55234498028e-05
4.5626855048e-05
4.57832665488e-05
4.60726286262e-05
4.67285278017e-05
4.8449532074e-05
5.32148630488e-05
6.53309220264e-05
8.91962974157e-05
0.000125164737495
0.000218490272983
0.000303942858792
3.91203385928e-05
4.32269201245e-05
4.44896797167e-05
3.90751366106e-05
3.90244828217e-05
3.89685364293e-05
)
;
    }
    atmosphere
    {
        type            calculated;
        value           nonuniform List<scalar> 8(0.009 0.009 0.009 0.009 0.00240127917568 0.00232501818784 0.0023283143297 0.00232929857873);
    }
    floatingObject
    {
        type            nutkWallFunction;
        blending        stepwise;
        Cmu             0.09;
        kappa           0.41;
        E               9.8;
        value           nonuniform List<scalar> 0();
    }
    procBoundary9to6
    {
        type            processor;
        value           nonuniform List<scalar> 4(0.000857196623823 0.0012970771581 0.00186701823608 0.00237490546826);
    }
    procBoundary9to7
    {
        type            processor;
        value           nonuniform List<scalar> 
16
(
0.000270651865627
0.000402583657995
0.000415551154848
0.000420463370953
0.000422451820343
0.000423431284763
0.00042411961572
0.000424780030645
0.000425519080978
0.000426427046068
0.000427714992896
0.000430057006054
0.000435743651822
0.000452316411829
0.000500081185057
0.000616096853055
)
;
    }
    procBoundary9to10
    {
        type            processor;
        value           nonuniform List<scalar> 
15
(
0.000417977996073
0.000419986046006
0.000421005287516
0.000421746771564
0.000422477939736
0.000423324164518
0.000424426753363
0.00042609967038
0.000399644671146
0.000417977996073
0.0004125231609
0.000399644671146
0.000399034744504
0.00039837728909
0.000267461682148
)
;
    }
    procBoundary9to11
    {
        type            processor;
        value           nonuniform List<scalar> 9(0.000429207130011 0.000436255364369 0.000454721058977 0.000505914188884 0.00063598293685 0.000891906382716 0.00127718389154 0.00178713745175 0.00227449113325);
    }
}


// ************************************************************************* //
