/*--------------------------------*- C++ -*----------------------------------*\
| =========                 |                                                 |
| \\      /  F ield         | OpenFOAM: The Open Source CFD Toolbox           |
|  \\    /   O peration     | Version:  v2012                                 |
|   \\  /    A nd           | Website:  www.openfoam.com                      |
|    \\/     M anipulation  |                                                 |
\*---------------------------------------------------------------------------*/
FoamFile
{
    version     2.0;
    format      ascii;
    class       volScalarField;
    location    "6";
    object      rAU;
}
// * * * * * * * * * * * * * * * * * * * * * * * * * * * * * * * * * * * * * //

dimensions      [-1 3 1 0 0 0 0];


internalField   nonuniform List<scalar> 
166
(
2.19632205949e-05
2.19416785162e-05
2.19283037438e-05
2.19234572532e-05
2.19207617611e-05
2.19190685538e-05
2.19180174932e-05
2.19175985246e-05
2.19178369629e-05
2.19184185769e-05
2.19182297239e-05
2.19159943883e-05
2.19077572654e-05
2.18881354938e-05
2.18487698128e-05
2.17459379211e-05
2.16043742542e-05
3.89188623109e-05
0.00524547018
0.0166400330184
2.18372705496e-05
2.1888434212e-05
2.19043447471e-05
2.1908046515e-05
2.19087996733e-05
2.19119813127e-05
2.1912767758e-05
2.19131085683e-05
2.19133050126e-05
2.19131331265e-05
2.1912002061e-05
2.19099920667e-05
2.19047076139e-05
2.188767975e-05
2.18424338355e-05
2.17292401742e-05
2.16017704794e-05
4.02505425534e-05
0.00535662305027
0.0164887740305
2.19588167394e-05
2.1878510514e-05
2.18903221987e-05
2.18975266172e-05
2.19010185694e-05
2.19059504577e-05
2.1907585935e-05
2.19071708169e-05
2.19052527489e-05
2.19023940376e-05
2.18992484802e-05
2.18962542244e-05
2.18918302674e-05
2.18776286209e-05
2.18345037001e-05
2.17170075847e-05
2.16077330126e-05
4.14822001009e-05
0.00548549536664
0.0164393142022
2.19995620467e-05
2.18906440104e-05
2.18889804387e-05
2.18939168479e-05
2.18972593566e-05
2.19021278182e-05
2.19046855267e-05
2.19050049899e-05
2.19041335325e-05
2.19023266467e-05
2.18995367573e-05
2.18946333259e-05
2.18864106424e-05
2.18713513628e-05
2.1834828685e-05
2.17204460436e-05
2.16404147046e-05
4.26164216824e-05
0.0056401893724
0.0205586954281
2.20178495367e-05
2.19027142868e-05
2.18937977199e-05
2.18949982944e-05
2.18970973489e-05
2.19006897673e-05
2.190389617e-05
2.19056080516e-05
2.19062063092e-05
2.19055143826e-05
2.1902654564e-05
2.18969124632e-05
2.18871555765e-05
2.18687488429e-05
2.182662351e-05
2.17195505167e-05
2.16782738608e-05
4.37071920462e-05
0.00583454059157
0.0206821184424
2.2029490641e-05
2.19110107005e-05
2.18991497252e-05
2.18974202938e-05
2.18983143424e-05
2.19004298686e-05
2.1902287373e-05
2.19034709418e-05
2.19034172115e-05
2.19023239743e-05
2.1899683956e-05
2.1894542026e-05
2.18836358668e-05
2.18615614843e-05
2.18105918756e-05
2.17084634376e-05
2.17042606482e-05
4.4792335849e-05
0.00598013596582
0.020734679104
2.20383161665e-05
2.19169262084e-05
2.19035139569e-05
2.19000243698e-05
2.18994491843e-05
2.19009837475e-05
2.19015812102e-05
2.19014083346e-05
2.19004205367e-05
2.1898792199e-05
2.18962021931e-05
2.18912223102e-05
2.18798770328e-05
2.18562083153e-05
2.18039319806e-05
2.16978451125e-05
2.1703301865e-05
4.57115315055e-05
0.00602689442448
0.0206413696806
2.20433150305e-05
2.19217761182e-05
2.19077234003e-05
2.19033015651e-05
2.19015920014e-05
2.19022984747e-05
2.19030152205e-05
2.1902643175e-05
2.19014403232e-05
2.18997756766e-05
2.1897086771e-05
2.18910612658e-05
2.18791834876e-05
2.18549296437e-05
2.18009134135e-05
2.16885610073e-05
2.16637473164e-05
4.629732586e-05
0.0057273298826
0.0205637896704
2.20468104592e-05
2.19254388933e-05
2.19117243071e-05
2.20506282169e-05
2.20530372888e-05
2.20550324032e-05
)
;

boundaryField
{
    back
    {
        type            calculated;
        value           nonuniform List<scalar> 
166
(
2.19632205949e-05
2.19416785162e-05
2.19283037438e-05
2.19234572532e-05
2.19207617611e-05
2.19190685538e-05
2.19180174932e-05
2.19175985246e-05
2.19178369629e-05
2.19184185769e-05
2.19182297239e-05
2.19159943883e-05
2.19077572654e-05
2.18881354938e-05
2.18487698128e-05
2.17459379211e-05
2.16043742542e-05
3.89188623109e-05
0.00524547018
0.0166400330184
2.18372705496e-05
2.1888434212e-05
2.19043447471e-05
2.1908046515e-05
2.19087996733e-05
2.19119813127e-05
2.1912767758e-05
2.19131085683e-05
2.19133050126e-05
2.19131331265e-05
2.1912002061e-05
2.19099920667e-05
2.19047076139e-05
2.188767975e-05
2.18424338355e-05
2.17292401742e-05
2.16017704794e-05
4.02505425534e-05
0.00535662305027
0.0164887740305
2.19588167394e-05
2.1878510514e-05
2.18903221987e-05
2.18975266172e-05
2.19010185694e-05
2.19059504577e-05
2.1907585935e-05
2.19071708169e-05
2.19052527489e-05
2.19023940376e-05
2.18992484802e-05
2.18962542244e-05
2.18918302674e-05
2.18776286209e-05
2.18345037001e-05
2.17170075847e-05
2.16077330126e-05
4.14822001009e-05
0.00548549536664
0.0164393142022
2.19995620467e-05
2.18906440104e-05
2.18889804387e-05
2.18939168479e-05
2.18972593566e-05
2.19021278182e-05
2.19046855267e-05
2.19050049899e-05
2.19041335325e-05
2.19023266467e-05
2.18995367573e-05
2.18946333259e-05
2.18864106424e-05
2.18713513628e-05
2.1834828685e-05
2.17204460436e-05
2.16404147046e-05
4.26164216824e-05
0.0056401893724
0.0205586954281
2.20178495367e-05
2.19027142868e-05
2.18937977199e-05
2.18949982944e-05
2.18970973489e-05
2.19006897673e-05
2.190389617e-05
2.19056080516e-05
2.19062063092e-05
2.19055143826e-05
2.1902654564e-05
2.18969124632e-05
2.18871555765e-05
2.18687488429e-05
2.182662351e-05
2.17195505167e-05
2.16782738608e-05
4.37071920462e-05
0.00583454059157
0.0206821184424
2.2029490641e-05
2.19110107005e-05
2.18991497252e-05
2.18974202938e-05
2.18983143424e-05
2.19004298686e-05
2.1902287373e-05
2.19034709418e-05
2.19034172115e-05
2.19023239743e-05
2.1899683956e-05
2.1894542026e-05
2.18836358668e-05
2.18615614843e-05
2.18105918756e-05
2.17084634376e-05
2.17042606482e-05
4.4792335849e-05
0.00598013596582
0.020734679104
2.20383161665e-05
2.19169262084e-05
2.19035139569e-05
2.19000243698e-05
2.18994491843e-05
2.19009837475e-05
2.19015812102e-05
2.19014083346e-05
2.19004205367e-05
2.1898792199e-05
2.18962021931e-05
2.18912223102e-05
2.18798770328e-05
2.18562083153e-05
2.18039319806e-05
2.16978451125e-05
2.1703301865e-05
4.57115315055e-05
0.00602689442448
0.0206413696806
2.20433150305e-05
2.19217761182e-05
2.19077234003e-05
2.19033015651e-05
2.19015920014e-05
2.19022984747e-05
2.19030152205e-05
2.1902643175e-05
2.19014403232e-05
2.18997756766e-05
2.1897086771e-05
2.18910612658e-05
2.18791834876e-05
2.18549296437e-05
2.18009134135e-05
2.16885610073e-05
2.16637473164e-05
4.629732586e-05
0.0057273298826
0.0205637896704
2.20468104592e-05
2.19254388933e-05
2.19117243071e-05
2.20506282169e-05
2.20530372888e-05
2.20550324032e-05
)
;
    }
    sides
    {
        type            calculated;
        value           nonuniform List<scalar> 0();
    }
    bottom
    {
        type            calculated;
        value           nonuniform List<scalar> 
12
(
2.19632205949e-05
2.18372705496e-05
2.19588167394e-05
2.19995620467e-05
2.20178495367e-05
2.2029490641e-05
2.20383161665e-05
2.20433150305e-05
2.20468104592e-05
2.20506282169e-05
2.20530372888e-05
2.20550324032e-05
)
;
    }
    front
    {
        type            calculated;
        value           nonuniform List<scalar> 
166
(
2.19632205949e-05
2.19416785162e-05
2.19283037438e-05
2.19234572532e-05
2.19207617611e-05
2.19190685538e-05
2.19180174932e-05
2.19175985246e-05
2.19178369629e-05
2.19184185769e-05
2.19182297239e-05
2.19159943883e-05
2.19077572654e-05
2.18881354938e-05
2.18487698128e-05
2.17459379211e-05
2.16043742542e-05
3.89188623109e-05
0.00524547018
0.0166400330184
2.18372705496e-05
2.1888434212e-05
2.19043447471e-05
2.1908046515e-05
2.19087996733e-05
2.19119813127e-05
2.1912767758e-05
2.19131085683e-05
2.19133050126e-05
2.19131331265e-05
2.1912002061e-05
2.19099920667e-05
2.19047076139e-05
2.188767975e-05
2.18424338355e-05
2.17292401742e-05
2.16017704794e-05
4.02505425534e-05
0.00535662305027
0.0164887740305
2.19588167394e-05
2.1878510514e-05
2.18903221987e-05
2.18975266172e-05
2.19010185694e-05
2.19059504577e-05
2.1907585935e-05
2.19071708169e-05
2.19052527489e-05
2.19023940376e-05
2.18992484802e-05
2.18962542244e-05
2.18918302674e-05
2.18776286209e-05
2.18345037001e-05
2.17170075847e-05
2.16077330126e-05
4.14822001009e-05
0.00548549536664
0.0164393142022
2.19995620467e-05
2.18906440104e-05
2.18889804387e-05
2.18939168479e-05
2.18972593566e-05
2.19021278182e-05
2.19046855267e-05
2.19050049899e-05
2.19041335325e-05
2.19023266467e-05
2.18995367573e-05
2.18946333259e-05
2.18864106424e-05
2.18713513628e-05
2.1834828685e-05
2.17204460436e-05
2.16404147046e-05
4.26164216824e-05
0.0056401893724
0.0205586954281
2.20178495367e-05
2.19027142868e-05
2.18937977199e-05
2.18949982944e-05
2.18970973489e-05
2.19006897673e-05
2.190389617e-05
2.19056080516e-05
2.19062063092e-05
2.19055143826e-05
2.1902654564e-05
2.18969124632e-05
2.18871555765e-05
2.18687488429e-05
2.182662351e-05
2.17195505167e-05
2.16782738608e-05
4.37071920462e-05
0.00583454059157
0.0206821184424
2.2029490641e-05
2.19110107005e-05
2.18991497252e-05
2.18974202938e-05
2.18983143424e-05
2.19004298686e-05
2.1902287373e-05
2.19034709418e-05
2.19034172115e-05
2.19023239743e-05
2.1899683956e-05
2.1894542026e-05
2.18836358668e-05
2.18615614843e-05
2.18105918756e-05
2.17084634376e-05
2.17042606482e-05
4.4792335849e-05
0.00598013596582
0.020734679104
2.20383161665e-05
2.19169262084e-05
2.19035139569e-05
2.19000243698e-05
2.18994491843e-05
2.19009837475e-05
2.19015812102e-05
2.19014083346e-05
2.19004205367e-05
2.1898792199e-05
2.18962021931e-05
2.18912223102e-05
2.18798770328e-05
2.18562083153e-05
2.18039319806e-05
2.16978451125e-05
2.1703301865e-05
4.57115315055e-05
0.00602689442448
0.0206413696806
2.20433150305e-05
2.19217761182e-05
2.19077234003e-05
2.19033015651e-05
2.19015920014e-05
2.19022984747e-05
2.19030152205e-05
2.1902643175e-05
2.19014403232e-05
2.18997756766e-05
2.1897086771e-05
2.18910612658e-05
2.18791834876e-05
2.18549296437e-05
2.18009134135e-05
2.16885610073e-05
2.16637473164e-05
4.629732586e-05
0.0057273298826
0.0205637896704
2.20468104592e-05
2.19254388933e-05
2.19117243071e-05
2.20506282169e-05
2.20530372888e-05
2.20550324032e-05
)
;
    }
    atmosphere
    {
        type            calculated;
        value           nonuniform List<scalar> 8(0.0166400330184 0.0164887740305 0.0164393142022 0.0205586954281 0.0206821184424 0.020734679104 0.0206413696806 0.0205637896704);
    }
    floatingObject
    {
        type            calculated;
        value           nonuniform List<scalar> 0();
    }
    procBoundary9to6
    {
        type            processor;
        value           nonuniform List<scalar> 4(2.15895371454e-05 3.7496580548e-05 0.0051557415958 0.0207344238515);
    }
    procBoundary9to7
    {
        type            processor;
        value           nonuniform List<scalar> 
16
(
2.2175495729e-05
2.19883360036e-05
2.19476062007e-05
2.19356560385e-05
2.19303241231e-05
2.19257960157e-05
2.19227430815e-05
2.19202142102e-05
2.19177147849e-05
2.19147840049e-05
2.19109971505e-05
2.19055863572e-05
2.18964021839e-05
2.18793258631e-05
2.18505854393e-05
2.17550462057e-05
)
;
    }
    procBoundary9to10
    {
        type            processor;
        value           nonuniform List<scalar> 
15
(
2.19069113513e-05
2.1904769072e-05
2.19044792368e-05
2.19048500096e-05
2.19048130567e-05
2.19039412176e-05
2.19018369907e-05
2.18985869275e-05
2.19286858464e-05
2.19069113513e-05
2.1915241731e-05
2.19286858464e-05
2.19315429891e-05
2.19336830764e-05
2.20570347583e-05
)
;
    }
    procBoundary9to11
    {
        type            processor;
        value           nonuniform List<scalar> 9(2.18921639943e-05 2.18799741283e-05 2.18562235315e-05 2.18000528679e-05 2.1671166271e-05 2.1577996967e-05 4.64581887362e-05 0.00541396943548 0.0191318823375);
    }
}


// ************************************************************************* //
