/*--------------------------------*- C++ -*----------------------------------*\
| =========                 |                                                 |
| \\      /  F ield         | OpenFOAM: The Open Source CFD Toolbox           |
|  \\    /   O peration     | Version:  v2012                                 |
|   \\  /    A nd           | Website:  www.openfoam.com                      |
|    \\/     M anipulation  |                                                 |
\*---------------------------------------------------------------------------*/
FoamFile
{
    version     2.0;
    format      ascii;
    class       volVectorField;
    location    "6";
    object      U_0;
}
// * * * * * * * * * * * * * * * * * * * * * * * * * * * * * * * * * * * * * //

dimensions      [0 1 -1 0 0 0 0];


internalField   nonuniform List<vector> 
166
(
(0.0359354456308 -5.56165121269e-05 -3.37313170477e-22)
(0.0351396701752 -0.000187189103384 -2.26661551976e-22)
(0.0346307625511 -0.000347627739962 -1.0346286645e-22)
(0.0345281107031 -0.000555437205588 -7.45852811339e-24)
(0.0348344763305 -0.000798060610154 9.22417964361e-24)
(0.0354375377002 -0.00107473720294 4.84455689175e-24)
(0.0362453133275 -0.0013911830098 -3.50890014083e-25)
(0.0372132755034 -0.00175636871324 3.85260747975e-25)
(0.0383251860558 -0.00218027245418 6.34571652978e-24)
(0.0395801732336 -0.00268011528223 4.86940932653e-24)
(0.0409793010735 -0.00329478301097 1.90939292309e-23)
(0.0425366063572 -0.00404600901478 -3.08150674902e-23)
(0.0442665666966 -0.0049814401383 -2.05884345268e-22)
(0.0461511225034 -0.00615954923376 -5.56464313932e-22)
(0.0480599405304 -0.00775820491733 -7.96472834178e-22)
(0.0498138240556 -0.0102974096714 -1.2297471213e-21)
(0.0520371966565 -0.0146531265754 -4.41810584282e-21)
(0.058400821237 -0.015817341248 -7.14156793823e-21)
(0.0532542957845 -0.0159911493401 -7.22578367675e-21)
(0.0445077989819 -0.0130332324617 1.71229654799e-21)
(0.0359777299319 1.69373061085e-05 -3.45136152679e-22)
(0.0352181720718 2.87491152183e-05 -2.24427326398e-22)
(0.0347467843729 9.29022644331e-06 -1.08669999328e-22)
(0.0346799503305 -5.49749198457e-05 -2.80098327271e-23)
(0.0350209907323 -0.000153897475222 -8.40803724064e-24)
(0.0356606292014 -0.00028651577411 -9.54632874284e-24)
(0.0365134965096 -0.000459670310948 -6.05604229205e-24)
(0.0375375802746 -0.000685557594708 3.4571988784e-24)
(0.0387186355758 -0.000976413417796 -8.22067958113e-25)
(0.0400625647471 -0.00135067461163 -1.55000019068e-23)
(0.0415850670848 -0.00184125410802 -1.02444962195e-23)
(0.0433120964784 -0.00245932206683 -1.2986247886e-22)
(0.0452645336697 -0.0032371175608 -4.16123262057e-22)
(0.0474968758764 -0.00426128409647 -1.09777033024e-21)
(0.0499382955446 -0.00580708581165 -1.19388292136e-21)
(0.0522078050053 -0.00831102576863 -2.07699651111e-21)
(0.0547159819165 -0.0129755330991 -5.45701457149e-21)
(0.0616555376472 -0.0146299408813 -8.83038510281e-21)
(0.0570356197193 -0.0134579783261 -8.61804601469e-21)
(0.0312875573349 -0.015439612682 4.08810180652e-21)
(0.0358751601061 9.0778341737e-05 -3.44074894903e-22)
(0.0351504637676 0.0002538805769 -2.39913833101e-22)
(0.0347158516063 0.000382010742979 -1.27028017952e-22)
(0.0346835458615 0.000467724342468 -5.55788358912e-23)
(0.0350583338588 0.000520085868858 -2.65144902248e-23)
(0.0357345226442 0.000540986588434 -1.50817967006e-23)
(0.0366331710408 0.000524329714609 -4.12556240651e-24)
(0.0377158895175 0.000454114263196 -9.6067079285e-24)
(0.0389713102414 0.000318321897221 1.84937451407e-23)
(0.0404070182786 0.000101390491187 1.00162800142e-23)
(0.0420469506855 -0.000223632054548 -4.77816111046e-23)
(0.0439222713776 -0.000681029715563 -2.50072729448e-22)
(0.0460922666484 -0.00130234679665 -5.81797202669e-22)
(0.0486829583737 -0.00213945705433 -1.36789051636e-21)
(0.0517209894499 -0.00351278152655 -1.60206596899e-21)
(0.0546418912305 -0.00575943665697 -1.90521969685e-21)
(0.0574689012964 -0.010795844972 -2.51651053573e-21)
(0.0644937453204 -0.0131366913583 -1.00423981794e-20)
(0.0601456977029 -0.00994505284949 -9.66641837184e-21)
(0.0275560241737 -0.0118128145689 -7.70811473641e-22)
(0.0356235495949 0.000167281225857 -3.60307630318e-22)
(0.0349300868462 0.000488145836016 -2.52099788104e-22)
(0.0345322623394 0.000768975504358 -1.58335525499e-22)
(0.0345336207097 0.00100995971668 -8.68246573745e-23)
(0.0349380620206 0.00122066150075 -5.17966856753e-23)
(0.0356475934056 0.00140495594476 -1.55926087194e-23)
(0.0365856587766 0.00155931277236 -1.47481646616e-23)
(0.0377212842998 0.00167007779668 1.35272161412e-23)
(0.0390496514984 0.00172554465584 1.70295712015e-23)
(0.0405757775606 0.00170684806685 3.78238893914e-24)
(0.0423272578939 0.00158022074855 -2.82359590918e-23)
(0.0443446078926 0.00132147949809 -3.18961014746e-22)
(0.0467202562127 0.000907583821488 -7.76679966292e-22)
(0.0496267897512 0.000311309996811 -1.87613974824e-21)
(0.0532299874468 -0.000806396510394 -2.18787873102e-21)
(0.0568841009273 -0.00252264333507 -1.28560369191e-21)
(0.0600519815073 -0.00770613864209 -1.50537143678e-21)
(0.0664716627171 -0.0106120820822 -1.18388256645e-20)
(0.0617699883427 -0.00546993403734 -1.09159719756e-20)
(0.0224280552961 -0.00489163847633 2.48793801925e-23)
(0.0352155372983 0.000242873614518 -3.66216677e-22)
(0.0345554146591 0.000726668301841 -2.63901847418e-22)
(0.0341927208785 0.00116621383214 -1.71844067078e-22)
(0.034224983278 0.00156362336455 -9.55312253483e-23)
(0.0346530172163 0.00193857263556 -4.66783574945e-23)
(0.0353908565779 0.00229286548285 -1.59138141544e-23)
(0.0363594983575 0.00262511612363 -9.29392909743e-24)
(0.0375346690503 0.00292712149534 1.52411636879e-23)
(0.0389234218947 0.00318568181522 6.77262676413e-24)
(0.040531945189 0.00338435398984 -8.34211252937e-24)
(0.0423849336475 0.00349066887418 1.08204477614e-23)
(0.0445424702468 0.00347975828364 -2.94333728366e-22)
(0.0471097923579 0.00332071493843 -9.34020328025e-22)
(0.0502971855991 0.00300085318394 -2.35014022879e-21)
(0.054377515081 0.00217536926177 -2.5438745555e-21)
(0.058711197298 0.00119366056407 -1.01335260306e-21)
(0.0622439836635 -0.00372227767234 -2.48425284694e-21)
(0.0674174243824 -0.00681358972203 -1.34193338552e-20)
(0.0617846480888 -0.000854020712246 -1.25487912968e-20)
(0.0202050597542 0.00309322686663 -5.95662953703e-22)
(0.0346450148453 0.000323621220813 -3.11965584763e-22)
(0.0340263366976 0.000967192724148 -2.03298098291e-22)
(0.0336965752949 0.0015639300016 -1.23479487396e-22)
(0.0337561655151 0.00212014845404 -5.55715707958e-23)
(0.034204785985 0.00266451425158 -2.26485950283e-23)
(0.0349579727608 0.00319504135033 -1.04698513685e-23)
(0.0359490225169 0.00370701335737 -8.53765627363e-24)
(0.0371551763757 0.00420305805334 -2.32682516848e-25)
(0.0385840289551 0.00467186156474 -1.30599050353e-23)
(0.0402518914131 0.00510143335967 -2.27039753811e-23)
(0.042193039567 0.0054698888173 -6.62211065394e-23)
(0.0444682242302 0.00575127683773 -2.09137370536e-22)
(0.0472049480236 0.00589862094035 -5.93777914564e-22)
(0.0506774415645 0.00589277212433 -1.22073927854e-21)
(0.0551822944817 0.00537999857853 -2.14947201364e-21)
(0.0602162410447 0.00534953741553 -2.05127809154e-21)
(0.0641172208661 0.00121650890457 -6.08606781254e-21)
(0.0678282423456 -0.00146491986381 -1.17225481389e-20)
(0.0604428026469 0.00311732672955 -1.17305922481e-20)
(0.0131749300559 0.00722183669526 -3.57094749226e-21)
(0.0339161784538 0.000400220777759 -1.82748187592e-22)
(0.0333387111896 0.00120389198649 -7.63677404484e-23)
(0.0330405806789 0.00195815398848 -2.30947511874e-23)
(0.0331236355712 0.00267775550765 6.94904048789e-24)
(0.0335863251617 0.00339119842231 -3.09781183681e-24)
(0.0343434368513 0.00410252506106 -7.85256692021e-25)
(0.0353424717186 0.00481038017621 -6.57564159105e-24)
(0.0365639570741 0.00551336061254 1.86803425217e-23)
(0.0380131850032 0.0062067993842 1.55404616894e-23)
(0.0397196566531 0.00689084433958 -3.25537421696e-24)
(0.0417191549143 0.0075486958532 -4.95327668654e-23)
(0.0440775121303 0.00814859641721 -1.57142032378e-22)
(0.0469532074763 0.00866429876608 -4.40499515938e-22)
(0.0506607413403 0.00906919629389 -1.04268971352e-21)
(0.0554926626839 0.00908285931247 -2.07036622912e-21)
(0.0611833721958 0.0101737649391 -2.64881953896e-21)
(0.0655347201905 0.00679674341291 -6.78919545847e-21)
(0.0683687896536 0.00483319439421 -1.12592766841e-20)
(0.0594107314225 0.00947158144862 -1.11069271698e-20)
(0.00920529233535 0.0090821986237 -5.26628812265e-21)
(0.0330380020989 0.00047283725733 -6.67620884224e-23)
(0.0324930113482 0.00143574820304 4.12697501656e-23)
(0.0322231616651 0.00234809912846 6.24490267795e-23)
(0.0323224197171 0.00323133973823 4.17629623043e-23)
(0.032788266056 0.00411457719636 7.85768671551e-24)
(0.0335422968676 0.00500782271389 -3.15398224924e-25)
(0.0345319453775 0.00591466452217 -1.35803154531e-24)
(0.0357440393536 0.00683605710442 3.92271687801e-24)
(0.037192762676 0.00777493871268 2.00393059243e-23)
(0.0389101721074 0.00873040095957 8.98679115464e-24)
(0.0409264362637 0.00969412456158 -3.36714073454e-23)
(0.043331253325 0.0106502343233 -1.5387772903e-22)
(0.0462920216242 0.0115906940953 -5.82220278585e-22)
(0.0500792512159 0.0125104535978 -1.78678126865e-21)
(0.054987544342 0.0132449321941 -2.89775626783e-21)
(0.0610061826229 0.0155437625321 -5.30795602744e-21)
(0.0656949009341 0.012521355243 -5.87542414139e-21)
(0.0688702782156 0.0114900946365 -8.82471454517e-21)
(0.059720876947 0.0183691247204 -8.84941458217e-21)
(0.011322329583 0.0122263832937 -1.86856905018e-21)
(0.0320014253375 0.000548560480707 -6.78290088986e-24)
(0.0314935479898 0.00166442239431 7.11105193863e-23)
(0.0312473352605 0.00273331731639 7.3847572475e-23)
(0.030817028503 0.000626749644914 2.69322439155e-23)
(0.0294930020336 0.000692173606789 1.33683986658e-22)
(0.0280305184608 0.000759925720086 2.79444080913e-22)
)
;

boundaryField
{
    back
    {
        type            noSlip;
    }
    sides
    {
        type            noSlip;
    }
    bottom
    {
        type            noSlip;
    }
    front
    {
        type            noSlip;
    }
    atmosphere
    {
        type            pressureInletOutletVelocity;
        value           nonuniform List<vector> 8((0 -0.0130332324617 0) (0 -0.015439612682 0) (0 -0.0118128145689 0) (0 -0.00489163847633 0) (0.0202050597542 0.00309322686663 -5.95662953703e-22) (0.0131749300559 0.00722183669526 -3.57094749226e-21) (0.00920529233535 0.0090821986237 -5.26628812265e-21) (0.011322329583 0.0122263832937 -1.86856905018e-21));
    }
    floatingObject
    {
        type            movingWallVelocity;
        value           nonuniform List<vector> 0();
    }
    procBoundary9to6
    {
        type            processor;
        value           nonuniform List<vector> 4((0.0494022480519 -0.016182784152 6.81110116703e-21) (0.055401231279 -0.0171253658698 -7.08394594248e-21) (0.0603663069008 -0.0173103959909 -8.05181424412e-21) (0.0602585306481 0.0136071932148 -2.24092820564e-20));
    }
    procBoundary9to7
    {
        type            processor;
        value           nonuniform List<vector> 
16
(
(0.0357546207214 -0.000121782227283 -3.01535744377e-22)
(0.0349215763627 -0.000390906822596 -2.1487631871e-22)
(0.0343757235042 -0.00068491500841 -9.51543249993e-23)
(0.034236161688 -0.00102750112164 -2.37697020805e-24)
(0.0345078592226 -0.00140587272539 8.84596627636e-24)
(0.0350743791687 -0.00181884577172 -9.33924467854e-25)
(0.03583846077 -0.00227162618418 -8.09914805251e-24)
(0.0367530437558 -0.00277357729218 -9.25910245457e-25)
(0.0377987963961 -0.00333512991771 -3.56815676467e-24)
(0.0389679402769 -0.00397362431827 -1.97181653729e-23)
(0.0402499549769 -0.00472144604306 4.768196864e-23)
(0.0416367513478 -0.00559258267469 5.0244656326e-23)
(0.0431466451967 -0.00663165511187 -2.48552611444e-23)
(0.0447127401763 -0.00789824995541 -3.38634711616e-22)
(0.0461710586994 -0.00948875969584 -8.3561818591e-22)
(0.0474948846054 -0.0119749345722 6.52682391253e-22)
)
;
    }
    procBoundary9to10
    {
        type            processor;
        value           nonuniform List<vector> 
15
(
(0.0313550610335 0.00377672274748 2.77501042768e-23)
(0.0318145978144 0.00482895511142 -5.99190632264e-25)
(0.0325525054112 0.0059023699753 -3.9009297403e-24)
(0.0335189131348 0.00700516157826 3.47510295818e-24)
(0.0347031413903 0.00814477656286 2.57887362437e-23)
(0.0361216698423 0.00932901268337 5.1507990127e-23)
(0.0378071919909 0.0105574775926 8.28402863485e-24)
(0.0398020091268 0.0118388086979 -3.9884986255e-23)
(0.0303406971928 0.00188719396973 1.06651160067e-22)
(0.0313550610335 0.00377672274748 2.77501042768e-23)
(0.0301156542082 0.00310445258405 7.99636629411e-23)
(0.0303406971928 0.00188719396973 1.06651160067e-22)
(0.0290437451681 0.00209398901494 1.54928133728e-22)
(0.0276115919875 0.0022930747659 2.95253063941e-22)
(0.0264409750726 0.000823838817368 4.69196969083e-22)
)
;
    }
    procBoundary9to11
    {
        type            processor;
        value           nonuniform List<vector> 9((0.0421920687656 0.0131761935936 -1.79476737793e-22) (0.0451326607057 0.0145800267876 -6.63121111641e-22) (0.0488367177217 0.0160764931574 -2.15135105272e-21) (0.053591854358 0.0176215790054 -4.51027870681e-21) (0.0595332358445 0.021027271991 -4.19469090661e-21) (0.0642601400109 0.0181006468127 -6.39459358503e-21) (0.0687278679084 0.0183226084301 -1.01883537863e-20) (0.0601012713038 0.0272365226347 -1.02012797198e-20) (0.0224164315561 0.0179767360894 5.39606310263e-22));
    }
}


// ************************************************************************* //
