/*--------------------------------*- C++ -*----------------------------------*\
| =========                 |                                                 |
| \\      /  F ield         | OpenFOAM: The Open Source CFD Toolbox           |
|  \\    /   O peration     | Version:  v2012                                 |
|   \\  /    A nd           | Website:  www.openfoam.com                      |
|    \\/     M anipulation  |                                                 |
\*---------------------------------------------------------------------------*/
FoamFile
{
    version     2.0;
    format      ascii;
    class       volScalarField;
    location    "3.2";
    object      ddt0(epsilon);
}
// * * * * * * * * * * * * * * * * * * * * * * * * * * * * * * * * * * * * * //

dimensions      [0 2 -4 0 0 0 0];


internalField   nonuniform List<scalar> 
166
(
-0.00331935917395
-0.00346755458161
-0.00377706681045
-0.00387959940475
-0.00391241426831
-0.00392501418715
-0.00393302810256
-0.0039406938194
-0.00394884631667
-0.00395701247356
-0.00396318810105
-0.00396177415864
-0.00393823058406
-0.00385118863704
-0.00354207103306
-0.00203569173141
0.00760372706609
0.0639035550522
0.244978131215
0.153862828271
-0.00331718386814
-0.00346428480984
-0.00377469964376
-0.00387802385819
-0.00391123704981
-0.00392399821106
-0.00393209030027
-0.00393979872384
-0.00394795291423
-0.00395605636939
-0.00396194167612
-0.00395985613704
-0.00393568503968
-0.00384898391461
-0.00352643042639
-0.00180625374707
0.0094706145816
0.0696705116828
0.205832979808
0.0861897292667
-0.00331486312091
-0.00346046932537
-0.00377158550326
-0.00387565394367
-0.00390926444978
-0.00392222609014
-0.00393042317551
-0.00393821532919
-0.00394645474846
-0.00395456814401
-0.00396023395706
-0.00395762173624
-0.00393311419114
-0.00384753129191
-0.00351626128145
-0.00163578105547
0.0106587880846
0.0714874785098
0.177804656159
0.0567911872483
-0.00331201654301
-0.00345619744367
-0.0037678425974
-0.0038725776336
-0.00390655664971
-0.00391971297818
-0.00392803100009
-0.00393592572115
-0.00394426478896
-0.00395237966299
-0.00395781148022
-0.00395470193937
-0.00393000677213
-0.00384538682565
-0.00349874859509
-0.00146046483806
0.0112046685701
0.066959338352
0.138867610082
0.0328646793748
-0.00330869493662
-0.00345125500655
-0.00376338531739
-0.00386873395533
-0.00390306947824
-0.00391641017701
-0.00392486460246
-0.00393289240343
-0.00394133855673
-0.00394946526977
-0.00395469808069
-0.00395101931772
-0.00392588587227
-0.00384089413456
-0.00347319311483
-0.00128469476192
0.0113506247602
0.059686041073
0.102970867782
0.0154923903571
-0.00330460233748
-0.00344578766624
-0.00375826617744
-0.00386412325129
-0.00389878838806
-0.0039123262106
-0.00392091724384
-0.00392907877643
-0.00393764463107
-0.00394582912814
-0.0039508530966
-0.0039466563973
-0.00392145573215
-0.0038378206079
-0.00345525502634
-0.00116527930771
0.0109957400736
0.0513517676472
0.0797284579569
0.00983241297335
-0.00329990491488
-0.00343974533849
-0.00375242339269
-0.0038587387471
-0.00389370523995
-0.00390742884682
-0.00391616622942
-0.00392448505302
-0.00393320456697
-0.00394145567517
-0.00394634051503
-0.00394191243478
-0.00391791864344
-0.00384034751317
-0.00345594476179
-0.00110171216156
0.010560783672
0.0447973856841
0.0662349020603
0.00946784585458
-0.0032945401324
-0.00343320207893
-0.00374586043989
-0.00385254582663
-0.00388778895354
-0.00390170960542
-0.00391062447863
-0.00391911391692
-0.00392799532429
-0.00393637563895
-0.00394126945341
-0.00393722939767
-0.00391639576628
-0.00385009999304
-0.00347083125349
-0.00103731590653
0.0104808430769
0.0418324016925
0.0658281455856
0.0136042770064
-0.00328841305981
-0.00342587794275
-0.0037384485827
-0.00328166480437
-0.0032741024344
-0.00326563821341
)
;

boundaryField
{
    back
    {
        type            calculated;
        value           nonuniform List<scalar> 
166
(
-0.00331935917395
-0.00346755458161
-0.00377706681045
-0.00387959940475
-0.00391241426831
-0.00392501418715
-0.00393302810256
-0.0039406938194
-0.00394884631667
-0.00395701247356
-0.00396318810105
-0.00396177415864
-0.00393823058406
-0.00385118863704
-0.00354207103306
-0.00203569173141
0.00760372706609
0.0639035550522
0.244978131215
0.153862828271
-0.00331718386814
-0.00346428480984
-0.00377469964376
-0.00387802385819
-0.00391123704981
-0.00392399821106
-0.00393209030027
-0.00393979872384
-0.00394795291423
-0.00395605636939
-0.00396194167612
-0.00395985613704
-0.00393568503968
-0.00384898391461
-0.00352643042639
-0.00180625374707
0.0094706145816
0.0696705116828
0.205832979808
0.0861897292667
-0.00331486312091
-0.00346046932537
-0.00377158550326
-0.00387565394367
-0.00390926444978
-0.00392222609014
-0.00393042317551
-0.00393821532919
-0.00394645474846
-0.00395456814401
-0.00396023395706
-0.00395762173624
-0.00393311419114
-0.00384753129191
-0.00351626128145
-0.00163578105547
0.0106587880846
0.0714874785098
0.177804656159
0.0567911872483
-0.00331201654301
-0.00345619744367
-0.0037678425974
-0.0038725776336
-0.00390655664971
-0.00391971297818
-0.00392803100009
-0.00393592572115
-0.00394426478896
-0.00395237966299
-0.00395781148022
-0.00395470193937
-0.00393000677213
-0.00384538682565
-0.00349874859509
-0.00146046483806
0.0112046685701
0.066959338352
0.138867610082
0.0328646793748
-0.00330869493662
-0.00345125500655
-0.00376338531739
-0.00386873395533
-0.00390306947824
-0.00391641017701
-0.00392486460246
-0.00393289240343
-0.00394133855673
-0.00394946526977
-0.00395469808069
-0.00395101931772
-0.00392588587227
-0.00384089413456
-0.00347319311483
-0.00128469476192
0.0113506247602
0.059686041073
0.102970867782
0.0154923903571
-0.00330460233748
-0.00344578766624
-0.00375826617744
-0.00386412325129
-0.00389878838806
-0.0039123262106
-0.00392091724384
-0.00392907877643
-0.00393764463107
-0.00394582912814
-0.0039508530966
-0.0039466563973
-0.00392145573215
-0.0038378206079
-0.00345525502634
-0.00116527930771
0.0109957400736
0.0513517676472
0.0797284579569
0.00983241297335
-0.00329990491488
-0.00343974533849
-0.00375242339269
-0.0038587387471
-0.00389370523995
-0.00390742884682
-0.00391616622942
-0.00392448505302
-0.00393320456697
-0.00394145567517
-0.00394634051503
-0.00394191243478
-0.00391791864344
-0.00384034751317
-0.00345594476179
-0.00110171216156
0.010560783672
0.0447973856841
0.0662349020603
0.00946784585458
-0.0032945401324
-0.00343320207893
-0.00374586043989
-0.00385254582663
-0.00388778895354
-0.00390170960542
-0.00391062447863
-0.00391911391692
-0.00392799532429
-0.00393637563895
-0.00394126945341
-0.00393722939767
-0.00391639576628
-0.00385009999304
-0.00347083125349
-0.00103731590653
0.0104808430769
0.0418324016925
0.0658281455856
0.0136042770064
-0.00328841305981
-0.00342587794275
-0.0037384485827
-0.00328166480437
-0.0032741024344
-0.00326563821341
)
;
    }
    sides
    {
        type            calculated;
        value           nonuniform List<scalar> 0();
    }
    bottom
    {
        type            calculated;
        value           nonuniform List<scalar> 
12
(
-0.00331935917395
-0.00331718386814
-0.00331486312091
-0.00331201654301
-0.00330869493662
-0.00330460233748
-0.00329990491488
-0.0032945401324
-0.00328841305981
-0.00328166480437
-0.0032741024344
-0.00326563821341
)
;
    }
    front
    {
        type            calculated;
        value           nonuniform List<scalar> 
166
(
-0.00331935917395
-0.00346755458161
-0.00377706681045
-0.00387959940475
-0.00391241426831
-0.00392501418715
-0.00393302810256
-0.0039406938194
-0.00394884631667
-0.00395701247356
-0.00396318810105
-0.00396177415864
-0.00393823058406
-0.00385118863704
-0.00354207103306
-0.00203569173141
0.00760372706609
0.0639035550522
0.244978131215
0.153862828271
-0.00331718386814
-0.00346428480984
-0.00377469964376
-0.00387802385819
-0.00391123704981
-0.00392399821106
-0.00393209030027
-0.00393979872384
-0.00394795291423
-0.00395605636939
-0.00396194167612
-0.00395985613704
-0.00393568503968
-0.00384898391461
-0.00352643042639
-0.00180625374707
0.0094706145816
0.0696705116828
0.205832979808
0.0861897292667
-0.00331486312091
-0.00346046932537
-0.00377158550326
-0.00387565394367
-0.00390926444978
-0.00392222609014
-0.00393042317551
-0.00393821532919
-0.00394645474846
-0.00395456814401
-0.00396023395706
-0.00395762173624
-0.00393311419114
-0.00384753129191
-0.00351626128145
-0.00163578105547
0.0106587880846
0.0714874785098
0.177804656159
0.0567911872483
-0.00331201654301
-0.00345619744367
-0.0037678425974
-0.0038725776336
-0.00390655664971
-0.00391971297818
-0.00392803100009
-0.00393592572115
-0.00394426478896
-0.00395237966299
-0.00395781148022
-0.00395470193937
-0.00393000677213
-0.00384538682565
-0.00349874859509
-0.00146046483806
0.0112046685701
0.066959338352
0.138867610082
0.0328646793748
-0.00330869493662
-0.00345125500655
-0.00376338531739
-0.00386873395533
-0.00390306947824
-0.00391641017701
-0.00392486460246
-0.00393289240343
-0.00394133855673
-0.00394946526977
-0.00395469808069
-0.00395101931772
-0.00392588587227
-0.00384089413456
-0.00347319311483
-0.00128469476192
0.0113506247602
0.059686041073
0.102970867782
0.0154923903571
-0.00330460233748
-0.00344578766624
-0.00375826617744
-0.00386412325129
-0.00389878838806
-0.0039123262106
-0.00392091724384
-0.00392907877643
-0.00393764463107
-0.00394582912814
-0.0039508530966
-0.0039466563973
-0.00392145573215
-0.0038378206079
-0.00345525502634
-0.00116527930771
0.0109957400736
0.0513517676472
0.0797284579569
0.00983241297335
-0.00329990491488
-0.00343974533849
-0.00375242339269
-0.0038587387471
-0.00389370523995
-0.00390742884682
-0.00391616622942
-0.00392448505302
-0.00393320456697
-0.00394145567517
-0.00394634051503
-0.00394191243478
-0.00391791864344
-0.00384034751317
-0.00345594476179
-0.00110171216156
0.010560783672
0.0447973856841
0.0662349020603
0.00946784585458
-0.0032945401324
-0.00343320207893
-0.00374586043989
-0.00385254582663
-0.00388778895354
-0.00390170960542
-0.00391062447863
-0.00391911391692
-0.00392799532429
-0.00393637563895
-0.00394126945341
-0.00393722939767
-0.00391639576628
-0.00385009999304
-0.00347083125349
-0.00103731590653
0.0104808430769
0.0418324016925
0.0658281455856
0.0136042770064
-0.00328841305981
-0.00342587794275
-0.0037384485827
-0.00328166480437
-0.0032741024344
-0.00326563821341
)
;
    }
    atmosphere
    {
        type            calculated;
        value           nonuniform List<scalar> 8(-0.000412308171261 -9.09363642837e-05 3.88671539078e-06 0.000109452109607 -3.48482749716e-08 7.17797352332e-08 1.84794594905e-06 2.53216966758e-06);
    }
    floatingObject
    {
        type            calculated;
        value           nonuniform List<scalar> 0();
    }
    procBoundary9to6
    {
        type            processor;
        value           nonuniform List<scalar> 4(0.00578102004308 0.059599922932 0.305145370136 0.268486816867);
    }
    procBoundary9to7
    {
        type            processor;
        value           nonuniform List<scalar> 
16
(
-0.00332172776945
-0.00347032409517
-0.00377883632423
-0.00388058930959
-0.00391303659398
-0.00392549854983
-0.00393345363392
-0.00394107166549
-0.0039491687397
-0.00395733755205
-0.00396374036041
-0.00396303868902
-0.00394046977457
-0.00385442494461
-0.00356575214159
-0.00229679888158
)
;
    }
    procBoundary9to10
    {
        type            processor;
        value           nonuniform List<scalar> 
15
(
-0.00384545808659
-0.00388101681112
-0.00389515906682
-0.00390427005047
-0.00391294338387
-0.00392202909404
-0.0039305495856
-0.00393568623711
-0.00341768708679
-0.00384545808659
-0.00373015985578
-0.00341768708679
-0.00340884664673
-0.00339929881588
-0.00325627325387
)
;
    }
    procBoundary9to11
    {
        type            processor;
        value           nonuniform List<scalar> 9(-0.00393252725075 -0.00391669854172 -0.0038649374925 -0.00349272074862 -0.000961737786384 0.0107292474212 0.0413470307353 0.0648575521334 0.0104650494551);
    }
}


// ************************************************************************* //
