/*--------------------------------*- C++ -*----------------------------------*\
| =========                 |                                                 |
| \\      /  F ield         | OpenFOAM: The Open Source CFD Toolbox           |
|  \\    /   O peration     | Version:  v2012                                 |
|   \\  /    A nd           | Website:  www.openfoam.com                      |
|    \\/     M anipulation  |                                                 |
\*---------------------------------------------------------------------------*/
FoamFile
{
    version     2.0;
    format      ascii;
    class       surfaceVectorField;
    location    "0.2";
    object      Uf;
}
// * * * * * * * * * * * * * * * * * * * * * * * * * * * * * * * * * * * * * //

dimensions      [0 1 -1 0 0 0 0];


internalField   nonuniform List<vector> 
305
(
(0.000883134088885 -0.00150953797664 4.3606061642e-23)
(0.00150953805492 -0.00088798447001 3.68350903901e-24)
(0.00091873135873 -0.00309602276585 3.74237175567e-23)
(0.00158648492965 -0.00234195131843 5.05634530609e-23)
(0.000907379398544 -0.00466967331377 -3.86872482534e-24)
(0.00157365082938 -0.0039781693709 -2.87386456192e-24)
(0.000888720993056 -0.00621393961519 -4.25396282492e-24)
(0.00154426679297 -0.00557083251133 -4.69127917082e-24)
(0.000868172207986 -0.00772678101882 -5.84607060437e-24)
(0.00151284205938 -0.00713053381876 -6.79990554309e-23)
(0.000844486114334 -0.00920323390112 -1.46676116806e-23)
(0.00147645404001 -0.00865777022045 -2.18959852602e-23)
(0.000817124692728 -0.0106371620186 9.9548929092e-24)
(0.00143392946127 -0.0101451959937 -6.42177765708e-23)
(0.00138489317583 -0.0115859022106 1.47733635087e-24)
(0.00233503441726 -0.0015977457872 1.06409004579e-23)
(0.00310728390547 -0.000935327832874 2.48915245083e-24)
(0.00236229751293 -0.00318969435213 1.02658709423e-23)
(0.00317843362286 -0.00239794637705 1.10740107421e-22)
(0.00233377333132 -0.00477258950409 -3.6964189074e-24)
(0.00315654628904 -0.00403790909157 7.14130977188e-24)
(0.00229188929368 -0.00633903306156 -6.84363717768e-23)
(0.00311071086915 -0.00564827293509 -4.23185582045e-24)
(0.00224239415813 -0.00787824469137 -8.40489700867e-23)
(0.00305205435751 -0.00722523231614 -6.7874748696e-23)
(0.00218375011589 -0.00938207528021 -7.14461501504e-23)
(0.00298028576015 -0.00877116637615 -1.47178038873e-23)
(0.00211532040906 -0.0108432008217 -7.26953331292e-23)
(0.00289505680748 -0.0102775932204 -5.31403108156e-23)
(0.00279627041057 -0.0117371067863 -1.15242973933e-23)
(0.00398666584766 -0.00161213957982 1.02588359413e-22)
(0.0047194234544 -0.000944798409262 1.5638363964e-23)
(0.00399747160846 -0.00322253585886 1.0761554625e-22)
(0.00478882994869 -0.00242114213703 1.36920388934e-22)
(0.00395506755756 -0.00482139197945 6.60587285883e-24)
(0.00475540265805 -0.00408370525821 9.98650352834e-24)
(0.00389099704383 -0.00640208121203 -3.67023273965e-24)
(0.00469140061312 -0.00571377414322 3.97886281296e-25)
(0.00380942301503 -0.00795558034746 1.45641750341e-24)
(0.00460555417955 -0.00730858097392 -3.54116867603e-24)
(0.00371048752463 -0.00947386925664 3.58803544747e-24)
(0.00449857594299 -0.00887226597719 7.78947203685e-24)
(0.00359421916017 -0.0109494824389 8.03072492023e-24)
(0.00437067091697 -0.0103963826636 3.12931312804e-24)
(0.00422201212215 -0.0118734502845 8.93153225529e-24)
(0.00563116717434 -0.00162466288469 4.99703934841e-23)
(0.00634408616728 -0.000955455556591 -1.20301299969e-23)
(0.00564005904847 -0.00326132814183 3.92913462118e-23)
(0.00642549511461 -0.00245261600457 1.2431000892e-22)
(0.00558154555444 -0.00488476619561 3.77851695081e-24)
(0.00637884084873 -0.0041448380703 1.84131621876e-23)
(0.00549347590801 -0.00648758533623 5.2695034492e-25)
(0.00629422018815 -0.00580185897915 1.37968466938e-24)
(0.00537980300344 -0.00806233671368 2.79188585741e-24)
(0.00618030619762 -0.00742217054174 1.65052760541e-25)
(0.00524105711546 -0.00960155252739 7.33074971742e-24)
(0.00603779269449 -0.00901091741418 3.33603044871e-24)
(0.00507752230126 -0.0110978730892 4.0301204631e-24)
(0.00586699310877 -0.0105598072352 5.07024516027e-24)
(0.00488949107152 -0.012544069238 -2.254829631e-24)
(0.00566820877329 -0.0120613548632 -6.79355321808e-25)
(0.00544180098165 -0.0135082476512 -2.0037082057e-24)
(0.00729272215861 -0.00164923948688 6.23094854393e-23)
(0.00799332531867 -0.00097261350312 -3.5620916626e-23)
(0.0072998855413 -0.00331578224481 1.03431824896e-22)
(0.00809203762265 -0.00249761488721 1.4425237178e-22)
(0.00722368346275 -0.00496923352351 1.60143299062e-23)
(0.00803229213291 -0.00422449029946 2.71480712668e-23)
(0.00711051873159 -0.00660121174697 1.017787085e-24)
(0.00792619875377 -0.00591510075176 1.57357732548e-24)
(0.0069644091752 -0.00820457841764 7.09197351844e-25)
(0.00778367345716 -0.00756823868618 -3.4126901295e-25)
(0.00678581208209 -0.00977204782128 1.07552589156e-24)
(0.00760526284112 -0.00918947079408 1.08676523416e-24)
(0.00657505222026 -0.011296297418 3.60769375354e-25)
(0.00739124381817 -0.0107705172327 6.30774225102e-25)
(0.00633250572484 -0.0127700336881 -4.28233896515e-25)
(0.00714194661741 -0.0123038425118 5.89006256811e-26)
(0.00605866084726 -0.0141860360046 2.79032455583e-25)
(0.00685780434889 -0.0137820244309 1.20835757414e-25)
(0.00653940057015 -0.0151977011595 1.41471767207e-24)
(0.00898645196865 -0.00168294135296 4.63219697145e-23)
(0.00967626617072 -0.000995010391922 -1.0104534467e-23)
(0.00899384143645 -0.00338553863969 6.79686181504e-23)
(0.00979463450475 -0.00255455670456 6.65731540803e-23)
(0.00889990342785 -0.00507537917425 1.2707318686e-23)
(0.00972213254649 -0.00432271083553 7.30458363135e-24)
(0.00876119920151 -0.00674350708126 2.1452122753e-25)
(0.00959432691372 -0.00605392119038 5.86450614315e-25)
(0.00858225284467 -0.00838272895898 3.6298869369e-26)
(0.00942289591062 -0.00774716089938 1.25844137112e-24)
(0.0083634242204 -0.00998575200164 6.42013567708e-25)
(0.00920828662312 -0.00940827868258 5.37495121099e-25)
(0.00810500769518 -0.0115452069477 3.28905475429e-25)
(0.00895069967066 -0.0110289107704 8.0701553706e-25)
(0.00780740277771 -0.0130536994085 6.07970279609e-25)
(0.00865044063433 -0.0126014213307 7.90787649646e-25)
(0.00747115857622 -0.0145038509877 1.2565209739e-24)
(0.00830795771527 -0.0141182365818 2.2185135959e-25)
(0.00792389132234 -0.015571796398 2.65951456854e-24)
(0.0107194174997 -0.00172452988707 1.01466498988e-23)
(0.0114007954118 -0.00102205221376 -6.71390802705e-24)
(0.0107280575342 -0.00347017260545 5.90911956119e-24)
(0.011540276693 -0.00262272389356 1.12434206393e-22)
(0.0106164772454 -0.00520332509348 -4.81628444038e-24)
(0.011455284817 -0.00443940755862 9.03432880087e-24)
(0.0104520643492 -0.00691472694993 1.63037075791e-24)
(0.0113057289604 -0.00621847635329 8.6913533238e-25)
(0.0102400315361 -0.00859707608853 1.75963762285e-24)
(0.0111052456214 -0.0079591699397 1.99467093546e-24)
(0.00998065392202 -0.0102430025769 7.02497090451e-25)
(0.0108542139467 -0.00966763788984 3.781554771e-25)
(0.00967416073944 -0.0118450379439 1.26889771128e-24)
(0.0105527360418 -0.0113353841114 1.06912290993e-24)
(0.00932092593331 -0.013395645876 4.04668729626e-25)
(0.0102010501979 -0.012954633676 1.63924500464e-24)
(0.00892151270052 -0.0148872558672 1.62484495423e-24)
(0.00979956995637 -0.0145176247527 -5.11972978584e-25)
(0.009348940717 -0.0160165541201 2.70177660786e-24)
(0.0124990435367 -0.00177356249685 9.55736484668e-23)
(0.013174357161 -0.0010535159693 -3.53229068013e-24)
(0.0125096113475 -0.00356945478886 1.15559415632e-22)
(0.0133361683833 -0.0027018076702 1.54342018005e-22)
(0.0123805019622 -0.0053530798748 1.47197485736e-23)
(0.0132389096459 -0.00457448324618 1.91275430368e-23)
(0.0121903344947 -0.00711500722035 1.23343550994e-24)
(0.0130676564887 -0.00640880969483 2.35079330165e-25)
(0.0119450702497 -0.00884784489411 6.13188789711e-25)
(0.0128380839023 -0.00820440741528 2.10380155766e-25)
(0.011644893059 -0.0105441282986 7.44781296583e-25)
(0.012550498294 -0.00996779479619 -5.37890862671e-25)
(0.011289932213 -0.0121962620049 1.43947020329e-24)
(0.0122048709286 -0.0116903233333 1.64860640685e-24)
(0.0108804879545 -0.0137965345008 7.22603296425e-25)
(0.011801324527 -0.0133640536924 9.71563974137e-25)
(0.0104170840424 -0.0153371444312 5.64958675049e-25)
(0.0113401825509 -0.0149810020258 1.07471636693e-26)
(0.0108220369707 -0.0165330788035 1.30713294946e-24)
(0.0143327333321 -0.00182983583111 5.52360788578e-23)
(0.0150041922085 -0.00108929920369 -2.51851664425e-24)
(0.014345842528 -0.00368323143856 5.79101454092e-23)
(0.015189563394 -0.00279162617519 1.6635816873e-22)
(0.0141993463209 -0.00552459217561 4.6428737933e-24)
(0.0150802701662 -0.00472781846821 2.08927708508e-23)
(0.0139834711084 -0.00734439080158 -7.87976024004e-25)
(0.0148874553691 -0.00662487440599 1.17640456857e-25)
(0.0137049355554 -0.00913517937409 -9.40699496615e-25)
(0.0146288731844 -0.00848291295544 6.48704284603e-26)
(0.0133638015075 -0.0108894040247 3.65934247598e-25)
(0.0143047240346 -0.0103089064855 -3.27265393422e-25)
(0.0129600508863 -0.0125993304926 1.18070017769e-24)
(0.0139147987843 -0.0120940502444 1.489591854e-24)
(0.0124938524373 -0.0142570475854 2.59707841381e-25)
(0.0134590437039 -0.0138302257654 -3.08706049214e-26)
(0.0119656279069 -0.0158544855549 7.52921438076e-25)
(0.0129376237054 -0.0155091978545 1.62962406537e-25)
(0.0123510080042 -0.0171225466881 1.19167340565e-24)
(0.0162278136473 -0.00189322222467 1.08603573228e-22)
(0.0168974137016 -0.00112933241374 -3.20819774019e-23)
(0.0162441206404 -0.00381135234722 1.29340794171e-22)
(0.0171076930216 -0.00289201583329 7.87443933794e-23)
(0.0160804432471 -0.00571773954391 1.63675375144e-23)
(0.0169866572832 -0.00489923422941 6.45042126012e-24)
(0.0158390195134 -0.00760281314481 9.70486909321e-25)
(0.0167725293903 -0.00686651136221 -2.37689866229e-24)
(0.0155273094111 -0.00945910856129 6.78304531653e-25)
(0.0164851694963 -0.00879458962616 4.48170950518e-25)
(0.0151452007153 -0.0112790005838 7.96392212982e-25)
(0.0161246173531 -0.0106909907286 1.05300126356e-24)
(0.0146924636411 -0.0130546155207 2.78021071385e-25)
(0.0156904153359 -0.0125467614569 5.53731999043e-25)
(0.0141690625262 -0.0147778239725 -1.27616039766e-25)
(0.0151822545673 -0.0143535982609 2.56175660212e-25)
(0.0135752399882 -0.0164402537469 6.01714374112e-25)
(0.0146000570829 -0.016102989465 7.6717075597e-25)
(0.0139440819668 -0.0177861401163 1.73417590269e-24)
(0.0181915282514 -0.00196359624521 -6.19411572503e-23)
(0.018861009375 -0.00117353952526 -6.84973798522e-23)
(0.018211790877 -0.00395361694002 -4.41459795319e-23)
(0.0190977134382 -0.00300277043217 1.41855769386e-23)
(0.0180312456435 -0.00593229288622 -1.22940149166e-23)
(0.0189653334002 -0.00508844666208 -5.65832648902e-24)
(0.01776458876 -0.00789006459897 -2.89921462109e-24)
(0.0187303017965 -0.0071334052496 -4.32265661973e-24)
(0.0174199898859 -0.00981949818195 8.22867682429e-25)
(0.0184146042563 -0.00913915144671 6.74365796991e-25)
(0.0169970912036 -0.0117129260794 8.10341049626e-25)
(0.0180180468161 -0.0111138628248 9.60364489772e-25)
(0.0164953676579 -0.013562344069 5.3188658787e-25)
(0.0175398352044 -0.0130484569331 1.49394894644e-24)
(0.015914486938 -0.0153593933549 1.15096245595e-24)
(0.0169793065651 -0.0149344479035 1.51267690207e-24)
(0.0152544159706 -0.0170953650277 1.89963228455e-24)
(0.0163360328327 -0.0167630268881 2.67229946693e-24)
(0.0156099548972 -0.0185249782809 2.42240617129e-24)
(0.020231001806 -0.00204079314652 7.62935433669e-24)
(0.020901802231 -0.00122181480233 -8.28909445626e-23)
(0.0202561217272 -0.00410972699803 5.26732299815e-23)
(0.0211666473539 -0.00312359681394 1.67016419224e-22)
(0.0200591803256 -0.00616786748315 2.31303180782e-24)
(0.0210234744362 -0.00529501576639 1.99172146022e-23)
(0.0197678218129 -0.00820573431374 -7.49076201647e-25)
(0.0207681697206 -0.00742502453037 -2.18645301949e-25)
(0.0193908800579 -0.0102159848165 8.11862604334e-25)
(0.0204248563271 -0.0095160522972 1.98558839832e-24)
(0.0189276604504 -0.0121909508744 1.64397238659e-24)
(0.0199930147928 -0.0115770536052 1.39879512877e-24)
(0.018377237237 -0.0141225176615 2.47473926064e-24)
(0.0194714041745 -0.0135988496526 2.39304629745e-24)
(0.0177388659008 -0.0160020916648 3.03401391305e-24)
(0.0188588835868 -0.0155727853366 3.0035139073e-24)
(0.0170121166278 -0.0178205973768 3.19507335368e-24)
(0.018154542893 -0.0174897394652 4.23070309572e-24)
(0.0173578675132 -0.0193400300181 2.63707293182e-24)
(0.0223531792657 -0.00212457861906 7.64961203248e-23)
(0.0230263809608 -0.00127400487635 -9.18284637532e-23)
(0.0223842403115 -0.004279239508 1.34260403845e-22)
(0.0233213087728 -0.00325407430324 1.28434447606e-22)
(0.0221715906952 -0.00642386299264 1.73855374924e-23)
(0.0231680989832 -0.00551828676035 1.68773177275e-23)
(0.0218563530597 -0.00854913748814 2.51601929802e-24)
(0.0228934458402 -0.00774054644424 -2.458665479e-24)
(0.021447964532 -0.0106478905408 2.57252092275e-24)
(0.0225236114467 -0.00992439567798 2.11449398655e-24)
(0.0209452808361 -0.0127125119334 2.14786903963e-24)
(0.0220576385095 -0.0120797058965 2.50979969026e-24)
(0.0203468448298 -0.0147348092227 2.92182094411e-24)
(0.0214937039161 -0.014197252176 2.62053620855e-24)
(0.0196513561846 -0.0167059590356 4.20020308997e-24)
(0.0208300365562 -0.0162682363574 1.90130882716e-24)
(0.0188578374482 -0.0186164904496 3.67270267386e-24)
(0.0200650785631 -0.0182832174447 4.16236900092e-24)
(0.0191976909398 -0.0202320020981 2.52908756275e-24)
(0.0245647406475 -0.00221462031146 -3.98901364721e-23)
(0.0252410018783 -0.00132989099498 -7.68054125281e-23)
(0.024603049071 -0.00446151485528 1.10513614885e-23)
(0.0255682043979 -0.00339361146228 6.1458680724e-23)
(0.0243756632053 -0.00669939149654 -2.96688524396e-24)
(0.0254059772878 -0.00575732152569 -2.00997247728e-23)
(0.0240377509415 -0.00891922511814 -2.86019079047e-24)
(0.0251132816924 -0.00807876581955 -6.38334689452e-24)
(0.023599273097 -0.0111141167827 2.05177275406e-24)
(0.0247185056758 -0.0103628236366 -5.71681819263e-25)
(0.023058497979 -0.0132765937097 2.98246685918e-24)
(0.0242201179956 -0.0126204467446 1.87601725477e-24)
(0.0224132769666 -0.0153984362021 1.6000240916e-24)
(0.0236155488207 -0.0148424360157 2.2758028092e-24)
(0.0216615770385 -0.0174706062648 1.86347473811e-24)
(0.0229022099691 -0.017019894251 -3.16404389896e-25)
(0.0208016852833 -0.0194832172159 3.01875388981e-24)
(0.0220776940334 -0.0191430637655 2.19474232283e-24)
(0.0211400229685 -0.0212011979834 2.22571642019e-24)
(0.0268719878107 -0.00231045692354 2.4543404668e-23)
(0.0275514599273 -0.00138916966004 -8.27885500587e-23)
(0.0269191176081 -0.00465565713118 3.03075944626e-23)
(0.0279134062264 -0.00354139729082 -8.26957621718e-24)
(0.0266783315889 -0.00699319152611 -2.35161864234e-23)
(0.027743513906 -0.00601081804052 -3.78517245628e-23)
(0.026319440973 -0.00931447438696 -4.09483792332e-24)
(0.0274345672398 -0.00843798619334 -6.27909163811e-24)
(0.0258528282748 -0.011613014465 -7.4743731855e-25)
(0.0270170484163 -0.0108293822905 -1.41524288497e-24)
(0.0252760077819 -0.0138815820877 1.16935320479e-24)
(0.0264886889091 -0.0131972298468 1.16030725127e-24)
(0.0245859443434 -0.0161120012989 3.59374327707e-25)
(0.0258459728974 -0.0155324583547 2.00267923866e-24)
(0.0237796554879 -0.0182950555978 1.48631948283e-26)
(0.0250852680832 -0.0178261373477 -8.96202532919e-26)
(0.0228544611653 -0.0204204241948 1.40170485321e-24)
(0.0242030675122 -0.0200682097981 1.74959723629e-24)
(0.0231962941569 -0.0222473390929 2.53156677948e-24)
(0.0292806990723 -0.00241146377617 -1.15601530944e-22)
(0.0299629255268 -0.00145142918484 -1.06538337421e-22)
(0.0293385438584 -0.00486044505339 -7.64288952426e-23)
(0.030362389995 -0.00369634301235 -6.51993762357e-23)
(0.0290861532846 -0.0073035262435 -2.06146297775e-23)
(0.0301865977906 -0.0062770148773 -1.89402350776e-23)
(0.0287086048118 -0.00973275893999 -3.59949659976e-24)
(0.0298638025594 -0.00881588703113 -5.06014608974e-24)
(0.0282165720329 -0.0121422256502 4.92501684856e-25)
(0.0294265216757 -0.0113213555057 -1.19720483785e-24)
(0.0276066161805 -0.0145250811459 1.99363328513e-24)
(0.0288715505608 -0.0138071457511 2.06545222115e-24)
(0.026874581203 -0.0168733017194 1.55368465766e-24)
(0.0281941969427 -0.0162644504452 2.63678231087e-24)
(0.0260162699078 -0.0191775350581 1.64511378817e-24)
(0.0250277498995 -0.0214270335214 2.87945916256e-24)
(0.0317959450188 -0.00251680872221 -5.61361827127e-23)
(0.0324797371074 -0.00151612295673 -6.8283888591e-23)
(0.0318667790459 -0.00507424741061 -7.7107160707e-24)
(0.0329198313943 -0.00385701456134 2.76725853764e-23)
(0.0316051518526 -0.0076280627866 -3.38575138978e-24)
(0.0327404162716 -0.00655357352633 9.66475475573e-25)
(0.0312120449741 -0.0101711805613 -2.65785432783e-24)
(0.0324069297843 -0.00920936464187 -1.69028813175e-24)
(0.0306982636063 -0.0126984884779 3.75745698449e-25)
(0.0319538340677 -0.0118350719724 4.02964066813e-25)
(0.0300591788028 -0.0152037050608 2.70860124688e-24)
(0.0344218586495 -0.00262540653455 1.55248794981e-23)
(0.0345084059508 -0.00529492703541 3.63497769227e-23)
(0.0342406128393 -0.00796371211288 2.6619387336e-24)
(0.0354092090233 -0.00683744923765 7.50573928886e-24)
(0.033836013915 -0.0106258950473 1.37053026288e-24)
(0.0350691160269 -0.0096143514845 -5.23129104448e-24)
(0.0369968336592 -0.00830649350853 -3.87490489217e-25)
)
;

boundaryField
{
    back
    {
        type            calculated;
        value           uniform (0 0 0);
    }
    sides
    {
        type            calculated;
        value           uniform (0 0 0);
    }
    bottom
    {
        type            calculated;
        value           uniform (0 0 0);
    }
    front
    {
        type            calculated;
        value           uniform (0 0 0);
    }
    atmosphere
    {
        type            calculated;
        value           nonuniform List<vector> 0();
    }
    floatingObject
    {
        type            calculated;
        value           nonuniform List<vector> 0();
    }
    procBoundary2to0
    {
        type            processor;
        value           nonuniform List<vector> 
14
(
(0.02738950651 -0.0186844006084 1.45001185022e-24)
(0.0264525695041 -0.0210566800232 1.91750256745e-24)
(0.0253788839135 -0.0233693354632 2.55467085098e-24)
(0.0313767730473 -0.0144461900055 2.37873172309e-24)
(0.0292892311058 -0.0176790816363 2.53310950343e-24)
(0.0306695799096 -0.0170343564249 2.55870642927e-24)
(0.0351051462406 -0.0015825390104 -1.44109963423e-23)
(0.0355893556316 -0.00402155332908 1.27600804141e-22)
(0.0333053480995 -0.0132774167778 2.40595009145e-24)
(0.0346053646718 -0.0123656681603 2.30351514093e-24)
(0.0372668642889 -0.00551972322609 9.87567665073e-23)
(0.0381959841749 -0.00712473232013 -1.74197469258e-23)
(0.0365859939074 -0.01109187205 -4.29830616644e-24)
(0.0378545018275 -0.0100255932081 -1.20443486128e-23)
)
;
    }
    procBoundary2to1
    {
        type            processor;
        value           nonuniform List<vector> 
18
(
(0.000785927335444 -0.0120220535845 3.6064026988e-23)
(0.00203692852237 -0.0122545774207 1.59434023778e-24)
(0.00346073262826 -0.0123752213805 1.38844128672e-23)
(0.00405284711683 -0.0132962393743 2.69805098089e-24)
(0.00467734561028 -0.0139330188038 1.92863857493e-24)
(0.00518826481234 -0.0148932792182 4.21137923621e-24)
(0.00575417144678 -0.0155371685707 7.41339635824e-25)
(0.00709702635839 -0.0158883396959 1.03395320977e-24)
(0.00847672757614 -0.0163123027562 2.315612078e-24)
(0.00990053075013 -0.0168102376223 1.62513718717e-24)
(0.0113761296834 -0.0173834530039 3.35304041909e-26)
(0.0129116142309 -0.0180333234835 8.8891740163e-25)
(0.0145155429474 -0.0187612332911 1.21097374185e-24)
(0.0161970267975 -0.0195685050295 1.13862697134e-24)
(0.017965823208 -0.0204563089136 1.58889058997e-24)
(0.0198324428061 -0.0214255441499 1.02354048762e-24)
(0.0218082712256 -0.0224766917597 8.1859329719e-26)
(0.0239057042302 -0.0236096186063 -5.52711921355e-25)
)
;
    }
}


// ************************************************************************* //
