/*--------------------------------*- C++ -*----------------------------------*\
| =========                 |                                                 |
| \\      /  F ield         | OpenFOAM: The Open Source CFD Toolbox           |
|  \\    /   O peration     | Version:  v2012                                 |
|   \\  /    A nd           | Website:  www.openfoam.com                      |
|    \\/     M anipulation  |                                                 |
\*---------------------------------------------------------------------------*/
FoamFile
{
    version     2.0;
    format      ascii;
    class       surfaceScalarField;
    location    "0.5";
    object      alphaPhi0.water;
}
// * * * * * * * * * * * * * * * * * * * * * * * * * * * * * * * * * * * * * //

dimensions      [0 3 -1 0 0 0 0];
oriented        oriented;


internalField   nonuniform List<scalar> 
305
(
-2.01996620181e-05
2.01996514133e-05
-4.18551198982e-05
2.16554463505e-05
-6.34964045608e-05
2.1641273679e-05
-8.48874038972e-05
2.13909890425e-05
-0.000106062055424
2.11746390019e-05
-0.000127024454523
2.09623747439e-05
-0.000147750876316
2.07263837053e-05
2.04541554536e-05
-2.16982896747e-05
4.18979290231e-05
-4.3296619955e-05
4.32537637881e-05
-6.49390231192e-05
4.32836646319e-05
-8.65639996647e-05
4.30159541225e-05
-0.000108070308955
4.26809346079e-05
-0.000129396697945
4.22887382695e-05
-0.000150495651558
4.18252973871e-05
4.12798733808e-05
-2.18238415456e-05
6.37217571227e-05
-4.35955184576e-05
6.50254265055e-05
-6.53430732204e-05
6.503120611e-05
-8.70531977167e-05
6.47260664067e-05
-0.000108654145548
6.42818684759e-05
-0.000130086341173
6.37209104823e-05
-0.000151299832845
6.30387483215e-05
6.22267897041e-05
-2.17794903865e-05
8.55012324473e-05
-4.37461920071e-05
8.69921124233e-05
-6.56675517418e-05
8.69525515222e-05
-8.7511442757e-05
8.65699448858e-05
-0.000109235303064
8.6005716098e-05
-0.000130793431553
8.5279019007e-05
-0.000152140308674
8.43855901603e-05
-0.000173229727759
8.33161373611e-05
8.20592176162e-05
-2.18351778537e-05
0.000107336393381
-4.39681276662e-05
0.000109125044914
-6.60666495712e-05
0.000109051058105
-8.80765850142e-05
0.000108579867693
-0.000109963425441
0.000107892545191
-0.000131689208207
0.000107004786667
-0.000153212665685
0.000105909018929
-0.000174489553498
0.000104592972805
-0.000195472663676
0.000103042229797
0.000101241187934
-2.19652493959e-05
0.000129301623958
-4.42738014946e-05
0.000131433578172
-6.65620156443e-05
0.000131339256167
-8.8765608315e-05
0.000130783447914
-0.000110851547852
0.000129978474811
-0.000132785535875
0.000128938763189
-0.000154529318216
0.000127652779148
-0.000176040707926
0.000126104317728
-0.000197273506452
0.000124274960294
0.000122144949609
-2.21405080694e-05
0.000151442111546
-4.46484757295e-05
0.000153941525843
-6.71486684116e-05
0.000153839432438
-8.95739757665e-05
0.00015320874355
-0.000111892609423
0.00015229710026
-0.000134072885615
0.000151119031177
-0.000156079125128
0.000149659001911
-0.000177871181326
0.000147896337589
-0.000199404176951
0.000145807897412
0.000143368941341
-2.23475690002e-05
0.000173789658925
-4.50798069499e-05
0.000176673743257
-6.78161660868e-05
0.000176575775466
-9.04903838572e-05
0.000175882950941
-0.000113073007164
0.000174879717825
-0.000135535206597
0.000173581225674
-0.000157844038982
0.000171967822763
-0.000179961615269
0.000170013884036
-0.000201844628934
0.000167690864294
0.000164968213003
-2.25782965361e-05
0.000196367933458
-4.55567694986e-05
0.000199652195949
-6.85516778574e-05
0.000199570668752
-9.1499658809e-05
0.000198830923513
-0.000114374826315
0.000197754882433
-0.000137151922744
0.000196358321582
-0.000159801261541
0.00019461715494
-0.000182287653315
0.000192500254097
-0.000204569745905
0.000189972916962
0.000186997921497
-2.2825984182e-05
0.000219193896188
-4.60680784653e-05
0.000222894271159
-6.93401394542e-05
0.00022284271653
-9.2583109337e-05
0.000222073887633
-0.000115775863803
0.000220947637707
-0.000138897635835
0.000219480095899
-0.000161922738538
0.000217642255107
-0.000184819303302
0.000215396803131
-0.000207548462431
0.000212702047398
0.000209513092831
-2.30840133344e-05
0.000242277889621
-4.66013380206e-05
0.000246411578942
-7.01639501422e-05
0.000246405318125
-9.37183112795e-05
0.000245628246269
-0.000117249246378
0.000244478577434
-0.000140741522981
0.000242972380819
-0.00016417436237
0.000241075097852
-0.000187520008546
0.000238742441648
-0.000210742737876
0.000235924754947
0.000232568358622
-2.33451628681e-05
0.000265623035091
-4.71424418722e-05
0.000270208844086
-7.10025518003e-05
0.000270265420944
-9.48787052282e-05
0.000269504400951
-0.000118762924394
0.000268362805487
-0.000142646676452
0.000266856146069
-0.000166515155155
0.000264943585828
-0.000190345666946
0.000262572951896
-0.0002141064653
0.000259685542904
0.00025621759759
-2.36012294488e-05
0.000289224250419
-4.76751187446e-05
0.000294282723246
-7.1831964461e-05
0.000294422263481
-9.60330771856e-05
0.00029370551904
-0.000120279036273
0.000292608777162
-0.000144569316256
0.000291146444533
-0.000168896316887
0.000289270600463
-0.000193243547709
0.000286920188854
-0.000217584247347
0.000284026238839
0.000280513483362
-2.38427844002e-05
0.000313067024498
-4.8180553136e-05
0.00031862048597
-7.26243085533e-05
0.000318866019902
-9.71449672384e-05
0.000318226187227
-0.000121753175104
0.000317217001412
-0.000146457893173
0.000315851184371
-0.000171260148045
0.000314072874537
-0.000196151006884
0.000311811058409
-0.000221109956029
0.000308985196503
0.000305506853353
-2.40589821465e-05
0.000337126000372
-4.86370393452e-05
0.000343198541411
-7.33473196674e-05
0.000343576305347
-9.81720378183e-05
0.000343050918654
-0.000123133593928
0.000342178576649
-0.000148252103096
0.000340969721393
-0.000173538861585
0.000339359667205
-0.00019899413062
0.000337266349539
-0.000224605075124
0.000334596160966
0.000331245884716
-2.42374189909e-05
0.000361363420678
-4.90196786414e-05
0.000367980806559
-7.39638763723e-05
0.000368520512684
-9.9065451854e-05
0.00036815251007
-0.000124360377515
0.000367473538286
-0.00014988180616
0.000366491193865
-0.000175653294813
0.000365131202131
-0.000201686049762
-0.000227976870983
-2.43639223708e-05
0.000385727352322
-4.93000155258e-05
0.000392916910824
-7.44315381849e-05
0.000393652051963
-9.97691235139e-05
0.000393490139106
-0.000125364513499
0.000393068966948
-0.000151266052054
-2.44224520644e-05
-4.94457927123e-05
-7.47019066068e-05
0.000418908206202
-0.000100219162641
0.000419007426884
-7.47206208416e-05
)
;

boundaryField
{
    back
    {
        type            calculated;
        value           uniform 0;
    }
    sides
    {
        type            calculated;
        value           uniform 0;
    }
    bottom
    {
        type            calculated;
        value           uniform 0;
    }
    front
    {
        type            calculated;
        value           uniform 0;
    }
    atmosphere
    {
        type            calculated;
        value           nonuniform List<scalar> 0();
    }
    floatingObject
    {
        type            calculated;
        value           nonuniform List<scalar> 0();
    }
    procBoundary2to0
    {
        type            processor;
        value           nonuniform List<scalar> 
14
(
0.00036329914116
0.000360886997368
0.00035777481222
0.000392392783704
-0.000177511501124
0.000391376727406
0.000410149819384
0.000417940273016
-0.000126067177387
0.000418917037961
4.94206850524e-05
0.000444208190489
-0.000100343275222
0.000444630130187
)
;
    }
    procBoundary2to1
    {
        type            processor;
        value           nonuniform List<scalar> 
18
(
-0.000168205083249
-0.000171321430368
-0.000172246811505
-6.12758685391e-05
-0.000194013177336
-8.060293774e-05
-0.000216111025207
-0.000218177358931
-0.000220628240363
-0.00022344396309
-0.000226599504038
-0.000230063675282
-0.000233798032502
-0.000237755724858
-0.000241880141965
-0.000246103325467
-0.000250344105523
-0.000254505785878
)
;
    }
}


// ************************************************************************* //
