/*--------------------------------*- C++ -*----------------------------------*\
| =========                 |                                                 |
| \\      /  F ield         | OpenFOAM: The Open Source CFD Toolbox           |
|  \\    /   O peration     | Version:  v2012                                 |
|   \\  /    A nd           | Website:  www.openfoam.com                      |
|    \\/     M anipulation  |                                                 |
\*---------------------------------------------------------------------------*/
FoamFile
{
    version     2.0;
    format      ascii;
    class       surfaceScalarField;
    location    "0.2";
    object      alphaPhi0.water;
}
// * * * * * * * * * * * * * * * * * * * * * * * * * * * * * * * * * * * * * //

dimensions      [0 3 -1 0 0 0 0];
oriented        oriented;


internalField   nonuniform List<scalar> 
296
(
0.00024365321789
0.00054884134632
0.000263817202915
0.00063281470767
0.00027199361809
0.0007379940678
0.000263153008022
0.000865696788888
0.000230735371118
0.00101797518532
0.00016643609671
0.0011960813529
6.05095567916e-05
0.00139996281023
-9.9057227274e-05
0.00162944951877
-0.00033412474856
0.00188535920949
-0.000641680459331
0.00216490671668
-0.00100145974613
0.00264104166036
-4.58690747781e-06
0.000715612602766
-3.821986195e-06
3.46690393694e-05
0.000298951643039
7.05622569714e-05
0.000308646690591
0.000107918960892
0.000318583451476
0.000334484100083
0.000234680630223
0.000391049020644
0.000281676291881
0.000437590128542
0.000328520659342
0.000501996924165
0.000369409854588
0.000591925492591
0.000399661278439
0.000707742691284
0.000414313398209
0.000851044819212
0.000406300261227
0.00102598860997
0.000366428327311
0.00123595368795
0.000286255100966
0.00148013687578
0.000153525275784
0.00176217996412
-6.28795401784e-05
0.00210176424158
-0.000418924731032
0.00252095222153
-0.000688430204946
0.00309278658254
-1.18099816767e-05
0.000525652802849
-1.56950494927e-05
3.96332219314e-05
0.00025931847892
8.09598468858e-05
0.000267320125658
0.000124638704622
0.000274904673364
0.000172057796509
0.000287065049177
0.000224619004176
0.000305300629654
0.00028350906788
0.000332158915664
0.000348961283706
0.000372137817682
0.000419819983558
0.000431138109108
0.000486180183365
0.000525565193732
0.000543967058921
0.000649955771345
0.000589404700124
0.000805607224092
0.000614665023886
0.00100072846194
0.000607300201245
0.00124331880627
0.000559513468256
0.00152792409338
0.000469762526995
0.00185193141215
0.00030739679719
0.00226413018812
-4.62356152481e-05
0.00287458459837
-0.000238733038499
0.00336847781895
-2.33802239493e-05
0.000460280257778
-3.90822873904e-05
4.34233886056e-05
0.000215895149816
8.89395451889e-05
0.000221804023848
0.000137656535445
0.000226187714216
0.00019174139795
0.000232980180742
0.000253806583666
0.00024323539596
0.000326900408814
0.000259064974132
0.000413614893192
0.000285423172732
0.000515365292669
0.000329387513994
0.000611715633986
0.000429214653075
0.000702548314102
0.000559122925354
0.00078734148935
0.000720813960048
0.000856772449146
0.000931297504533
0.000888357108685
0.00121173427204
0.000878745570737
0.00153753604842
0.000847764231199
0.00188291324577
0.000805682554027
0.00230621209253
0.000711075581437
0.00296919169063
0.000394154122351
0.00352950311101
4.29346123788e-05
0.00051753261745
1.1521633733e-05
4.55915792681e-05
0.000170303645932
9.34908849565e-05
0.000173904779948
0.000145143442575
0.000174535200953
0.000203424644318
0.000174698967215
0.000272389779186
0.000174270177991
0.000358186264275
0.000173268339951
0.000469236918972
0.000174372298823
0.000612743937746
0.000185880219393
0.000740412919541
0.000301545349252
0.000870078382563
0.000429457150688
0.00100791528084
0.000582976810075
0.00113875474562
0.000800457855705
0.00120299890881
0.00114748993332
0.00122288028886
0.00151765488765
0.00127428434818
0.00183150960022
0.00137198901857
0.00220850796764
0.00153102027638
0.00281016028303
0.00139610354469
0.00342292043962
-9.42967283574e-06
0.00133773879027
2.15359884869e-06
4.58323759947e-05
0.000124471364516
9.38496837264e-05
0.000125887564329
0.000145438584809
0.000122946351374
0.00020368900892
0.000116448534843
0.00027326049652
0.000104698601596
0.000363667140451
8.28615271009e-05
0.000496860735753
4.11784477689e-05
0.00070568959228
-2.29490144332e-05
0.000859491364212
0.000147743156149
0.00103249529623
0.000256452803273
0.00125184472706
0.000363627056716
0.00150270575243
0.000549596222398
0.0015088237582
0.00114137174485
0.00154467986595
0.00148179881519
0.00170213151853
0.00167405833982
0.00192607683705
0.00198456358144
0.00218818715784
0.00254804992135
0.00252774944177
0.00308335898567
9.47208369e-05
0.00295115605491
6.50026830341e-05
4.42088155731e-05
8.02626593121e-05
9.00766093716e-05
8.00198737971e-05
0.000138423971582
7.459905574e-05
0.000192036729344
6.2835782617e-05
0.000257291770489
3.94434838842e-05
0.000343318888754
-3.16575512248e-06
0.000477387430657
-9.28903964269e-05
0.000695540728894
-0.00024110266921
0.000843283642916
0.00109973622863
0.00146336296982
0.00201295879212
0.00173617300226
0.00183963511043
0.00209056264014
0.00244607357686
0.00278404456633
0.00299007339851
0.0014838355212
4.10127007329e-05
3.92500859922e-05
8.21405452211e-05
3.88921509908e-05
0.000121040312206
3.56993765699e-05
0.0001543983003
2.94778248441e-05
0.000177293341815
1.65483938327e-05
0.000183876661574
-9.74922621715e-06
0.000142026787537
-5.10407545619e-05
-9.90760008881e-05
3.92503536564e-05
-8.90889763103e-11
7.8142722674e-05
-4.92257856339e-11
0.000113842204387
3.18145499127e-11
0.000143319971918
1.37416180284e-10
0.000159868087528
2.74773972766e-10
0.000150118309475
4.41398690545e-10
9.90767518642e-05
5.89943587678e-10
5.58813204823e-10
3.92503901359e-05
-3.92502385901e-05
7.81427735425e-05
-3.88921982772e-05
0.000113842289575
-3.56992838864e-05
0.000143320087837
-2.94775339549e-05
0.000159868195108
-1.65478159926e-05
0.000150118449416
9.75004522543e-06
9.90768136125e-05
5.1041872958e-05
9.90771452707e-05
4.10127701006e-05
8.21406859827e-05
0.000121040538574
0.000154398616542
0.000177293780751
0.000183877059186
0.000142027138159
)
;

boundaryField
{
    back
    {
        type            calculated;
        value           uniform 0;
    }
    sides
    {
        type            calculated;
        value           nonuniform List<scalar> 0();
    }
    bottom
    {
        type            calculated;
        value           uniform 0;
    }
    front
    {
        type            calculated;
        value           uniform 0;
    }
    atmosphere
    {
        type            calculated;
        value           nonuniform List<scalar> 7(0 0 0 -7.58550220255e-06 -3.68717981027e-08 3.38621359567e-08 0.000133966173598);
    }
    floatingObject
    {
        type            calculated;
        value           uniform 0;
    }
    procBoundary3to4
    {
        type            processor;
        value           nonuniform List<scalar> 
13
(
-0.000576596583414
-0.000652978552865
-0.000746170258867
-0.000333620615615
-0.000344539832749
-0.000355940150735
-0.000374008595001
-0.000436064898334
-0.000215897990646
-0.000484585845338
0.000147443451717
-0.000189664845497
-0.000357861877389
)
;
    }
    procBoundary3to5
    {
        type            processor;
        value           nonuniform List<scalar> 10(-0.000856855772676 -0.000985556992599 -0.00113178131798 -0.00129403545496 -0.00146988186374 -0.00165029142287 -0.00185734984508 -0.00215329543001 -0.000886559854053 -4.46397637995e-07);
    }
    procBoundary3to6
    {
        type            processor;
        value           nonuniform List<scalar> 8(0.00141815727238 0.00137833669483 0.00142313152358 0.00162905381616 0.00221007960817 0.00287733015067 0.00438567151633 0.00135911381821);
    }
    procBoundary3to8
    {
        type            processor;
        value           nonuniform List<scalar> 8(-8.0262736862e-05 -8.00198430502e-05 -7.45989042965e-05 -6.28354690236e-05 -3.94429797806e-05 3.1665596196e-06 9.28914066532e-05 0.000241104027655);
    }
}


// ************************************************************************* //
