/*--------------------------------*- C++ -*----------------------------------*\
| =========                 |                                                 |
| \\      /  F ield         | OpenFOAM: The Open Source CFD Toolbox           |
|  \\    /   O peration     | Version:  v2012                                 |
|   \\  /    A nd           | Website:  www.openfoam.com                      |
|    \\/     M anipulation  |                                                 |
\*---------------------------------------------------------------------------*/
FoamFile
{
    version     2.0;
    format      ascii;
    class       surfaceVectorField;
    location    "0.2";
    object      Uf;
}
// * * * * * * * * * * * * * * * * * * * * * * * * * * * * * * * * * * * * * //

dimensions      [0 1 -1 0 0 0 0];


internalField   nonuniform List<vector> 
296
(
(0.123275305162 0.0487520349145 -2.2532732633e-22)
(0.109944928245 0.0545213671198 -1.7441431398e-22)
(0.141544856592 0.052772882526 -9.81252866982e-23)
(0.126771097399 0.0616523646734 -2.3893015796e-22)
(0.163728332524 0.0543859419815 -5.92868409173e-23)
(0.147844817018 0.0669876212337 -9.08612251338e-23)
(0.190032177414 0.0525817386883 -2.19280153259e-22)
(0.173428003582 0.0695963469449 -1.71754801516e-22)
(0.220570607137 0.0460450113974 -2.6304544375e-22)
(0.203927242191 0.0682719268287 -1.95495743818e-22)
(0.255276832098 0.0331133047018 -1.72381275122e-22)
(0.239585531444 0.0614366195419 -1.9133668759e-22)
(0.293930032997 0.0118398263618 -3.64521609485e-23)
(0.280380852954 0.0472362313335 1.69341019287e-22)
(0.335885066562 -0.0201693725 2.75849194546e-21)
(0.326263898014 0.0230761573191 1.89482622083e-22)
(0.381685606061 -0.0672690732135 -3.67215214424e-21)
(0.377381423881 -0.0137444877136 8.02087911459e-22)
(0.447189424303 -0.128938124869 -1.89594347619e-20)
(0.433324406889 -0.052484327461 1.31434529819e-21)
(0.506375751373 -0.244334370013 -2.50144551354e-21)
(0.546870426651 -0.198606731068 8.44490501272e-21)
(0.500378990564 -0.396755598084 1.88603164606e-20)
(0.609364398845 -0.34062921431 2.72803417929e-20)
(0.476483898781 -0.443522802352 1.93655958973e-20)
(0.0656818879778 0.00694131630592 -9.97416964449e-23)
(0.0598774620537 0.00436395025725 3.38114361663e-22)
(0.0677220420024 0.0141275483056 -1.26732736915e-22)
(0.0618180069288 0.0112183989664 -2.03806812189e-22)
(0.0705813669937 0.021606634391 -6.5336471355e-25)
(0.0638096590497 0.0193117206537 7.13504428681e-23)
(0.0669968131247 0.0278538192132 2.39477632588e-23)
(0.0895983596605 0.046981944673 -8.40664673375e-23)
(0.0783350419032 0.0471149962024 -2.7953020413e-23)
(0.101169551613 0.0563865601975 -1.09947806788e-22)
(0.0876641291267 0.058148891421 -7.94197256221e-23)
(0.116716156927 0.0657570655193 -1.8801714561e-22)
(0.100574307533 0.070095775024 -3.12413712438e-22)
(0.136898269772 0.0739293139109 -2.31666096395e-22)
(0.1185987055 0.0818179307353 -1.50072283561e-22)
(0.161987692132 0.0799622072076 -2.03329185733e-22)
(0.141811774738 0.0920507874648 -2.02514881805e-22)
(0.192415023818 0.0828575108604 -1.47970392075e-22)
(0.170532578838 0.100015984329 -2.58095486496e-22)
(0.228662357188 0.0811952424986 -1.23786987658e-22)
(0.205589449297 0.10454268124 -3.48090677911e-22)
(0.270856147322 0.0731310057599 1.50385606819e-22)
(0.247649789083 0.103636471559 1.57731439172e-22)
(0.318893460813 0.0569750304469 3.95275802318e-22)
(0.296536927792 0.0952843191028 4.4582462917e-22)
(0.373231499176 0.0302824286852 -1.76692141192e-21)
(0.35295665026 0.0781976054511 -8.89144104878e-22)
(0.435857415992 -0.0131467444631 5.78858535389e-21)
(0.420810745583 0.0429414263936 9.86996382805e-22)
(0.538614283746 -0.0843970551024 2.87186850728e-20)
(0.504574803375 0.0272954090098 -8.42297674966e-21)
(0.64359027859 -0.223685533643 3.82266923192e-20)
(0.686158914166 -0.161051379528 -5.59556375473e-21)
(0.594505114241 -0.39444563115 2.77856212296e-20)
(0.780124737073 -0.250680252886 3.42254254886e-20)
(0.575478821358 -0.376877075941 -8.13446183972e-21)
(0.0579509224581 0.00793625056881 2.34049245918e-22)
(0.051941320663 0.00489278732796 7.83287869727e-22)
(0.059664455217 0.016211429319 -5.7236324065e-24)
(0.0535429462655 0.0125399191632 -1.51823235713e-22)
(0.0620395582686 0.0249576166409 9.59515708405e-23)
(0.0550635757636 0.0216892071231 2.48471604607e-22)
(0.0656972699677 0.0344526912114 6.06916395082e-23)
(0.0575018091197 0.0315171884071 1.91984893335e-22)
(0.0710425790349 0.044977254162 4.69700654988e-23)
(0.0611582337279 0.0423859045632 1.65251249381e-22)
(0.078746658998 0.056768538432 -2.33062786976e-23)
(0.066543714483 0.0548264941937 9.33880888573e-23)
(0.0897525110679 0.0698724358334 -2.81885631273e-22)
(0.0745601221708 0.0691785394819 1.88028402434e-23)
(0.105665433187 0.0840556568145 -2.7446885039e-22)
(0.086390916247 0.0860974106337 -1.54725840839e-21)
(0.127417346121 0.0973330548444 -1.20921068971e-22)
(0.105321095463 0.103488862002 6.06158754569e-23)
(0.155033909907 0.10888385243 -2.57281182568e-22)
(0.130260755939 0.119609060499 -2.67859760776e-22)
(0.189255114529 0.117944075884 -4.58215772332e-22)
(0.161472167539 0.134250711469 -2.86133618079e-22)
(0.231180542619 0.122935772227 -6.6572251081e-23)
(0.200597639754 0.146597513978 -6.43969064139e-22)
(0.281028458748 0.121356102145 4.53170461523e-22)
(0.249229445533 0.15330848652 -9.53544540524e-22)
(0.338549719006 0.111638006945 -8.38595278027e-22)
(0.306255103506 0.151914718815 -7.26610666677e-22)
(0.407281762145 0.0934695430919 1.86477368985e-21)
(0.371125248962 0.145077260723 -1.69538687005e-21)
(0.496598313151 0.0607293709277 -1.32245657207e-20)
(0.453551044604 0.117951301897 6.53432996121e-21)
(0.642575821951 -0.0101714454236 -4.27372255772e-20)
(0.57547568078 0.13814787349 -3.74699211877e-20)
(0.790331299299 -0.105055110369 -9.5968305853e-21)
(0.781042591645 -0.0528635112559 -8.46324757189e-20)
(0.751842388584 -0.207016925893 -1.69465758074e-21)
(0.8820855492 -0.00323529659829 -1.43069075234e-20)
(0.723537452516 -0.0939999726202 -4.30091972326e-20)
(0.0492502940219 0.00869609823203 3.97415388096e-22)
(0.0432453596167 0.00526418306128 8.12430388915e-22)
(0.0504999751775 0.0178111545218 1.023720013e-22)
(0.0444280331892 0.0134318558798 -1.55348438456e-22)
(0.0521286239043 0.0275673465359 3.44504927102e-22)
(0.045307505333 0.0233136987768 3.38081977255e-22)
(0.0546642563042 0.0383987380706 2.96544503208e-22)
(0.0466704944053 0.0340584615406 1.85059877047e-22)
(0.0584993699121 0.0508286253418 2.11669272739e-22)
(0.048728358889 0.0462310793273 2.98003674065e-22)
(0.0644023806619 0.0654674798353 1.35497207798e-22)
(0.0519047931585 0.0607416357868 3.46631516871e-22)
(0.0735698989084 0.0828339660533 -1.24656993687e-21)
(0.0571934848411 0.0784304081936 7.01772177356e-22)
(0.0891041215205 0.103209483443 -1.21217368254e-21)
(0.0660151716891 0.101758904647 -4.43826228432e-22)
(0.112134037126 0.122501705172 -8.63228163479e-23)
(0.0860285961278 0.125998590213 1.3673252683e-20)
(0.141607302459 0.140681381658 -2.96712196287e-22)
(0.112080793296 0.148844608497 8.33463554454e-21)
(0.178879996564 0.157632964667 -4.71886909887e-22)
(0.144520344795 0.171578315916 -1.55935616762e-24)
(0.226303181641 0.171471231199 -1.53094135358e-21)
(0.186759230204 0.194994084594 -4.43442702948e-21)
(0.283723369295 0.177671890179 -2.13332566872e-21)
(0.243028767291 0.210461765193 9.58351847414e-21)
(0.34912037918 0.175554278237 -1.5834022587e-21)
(0.3083728059 0.215148481339 9.98774322945e-21)
(0.427029528404 0.169058795846 2.97416940131e-21)
(0.377620868055 0.219705401834 4.50149124309e-21)
(0.535242810298 0.160205563274 -1.77110255057e-20)
(0.46240438174 0.212073504145 1.33158115994e-20)
(0.698037523262 0.140714539626 -7.93651713294e-20)
(0.59496673333 0.267599026681 -3.10049059796e-20)
(0.828206928678 0.149371404231 -8.9342552657e-20)
(0.772385733948 0.111928932663 -1.29454001704e-19)
(0.852121419126 0.218318077109 -5.56214471752e-20)
(0.813137783632 0.281539962997 -8.46839609891e-20)
(1.00219162972 -0.00739968531715 -1.00273939207e-19)
(0.039880171416 0.00913108681426 2.59666562363e-22)
(0.0341144378994 0.00543349292651 5.00080148055e-22)
(0.040552992844 0.0187242132879 8.03615374987e-23)
(0.0348350733811 0.0137803822015 -8.51334426471e-23)
(0.0411935859813 0.0290692308841 1.786369272e-22)
(0.0349626247535 0.0239417403846 1.50420425305e-22)
(0.0421394966153 0.0407422312413 1.86519047903e-22)
(0.0349975758416 0.0350090358405 4.47586236603e-23)
(0.0435870578297 0.0545558181971 4.32965918197e-22)
(0.0349147768614 0.0476886335864 5.32464015026e-22)
(0.0460912981523 0.0717417586277 9.12906486429e-22)
(0.0347187649643 0.0632595191862 2.15417819566e-22)
(0.0507915187982 0.09398728281 1.50451588579e-21)
(0.0349477756033 0.0833905924515 2.0364898448e-21)
(0.0646375966545 0.122733185165 1.44416001371e-20)
(0.0372689990925 0.114915154428 2.19315291763e-20)
(0.0888937093836 0.148311688233 2.20942110439e-20)
(0.0604497544009 0.147738865954 3.36138474427e-19)
(0.119063849077 0.174289077244 8.62978838466e-21)
(0.086103070683 0.178068529881 3.49345224827e-19)
(0.158390110909 0.201890459203 -3.96409947576e-21)
(0.116918702189 0.210190696869 9.20125637569e-20)
(0.213088397358 0.22804973824 6.68003279825e-21)
(0.160599818196 0.251792036817 3.21110711101e-20)
(0.278953537237 0.240782424274 2.17045873723e-20)
(0.230296131595 0.275068337078 -1.16530081158e-19)
(0.3473833351 0.24455384964 1.60726367312e-20)
(0.304601556409 0.279339666821 -7.68404306037e-20)
(0.425011824902 0.254495844412 1.48431334412e-20)
(0.367679047177 0.293995938868 -2.55392444539e-20)
(0.535951353579 0.273452712172 2.19311255135e-23)
(0.44344757021 0.314482940935 -8.92111013471e-22)
(0.686300048529 0.304304043864 -8.10937363541e-20)
(0.564115317186 0.388530073137 -1.90854996989e-20)
(0.764504703557 0.377777109307 -1.24795410036e-19)
(0.698912562737 0.307403374091 -1.12436656954e-19)
(1.30722645647 0.422735102845 -1.29336453021e-19)
(0.768179924103 0.443003127111 -2.56156335491e-19)
(2.02786607264 -0.210913909614 -2.68677414585e-19)
(0.0302403821051 0.009180023719 1.55280143045e-22)
(0.0249346010683 0.0053828942289 4.24182324847e-22)
(0.030301219381 0.0187974822118 -1.50745548411e-23)
(0.0252177986984 0.0135548279654 -1.42846446528e-22)
(0.0298530367649 0.0291304626227 1.6542121765e-23)
(0.0246297925838 0.0234752152491 6.36029936871e-23)
(0.0289628429271 0.0407980819393 3.90703590783e-22)
(0.0233300426969 0.0341322095773 -1.43889157264e-22)
(0.0275909674234 0.0547343427173 3.14915916396e-22)
(0.020978517771 0.0463492192873 2.98845664997e-21)
(0.0260244325281 0.0728462001054 1.33900117794e-21)
(0.016606809187 0.0617349085426 5.57381768063e-21)
(0.0254587208804 0.0995317605448 2.24635031353e-20)
(0.00826201421451 0.0823454394589 1.96926443867e-20)
(0.038628606764 0.141369850903 3.43628403467e-19)
(-0.00456941867621 0.117385503578 3.76034079445e-19)
(0.0620328584565 0.17219854622 6.63389488211e-19)
(0.0296206930385 0.156161190589 5.37003114964e-18)
(0.0863371401315 0.206885013475 4.327280002e-19)
(0.0514162685116 0.195383049781 7.51737913846e-18)
(0.121002225033 0.250862274531 1.28087734343e-19)
(0.0729412062315 0.240159354736 1.55134402711e-18)
(0.188910842095 0.301128793123 -9.10990428465e-20)
(0.110333285689 0.321919443639 4.73821444643e-18)
(0.269412452396 0.302211863077 -2.15075099134e-19)
(0.229213285755 0.350818795531 2.18656628445e-18)
(0.333281464514 0.309228724278 -1.18452311789e-19)
(0.297584988945 0.331385574005 3.75462409062e-19)
(0.400433548801 0.340459459437 -4.12744889086e-20)
(0.336448459849 0.358519828357 1.20188211534e-19)
(0.497069692237 0.384614762518 -1.99995418379e-20)
(0.399292134473 0.414634787946 2.25971126233e-20)
(0.618876163513 0.435601408782 -5.04284202984e-20)
(0.513128328689 0.486327899467 9.01432950929e-21)
(0.743423083374 0.5125781094 -2.43797582409e-19)
(0.621935608858 0.511860579555 -6.52759081635e-20)
(2.05174018386 0.462628598826 -3.95497297055e-19)
(0.818130101805 0.539800858087 -3.15422458713e-19)
(3.49031727457 0.190653068264 -3.49991345361e-19)
(0.0207623687062 0.00885554723612 1.26055735274e-22)
(0.0160792529942 0.00513489841441 1.50747155307e-22)
(0.0202485958602 0.0180431310151 -6.41688980002e-23)
(0.016030407488 0.012801356064 -2.97681644029e-22)
(0.0186317676535 0.0277273557884 -9.68282853415e-23)
(0.0149457222515 0.0218276010182 6.50093365567e-23)
(0.015253285354 0.0384660948863 2.45386390192e-21)
(0.0125913940645 0.0307411673236 -2.37632930234e-22)
(0.00862714521608 0.051536301431 8.2473584142e-21)
(0.00790831583464 0.0396307316584 2.51072321095e-21)
(-0.00358727762883 0.0687683239581 2.39274608894e-20)
(-0.000625308835879 0.0488845589077 9.96298843979e-21)
(-0.0248935478411 0.0956307784412 3.73263220696e-19)
(-0.0186006723404 0.057029782911 8.7030465183e-20)
(-0.0184519513992 0.139390847426 5.40243682562e-18)
(-0.0483297792066 0.0712232105706 1.0313480767e-18)
(0.0154806826942 0.169011361666 1.22240207999e-17)
(0.0379240067954 0.220427489173 8.63599516537e-18)
(0.0628881959125 0.29336866252 6.1614707392e-18)
(0.161066285676 0.403702065104 7.01587977373e-18)
(0.267656582246 0.347946996263 2.77710379264e-18)
(0.303885168861 0.368635684861 6.14102932385e-19)
(0.345357001938 0.418853540343 1.84059813066e-19)
(0.433965235641 0.489714554249 5.16109839705e-20)
(0.563104690084 0.556223165415 -5.83315835578e-21)
(0.805025669825 0.593975939599 -1.36900784468e-19)
(1.74960970571 0.443343720671 -2.69916507019e-19)
(0.0119815053354 0.00821621871742 -2.72990223996e-22)
(0.00786323550502 0.00486845886368 7.10768072989e-23)
(0.0113739644045 0.0164554122362 -1.68503409472e-22)
(0.00779140733834 0.0120356802151 -1.76558942753e-22)
(0.0097301159906 0.0242489550712 -7.57953083356e-23)
(0.00715233596566 0.0201631540848 -2.85969046782e-23)
(0.00634266069211 0.0309338144953 -1.80773621203e-22)
(0.0059066299514 0.0273915465935 2.71842720169e-24)
(-0.000434359116342 0.0355248477171 4.22635323654e-21)
(0.00331729584811 0.0329688854492 1.16832214514e-21)
(-0.0129214418889 0.0368494672976 7.30659927333e-20)
(-0.00195002136379 0.0352940633808 4.06485699158e-20)
(-0.032615998216 0.0284728729421 7.45115321187e-19)
(-0.0102242501345 0.0304985000988 5.58303540551e-19)
(-0.0198569942705 0.021341735028 7.21530394844e-18)
(0.00392378145321 0.00786359685287 1.67508088542e-22)
(-1.31664087202e-07 0.00476999883346 3.99273286348e-22)
(0.00371160165625 0.0156553353248 -3.66524379587e-23)
(-1.14959860306e-07 0.0117708543271 -1.11088450072e-22)
(0.00319925409648 0.0228079341151 4.99168308591e-23)
(-8.27652383141e-08 0.019641993165 -4.01129113701e-23)
(0.00235941107078 0.0287147190551 1.35181419354e-21)
(-3.58188479988e-08 0.0265364763058 7.8661658054e-23)
(0.00105424311197 0.0320320234886 3.75905388244e-20)
(2.50650164371e-08 0.0316775287429 2.67545215649e-21)
(-0.00100407238413 0.030081837693 5.25886117734e-19)
(9.29537856908e-08 0.0328739191334 7.26610332497e-20)
(-0.00243635913113 0.0198572761081 7.02849216781e-18)
(1.50465169433e-07 0.0272700265107 9.79123151367e-19)
(1.35979908697e-07 0.0145709141968 1.30791223115e-17)
(-0.00392401835749 0.0078636108578 1.20676747735e-22)
(-0.00786347434369 0.00486847201665 3.53406314816e-22)
(-0.00371178775017 0.0156553612839 -1.14548923483e-22)
(-0.00779160851394 0.0120357171061 3.795905733e-22)
(-0.00319936469435 0.0228079770089 -1.13680841752e-23)
(-0.0071524803801 0.020163219242 1.93892292277e-23)
(-0.00235941827829 0.0287147761353 1.402299621e-21)
(-0.00590669004718 0.0273916391854 9.7374701275e-24)
(-0.00105412661926 0.0320320791037 3.77459465817e-20)
(-0.00331724308785 0.0329689956579 1.55226057197e-21)
(0.00100430463714 0.03008189327 5.25898066883e-19)
(0.00195017594853 0.0352941677431 4.00384460855e-20)
(0.0024366398035 0.0198572813278 7.02975329508e-18)
(0.0102244924991 0.0304985619547 5.57903598492e-19)
(0.0198572501661 0.0213417526802 7.21758763054e-18)
(-0.0119817020051 0.00821625200463 6.12320140382e-22)
(-0.0113741168318 0.0164554845134 5.13528726011e-22)
(-0.00973020378278 0.0242490708697 4.04947835304e-23)
(-0.00634266305115 0.0309339669586 1.59698421093e-22)
(0.000434453048346 0.0355250224744 3.84476007574e-21)
(0.0129216215359 0.0368496021424 7.20439776945e-20)
(0.0326162259565 0.0284729467804 7.45737933946e-19)
)
;

boundaryField
{
    back
    {
        type            calculated;
        value           uniform (0 0 0);
    }
    sides
    {
        type            calculated;
        value           nonuniform List<vector> 0();
    }
    bottom
    {
        type            calculated;
        value           uniform (0 0 0);
    }
    front
    {
        type            calculated;
        value           uniform (0 0 0);
    }
    atmosphere
    {
        type            calculated;
        value           nonuniform List<vector> 7((0 -0.436206892516 0) (0 -0.493440662986 0) (0 -0.3550744707 0) (0 -0.0603350587566 0) (0 -0.602940500051 0) (0 -0.999822247356 0) (2.52302027565 0.903084413317 -3.14524102954e-19));
    }
    floatingObject
    {
        type            calculated;
        value           nonuniform List<vector> 8((0 -5.78819399818e-15 7.23524249772e-16) (0 0 7.23524249772e-16) (0 0 0) (0 -1.15763879964e-14 7.23524249772e-16) (1.44704849954e-15 0 0) (0 0 7.23524249772e-16) (0 0 7.23524249772e-16) (0 0 0));
    }
    procBoundary3to4
    {
        type            processor;
        value           nonuniform List<vector> 
13
(
(0.11549121405 0.039923280478 -1.69904457055e-22)
(0.130792054124 0.0433838206505 -1.46518636439e-22)
(0.14945798304 0.0448139718629 2.06700732904e-23)
(0.0668186547289 0.00372911592112 2.79566027733e-22)
(0.0690041042663 0.00960686539546 -2.16445724968e-22)
(0.0712886267801 0.0164465597353 2.04631251312e-23)
(0.0749095100035 0.0235135685457 9.53149797762e-24)
(0.0873454637913 0.0385934625378 -9.92087066867e-23)
(0.108684014839 0.0432058649353 -1.56776494972e-22)
(0.0970688361062 0.0465727616512 -9.23099877799e-23)
(0.0749164370288 0.0295194192748 -7.06524806713e-24)
(0.0810789689246 0.0379715367385 -4.52444577296e-23)
(0.0716827544741 0.037034567796 2.96786281823e-23)
)
;
    }
    procBoundary3to5
    {
        type            processor;
        value           nonuniform List<vector> 10((0.171623862581 0.0433060373589 -9.17751968895e-23) (0.197390499878 0.0377496463037 -1.82311552104e-22) (0.226653702104 0.0267955586633 -1.68705317104e-22) (0.259107154451 0.00881451320955 -1.57110653512e-23) (0.294254410072 -0.0186777408554 2.01878471966e-22) (0.330281440423 -0.0562650853056 4.38568899675e-21) (0.371655156771 -0.10261220802 -6.37559413169e-21) (0.431474121645 -0.205348954456 -1.41165863189e-20) (0.456943016987 -0.343405199784 2.10573195486e-20) (0.437032652227 -0.399046577114 1.90775856647e-20));
    }
    procBoundary3to6
    {
        type            processor;
        value           nonuniform List<vector> 8((0.284968727566 0.308044950968 3.54333758569e-18) (0.276896624469 0.287898769317 6.62311483163e-19) (0.286230658186 0.363099948131 2.42237541519e-19) (0.328430795212 0.486443242318 5.10623689873e-20) (0.446619207866 0.580263846572 3.8610113654e-20) (0.584182491754 0.759649025445 -1.60918289672e-20) (0.968761972039 0.786250959188 -1.82402300208e-19) (3.03057342769 1.15657421443 -2.45289979119e-19));
    }
    procBoundary3to8
    {
        type            processor;
        value           nonuniform List<vector> 8((-0.0160794474078 0.00513492235513 2.70883966126e-22) (-0.0160305665173 0.0128014258988 4.46122899574e-22) (-0.0149458330844 0.0218277228575 3.59435206349e-23) (-0.0125914370898 0.0307413354932 6.66440325624e-23) (-0.0079082794958 0.0396309272518 9.36904144561e-22) (0.000625441287302 0.048884740596 5.55656607709e-21) (0.0186008594082 0.0570299037416 8.66462518771e-20) (0.0483300129231 0.0712232712346 1.03730190505e-18));
    }
}


// ************************************************************************* //
