/*--------------------------------*- C++ -*----------------------------------*\
| =========                 |                                                 |
| \\      /  F ield         | OpenFOAM: The Open Source CFD Toolbox           |
|  \\    /   O peration     | Version:  v2012                                 |
|   \\  /    A nd           | Website:  www.openfoam.com                      |
|    \\/     M anipulation  |                                                 |
\*---------------------------------------------------------------------------*/
FoamFile
{
    version     2.0;
    format      ascii;
    class       volScalarField;
    location    "4.4";
    object      alpha.water;
}
// * * * * * * * * * * * * * * * * * * * * * * * * * * * * * * * * * * * * * //

dimensions      [0 0 0 0 0 0 0];


internalField   nonuniform List<scalar> 
167
(
1.00000414849
1.00000214803
1.00000212479
1.00000683948
1.00000711383
1
0.773848735906
0.0836124643236
-1.73472347598e-19
1.00000570828
1.00000384916
1.00000643113
1.00000617679
1.00000269121
0.789403530708
0.0933603208809
-3.09359019883e-17
1.00000774054
1.00000581669
1.00000699017
1.0000061495
1.00000324221
0.805565015895
0.105075176597
-4.626993233e-14
1.00000837656
1.00000677841
1.00000684481
1.00000757523
1.0000064985
1.00000336945
0.818719790032
0.119557365828
-6.28884022084e-12
1.00000560314
1.00000625734
1.00000735264
1.0000079701
1.00000675413
1.00000341668
0.816812716686
0.129393504097
2.19325064476e-19
1.00000337322
1.00000575374
1.00000733358
1.00000789628
1.00000654618
1.00000318473
0.821180247279
0.139022405536
-9.75556059324e-10
0.999998088879
1.00000291083
1.0000052867
1.00000675427
1.00000716217
1.00000585448
1.00000284976
0.824785847019
0.124567556329
-1.06510181188e-09
0.999992637341
0.999999322706
1.00000250648
1.0000045223
1.00000554278
1.00000580873
1.0000047253
1.00000228406
0.821304545054
0.113459101231
-1.75808340227e-09
0.999992338667
0.999999293987
1.00000186953
1.00000322168
1.00000359565
1.00000403089
1.00000349278
1.00000162568
0.813797427736
0.103994479202
2.31236465296e-19
0.999993873502
1.00000023501
1.00000206901
1.00000219605
1.00000241558
1.00000230053
1.00000104172
0.804663770613
0.096846379598
-6.30403090538e-21
0.999993776356
0.999999122381
1.00000097089
1.00000116559
1.00000120508
1.00000128728
1.0000004747
0.795278655393
0.0880753677785
-1.37863435426e-23
0.999995188843
0.999999496665
1.00000118072
1.00000032471
1.00000029786
1.00000050159
1.0000000028
0.787953651462
0.0841508500869
-2.34367840223e-22
0.999996605024
1.00000052982
1.00000163455
1.00000016622
0.999999800834
0.999999990919
1
0.780946709862
0.0782697634311
1.14261215281e-20
0.999999965964
1.00000180613
1.00000219076
1.00000039131
0.99999967612
0.999999639256
1
0.77533814342
0.0742692580464
0.000157581524099
1
1.00000209579
1.00000324859
1.00000268494
1.00000073223
0.99999961117
0.999999424318
1
0.775397847109
0.0752530527033
5.0494457429e-19
1.00000233615
1.00000352529
1.00000385745
1.00000289817
1.0000007701
0.999999623306
0.999999489452
1
0.77424299785
0.0751972202315
0.000476228599893
1.00000229213
1.00000211161
1.00000206949
1.00000143122
1.0000002873
0.999999736318
0.999999795501
1.00000002243
0.77027829181
0.0828785583486
0.00229581397924
)
;

boundaryField
{
    back
    {
        type            zeroGradient;
    }
    sides
    {
        type            zeroGradient;
    }
    bottom
    {
        type            zeroGradient;
    }
    front
    {
        type            zeroGradient;
    }
    atmosphere
    {
        type            inletOutlet;
        inletValue      uniform 0;
        value           nonuniform List<scalar> 
17
(
0
0
0
0
2.19325064476e-19
0
0
0
2.31236465296e-19
0
0
0
0
0
5.0494457429e-19
0.000476228599893
0.00229581397924
)
;
    }
    floatingObject
    {
        type            zeroGradient;
    }
    procBoundary11to9
    {
        type            processor;
        value           nonuniform List<scalar> 9(1.00000177952 0.99999859129 0.99999785522 1.0000033239 1.00000368538 1 0.755625545516 0.0723051400225 -1.17073492158e-20);
    }
    procBoundary11to10
    {
        type            processor;
        value           nonuniform List<scalar> 
23
(
1.00000382909
1.00000656826
1.00000656826
1.00000658429
1.00000658429
1.00000467537
1.00000312999
1.00000203806
1.00000203806
0.999997945295
0.999997945295
0.999995688871
0.999995874756
0.999992481401
0.999992481401
0.999995791133
0.999996900084
0.999999084572
0.999999355609
0.999999355609
0.999999874278
1.00000176499
1.0000014458
)
;
    }
}


// ************************************************************************* //
