/*--------------------------------*- C++ -*----------------------------------*\
| =========                 |                                                 |
| \\      /  F ield         | OpenFOAM: The Open Source CFD Toolbox           |
|  \\    /   O peration     | Version:  v2012                                 |
|   \\  /    A nd           | Website:  www.openfoam.com                      |
|    \\/     M anipulation  |                                                 |
\*---------------------------------------------------------------------------*/
FoamFile
{
    version     2.0;
    format      ascii;
    class       volVectorField;
    location    "4.4";
    object      ddtCorrDdt0(U);
}
// * * * * * * * * * * * * * * * * * * * * * * * * * * * * * * * * * * * * * //

dimensions      [0 1 -2 0 0 0 0];


internalField   nonuniform List<vector> 
167
(
(-0.0936329237648 -0.0783328093712 -2.08538929521e-24)
(-0.102875670421 -0.090975138018 -5.46152428027e-23)
(-0.114629118279 -0.104588522755 -1.58831244314e-22)
(-0.129536975515 -0.118821909614 6.4680425688e-22)
(-0.147880966584 -0.133666257257 -1.62352290847e-21)
(-0.174536276436 -0.145840557836 1.96247982489e-20)
(-0.168777377283 -0.127854830307 1.20164713633e-20)
(-0.727786358751 -0.185460198024 2.18335421728e-20)
(-0.62551090333 -0.443751315486 -2.0994039427e-19)
(-0.0891291774697 -0.100988136107 -4.60958347729e-23)
(-0.0994092641727 -0.117842676988 -1.76873914553e-22)
(-0.113399732273 -0.13638383033 1.01229139688e-22)
(-0.132488474226 -0.156629170186 -6.27240935659e-21)
(-0.156860686754 -0.1615883584 2.24618667301e-20)
(-0.161994075089 -0.129661594886 4.00447266436e-20)
(-0.748650392811 -0.173674717854 -5.4824516112e-20)
(1.89912655631 0.292546294452 -6.55336278268e-19)
(-0.0725345322055 -0.109007412439 -3.18536804995e-23)
(-0.0801511495586 -0.129188417615 7.33662682934e-23)
(-0.0915773752841 -0.152958861156 -1.15541973452e-21)
(-0.109935105788 -0.180925884671 -3.79303573932e-21)
(-0.138020231641 -0.191705220869 -1.50492215414e-20)
(-0.173050378424 -0.153247009273 5.53858279145e-21)
(-0.903697649728 -0.2204452208 -2.20598965102e-19)
(-1.10424369602 1.87091694882 -7.50072084733e-19)
(-0.0512669381999 -0.0952316956861 5.47910931336e-23)
(-0.0534540474084 -0.114024340574 5.83738136268e-23)
(-0.0571377913056 -0.137051452997 2.19708809117e-23)
(-0.0635628726177 -0.166056036824 -3.40424625286e-22)
(-0.0759258800566 -0.204718391575 5.82808746945e-22)
(-0.0960766490229 -0.235863447016 5.34914117996e-21)
(-0.139318667275 -0.203500828476 -5.80287914832e-22)
(-0.792255343073 -0.314811127712 -4.85097915279e-20)
(-1.70307935866 1.24646655779 -1.35474280207e-18)
(-0.0343954776725 -0.0954251259428 1.25183346171e-22)
(-0.0328141933008 -0.114884552656 3.72746474179e-22)
(-0.0314477202676 -0.139370513677 8.23476121224e-22)
(-0.0306091242066 -0.171049584632 2.43159115944e-21)
(-0.03257670637 -0.213975305155 1.10964565886e-20)
(-0.0390719565042 -0.244805805175 1.02769450251e-20)
(-0.0740613336766 -0.213304500175 1.62066564345e-21)
(-0.600574359112 -0.2490798236 1.92616658732e-19)
(-7.62663092664 2.21039908016 5.01112528697e-19)
(-0.0174446307791 -0.0921712304207 1.51828569929e-22)
(-0.0120068989831 -0.111025029469 6.06928849405e-22)
(-0.00508340183905 -0.134966424596 1.28311092388e-21)
(0.00455844282593 -0.166746864183 4.231333338e-21)
(0.0175712585148 -0.21389615797 -5.98460503295e-22)
(0.0399113001493 -0.262056647113 1.08917719366e-20)
(0.0894964824327 -0.259152906903 1.43962330871e-20)
(0.288231649669 -0.53366919369 1.3868248182e-19)
(-9.13616523845 0.506095009039 -2.04124703921e-18)
(-0.00857260832007 -0.0718455061743 -1.76816372264e-23)
(-0.00162561542006 -0.0855480316527 3.76625811942e-22)
(0.00723273243664 -0.102465619608 4.44160602924e-22)
(0.0189444967447 -0.123153821451 1.51333200192e-21)
(0.0358612622794 -0.148743890762 -1.36541812163e-21)
(0.0602453271284 -0.180866053116 5.01025090081e-21)
(0.104216988308 -0.184261081505 2.01484014613e-20)
(0.195257466642 -0.146313481974 1.14011549545e-20)
(0.917808313016 -0.147049366675 1.12652465598e-19)
(3.80878192383 -2.67184427811 -5.14497840531e-18)
(-0.00396946517923 -0.0548210870549 2.76130021017e-23)
(0.00317085719892 -0.0645560671688 4.91302728477e-23)
(0.0120709484214 -0.0763300205005 2.13450438218e-22)
(0.0234670610096 -0.0903706205143 3.47585724449e-22)
(0.038291355643 -0.106783587537 1.68565577912e-21)
(0.0586603237671 -0.125634266704 1.24977665133e-21)
(0.0855356441404 -0.148013409135 2.09872684331e-20)
(0.12666596214 -0.141730822288 -6.17784629159e-21)
(0.163920143374 -0.101913111649 -2.26819244718e-20)
(0.545118917458 -0.266294373917 8.66897418834e-20)
(-2.7552302232 0.00636953940626 -1.5866643992e-18)
(0.00457332780087 -0.0478333570578 2.25565838551e-23)
(0.0127990980955 -0.0557928485586 6.10461131401e-23)
(0.0231532253995 -0.065204045678 2.80235020604e-22)
(0.0361726672605 -0.0761086399024 4.02805434178e-22)
(0.052564612096 -0.0882660740101 1.59441073605e-21)
(0.0737342788172 -0.101044327266 6.11463401274e-21)
(0.0996095944585 -0.115026518044 1.87895712655e-20)
(0.136043162665 -0.0941294640951 -1.00223665604e-20)
(0.165215907902 -0.0568039150221 -4.00083337323e-21)
(0.406673457627 -0.115253622055 -6.42526722537e-20)
(-1.21255235769 0.075508749486 -1.09954942859e-18)
(0.020237560539 -0.0459231916585 5.40337383976e-23)
(0.0315174908333 -0.0528673280505 2.09233348957e-22)
(0.0455001189474 -0.0607801882307 4.90452775291e-22)
(0.0625223019457 -0.0693526352066 5.06627100111e-22)
(0.0832416890972 -0.0780548115644 8.68745367134e-21)
(0.106044965322 -0.0873731793305 1.47948150382e-20)
(0.13270221762 -0.0612353000528 -8.0450647655e-21)
(0.140883275771 -0.0340661655114 -1.05335258641e-20)
(0.39178835462 -0.0481343718259 -2.03332360596e-18)
(-3.5286949667 -3.36866160708 7.69777345924e-19)
(0.0253654847775 -0.0354349130752 9.50015642352e-23)
(0.0371867525058 -0.0398500389004 1.26156389282e-22)
(0.0517908396438 -0.0448975648934 3.8651198982e-22)
(0.0693643491448 -0.0505765160262 3.031754889e-22)
(0.0901311643623 -0.0571502364878 -6.9937067229e-22)
(0.111581407239 -0.0665889680277 4.91981570457e-21)
(0.132260020733 -0.0477928939888 -7.74250856837e-21)
(0.137242489027 -0.03009923991 2.85714582148e-21)
(0.610928063435 0.058605447397 -1.07807464854e-18)
(21.5332602389 -10.7600461362 1.94532296185e-18)
(0.0280631059922 -0.0246153077917 1.90103920286e-23)
(0.0400891634927 -0.0263809958244 2.47284807377e-22)
(0.0551957360443 -0.0283989592206 7.0004186048e-22)
(0.073749586831 -0.0310969195799 8.51180377933e-22)
(0.0962336374962 -0.0355997835833 3.44038093732e-22)
(0.120618683634 -0.0470268913722 1.05795455243e-20)
(0.145009271292 -0.0356155462516 -5.32917978934e-21)
(0.17138277303 -0.0200267128313 -1.05731836672e-20)
(1.42619822894 -0.0183925079953 2.71915687603e-19)
(39.6171652166 -8.53679708222 -2.20832757905e-19)
(0.0282337885571 -0.0138864706403 -3.62910587614e-24)
(0.0400064514728 -0.0126943976534 2.47462106226e-22)
(0.0552622857987 -0.0110772953186 1.02330752514e-21)
(0.0749304717689 -0.00974371540889 7.49059604232e-22)
(0.100652330001 -0.0102061025545 1.70062139311e-21)
(0.133002140251 -0.0217095234401 1.6510534233e-20)
(0.172858153987 -0.0195871297381 -1.56202005633e-20)
(0.253727210313 -0.0202104571937 -1.13047886021e-20)
(1.96789092676 -0.168418483629 3.27310156357e-18)
(64.1005931948 -15.2307924496 -9.38181673129e-19)
(0.0257532741396 -0.00379102618426 -4.41383529414e-23)
(0.0365488029023 0.000599832866473 9.21546946705e-23)
(0.0510304893131 0.00659084213088 7.60297613379e-22)
(0.0708020290084 0.0138850494125 2.02409453373e-21)
(0.0989292555454 0.0218456626943 1.06152513656e-20)
(0.139793631101 0.0216682430213 4.7158035505e-21)
(0.201010715404 0.035272463776 -3.08231530126e-21)
(0.362725265745 0.025431192093 -1.73176731087e-20)
(3.62970177814 -0.26077983367 1.58005226874e-18)
(82.178806389 -10.1747555874 -8.34310091497e-19)
(0.0141401116497 -0.000230252752315 3.13372365994e-23)
(0.0206126548665 0.00487221719003 -1.1024832033e-22)
(0.0294303541298 0.0124343312884 6.64750966634e-23)
(0.0416425546806 0.0230653964745 6.61534217052e-22)
(0.0590549802692 0.037496472872 7.95489290309e-22)
(0.0851435147518 0.0572048573208 6.73350930229e-21)
(0.126182549246 0.0784201381212 2.62600112178e-21)
(0.191917097062 0.12709664334 -7.54950283632e-21)
(0.376364703837 0.127153274234 -4.14731209447e-22)
(4.18304879946 -0.0100886474759 9.2313027909e-19)
(67.3059039233 16.7112725602 -6.29550207854e-19)
(0.00904751918114 0.004382051023 1.74836337117e-22)
(0.0132718520448 0.0112123927893 -2.77083288575e-22)
(0.0191161813913 0.021327582987 -2.06462578238e-22)
(0.0273707622208 0.0358324117286 3.51597052988e-22)
(0.0394600099463 0.0563780516574 3.18058090202e-23)
(0.0579404364819 0.0861817130405 1.87558564925e-21)
(0.0866425057825 0.128071253521 -1.57575047869e-21)
(0.126513215754 0.207332843666 -7.28629676086e-21)
(0.217321599757 0.216517587048 -1.5220653493e-20)
(2.73389336652 0.572836795837 1.42726614766e-18)
(31.937925058 24.4776995631 -1.87809898749e-18)
(0.00365630240392 0.00586478578271 -4.77105444492e-23)
(0.00514065456452 0.0135642811705 -1.26496590352e-22)
(0.00720128155765 0.0250158562862 -2.84856822539e-22)
(0.0100667984632 0.0415632328102 1.46171649022e-21)
(0.0143384376382 0.0654029698364 -1.4786667604e-21)
(0.0206684116894 0.100273736818 4.9321792974e-22)
(0.0288479644606 0.148085572188 -2.69379399374e-22)
(0.0394131116663 0.223409661965 -4.23509158959e-20)
(0.055069135505 0.220071873401 -4.80889188657e-20)
(0.51594559607 0.641981352966 -1.6680583373e-18)
(-1.59704261653 9.67822666832 3.40084049823e-18)
)
;

boundaryField
{
    back
    {
        type            calculated;
        value           uniform (0 0 0);
    }
    sides
    {
        type            calculated;
        value           uniform (0 0 0);
    }
    bottom
    {
        type            calculated;
        value           nonuniform List<vector> 0();
    }
    front
    {
        type            calculated;
        value           uniform (0 0 0);
    }
    atmosphere
    {
        type            calculated;
        value           nonuniform List<vector> 
17
(
(-5.83922658425 -0.443751315486 -5.96150698002e-19)
(-0.0474623833105 0.292546294452 -6.4232646346e-19)
(-0.888264982923 1.87091694882 6.84201003687e-19)
(-20.6175275838 1.24646655779 -5.01840443657e-19)
(-7.62593986223 2.21039908016 5.01052843877e-19)
(-9.27060448391 0.506095009039 -2.04511854459e-18)
(24.9184947825 -2.67184427811 -2.92504952716e-18)
(-6.08445483009 0.00636953940626 -2.46973925123e-19)
(0.00733718744398 0.075508749486 2.72669217398e-20)
(-10.7658822413 -3.36866160708 1.66800670845e-18)
(7.72246552789 -10.7600461362 2.46115940544e-18)
(0.169449655915 -8.53679708222 -4.89101768848e-21)
(-11.7667512343 -15.2307924496 1.20213481933e-18)
(-5.4894642165 -10.1747555874 -7.66640054587e-20)
(60.4683156669 16.7112725602 -3.64627049434e-19)
(28.4638856393 24.4776995631 -2.13121609018e-18)
(-1.59704622574 9.67822666832 3.40084288266e-18)
)
;
    }
    floatingObject
    {
        type            calculated;
        value           nonuniform List<vector> 0();
    }
    procBoundary11to9
    {
        type            processor;
        value           nonuniform List<vector> 9((-0.103860316814 -0.0694558752826 -2.19500780583e-23) (-0.114113435553 -0.0798619924578 -5.39286591842e-23) (-0.126435832497 -0.0907328958061 -7.39942422862e-23) (-0.140960657754 -0.101598065407 2.62889608364e-21) (-0.154259090398 -0.106209707035 6.82167525361e-21) (-0.182711684912 -0.122110612423 1.16173116652e-20) (-0.180480008029 -0.117571040013 2.63959814695e-21) (-0.786895045459 -0.146771378944 2.73080508822e-20) (-0.367757494408 -0.229513276837 -1.10117982499e-20));
    }
    procBoundary11to10
    {
        type            processor;
        value           nonuniform List<vector> 
23
(
(-0.0863477660242 -0.0670013872525 2.02480946404e-23)
(-0.0814896309297 -0.0860060339471 6.24634726592e-23)
(-0.0814896309297 -0.0860060339471 6.24634726592e-23)
(-0.067195621357 -0.0918716627836 -3.55183270498e-24)
(-0.067195621357 -0.0918716627836 -3.55183270498e-24)
(-0.0498959091797 -0.079769005018 -2.00648831989e-23)
(-0.0358345939196 -0.0797165528765 -2.7248397243e-25)
(-0.0218384831736 -0.0770461530834 2.91239725437e-23)
(-0.0218384831736 -0.0770461530834 2.91239725437e-23)
(-0.0140893573444 -0.0605919549655 1.07510541173e-22)
(-0.0140893573444 -0.0605919549655 1.07510541173e-22)
(-0.009574081437 -0.0465621103715 6.50593288637e-23)
(-0.00207289020918 -0.0409707557423 4.89271823829e-23)
(0.011205100252 -0.0399321815226 7.24271603184e-24)
(0.011205100252 -0.0399321815226 7.24271603184e-24)
(0.0158799686398 -0.0315004647526 2.98568408257e-23)
(0.018520694601 -0.0228652996567 -6.82538659879e-24)
(0.0191069899762 -0.0144447583117 1.63825003988e-23)
(0.0176370928124 -0.00671158997801 3.48003325665e-24)
(0.0176370928124 -0.00671158997801 3.48003325665e-24)
(0.00925739575681 -0.00350501002517 -3.5020543618e-23)
(0.00593215599909 -8.68339136359e-05 -3.67131393032e-22)
(0.0025616935149 0.000846031506753 -7.22530011365e-23)
)
;
    }
}


// ************************************************************************* //
