/*--------------------------------*- C++ -*----------------------------------*\
| =========                 |                                                 |
| \\      /  F ield         | OpenFOAM: The Open Source CFD Toolbox           |
|  \\    /   O peration     | Version:  v2012                                 |
|   \\  /    A nd           | Website:  www.openfoam.com                      |
|    \\/     M anipulation  |                                                 |
\*---------------------------------------------------------------------------*/
FoamFile
{
    version     2.0;
    format      ascii;
    class       volScalarField;
    location    "5.4";
    object      ddt0(epsilon);
}
// * * * * * * * * * * * * * * * * * * * * * * * * * * * * * * * * * * * * * //

dimensions      [0 2 -4 0 0 0 0];


internalField   nonuniform List<scalar> 
164
(
-0.000236525127124
-0.000249976479577
-0.000272146131872
-0.000279790111619
-0.000282687863935
-0.000284278705555
-0.000285751655977
-0.000287440138744
-0.000237063911449
-0.000250449190498
-0.000272761806272
-0.000280427280032
-0.000283291544204
-0.000284839767761
-0.000286221771279
-0.000287811491806
-0.000289831626477
-0.000292664902242
-0.000297616740141
-0.000237472793816
-0.000250760550728
-0.000273212353537
-0.000280898238438
-0.000283726886548
-0.000285223339555
-0.000286548237405
-0.000288073343952
-0.000290019196044
-0.000292637506895
-0.000297340973136
-0.000307857449241
-0.000334648790606
-0.0002377902848
-0.000250962785059
-0.000273557713376
-0.000281280044766
-0.000284087032078
-0.000285539608555
-0.000286815821016
-0.000288282894938
-0.000290115245043
-0.000292565821466
-0.00029663293218
-0.000305558074655
-0.000327711076034
-0.000387438062319
-0.000238032249599
-0.000251071148747
-0.000273809146804
-0.000281582030056
-0.000284380571782
-0.000285795683094
-0.000287020704661
-0.00028842473826
-0.000290162120125
-0.000292435013834
-0.000295967104868
-0.000303367331087
-0.000321137941711
-0.000367406838348
-0.000238196655309
-0.000251084675838
-0.000273966919118
-0.000281804535316
-0.000284606484175
-0.000285990966685
-0.000287163734467
-0.000288497882316
-0.000290130731315
-0.000292225395904
-0.000295297603604
-0.000301286681916
-0.000315174949586
-0.000351764565183
-0.000238276395629
-0.000250995764001
-0.000274025424258
-0.000281940800658
-0.000284759414644
-0.000286121190231
-0.000287243651025
-0.000288502545211
-0.00029002741974
-0.00029194644786
-0.000294642514458
-0.000299564402113
-0.00031067935299
-0.000340789466169
-0.000238302012124
-0.000250803840269
-0.000273980251904
-0.000281985480095
-0.000284833530782
-0.000286181869594
-0.000287259454424
-0.00028844534125
-0.000289866017353
-0.000291628049839
-0.000294039645368
-0.000298243441998
-0.000307609584095
-0.000333718643705
-0.000238299742769
-0.000250527450157
-0.000273832916364
-0.000281938681838
-0.000284829768055
-0.00028617447516
-0.000287214536066
-0.000288334521617
-0.000289660662291
-0.000291290779187
-0.000293496914277
-0.000297241248984
-0.000305527068154
-0.000328741551835
-0.000238259279391
-0.000250172698445
-0.000273598597536
-0.000281814831147
-0.000284760692243
-0.000286111575915
-0.000287121769425
-0.000288184115135
-0.000289426727514
-0.000290947660411
-0.000293004546551
-0.000296450660504
-0.000304075936949
-0.000325363294035
-0.000399480726195
-0.000721168750029
-0.000238168672249
-0.000249744212707
-0.000273287234192
-0.000281620629949
-0.00028462967735
-0.000285992700605
-0.000286978929598
-0.000287989413368
-0.0002891583448
-0.00029058660342
-0.000292529680564
-0.0002958044011
-0.000303053176269
-0.000323301677824
-0.000394398577899
-0.00070927440768
-0.000238021553548
-0.000249242031765
-0.000272893676127
-0.000281346298171
-0.000284421444549
-0.00028580029989
-0.000286765126894
-0.000287729540319
-0.000288831995727
-0.000290179526586
-0.000292029110905
-0.000295190470052
-0.000302207117636
-0.000321899753184
-0.000391783722833
-0.000701052154604
)
;

boundaryField
{
    back
    {
        type            calculated;
        value           nonuniform List<scalar> 
164
(
-0.000236525127124
-0.000249976479577
-0.000272146131872
-0.000279790111619
-0.000282687863935
-0.000284278705555
-0.000285751655977
-0.000287440138744
-0.000237063911449
-0.000250449190498
-0.000272761806272
-0.000280427280032
-0.000283291544204
-0.000284839767761
-0.000286221771279
-0.000287811491806
-0.000289831626477
-0.000292664902242
-0.000297616740141
-0.000237472793816
-0.000250760550728
-0.000273212353537
-0.000280898238438
-0.000283726886548
-0.000285223339555
-0.000286548237405
-0.000288073343952
-0.000290019196044
-0.000292637506895
-0.000297340973136
-0.000307857449241
-0.000334648790606
-0.0002377902848
-0.000250962785059
-0.000273557713376
-0.000281280044766
-0.000284087032078
-0.000285539608555
-0.000286815821016
-0.000288282894938
-0.000290115245043
-0.000292565821466
-0.00029663293218
-0.000305558074655
-0.000327711076034
-0.000387438062319
-0.000238032249599
-0.000251071148747
-0.000273809146804
-0.000281582030056
-0.000284380571782
-0.000285795683094
-0.000287020704661
-0.00028842473826
-0.000290162120125
-0.000292435013834
-0.000295967104868
-0.000303367331087
-0.000321137941711
-0.000367406838348
-0.000238196655309
-0.000251084675838
-0.000273966919118
-0.000281804535316
-0.000284606484175
-0.000285990966685
-0.000287163734467
-0.000288497882316
-0.000290130731315
-0.000292225395904
-0.000295297603604
-0.000301286681916
-0.000315174949586
-0.000351764565183
-0.000238276395629
-0.000250995764001
-0.000274025424258
-0.000281940800658
-0.000284759414644
-0.000286121190231
-0.000287243651025
-0.000288502545211
-0.00029002741974
-0.00029194644786
-0.000294642514458
-0.000299564402113
-0.00031067935299
-0.000340789466169
-0.000238302012124
-0.000250803840269
-0.000273980251904
-0.000281985480095
-0.000284833530782
-0.000286181869594
-0.000287259454424
-0.00028844534125
-0.000289866017353
-0.000291628049839
-0.000294039645368
-0.000298243441998
-0.000307609584095
-0.000333718643705
-0.000238299742769
-0.000250527450157
-0.000273832916364
-0.000281938681838
-0.000284829768055
-0.00028617447516
-0.000287214536066
-0.000288334521617
-0.000289660662291
-0.000291290779187
-0.000293496914277
-0.000297241248984
-0.000305527068154
-0.000328741551835
-0.000238259279391
-0.000250172698445
-0.000273598597536
-0.000281814831147
-0.000284760692243
-0.000286111575915
-0.000287121769425
-0.000288184115135
-0.000289426727514
-0.000290947660411
-0.000293004546551
-0.000296450660504
-0.000304075936949
-0.000325363294035
-0.000399480726195
-0.000721168750029
-0.000238168672249
-0.000249744212707
-0.000273287234192
-0.000281620629949
-0.00028462967735
-0.000285992700605
-0.000286978929598
-0.000287989413368
-0.0002891583448
-0.00029058660342
-0.000292529680564
-0.0002958044011
-0.000303053176269
-0.000323301677824
-0.000394398577899
-0.00070927440768
-0.000238021553548
-0.000249242031765
-0.000272893676127
-0.000281346298171
-0.000284421444549
-0.00028580029989
-0.000286765126894
-0.000287729540319
-0.000288831995727
-0.000290179526586
-0.000292029110905
-0.000295190470052
-0.000302207117636
-0.000321899753184
-0.000391783722833
-0.000701052154604
)
;
    }
    sides
    {
        type            calculated;
        value           nonuniform List<scalar> 0();
    }
    bottom
    {
        type            calculated;
        value           nonuniform List<scalar> 
12
(
-0.000236525127124
-0.000237063911449
-0.000237472793816
-0.0002377902848
-0.000238032249599
-0.000238196655309
-0.000238276395629
-0.000238302012124
-0.000238299742769
-0.000238259279391
-0.000238168672249
-0.000238021553548
)
;
    }
    front
    {
        type            calculated;
        value           nonuniform List<scalar> 
164
(
-0.000236525127124
-0.000249976479577
-0.000272146131872
-0.000279790111619
-0.000282687863935
-0.000284278705555
-0.000285751655977
-0.000287440138744
-0.000237063911449
-0.000250449190498
-0.000272761806272
-0.000280427280032
-0.000283291544204
-0.000284839767761
-0.000286221771279
-0.000287811491806
-0.000289831626477
-0.000292664902242
-0.000297616740141
-0.000237472793816
-0.000250760550728
-0.000273212353537
-0.000280898238438
-0.000283726886548
-0.000285223339555
-0.000286548237405
-0.000288073343952
-0.000290019196044
-0.000292637506895
-0.000297340973136
-0.000307857449241
-0.000334648790606
-0.0002377902848
-0.000250962785059
-0.000273557713376
-0.000281280044766
-0.000284087032078
-0.000285539608555
-0.000286815821016
-0.000288282894938
-0.000290115245043
-0.000292565821466
-0.00029663293218
-0.000305558074655
-0.000327711076034
-0.000387438062319
-0.000238032249599
-0.000251071148747
-0.000273809146804
-0.000281582030056
-0.000284380571782
-0.000285795683094
-0.000287020704661
-0.00028842473826
-0.000290162120125
-0.000292435013834
-0.000295967104868
-0.000303367331087
-0.000321137941711
-0.000367406838348
-0.000238196655309
-0.000251084675838
-0.000273966919118
-0.000281804535316
-0.000284606484175
-0.000285990966685
-0.000287163734467
-0.000288497882316
-0.000290130731315
-0.000292225395904
-0.000295297603604
-0.000301286681916
-0.000315174949586
-0.000351764565183
-0.000238276395629
-0.000250995764001
-0.000274025424258
-0.000281940800658
-0.000284759414644
-0.000286121190231
-0.000287243651025
-0.000288502545211
-0.00029002741974
-0.00029194644786
-0.000294642514458
-0.000299564402113
-0.00031067935299
-0.000340789466169
-0.000238302012124
-0.000250803840269
-0.000273980251904
-0.000281985480095
-0.000284833530782
-0.000286181869594
-0.000287259454424
-0.00028844534125
-0.000289866017353
-0.000291628049839
-0.000294039645368
-0.000298243441998
-0.000307609584095
-0.000333718643705
-0.000238299742769
-0.000250527450157
-0.000273832916364
-0.000281938681838
-0.000284829768055
-0.00028617447516
-0.000287214536066
-0.000288334521617
-0.000289660662291
-0.000291290779187
-0.000293496914277
-0.000297241248984
-0.000305527068154
-0.000328741551835
-0.000238259279391
-0.000250172698445
-0.000273598597536
-0.000281814831147
-0.000284760692243
-0.000286111575915
-0.000287121769425
-0.000288184115135
-0.000289426727514
-0.000290947660411
-0.000293004546551
-0.000296450660504
-0.000304075936949
-0.000325363294035
-0.000399480726195
-0.000721168750029
-0.000238168672249
-0.000249744212707
-0.000273287234192
-0.000281620629949
-0.00028462967735
-0.000285992700605
-0.000286978929598
-0.000287989413368
-0.0002891583448
-0.00029058660342
-0.000292529680564
-0.0002958044011
-0.000303053176269
-0.000323301677824
-0.000394398577899
-0.00070927440768
-0.000238021553548
-0.000249242031765
-0.000272893676127
-0.000281346298171
-0.000284421444549
-0.00028580029989
-0.000286765126894
-0.000287729540319
-0.000288831995727
-0.000290179526586
-0.000292029110905
-0.000295190470052
-0.000302207117636
-0.000321899753184
-0.000391783722833
-0.000701052154604
)
;
    }
    atmosphere
    {
        type            calculated;
        value           nonuniform List<scalar> 0();
    }
    floatingObject
    {
        type            calculated;
        value           nonuniform List<scalar> 0();
    }
    procBoundary7to6
    {
        type            processor;
        value           nonuniform List<scalar> 
11
(
-0.000548521944618
-0.000503949045309
-0.000465863943533
-0.000440607300892
-0.000423450039307
-0.000409281425511
-0.000409281425511
-0.000751677338725
-0.00210115154025
-0.00208757346209
-0.00206869408235
)
;
    }
    procBoundary7to8
    {
        type            processor;
        value           nonuniform List<scalar> 
17
(
-0.00023588521172
-0.000249429815173
-0.000271497976068
-0.000279178604887
-0.000282167691402
-0.000283888262571
-0.000285446741976
-0.00028724977431
-0.000289500309586
-0.000289500309586
-0.000292631177955
-0.000297187271278
-0.000308588082407
-0.000308588082407
-0.000335304458321
-0.000400726762604
-0.000400726762604
)
;
    }
    procBoundary7to9
    {
        type            processor;
        value           nonuniform List<scalar> 
16
(
-0.000237831967306
-0.00024869696593
-0.000272449936265
-0.000281019591513
-0.000284162581255
-0.000285557670032
-0.000286504141033
-0.000287425225375
-0.000288467768661
-0.000289744852709
-0.000291514536824
-0.000294580336956
-0.000301377750882
-0.00032036707033
-0.000386947995492
-0.000675114585152
)
;
    }
}


// ************************************************************************* //
