/*--------------------------------*- C++ -*----------------------------------*\
| =========                 |                                                 |
| \\      /  F ield         | OpenFOAM: The Open Source CFD Toolbox           |
|  \\    /   O peration     | Version:  v2012                                 |
|   \\  /    A nd           | Website:  www.openfoam.com                      |
|    \\/     M anipulation  |                                                 |
\*---------------------------------------------------------------------------*/
FoamFile
{
    version     2.0;
    format      ascii;
    class       volScalarField;
    location    "5.4";
    object      k_0;
}
// * * * * * * * * * * * * * * * * * * * * * * * * * * * * * * * * * * * * * //

dimensions      [0 2 -2 0 0 0 0];


internalField   nonuniform List<scalar> 
164
(
0.00126938492716
0.00157952430589
0.00168468190496
0.00172674912195
0.00174527690991
0.00175545199887
0.00176314419723
0.0017706121616
0.00127383315012
0.0015846849179
0.00169000504506
0.00173187539201
0.00175005342089
0.00175984102121
0.00176714565592
0.00177421990677
0.00178204276098
0.0017916122583
0.00180565290685
0.00127777912387
0.00158929016018
0.00169475317849
0.00173644250243
0.00175430663276
0.00176375343512
0.00177071787707
0.00177744436615
0.00178488458534
0.00179396599222
0.00180711116835
0.00183185634615
0.00188940652126
0.00128123486008
0.00159335456762
0.00169893156829
0.00174045068075
0.00175803312471
0.00176717978405
0.00177384707304
0.00178027021857
0.00178736884491
0.00179596099716
0.00180811399342
0.00183026565706
0.00188106446493
0.00201128258952
0.00128421178928
0.00159687797696
0.0017025413134
0.00174390462797
0.00176123699051
0.00177012221705
0.0017765336438
0.00178269586103
0.00178949695185
0.00179765123191
0.00180886816313
0.00182848234919
0.00187252550787
0.001987450599
0.00128671700557
0.00159985469565
0.00170558606957
0.00174681100509
0.00176392543612
0.00177258610521
0.00177878086136
0.0017847231398
0.00179127645974
0.00179907704868
0.00180956048372
0.0018272147502
0.00186605205084
0.00196930789513
0.00128877044766
0.00160229954082
0.00170807959507
0.00174917745452
0.00176610522273
0.0017745767553
0.00178058970763
0.0017863491407
0.00179270230897
0.00180024000096
0.00181023234013
0.00182665932543
0.00186234363355
0.0019588803239
0.00129041644646
0.00160425194351
0.00171004200356
0.0017510192211
0.00176778421352
0.00177609700353
0.00178195905709
0.00178756772885
0.00179376118621
0.00180111208501
0.00181081812488
0.00182662062662
0.00186077467826
0.00195417485645
0.00129167323619
0.00160575319448
0.00171149116589
0.00175234659203
0.00176897153408
0.00177715183299
0.00178288884105
0.00178837319159
0.00179443926615
0.00180165952214
0.00181121958336
0.00182679228221
0.00186042739297
0.00195281428405
0.00129252032385
0.00160679052475
0.00171244480954
0.00175317889014
0.0017696794397
0.00177774777497
0.00178338084279
0.00178876276606
0.0017947273275
0.00180185667436
0.00181135845471
0.0018269333188
0.00186065651594
0.00195350472281
0.00224371615656
0.00312776570189
0.00129295187006
0.00160737945484
0.00171292407281
0.00175353354709
0.00176992025014
0.00177789235753
0.00178343919442
0.00178873780139
0.00179462272355
0.00180169095077
0.00181118846013
0.00182689023579
0.00186100352673
0.00195511006803
0.00224947262501
0.00314145923692
0.00129296827719
0.00160754907228
0.00171295050189
0.00175342622349
0.00176970508521
0.00177759361795
0.00178307045477
0.00178830401136
0.0017941305727
0.00180116429297
0.00181069391016
0.00182657499255
0.00186112851007
0.00195617773139
0.00225252228772
0.00314644032678
)
;

boundaryField
{
    back
    {
        type            kqRWallFunction;
        value           nonuniform List<scalar> 
164
(
0.00126938492716
0.00157952430589
0.00168468190496
0.00172674912195
0.00174527690991
0.00175545199887
0.00176314419723
0.0017706121616
0.00127383315012
0.0015846849179
0.00169000504506
0.00173187539201
0.00175005342089
0.00175984102121
0.00176714565592
0.00177421990677
0.00178204276098
0.0017916122583
0.00180565290685
0.00127777912387
0.00158929016018
0.00169475317849
0.00173644250243
0.00175430663276
0.00176375343512
0.00177071787707
0.00177744436615
0.00178488458534
0.00179396599222
0.00180711116835
0.00183185634615
0.00188940652126
0.00128123486008
0.00159335456762
0.00169893156829
0.00174045068075
0.00175803312471
0.00176717978405
0.00177384707304
0.00178027021857
0.00178736884491
0.00179596099716
0.00180811399342
0.00183026565706
0.00188106446493
0.00201128258952
0.00128421178928
0.00159687797696
0.0017025413134
0.00174390462797
0.00176123699051
0.00177012221705
0.0017765336438
0.00178269586103
0.00178949695185
0.00179765123191
0.00180886816313
0.00182848234919
0.00187252550787
0.001987450599
0.00128671700557
0.00159985469565
0.00170558606957
0.00174681100509
0.00176392543612
0.00177258610521
0.00177878086136
0.0017847231398
0.00179127645974
0.00179907704868
0.00180956048372
0.0018272147502
0.00186605205084
0.00196930789513
0.00128877044766
0.00160229954082
0.00170807959507
0.00174917745452
0.00176610522273
0.0017745767553
0.00178058970763
0.0017863491407
0.00179270230897
0.00180024000096
0.00181023234013
0.00182665932543
0.00186234363355
0.0019588803239
0.00129041644646
0.00160425194351
0.00171004200356
0.0017510192211
0.00176778421352
0.00177609700353
0.00178195905709
0.00178756772885
0.00179376118621
0.00180111208501
0.00181081812488
0.00182662062662
0.00186077467826
0.00195417485645
0.00129167323619
0.00160575319448
0.00171149116589
0.00175234659203
0.00176897153408
0.00177715183299
0.00178288884105
0.00178837319159
0.00179443926615
0.00180165952214
0.00181121958336
0.00182679228221
0.00186042739297
0.00195281428405
0.00129252032385
0.00160679052475
0.00171244480954
0.00175317889014
0.0017696794397
0.00177774777497
0.00178338084279
0.00178876276606
0.0017947273275
0.00180185667436
0.00181135845471
0.0018269333188
0.00186065651594
0.00195350472281
0.00224371615656
0.00312776570189
0.00129295187006
0.00160737945484
0.00171292407281
0.00175353354709
0.00176992025014
0.00177789235753
0.00178343919442
0.00178873780139
0.00179462272355
0.00180169095077
0.00181118846013
0.00182689023579
0.00186100352673
0.00195511006803
0.00224947262501
0.00314145923692
0.00129296827719
0.00160754907228
0.00171295050189
0.00175342622349
0.00176970508521
0.00177759361795
0.00178307045477
0.00178830401136
0.0017941305727
0.00180116429297
0.00181069391016
0.00182657499255
0.00186112851007
0.00195617773139
0.00225252228772
0.00314644032678
)
;
    }
    sides
    {
        type            kqRWallFunction;
        value           nonuniform List<scalar> 0();
    }
    bottom
    {
        type            kqRWallFunction;
        value           nonuniform List<scalar> 
12
(
0.00126938492716
0.00127383315012
0.00127777912387
0.00128123486008
0.00128421178928
0.00128671700557
0.00128877044766
0.00129041644646
0.00129167323619
0.00129252032385
0.00129295187006
0.00129296827719
)
;
    }
    front
    {
        type            kqRWallFunction;
        value           nonuniform List<scalar> 
164
(
0.00126938492716
0.00157952430589
0.00168468190496
0.00172674912195
0.00174527690991
0.00175545199887
0.00176314419723
0.0017706121616
0.00127383315012
0.0015846849179
0.00169000504506
0.00173187539201
0.00175005342089
0.00175984102121
0.00176714565592
0.00177421990677
0.00178204276098
0.0017916122583
0.00180565290685
0.00127777912387
0.00158929016018
0.00169475317849
0.00173644250243
0.00175430663276
0.00176375343512
0.00177071787707
0.00177744436615
0.00178488458534
0.00179396599222
0.00180711116835
0.00183185634615
0.00188940652126
0.00128123486008
0.00159335456762
0.00169893156829
0.00174045068075
0.00175803312471
0.00176717978405
0.00177384707304
0.00178027021857
0.00178736884491
0.00179596099716
0.00180811399342
0.00183026565706
0.00188106446493
0.00201128258952
0.00128421178928
0.00159687797696
0.0017025413134
0.00174390462797
0.00176123699051
0.00177012221705
0.0017765336438
0.00178269586103
0.00178949695185
0.00179765123191
0.00180886816313
0.00182848234919
0.00187252550787
0.001987450599
0.00128671700557
0.00159985469565
0.00170558606957
0.00174681100509
0.00176392543612
0.00177258610521
0.00177878086136
0.0017847231398
0.00179127645974
0.00179907704868
0.00180956048372
0.0018272147502
0.00186605205084
0.00196930789513
0.00128877044766
0.00160229954082
0.00170807959507
0.00174917745452
0.00176610522273
0.0017745767553
0.00178058970763
0.0017863491407
0.00179270230897
0.00180024000096
0.00181023234013
0.00182665932543
0.00186234363355
0.0019588803239
0.00129041644646
0.00160425194351
0.00171004200356
0.0017510192211
0.00176778421352
0.00177609700353
0.00178195905709
0.00178756772885
0.00179376118621
0.00180111208501
0.00181081812488
0.00182662062662
0.00186077467826
0.00195417485645
0.00129167323619
0.00160575319448
0.00171149116589
0.00175234659203
0.00176897153408
0.00177715183299
0.00178288884105
0.00178837319159
0.00179443926615
0.00180165952214
0.00181121958336
0.00182679228221
0.00186042739297
0.00195281428405
0.00129252032385
0.00160679052475
0.00171244480954
0.00175317889014
0.0017696794397
0.00177774777497
0.00178338084279
0.00178876276606
0.0017947273275
0.00180185667436
0.00181135845471
0.0018269333188
0.00186065651594
0.00195350472281
0.00224371615656
0.00312776570189
0.00129295187006
0.00160737945484
0.00171292407281
0.00175353354709
0.00176992025014
0.00177789235753
0.00178343919442
0.00178873780139
0.00179462272355
0.00180169095077
0.00181118846013
0.00182689023579
0.00186100352673
0.00195511006803
0.00224947262501
0.00314145923692
0.00129296827719
0.00160754907228
0.00171295050189
0.00175342622349
0.00176970508521
0.00177759361795
0.00178307045477
0.00178830401136
0.0017941305727
0.00180116429297
0.00181069391016
0.00182657499255
0.00186112851007
0.00195617773139
0.00225252228772
0.00314644032678
)
;
    }
    atmosphere
    {
        type            inletOutlet;
        inletValue      nonuniform List<scalar> 0();
        value           nonuniform List<scalar> 0();
    }
    floatingObject
    {
        type            kqRWallFunction;
        value           nonuniform List<scalar> 0();
    }
    procBoundary7to6
    {
        type            processor;
        value           nonuniform List<scalar> 
11
(
0.00236289903007
0.00231174862674
0.00227382881295
0.00225286118673
0.00224346723151
0.00224086373916
0.00224086373916
0.00312012461155
0.00537188542857
0.00537245293664
0.00535902068697
)
;
    }
    procBoundary7to8
    {
        type            processor;
        value           nonuniform List<scalar> 
17
(
0.00126439796244
0.00157375919361
0.00167874891375
0.00172103388287
0.00173994702841
0.00175055318356
0.00175869057481
0.0017666104116
0.00177885419928
0.00177885419928
0.00178890031697
0.0018036853577
0.00183250190864
0.00183250190864
0.00189510813064
0.0020350095786
0.0020350095786
)
;
    }
    procBoundary7to9
    {
        type            processor;
        value           nonuniform List<scalar> 
16
(
0.00129256241798
0.00160730263242
0.00171253253624
0.00175286518806
0.00176904031386
0.00177685819218
0.00178228142319
0.00178746926696
0.00179326051455
0.0018002874559
0.00180988180888
0.00182595348359
0.00186084132155
0.00195591391132
0.00224973471841
0.00313485969034
)
;
    }
}


// ************************************************************************* //
