/*--------------------------------*- C++ -*----------------------------------*\
| =========                 |                                                 |
| \\      /  F ield         | OpenFOAM: The Open Source CFD Toolbox           |
|  \\    /   O peration     | Version:  v2012                                 |
|   \\  /    A nd           | Website:  www.openfoam.com                      |
|    \\/     M anipulation  |                                                 |
\*---------------------------------------------------------------------------*/
FoamFile
{
    version     2.0;
    format      ascii;
    class       surfaceScalarField;
    location    "5.4";
    object      phi;
}
// * * * * * * * * * * * * * * * * * * * * * * * * * * * * * * * * * * * * * //

dimensions      [0 3 -1 0 0 0 0];
oriented        oriented;


internalField   nonuniform List<scalar> 
300
(
8.33955014038e-06
-0.000135802016943
1.68151113999e-05
-0.00014244650981
2.54130810546e-05
-0.000148807681109
3.41166338426e-05
-0.000154227944033
4.29046422362e-05
-0.00015872967844
5.1743458852e-05
-0.000163058975759
6.05813425463e-05
-0.000167801380193
-0.000173253668789
7.74331090054e-06
-0.000143537853804
1.55584295533e-05
-0.000150255292273
2.34333383566e-05
-0.000156678678171
3.13514623959e-05
-0.000162145528542
3.92957881231e-05
-0.000166677338763
4.72375620621e-05
-0.000171008405273
5.51297988052e-05
-0.000175705732955
6.29116472153e-05
-0.000181052268927
7.04877632139e-05
-0.000187175698718
7.77091808856e-05
-0.000194062121735
-0.000201639641982
7.10668589975e-06
-0.000150638860862
1.4240402585e-05
-0.000157384462518
2.13811122184e-05
-0.000163817114008
2.85335440988e-05
-0.000169298806272
3.56658248874e-05
-0.000173814032611
4.27494409042e-05
-0.000178100106091
4.97872503005e-05
-0.000182755203805
5.66677641094e-05
-0.000187947496695
6.3315109845e-05
-0.000193839779887
6.96150800547e-05
-0.000200379184745
7.54740558944e-05
-0.000207515429095
8.04784298684e-05
-0.000215197248046
-0.000224326939325
6.43819711554e-06
-0.000157072837654
1.28741692212e-05
-0.00016381734045
1.92919500317e-05
-0.000170233951686
2.56909348857e-05
-0.000175699746361
3.20527443313e-05
-0.000180181056947
3.83671056655e-05
-0.000184422902741
4.45908899884e-05
-0.000188990290184
5.07262937597e-05
-0.000194096289734
5.66821040784e-05
-0.000199809735587
6.23669511462e-05
-0.000206077520015
6.76578624038e-05
-0.000212817923509
7.24893702913e-05
-0.000220036354594
7.65545074358e-05
-0.000228393065889
-0.000240902460881
5.75381342801e-06
-0.00016282354582
1.14916472572e-05
-0.000169553131673
1.7187760059e-05
-0.000175929986355
2.28443130664e-05
-0.000181358816556
2.84664880443e-05
-0.000185808611749
3.40516684655e-05
-0.00019001617691
3.95792138613e-05
-0.000194528163697
4.50458300406e-05
-0.000199574502465
5.04192056843e-05
-0.000205194656394
5.56894798468e-05
-0.000211357768722
6.07979257415e-05
-0.000217933549623
6.56989216585e-05
-0.000224940318613
7.02125001502e-05
-0.000232903551369
-0.000244175650146
5.0732537574e-06
-0.000167894472436
1.01144309799e-05
-0.00017459293999
1.50816495067e-05
-0.000180897542854
2.00062859334e-05
-0.000186285991164
2.49013708585e-05
-0.000190708596448
2.97763321254e-05
-0.0001948981754
3.46381214528e-05
-0.000199398561446
3.94843282885e-05
-0.000204429938301
4.43416435606e-05
-0.000210060524803
4.9187168444e-05
-0.000216209851445
5.41008020332e-05
-0.000222850706504
5.90913460477e-05
-0.000229929948482
6.40175526769e-05
-0.000237823183826
-0.000248249452007
4.39960172174e-06
-0.000172292283307
8.73136452753e-06
-0.000178923751563
1.298756584e-05
-0.000185154196769
1.71731030527e-05
-0.000190473728571
2.13377531841e-05
-0.000194877254406
2.55086943435e-05
-0.000199074662319
2.96991549392e-05
-0.000203595524321
3.39290954896e-05
-0.000208666467124
3.82035099248e-05
-0.000214340498594
4.26005583351e-05
-0.000220610381267
4.71641309819e-05
-0.000227414927522
5.1959189275e-05
-0.000234721443564
5.68867712024e-05
-0.000242742264317
-0.00025265903075
3.71253401233e-06
-0.000176003475221
7.31209265406e-06
-0.000182522686205
1.08214897699e-05
-0.000188664050963
1.42888421042e-05
-0.000193942819197
1.77385286764e-05
-0.000198329938559
2.11988478409e-05
-0.000202538957567
2.46942763689e-05
-0.000207095378634
2.8253099306e-05
-0.000212229433738
3.19144831795e-05
-0.000218004879755
3.57205493933e-05
-0.000224417545629
3.97528419413e-05
-0.000231445951118
4.40602913042e-05
-0.000239024050377
4.85950566264e-05
-0.000247268277216
-0.000256867038884
2.98191124942e-06
-0.000178984529368
5.86082443233e-06
-0.000185401333527
8.64269353009e-06
-0.000191446416803
1.13680096026e-05
-0.000196669470143
1.40800939353e-05
-0.000201044118484
1.68130010564e-05
-0.00020527446424
1.95967212136e-05
-0.00020988177396
2.24619486083e-05
-0.000215096859201
2.54451244225e-05
-0.000220989173878
2.85961922969e-05
-0.000227568180826
3.19626575545e-05
-0.000234810209801
3.56213725904e-05
-0.000242677853119
3.95258266802e-05
-0.000251165824836
-0.000260696303628
2.24374070731e-06
-0.000181228242713
4.38222260336e-06
-0.00018754016442
6.41520605753e-06
-0.000193480173128
8.3878882415e-06
-0.000198643321574
1.03476962803e-05
-0.000203005382293
1.23364561676e-05
-0.000207264755235
1.43884191369e-05
-0.000211935053855
1.65323686653e-05
-0.000217241561836
1.8803126084e-05
-0.000223259784698
2.12433521891e-05
-0.000230007139293
2.38944439047e-05
-0.000237458893307
2.68233564421e-05
-0.000245603172583
3.01184053366e-05
-0.000254456024411
3.35106415431e-05
-0.000264082514297
3.62032985246e-05
-0.000275990921982
-0.00029041175381
1.50240210527e-06
-0.000182731546182
2.88099316702e-06
-0.000188919817367
4.1470828003e-06
-0.000194747389846
5.35111678391e-06
-0.000199848450086
6.53873958311e-06
-0.000204193945004
7.77206744493e-06
-0.00020849875264
9.07638080264e-06
-0.000213239627409
1.04801910209e-05
-0.000218645105127
1.20175112203e-05
-0.000224796205643
1.37304420247e-05
-0.000231718525036
1.56649945026e-05
-0.000239391344563
1.79391644294e-05
-0.000247874822719
2.03225722972e-05
-0.000256836525199
2.29026534524e-05
-0.000266659433224
2.50866854493e-05
-0.000278172330321
-0.000291939231841
7.38635627775e-07
1.34979443484e-06
1.83762429884e-06
2.25903770798e-06
2.66593822834e-06
3.12749317603e-06
3.66305253012e-06
4.3131631214e-06
5.11932766771e-06
6.1161760697e-06
7.35701112861e-06
8.83216686064e-06
1.06082055139e-05
1.24189318532e-05
1.38915793416e-05
)
;

boundaryField
{
    back
    {
        type            calculated;
        value           uniform 0;
    }
    sides
    {
        type            calculated;
        value           nonuniform List<scalar> 0();
    }
    bottom
    {
        type            calculated;
        value           uniform 0;
    }
    front
    {
        type            calculated;
        value           uniform 0;
    }
    atmosphere
    {
        type            calculated;
        value           nonuniform List<scalar> 0();
    }
    floatingObject
    {
        type            calculated;
        value           nonuniform List<scalar> 0();
    }
    procBoundary7to6
    {
        type            processor;
        value           nonuniform List<scalar> 
11
(
7.92514299769e-05
7.34922242852e-05
6.81009195609e-05
6.13071413736e-05
5.28136182312e-05
4.33636587945e-05
0.000273308793715
0.00028934686663
3.72753280409e-05
2.66155770598e-05
1.49520373995e-05
)
;
    }
    procBoundary7to8
    {
        type            processor;
        value           nonuniform List<scalar> 
17
(
0.000127477515803
0.000133984393497
0.000140219196509
0.000145528227643
0.000149938908841
0.000154209190007
0.000158945959264
0.000164479868791
6.9331086284e-05
0.000179568234349
0.000186810369785
0.000195015422414
8.43043116015e-05
0.000210171398402
0.000220571853604
8.4218688509e-05
0.000238203295556
)
;
    }
    procBoundary7to9
    {
        type            processor;
        value           nonuniform List<scalar> 
16
(
-0.000183471601535
-0.000189532399934
-0.000195236470681
-0.00020027079174
-0.000204601369964
-0.000208960375941
-0.000213774812165
-0.000219294429867
-0.000225601238141
-0.000232713983399
-0.000240630646124
-0.00024934843464
-0.000258611138068
-0.000268468937497
-0.000279644373874
-0.000292999368147
)
;
    }
}


// ************************************************************************* //
