/*--------------------------------*- C++ -*----------------------------------*\
| =========                 |                                                 |
| \\      /  F ield         | OpenFOAM: The Open Source CFD Toolbox           |
|  \\    /   O peration     | Version:  v2012                                 |
|   \\  /    A nd           | Website:  www.openfoam.com                      |
|    \\/     M anipulation  |                                                 |
\*---------------------------------------------------------------------------*/
FoamFile
{
    version     2.0;
    format      ascii;
    class       surfaceScalarField;
    location    "1.5";
    object      alphaPhi0.water;
}
// * * * * * * * * * * * * * * * * * * * * * * * * * * * * * * * * * * * * * //

dimensions      [0 3 -1 0 0 0 0];
oriented        oriented;


internalField   nonuniform List<scalar> 
306
(
-9.92926650948e-05
1.27809655681e-05
-0.000112796629988
1.35041125878e-05
-0.000127148605209
1.43521673008e-05
-0.000142334496502
1.51860827789e-05
-0.000157702523408
1.53682103924e-05
-0.000171648169008
1.39458291394e-05
-0.00018396494008
1.23169517808e-05
-0.000205273033569
2.13080905221e-05
-0.00012504034878
4.01832321618e-05
-1.18681741915e-11
1.63830686242e-05
2.13064955551e-19
4.62878474538e-14
-1.30020008745e-21
-0.000112319748694
2.70764161792e-05
-0.000127366859025
2.85513978856e-05
-0.000143342729237
3.03282515005e-05
-0.000160567297308
3.24108577621e-05
-0.000179871385296
3.46725079848e-05
-0.000202909980061
3.69846013939e-05
-0.000231122454906
4.05296299203e-05
-0.000260692437189
5.0877977785e-05
-0.000145435253756
5.89831525592e-05
-4.90849612293e-12
1.06971817462e-05
-6.68874679547e-20
-1.2177616351e-13
6.68140552114e-22
-0.000114374967246
-0.000129525437282
4.37021298695e-05
-0.000145569990981
4.63730504055e-05
-0.000162736596617
4.9577694161e-05
-0.000181444647298
5.33807905272e-05
-0.000202357289696
5.78974546026e-05
-0.000225584906123
6.37574465537e-05
-0.000248343906323
7.36369318237e-05
-0.00013902967992
7.67673724655e-05
-2.91052820706e-11
1.10027785277e-05
1.25238007085e-19
1.1854876389e-14
1.04472594058e-21
-0.000127799812773
-0.000143401449717
6.1974957692e-05
-0.000159998217056
6.61747685167e-05
-0.000177807617323
7.11904652008e-05
-0.000197026383063
7.71164657693e-05
-0.000217436925091
8.41682397127e-05
-0.000237346045998
9.354608175e-05
-0.00013516733816
9.3580786107e-05
-2.76298277823e-11
1.18256041468e-05
2.93731054796e-19
2.3079950803e-14
-1.63422162105e-22
-0.000139359759586
7.68571814325e-05
-0.000155069142355
8.18844868745e-05
-0.000171741225004
8.78628702722e-05
-0.000189430016971
9.480554919e-05
-0.000207861192409
0.000102599704402
-0.000225872561599
0.000111557549087
-0.000131317872455
0.000109589817134
-2.44241081422e-11
1.3564355953e-05
2.32622179831e-19
4.68192312349e-14
-8.21836419874e-22
-0.000134312035901
9.08600380407e-05
-0.000148948461173
9.65213008986e-05
-0.000164300290501
0.000103215073878
-0.00018037413642
0.00011087973672
-0.000196944609097
0.000119170514896
-0.00021337046928
0.000127983589668
-0.000127780472297
0.000125444093104
-1.88067053507e-11
1.62599697035e-05
8.97385785275e-20
9.51906431841e-14
-1.64957504411e-21
-0.000128593408594
0.000103886731725
-0.000142061449523
0.00010998978113
-0.000156020179406
0.000117174235
-0.000170466467295
0.000125326416065
-0.000185240192437
0.000133944629204
-0.000200018910914
0.000142762571222
-0.000123862502959
0.000140698426166
-9.34077713646e-12
1.97446644122e-05
-7.23787451135e-20
1.6064890384e-13
-7.00329677984e-22
-0.000122418610705
0.00011587777911
-0.000134662761411
0.000122234416388
-0.000147188141225
0.000129700095566
-0.000159994758345
0.000138133477391
-0.000172963215488
0.000146913530313
-0.000185880326314
0.000155679934191
-0.000119219971853
0.00015466662439
3.87690241809e-12
2.39736198932e-05
-1.09577337621e-19
2.29533744393e-13
1.41512758068e-21
-0.0001159846754
0.000126802249143
-0.000126973103689
0.000133223368196
-0.000138031144604
0.000140758652572
-0.000149150239451
0.000149253063922
-0.000160206733483
0.000157970508967
-0.000170965812138
0.00016643943154
-0.000113702555931
0.000166777759069
2.04819738679e-11
2.90642528988e-05
-1.49474962902e-21
3.05689531824e-13
1.2094512304e-21
-0.000109483572755
0.000136656735988
-0.000119207774452
0.000142948130941
-0.000128774665888
0.000150326091832
-0.00013814883341
0.000158627770642
-0.000147181237503
0.000167003431229
-0.00015557919579
0.000174837869547
-0.000107287298072
0.000176519733835
4.15409525463e-11
3.50884816986e-05
5.8088221052e-20
1.38221228498e-13
-1.1964419221e-21
-0.000103110588594
0.000145470456304
-0.000111599968448
0.000151438092615
-0.000119699769205
0.000158426465429
-0.000127339034961
0.000166267603669
-0.000134325637584
0.000173990586007
-0.000140233789706
0.000180746465145
-0.000100028665489
0.000183336771637
4.1099788676e-11
4.20122082341e-05
-7.33688582096e-21
-7.62430725577e-13
-2.94909276985e-22
-9.70600680701e-05
0.000153307932594
-0.000104385155892
0.000158763746274
-0.000111084785646
0.000165126670794
-0.00011703046599
0.000172213814318
-0.000121956810466
0.000178917288152
-0.000125243781188
0.000184033835068
-9.1971622567e-05
0.000186750177502
-2.83226761485e-11
4.99361604963e-05
-1.68853337541e-20
-4.11252966062e-13
9.13283531927e-22
-9.15204469331e-05
0.00016027157863
-9.78012916807e-05
0.000165045109028
-0.000103235816587
0.000170561708073
-0.000107628770077
0.000176607182994
-0.000110618467577
0.000181907390645
-0.000111346574976
0.000184762349826
-8.35104336987e-05
0.000186338361373
-6.48665214914e-11
5.85870507708e-05
1.68031741122e-20
1.87696725276e-12
-5.34014009329e-22
-8.66642146497e-05
0.00016650185536
-9.20753607713e-05
0.000170456742292
-9.64648167939e-05
0.000174951619556
-9.95806161686e-05
0.000179723392104
-0.000100950119141
0.000183277289516
-9.93787875252e-05
0.000183191205531
-7.53888107779e-05
0.000181889213923
1.51603064457e-10
6.72887540555e-05
-3.62939355378e-21
-2.85468127829e-12
9.84653323043e-23
-8.26291051249e-05
0.000172169056798
-8.73874650245e-05
0.0001752156032
-9.10212192597e-05
0.000178585891783
-9.32652161516e-05
0.000181967821858
-9.36436365019e-05
0.00018365601852
-9.06930788845e-05
0.000180240638017
-6.92276490426e-05
0.000173679654559
-2.02620871055e-10
7.41627307509e-05
-4.52443045368e-22
-4.13180908277e-12
3.87635450868e-23
-7.95036255196e-05
-8.3840502155e-05
-8.70281010296e-05
-8.88799750745e-05
-8.92309266341e-05
-8.72879151785e-05
-6.81726964311e-05
-1.07135520397e-09
8.77037113354e-22
)
;

boundaryField
{
    back
    {
        type            calculated;
        value           uniform 0;
    }
    sides
    {
        type            calculated;
        value           uniform 0;
    }
    bottom
    {
        type            calculated;
        value           nonuniform List<scalar> 0();
    }
    front
    {
        type            calculated;
        value           uniform 0;
    }
    atmosphere
    {
        type            calculated;
        value           nonuniform List<scalar> 
16
(
0
0
0
0
0
0
0
0
0
0
0
0
0
0
0
-3.00557678091e-33
)
;
    }
    floatingObject
    {
        type            calculated;
        value           nonuniform List<scalar> 0();
    }
    procBoundary1to0
    {
        type            processor;
        value           nonuniform List<scalar> 10(0.00017745859814 0.000179552986205 0.000181774048938 0.000183820254897 0.000184006632944 0.000178297598825 0.000163144099256 7.45884344704e-05 -2.40524101758e-10 -4.56066123312e-23);
    }
    procBoundary1to2
    {
        type            processor;
        value           nonuniform List<scalar> 
18
(
8.65118654117e-05
9.80245272957e-05
9.9952841292e-05
4.14987069526e-05
0.000113014179849
5.84880524629e-05
0.000124477967464
0.000120309686973
0.000115567285826
0.000110428235159
0.000105060923806
9.96298486322e-05
9.42976544636e-05
8.92233628118e-05
8.45575204965e-05
8.0434587916e-05
7.69625482112e-05
7.42146279431e-05
)
;
    }
}


// ************************************************************************* //
