/*--------------------------------*- C++ -*----------------------------------*\
| =========                 |                                                 |
| \\      /  F ield         | OpenFOAM: The Open Source CFD Toolbox           |
|  \\    /   O peration     | Version:  v2012                                 |
|   \\  /    A nd           | Website:  www.openfoam.com                      |
|    \\/     M anipulation  |                                                 |
\*---------------------------------------------------------------------------*/
FoamFile
{
    version     2.0;
    format      ascii;
    class       volVectorField;
    location    "1.5";
    object      ddt0(rho,U);
}
// * * * * * * * * * * * * * * * * * * * * * * * * * * * * * * * * * * * * * //

dimensions      [1 -2 -2 0 0 0 0];


internalField   nonuniform List<vector> 
167
(
(-13.7885854305 185.661472238 1.51959071718e-18)
(-14.3268294283 210.918526845 3.18621179273e-19)
(-14.9435052377 237.319202062 3.63023247793e-19)
(-15.72021763 265.031579022 -6.97945108429e-20)
(-16.8031737086 293.99220199 1.33635539883e-19)
(-17.8811793825 324.450177452 6.03378221164e-19)
(-17.0612675753 359.50829163 -8.3471960505e-19)
(-4.84184537017 410.442162371 -9.21694962266e-18)
(-15.3992926318 357.444265921 -5.03238093222e-18)
(-48.6596647447 120.640085825 2.14386418685e-17)
(-0.436583757867 0.557172585386 -1.51156624506e-20)
(0.0240985745788 0.805293024946 1.35699733421e-20)
(-37.3668160936 185.122207782 6.24291941727e-19)
(-39.0305083705 210.305393077 8.66894535947e-19)
(-40.8758984045 236.622101574 1.46985687816e-18)
(-42.9315718172 264.208446479 -1.54190720675e-18)
(-45.2288244017 292.882393853 -7.09300032282e-19)
(-47.6647013793 323.142510064 -1.84285167016e-19)
(-49.2287383111 360.39616473 -2.63203746156e-18)
(-45.8700827585 413.168099877 -3.00121641368e-17)
(-57.9898238215 390.335390714 -5.84184642519e-18)
(-26.7415464042 128.885131381 1.14299847577e-17)
(-0.0584141903152 0.506041629406 -1.24387097808e-20)
(-0.0125427462309 0.358976441287 9.52859089373e-20)
(-60.9365450927 182.546003606 -3.24992034843e-19)
(-63.6365590943 207.412292316 -2.32248213747e-19)
(-66.6322331734 233.429573524 -2.62002723156e-19)
(-69.9118953759 260.751989236 6.03659771544e-19)
(-73.4715878208 289.206343242 2.42232214994e-19)
(-77.4476494113 319.157410679 4.08286373233e-18)
(-81.5789877401 354.654290747 -3.62217618849e-18)
(-84.6911328244 401.051871916 -1.55676158779e-17)
(-87.2340849198 374.084966763 7.56659588395e-18)
(-33.4633520648 121.998895296 2.37557977794e-18)
(-0.108546002612 0.473038104161 -5.00476972311e-20)
(0.0154896049091 0.501884335988 -1.20556988795e-21)
(-89.3715624123 203.763446301 -9.17944619986e-20)
(-93.5664072381 229.395835354 3.3810862423e-20)
(-98.1713550654 256.327047743 1.72913595947e-19)
(-103.180055529 284.370217529 6.81582092433e-19)
(-108.768711483 313.825817611 3.87270083528e-19)
(-114.665792246 348.371703777 1.15393419181e-18)
(-119.623430224 394.044002249 4.97520825495e-18)
(-118.047203257 367.817662842 -1.6894772887e-18)
(-42.7333632794 121.206992489 1.16413976521e-18)
(-0.175145592166 0.48352142294 -1.52382065781e-20)
(-0.0136864121069 0.531344866147 6.07461315904e-22)
(-119.606483633 224.282193349 1.13606768381e-20)
(-125.555127688 250.738803372 -1.27504580124e-19)
(-132.01036197 278.333433224 3.27537383565e-19)
(-139.122255755 307.328305806 3.79703380214e-18)
(-146.551084467 341.452713642 -1.09936931773e-18)
(-152.921183026 388.369462137 -5.29765032032e-18)
(-148.633032692 364.929242108 -3.51815584556e-18)
(-53.1619704204 122.350443207 3.44646849714e-18)
(-0.208251365328 0.484793215635 -2.37533158873e-20)
(-0.0171093696648 0.531843920214 5.60988974891e-21)
(-145.048296789 217.947219354 -5.07346368366e-21)
(-152.360377957 243.828947251 -3.53636328869e-20)
(-160.304848978 270.91479613 3.5843597081e-19)
(-169.035772392 299.417058521 2.22618483963e-18)
(-178.219217029 332.973352745 -2.00749322187e-18)
(-186.701710257 380.558967682 -1.16654194623e-17)
(-182.10896472 359.866785664 -8.23651166563e-18)
(-65.9953769729 123.572809346 5.148559922e-18)
(-0.249808147372 0.473662139574 -5.80149162139e-21)
(-0.0220796441542 0.518088272305 1.04871586072e-20)
(-169.838319544 210.317573574 -9.26997910937e-21)
(-178.552056564 235.486386543 1.19699999587e-19)
(-188.055025246 261.934388988 2.24814715354e-19)
(-198.521060399 289.817120685 1.47512490534e-18)
(-209.648767788 322.508582698 -2.74659925191e-18)
(-220.427945204 370.116240687 -6.46726795271e-17)
(-215.898200521 352.683420531 -2.05159183445e-17)
(-79.9777799459 124.956980058 -2.8890777596e-18)
(-0.290485377248 0.456713407097 -2.89855544835e-20)
(-0.0267554628864 0.500243418233 1.69823981161e-20)
(-193.817946862 201.35262057 9.90897315146e-21)
(-203.968851648 225.642210228 3.74270281728e-20)
(-215.094193084 251.27732155 1.05251168392e-19)
(-227.385321966 278.356181511 6.82015893887e-18)
(-240.587374046 309.860338913 -2.05652415396e-18)
(-253.761899844 356.8571148 -9.36933412461e-17)
(-249.594022694 343.633219779 -3.56590316103e-18)
(-95.0997123169 126.555999724 -1.41374946749e-17)
(-0.32910160236 0.437131849574 -9.12160745211e-20)
(-0.0313728747876 0.479227567841 9.05783595761e-21)
(-216.81308792 191.029293383 -7.07421435038e-20)
(-228.423418026 214.24973149 -9.13111096646e-20)
(-241.219194989 238.866355105 -1.32369106056e-19)
(-255.405514082 264.931007055 -3.15817894747e-19)
(-270.78113503 294.927923372 -1.76758284375e-18)
(-286.433341309 340.544048622 3.19139716102e-17)
(-283.148029726 332.553588045 -7.08861899674e-18)
(-111.605486822 128.224962232 4.17689326636e-18)
(-0.36457176244 0.414851292805 -6.19594252753e-21)
(-0.0370268788302 0.453903271878 7.19173324891e-22)
(-238.634232723 179.340644365 -1.09963128082e-20)
(-251.707850505 201.280545532 7.21609192963e-20)
(-266.202480576 224.645895244 3.74453393922e-20)
(-282.334827309 249.46073771 3.70475628251e-20)
(-299.952257542 277.628906243 -1.73183645729e-18)
(-318.116215814 320.915162361 -7.92764328486e-18)
(-316.396938542 319.11255733 -3.58628116366e-18)
(-129.51506657 129.752961192 2.55596444312e-18)
(-0.396190707004 0.389175698448 -8.24735939911e-21)
(-0.0436199990303 0.422903562393 5.75691227596e-21)
(-259.074404571 166.300890197 -1.44574048819e-20)
(-273.590724915 186.729100419 -6.68729266996e-20)
(-289.786530148 208.584246642 -2.31272925631e-19)
(-307.894063668 231.889938452 6.86673367537e-19)
(-327.815697034 257.96345365 -6.47657655921e-19)
(-348.571819085 297.944981379 3.14071971666e-17)
(-349.13264227 303.153785193 -1.06244554523e-17)
(-148.812081282 130.931722069 1.33226216016e-17)
(-0.422683833258 0.360773854693 1.02372296027e-21)
(-0.0500274796015 0.38693827016 -1.5912412767e-21)
(-277.911277402 151.951299766 -5.7770788424e-20)
(-293.817625145 170.617788204 8.25920718321e-20)
(-311.685126319 190.675065371 2.0812982834e-19)
(-331.774055407 212.171320814 4.08760730028e-19)
(-354.057010835 235.878919244 -2.22777493542e-18)
(-377.517983739 271.507393228 1.52717736855e-18)
(-381.177858185 284.190315131 8.19052320344e-18)
(-169.417361965 131.331135025 1.68294406748e-18)
(-0.44438310861 0.328157467813 -1.31265746256e-20)
(-0.0577546056386 0.35063157841 4.71956157774e-21)
(-294.909962537 136.368048997 -6.04292225994e-21)
(-312.11131824 153.00604646 2.17230020471e-19)
(-331.576949404 170.946468351 2.82802222215e-19)
(-353.615669942 190.276195721 2.22535887702e-18)
(-378.322916488 211.35709783 1.87649112467e-18)
(-404.745226695 241.825924736 -2.40121844114e-17)
(-412.490114816 262.20476492 -2.24610271056e-18)
(-191.352214594 130.727536259 -9.15462589098e-20)
(-0.46170137499 0.293839419579 -1.94500438372e-20)
(-0.0686346378705 0.311933597544 2.45951857514e-21)
(-309.827462719 119.672510608 -2.37963376105e-19)
(-328.171030848 134.002661737 2.17704982962e-20)
(-349.098561002 149.472751358 2.99506482577e-20)
(-373.006891261 166.174482419 8.57054710191e-19)
(-400.099764538 184.375346972 3.30548773448e-19)
(-430.064623655 208.85507671 -3.38891795501e-18)
(-442.626037218 236.26254169 -1.25869169891e-17)
(-214.777216777 128.423367102 7.3087512077e-18)
(-0.476490727562 0.257096419056 1.335496349e-20)
(-0.0789412257698 0.264416821965 -2.26887325068e-21)
(-322.420724351 102.045168869 -4.61608312397e-20)
(-341.674237315 113.786317889 1.42308202888e-19)
(-363.815807518 126.381793821 8.45820908726e-20)
(-389.353713774 139.928052921 1.62996985438e-19)
(-419.184163802 154.603475446 -2.44417921404e-18)
(-452.544335755 173.260857998 1.37567498953e-18)
(-470.990836997 204.373946018 -1.16490256295e-18)
(-239.812926392 122.963362975 4.49702513904e-18)
(-0.489338253228 0.220612532091 -9.17975916477e-21)
(-0.102053378507 0.193230953205 7.6769534902e-21)
(-332.472967185 83.7441899435 -2.11036972375e-19)
(-352.306606784 92.6542076265 2.93369393777e-20)
(-375.252039563 101.998237593 8.97414185344e-20)
(-402.021383674 111.81215336 -3.7315214635e-19)
(-433.626419925 121.728003338 -1.89294035295e-18)
(-469.963597101 133.53793901 -3.97060806534e-18)
(-498.547174594 165.461844542 1.49027431975e-17)
(-266.635529536 110.581077409 1.00026954369e-17)
(-0.477979028974 0.188115938849 9.05758139496e-21)
(0.0333277130459 0.0571963919515 1.48540690645e-20)
)
;

boundaryField
{
    back
    {
        type            calculated;
        value           uniform (0 0 0);
    }
    sides
    {
        type            calculated;
        value           uniform (0 0 0);
    }
    bottom
    {
        type            calculated;
        value           nonuniform List<vector> 0();
    }
    front
    {
        type            calculated;
        value           uniform (0 0 0);
    }
    atmosphere
    {
        type            calculated;
        value           nonuniform List<vector> 
16
(
(0 0.805293024946 0)
(0 0.358976441287 0)
(0 0.501884335988 0)
(0 0.531344866146 0)
(0 0.531843920213 0)
(0 0.518088272305 0)
(0 0.500243418233 0)
(0 0.479227567841 0)
(0 0.453903271878 0)
(0 0.422903562393 0)
(0 0.38693827016 0)
(0 0.35063157841 0)
(0 0.311933597544 0)
(0 0.264416821965 0)
(0 0.193230953205 0)
(0.0336185067644 0.0571963919515 1.48388335024e-20)
)
;
    }
    floatingObject
    {
        type            calculated;
        value           nonuniform List<vector> 0();
    }
    procBoundary1to0
    {
        type            processor;
        value           nonuniform List<vector> 10((-339.829825412 65.1071132412 -1.74391344149e-20) (-359.836910477 71.0516744229 1.06063797015e-19) (-383.034429305 76.9410425721 1.51372456874e-20) (-410.160020457 82.6569199881 -6.02122215911e-19) (-442.138662919 87.333295529 -1.55693324567e-18) (-480.171069921 89.0529893777 -7.6084164545e-18) (-519.339238114 113.291986172 -1.68753719349e-17) (-294.984329174 82.2843704108 3.54264851084e-18) (-0.347587933086 0.149666272795 -4.28107789046e-21) (0.139709303959 -0.0345417101315 6.83680627111e-20));
    }
    procBoundary1to2
    {
        type            processor;
        value           nonuniform List<vector> 
18
(
(-13.312145615 161.423663059 -1.05254142639e-18)
(-35.8852819284 160.954890993 -1.18503058675e-18)
(-58.5366359779 158.69843472 5.49427941909e-19)
(-85.5958800783 179.283484527 2.39010391536e-19)
(-85.5958800783 179.283484527 2.39010391536e-19)
(-114.19237296 199.133065633 -1.24384753251e-21)
(-114.19237296 199.133065633 -1.24384753251e-21)
(-138.403861961 193.400747881 -2.01411450777e-20)
(-161.94530383 186.512781282 9.79371266287e-20)
(-184.661155929 178.447571713 1.55977272155e-20)
(-206.388997508 169.198997985 -4.37891274704e-21)
(-226.956076445 158.775544676 5.5304413005e-20)
(-246.178033322 147.204773789 -7.78243012619e-21)
(-263.861841328 134.538735967 4.401582683e-20)
(-279.810025881 120.860158881 -4.79680252986e-21)
(-293.825981124 106.289435474 -2.16703015123e-20)
(-305.724987669 90.9923560236 1.36377309774e-19)
(-315.349057732 75.1867727549 -5.46006149726e-20)
)
;
    }
}


// ************************************************************************* //
