/*--------------------------------*- C++ -*----------------------------------*\
| =========                 |                                                 |
| \\      /  F ield         | OpenFOAM: The Open Source CFD Toolbox           |
|  \\    /   O peration     | Version:  v2012                                 |
|   \\  /    A nd           | Website:  www.openfoam.com                      |
|    \\/     M anipulation  |                                                 |
\*---------------------------------------------------------------------------*/
FoamFile
{
    version     2.0;
    format      ascii;
    class       surfaceVectorField;
    location    "1.5";
    object      ddtCorrDdt0(Uf);
}
// * * * * * * * * * * * * * * * * * * * * * * * * * * * * * * * * * * * * * //

dimensions      [0 1 -2 0 0 0 0];


internalField   nonuniform List<vector> 
306
(
(-0.0140830517992 0.198349648166 9.20764291631e-22)
(-0.0247568107469 0.185726066561 1.07387496373e-21)
(-0.0146615549597 0.224193188849 3.41437337856e-22)
(-0.0258430136707 0.210991689736 5.93826514178e-22)
(-0.0153595075134 0.251251801663 1.46878846217e-22)
(-0.0270567983618 0.237397936212 9.18092312716e-22)
(-0.0162910213252 0.279691602104 3.19782781753e-23)
(-0.0284370822091 0.265097201995 -8.07304310219e-22)
(-0.0173734523243 0.309670559147 3.69171719271e-22)
(-0.0299759312951 0.29396650269 -2.88351522964e-22)
(-0.0175027323846 0.340944108155 -1.15879174477e-22)
(-0.031270357198 0.324380301982 2.09924714149e-22)
(-0.0109713080267 0.371746544987 -5.03489860055e-21)
(-0.0307998415263 0.360601387386 -1.73650490064e-21)
(-0.0071873710731 0.392786415497 -1.03668417957e-20)
(-0.0210383493162 0.412547885398 -1.96499310407e-20)
(-0.0523790876407 0.425490714892 -3.51717292204e-21)
(-0.0327039739593 0.382872746913 -1.14125898245e-20)
(-0.265913762505 0.545712401286 -5.32319230949e-21)
(-0.120216748007 0.532046586261 -8.66814335576e-21)
(-0.2062474693 0.741360404001 -7.71088487227e-22)
(-0.195647915077 0.531618086455 -1.37743627267e-20)
(-0.00752197254331 0.582134733116 5.44279411397e-20)
(-0.038267530561 0.197803747221 7.46937186279e-22)
(-0.0494412553566 0.184165507282 1.49920288095e-22)
(-0.0400252410333 0.223568364376 1.17048148904e-21)
(-0.0516075134918 0.209235410873 3.17894332435e-22)
(-0.0419792967473 0.250518138668 -3.60908437201e-23)
(-0.0540046375211 0.235449614779 6.0501580278e-22)
(-0.0441596925689 0.278723568299 -1.12763411136e-21)
(-0.0566392610489 0.262953552215 -4.69970042211e-22)
(-0.046530529485 0.308312570998 -4.47598528086e-22)
(-0.0595609417188 0.291569264601 -2.33955231715e-22)
(-0.0485340928604 0.339946355536 -1.41070101201e-21)
(-0.0629003256303 0.321729156109 1.95280532324e-21)
(-0.0476351708331 0.375395675831 -1.63515373408e-20)
(-0.0662458878864 0.358170017781 -3.13274736824e-21)
(-0.0532814889835 0.422557371189 -2.06956790696e-20)
(-0.0681981888633 0.407844299027 -2.28309887996e-20)
(-0.100382801473 0.466702203785 -1.65635602582e-20)
(-0.0768485697304 0.389928603431 -3.98176780616e-21)
(-0.09928471592 0.487022802346 -1.7119313773e-20)
(-0.140537894807 0.520301624735 -4.47031636999e-20)
(-0.0354783661801 0.400996803684 4.14246669002e-20)
(-0.109615766272 0.489561264848 -3.12431896009e-20)
(0.00738131100105 0.430430388637 4.70401695247e-20)
(-0.0623988437836 0.195070101741 -2.7912256575e-22)
(-0.0652518370392 0.220523668577 -2.47571353823e-22)
(-0.0770571521407 0.205958521982 -1.6231355878e-22)
(-0.0683951738103 0.247188031279 1.71136604289e-22)
(-0.0806662344521 0.231829970812 -1.14301746423e-22)
(-0.0718210314049 0.275184271284 4.23708837433e-22)
(-0.08463127352 0.259005751455 3.88986973695e-22)
(-0.0755957105158 0.30460068551 2.16644861962e-21)
(-0.0889724972003 0.287305507345 4.62740279986e-22)
(-0.0796567211237 0.335588028245 2.30758967015e-22)
(-0.0938826853088 0.317062416344 2.23909835256e-21)
(-0.0832850043648 0.368488700167 -9.612198827e-21)
(-0.0991425562204 0.352146953465 -1.23634738987e-21)
(-0.0865199458981 0.404075989019 -6.11707753618e-21)
(-0.10378309278 0.398265001838 -5.30575346426e-21)
(-0.111878913232 0.433640902975 -3.21213712478e-20)
(-0.106412619955 0.379124865633 -1.94325068778e-22)
(-0.122059149961 0.460589273806 -5.88270395277e-20)
(-0.16757340988 0.500027222072 -4.15557793618e-20)
(-0.0465334332804 0.494652777428 -2.56276869764e-20)
(-0.143591803096 0.478314672333 -3.26437028407e-20)
(-8.6079659425e-05 0.516614601067 -2.99054286027e-22)
(-0.0916339010363 0.216680133018 -2.90439513809e-23)
(-0.0960417565513 0.242964679307 1.03548622983e-22)
(-0.106945145283 0.22724803877 2.26264442711e-23)
(-0.100857267925 0.270582804847 4.28018416248e-22)
(-0.112243643548 0.253990136414 2.27454869863e-23)
(-0.106165512211 0.299618545223 5.35390012929e-22)
(-0.118001793294 0.281859257347 5.05469802634e-22)
(-0.111918736687 0.330108797487 7.71991995676e-22)
(-0.124366719511 0.31113720998 2.09592569583e-21)
(-0.117355895723 0.361955048956 3.07009797287e-21)
(-0.130983667237 0.345534271217 2.73315102154e-23)
(-0.120521399781 0.394537504248 6.16999003139e-22)
(-0.136362529776 0.391912363359 -1.61512302719e-22)
(-0.15764981267 0.424396799132 -9.62873318274e-21)
(-0.136270871251 0.375616577546 -5.6756926765e-21)
(-0.18462573416 0.471510056773 -1.53724426747e-20)
(-0.214753475412 0.49534829286 -8.15467006028e-21)
(-0.0944209280202 0.515546364075 -7.31507015035e-21)
(-0.187559959063 0.48418901547 -1.94943521874e-20)
(-0.0114577565831 0.53159439318 3.1086755324e-21)
(-0.122801851309 0.237612793429 -5.81766917254e-23)
(-0.132742358003 0.221513418767 3.14924978462e-24)
(-0.129015000735 0.264766340776 1.00196873372e-22)
(-0.139389477609 0.247729826911 -8.15809726641e-23)
(-0.135810813681 0.29337674361 2.06600548553e-21)
(-0.146604071796 0.275119424659 3.43605457939e-22)
(-0.143094286605 0.323543422776 1.35126521037e-21)
(-0.154525534261 0.30391985307 3.01704169937e-21)
(-0.150006205755 0.355355123535 -3.20427876537e-21)
(-0.162788921846 0.337821226052 -1.55623329969e-21)
(-0.153318603203 0.389120669419 -6.45420398236e-21)
(-0.170124310081 0.385157693349 -8.4968329647e-21)
(-0.197306982421 0.423629522819 -4.20162955405e-21)
(-0.170778401081 0.372446735096 -1.0462130631e-20)
(-0.224717902607 0.474707048976 -1.2276579573e-20)
(-0.265866202454 0.490308364371 2.6877677463e-21)
(-0.112685701032 0.516439009233 -9.07060650468e-21)
(-0.229253085487 0.479253866333 -1.4774710138e-20)
(-0.0201205473185 0.524966096259 8.04852417803e-21)
(-0.148972500783 0.230984591256 -2.02550311541e-23)
(-0.157944618707 0.214518536719 -7.18467076515e-24)
(-0.156614562935 0.257581365709 1.61827611903e-22)
(-0.165976460854 0.240089879223 4.22442311901e-23)
(-0.164967315379 0.285704082845 1.29464167177e-21)
(-0.174716622613 0.266905128515 2.9215151479e-22)
(-0.173940653436 0.315511911493 1.09543189313e-22)
(-0.184323680672 0.295148484615 1.85399335879e-21)
(-0.18278956501 0.347199560903 -6.84878749902e-21)
(-0.194468679017 0.328332092682 -2.38133459117e-21)
(-0.187789117446 0.381174717612 -1.25047596134e-20)
(-0.204094855814 0.376014629873 -3.82378988351e-20)
(-0.239789325273 0.416516437548 -3.57273333069e-21)
(-0.206118427885 0.366634861717 -1.91882824574e-20)
(-0.270428666226 0.464876511073 1.89637181264e-22)
(-0.314252467818 0.480690246152 1.51555714063e-21)
(-0.135949042125 0.505517169025 2.3444205447e-21)
(-0.269862194 0.465204950961 -1.73917404236e-20)
(-0.0249025341861 0.509165845269 1.37347783616e-20)
(-0.174509332939 0.222989866071 5.53145915791e-23)
(-0.182412568074 0.206206294723 3.20042472996e-25)
(-0.183634144051 0.248894166935 1.72568134077e-22)
(-0.191868771452 0.230980124956 7.87051824243e-23)
(-0.193636674391 0.276395153226 8.51503201809e-22)
(-0.202205347788 0.257068697159 1.65330752651e-22)
(-0.204453016913 0.305685082511 -6.36884421687e-22)
(-0.213602035968 0.28459906946 4.15512379952e-21)
(-0.215426225598 0.336999279666 -3.37704459272e-20)
(-0.225773485233 0.316754758559 -2.40589586316e-21)
(-0.222265739667 0.370682936895 -4.49214216791e-20)
(-0.2377730585 0.364142338814 -7.93258452595e-20)
(-0.280412423649 0.405686074372 -1.4099991986e-20)
(-0.241119724479 0.358428750615 -1.80181477811e-20)
(-0.31380577124 0.449372534789 -1.60658204642e-20)
(-0.357969842347 0.4683794128 -6.22455696489e-20)
(-0.158624043274 0.489206276799 -6.00138260664e-21)
(-0.309658110999 0.446926843212 -6.01020363877e-20)
(-0.0290741727761 0.489735493037 1.30201170369e-20)
(-0.199252101215 0.213576939619 2.37106333182e-23)
(-0.205983577643 0.196544780973 -3.04714690834e-23)
(-0.209909442573 0.238617091147 7.14678009974e-23)
(-0.21689474701 0.220342660564 -2.69906889775e-23)
(-0.221638819268 0.265311289509 3.46895135036e-21)
(-0.228885231817 0.245513889653 -1.35833994599e-23)
(-0.234408397407 0.293874663271 2.38611235805e-21)
(-0.242152005899 0.272133583103 3.25803692258e-21)
(-0.247620482107 0.324573710235 -4.79612951954e-20)
(-0.256461698035 0.30293957066 -1.91550465311e-21)
(-0.256329023974 0.357734340176 -5.24225713615e-20)
(-0.270927418831 0.34932958248 -3.09454069929e-20)
(-0.31860573889 0.392256454947 -6.6163725444e-20)
(-0.275639847361 0.347913006003 -1.05738980649e-20)
(-0.353937868594 0.43181838866 -1.06281785572e-19)
(-0.397563942883 0.453526703264 -6.37137423449e-20)
(-0.180237770221 0.469063741541 -4.10805367442e-20)
(-0.34686312023 0.425979796293 -4.87093368118e-20)
(-0.0341538652231 0.46656541986 4.88850464126e-21)
(-0.223019759076 0.202712924287 -8.1172791379e-23)
(-0.228475979008 0.185518958411 -4.09429431585e-23)
(-0.235244853818 0.226690783929 -1.12041889435e-22)
(-0.240856507524 0.208139870066 -9.59240213351e-24)
(-0.248760259896 0.252362856165 -2.24497827245e-22)
(-0.254541187915 0.232174168944 -4.75474693162e-23)
(-0.263567886622 0.279967181959 -1.04358008857e-21)
(-0.269741329764 0.257659807034 -1.39636453377e-22)
(-0.279109789436 0.309791061699 1.51003835494e-20)
(-0.286273482455 0.286794796627 -1.75286684764e-21)
(-0.289796336155 0.342126966958 1.09032663037e-20)
(-0.303256334273 0.331326195435 1.20147967232e-20)
(-0.354460119491 0.376075750711 -8.12391496587e-21)
(-0.309586493998 0.334849954524 -8.6265259989e-21)
(-0.390420370088 0.411448155562 -6.14129358431e-21)
(-0.432968143208 0.435623079739 -7.1433404365e-21)
(-0.200795014772 0.444946777802 -2.74029542635e-21)
(-0.380321236518 0.401982912371 -7.22778274202e-21)
(-0.040268914715 0.438403417136 3.23804280042e-21)
(-0.245613237431 0.190382088735 3.0637446087e-23)
(-0.249690078134 0.173132467534 -1.27498277156e-23)
(-0.259422254735 0.21307614888 5.49020179851e-23)
(-0.263532962979 0.194354742287 2.64872786318e-24)
(-0.274763386746 0.237480038696 3.73139045524e-23)
(-0.278927576979 0.217005809344 -9.70885783283e-23)
(-0.291668707163 0.263852935927 -8.48923212442e-22)
(-0.296098011819 0.241109475733 3.62513627658e-22)
(-0.309591678761 0.292502255532 -4.83845367388e-21)
(-0.314909750943 0.268279229516 -1.19189349856e-21)
(-0.32238893871 0.323691591554 -7.51499557942e-21)
(-0.334438098049 0.309988244183 1.1760954139e-20)
(-0.387570507897 0.356701505431 -7.64595146952e-21)
(-0.342594039413 0.319021186344 -1.02103782128e-20)
(-0.422610407581 0.38703195326 -8.22982959421e-21)
(-0.463330143212 0.414402322287 5.95885275861e-21)
(-0.219893812134 0.416263620986 -1.24944451524e-21)
(-0.409512964206 0.374934441142 -3.61789201546e-21)
(-0.0468665689702 0.404920916276 2.08283549963e-21)
(-0.266812937554 0.176589918634 -4.07385459394e-23)
(-0.269410364645 0.159413098703 -3.61792512338e-23)
(-0.282196727604 0.197755768702 -1.4934186845e-22)
(-0.284680358305 0.178995712507 7.87370355167e-24)
(-0.299379357697 0.22061941451 2.28111144777e-22)
(-0.301772939263 0.199989755469 -1.15923840304e-23)
(-0.318428231853 0.245472552547 1.95433415429e-23)
(-0.320934252951 0.222431137552 5.48705536399e-22)
(-0.338803803162 0.272665452766 1.54075143143e-20)
(-0.342089068383 0.247366585409 -1.44030953772e-21)
(-0.353860512721 0.302509919026 9.06557150564e-21)
(-0.364274642373 0.285239796916 1.64968933225e-20)
(-0.417647809715 0.334486796637 3.39442601536e-21)
(-0.374568415959 0.300185809646 -3.28799934271e-21)
(-0.449715474081 0.359653376191 1.05707903374e-20)
(-0.488527389126 0.389543226948 5.83973895251e-21)
(-0.236341618024 0.383411989516 -2.85612000593e-22)
(-0.433233214986 0.344457185794 -6.0523440633e-21)
(-0.0536529641893 0.368784924285 1.56416015052e-21)
(-0.286380052146 0.161369782266 1.24329982573e-23)
(-0.287406827346 0.144419680615 -3.19644248364e-23)
(-0.30329746612 0.180740124845 1.45623187971e-22)
(-0.304032195269 0.16210376956 1.50181397244e-22)
(-0.322309939779 0.20175860843 3.09002007591e-22)
(-0.322773117332 0.181136915889 2.45908924887e-22)
(-0.343534094991 0.224753918371 -9.1114734286e-22)
(-0.343912642779 0.201586733192 1.31943599271e-21)
(-0.366447319984 0.250137157153 -3.50930529535e-22)
(-0.367458739899 0.224021371995 -1.7595890341e-22)
(-0.383987622624 0.27831126815 4.14332247415e-21)
(-0.392440791535 0.257129644493 -1.12627845566e-20)
(-0.444399278172 0.309024226136 -8.42686405563e-22)
(-0.405278876618 0.278215194903 7.98827982893e-22)
(-0.471707784945 0.328521338004 -1.07833954481e-20)
(-0.508053728755 0.361060088829 -1.08484532027e-20)
(-0.251073945178 0.348136110627 -4.20257191219e-21)
(-0.452812128763 0.311037018045 -1.62840442997e-20)
(-0.0631947372105 0.331282587977 3.58954007644e-21)
(-0.304058057375 0.144791074996 1.05783974151e-22)
(-0.30343843118 0.128251167676 -1.22223209358e-22)
(-0.322424652365 0.162075312334 2.5046713416e-22)
(-0.321298734361 0.14376318036 1.19715766296e-22)
(-0.343214291597 0.180906494283 1.25634291001e-21)
(-0.341586743576 0.160498593189 1.56658568851e-22)
(-0.36662943263 0.201653645461 2.05462443216e-21)
(-0.364643573936 0.178546822814 1.5439870765e-21)
(-0.392240320543 0.224858643435 -1.10878129305e-20)
(-0.390650768385 0.1982231345 1.10551023793e-21)
(-0.412674011754 0.251276058582 -1.46072790479e-20)
(-0.418850582797 0.225746979006 -1.37252663364e-20)
(-0.467958759673 0.2807412656 -9.20693881425e-21)
(-0.434741729855 0.252771032531 -9.15813133627e-21)
(-0.488892691661 0.295679543891 -1.63491020542e-20)
(-0.523019754385 0.328916176393 -2.3392436193e-21)
(-0.265187607691 0.310968716679 -8.49193231107e-21)
(-0.468068431453 0.275441919735 -3.04793852e-21)
(-0.0746331073167 0.288175209755 9.53226622325e-23)
(-0.319574578304 0.126971330457 -1.08291417213e-22)
(-0.317258990576 0.111058767419 -1.42318334104e-22)
(-0.339245589363 0.141856193379 2.59072009866e-23)
(-0.33616649458 0.124117942028 8.21872999737e-23)
(-0.361703985236 0.158112161164 4.44302735343e-22)
(-0.357825463531 0.13817606207 5.73696984286e-23)
(-0.387250593392 0.176170522234 5.94872882265e-22)
(-0.382685413538 0.153327339761 5.10946048411e-22)
(-0.415830938689 0.196789496297 -1.53194316801e-21)
(-0.411256543973 0.169795139939 -1.05872152135e-21)
(-0.439664743594 0.220798070263 -8.27611862483e-21)
(-0.442850746782 0.191402628306 -1.00843752326e-21)
(-0.488608321836 0.248545072176 -2.29043614133e-21)
(-0.462485905148 0.222517478353 -7.63858497635e-21)
(-0.502570536306 0.259434799729 1.0961919915e-20)
(-0.533935453261 0.291816256263 4.37741763567e-21)
(-0.277677368907 0.271719889349 5.5393164533e-21)
(-0.480326710483 0.238863457079 2.08634432394e-21)
(-0.0795771578717 0.228823887585 2.70404011976e-21)
(-0.332646331154 0.108095035564 4.8160383083e-23)
(-0.328628545964 0.0930621971255 -1.28830822822e-22)
(-0.353381263988 0.1202493184 1.13649797416e-22)
(-0.348303767614 0.103406421848 8.59773510067e-23)
(-0.377264047505 0.133453969907 1.24013011497e-22)
(-0.37101095841 0.114395981936 8.73190043913e-23)
(-0.404998166341 0.148158217196 -1.1426483552e-21)
(-0.397372835116 0.126097156769 -1.05266995372e-22)
(-0.436650511722 0.165270186899 -5.35215876603e-22)
(-0.428353274047 0.138415011222 -2.17247019309e-21)
(-0.464278314509 0.186196966925 -3.70903874781e-22)
(-0.463769020576 0.153676124646 -1.29980694442e-21)
(-0.506422632453 0.212363410864 -9.7073119935e-22)
(-0.48864942341 0.18604518188 6.35780823708e-21)
(-0.513540347525 0.220031320462 -4.49815795533e-21)
(-0.541630703755 0.245902650874 6.82038188827e-21)
(-0.29574235456 0.230729320976 -7.48932009597e-22)
(-0.491001889542 0.204597241685 -2.22092481267e-23)
(-0.0533948317255 0.125213672578 1.12655112773e-20)
(-0.343007247314 0.0884385262685 -9.10138548984e-23)
(-0.364435440135 0.09756982712 5.96465579823e-23)
(-0.389337754222 0.107250974878 -1.41961002478e-22)
(-0.418577711423 0.11776670528 -1.13508883326e-21)
(-0.452610043865 0.129450644002 -2.93706126091e-21)
(-0.486008204105 0.143430611519 5.42890516744e-21)
(-0.522579788883 0.169314084366 1.41489213247e-20)
(-0.511069412718 0.176845689451 1.12963305955e-20)
(-0.22242832541 0.1494888822 1.19922340388e-20)
)
;

boundaryField
{
    back
    {
        type            calculated;
        value           uniform (0 0 0);
    }
    sides
    {
        type            calculated;
        value           uniform (0 0 0);
    }
    bottom
    {
        type            calculated;
        value           nonuniform List<vector> 0();
    }
    front
    {
        type            calculated;
        value           uniform (0 0 0);
    }
    atmosphere
    {
        type            calculated;
        value           nonuniform List<vector> 
16
(
(0 0.74888397124 0)
(0 0.38609416597 0)
(0 0.502121338565 0)
(0 0.526919527082 0)
(0 0.525103527641 0)
(0 0.51030131244 0)
(0 0.493380444667 0)
(0 0.47414612975 0)
(0 0.451064497597 0)
(0 0.422863783846 0)
(0 0.390200558705 0)
(0 0.357679605033 0)
(0 0.32240828066 0)
(0 0.276662709904 0)
(0 0.204544732795 0)
(0.0336185067644 0.0627368141752 1.48388335024e-20)
)
;
    }
    floatingObject
    {
        type            calculated;
        value           nonuniform List<vector> 0();
    }
    procBoundary1to0
    {
        type            processor;
        value           nonuniform List<vector> 10((-0.337355310271 0.074559854972 -1.14444063437e-22) (-0.357418002358 0.0820005585315 6.78224722951e-23) (-0.38067550425 0.0896310142681 5.2533958355e-23) (-0.407870893372 0.0974099459725 -4.88516851862e-22) (-0.440024133976 0.104719259082 -1.72804645917e-21) (-0.477740264296 0.11149620808 -5.79995427151e-21) (-0.514530007427 0.139785791024 -1.0356132184e-21) (-0.54919106847 0.182034551196 8.38319425459e-21) (-0.463623480061 0.168572153829 2.34965598907e-21) (0.0333548839976 0.01132734091 4.16110658878e-20));
    }
    procBoundary1to2
    {
        type            processor;
        value           nonuniform List<vector> 
18
(
(-0.0135747941785 0.173593467751 2.33946685377e-22)
(-0.0366920777972 0.173117578392 -2.80874535816e-22)
(-0.0598442788239 0.170705368803 1.12420483012e-22)
(-0.0738105001907 0.181240879912 -4.30682245229e-23)
(-0.0876414356174 0.191614745779 7.37407824465e-23)
(-0.102124003726 0.201811440464 -4.66028452968e-23)
(-0.117110204224 0.211808245681 5.06755035517e-24)
(-0.141981624569 0.205770267476 -1.2630054993e-23)
(-0.166190946037 0.198506427515 4.44134948293e-23)
(-0.189580804452 0.189986762055 1.27763122362e-23)
(-0.211982639019 0.180198397031 -3.76282719589e-23)
(-0.233214988366 0.169143232548 2.21939936973e-23)
(-0.253081827985 0.156843488652 -1.11399830627e-23)
(-0.27137510158 0.143346922932 -6.88989960837e-24)
(-0.287878234565 0.128734361982 -5.42965249546e-24)
(-0.302371029985 0.113128156046 -1.30050976521e-22)
(-0.314639216297 0.096701959991 4.51895626087e-23)
(-0.324495077773 0.0796950892245 -1.33058301567e-22)
)
;
    }
}


// ************************************************************************* //
