/*--------------------------------*- C++ -*----------------------------------*\
| =========                 |                                                 |
| \\      /  F ield         | OpenFOAM: The Open Source CFD Toolbox           |
|  \\    /   O peration     | Version:  v2012                                 |
|   \\  /    A nd           | Website:  www.openfoam.com                      |
|    \\/     M anipulation  |                                                 |
\*---------------------------------------------------------------------------*/
FoamFile
{
    version     2.0;
    format      ascii;
    class       volScalarField;
    location    "1.5";
    object      p;
}
// * * * * * * * * * * * * * * * * * * * * * * * * * * * * * * * * * * * * * //

dimensions      [1 -1 -2 0 0 0 0];


internalField   nonuniform List<scalar> 
167
(
4293.12551423
3793.52172954
3292.6067927
2790.31702942
2286.58570988
1781.35217564
1274.57826258
765.78488889
281.683859336
25.550100768
-9.05903473247
-9.53979872594
4294.57734117
3795.0347227
3294.18670308
2791.96764889
2288.3117133
1783.16369376
1276.44011674
767.314811795
285.276018223
28.2440119489
-9.00488091585
-9.56506235657
4296.99549574
3797.56806013
3296.84809953
2794.7677178
2291.25779853
1786.26943046
1279.74120823
770.833684113
287.744655483
28.7882206396
-9.04090633532
-9.555287925
3801.41733766
3300.88518718
2799.01215363
2295.73011459
1790.9970687
1284.77773932
776.305445437
292.284686925
30.2282597506
-9.03244329755
-9.55873182767
3306.25061705
2804.65618885
2301.67913222
1797.27663426
1291.42112618
783.381733572
298.058425056
32.0929523925
-9.03295717761
-9.55652250216
3312.91035571
2811.66523304
2309.06945393
1805.07594324
1299.65801035
792.124598441
305.304069457
34.5337895417
-9.03435549145
-9.55608682098
3320.83034239
2820.00630745
2317.87073482
1814.37158789
1309.48215628
802.568987899
314.144332177
37.6129815134
-9.03585675715
-9.55605748747
3329.9721782
2829.64252888
2328.04922979
1825.13550571
1320.87407297
814.705062699
324.634337928
41.3757846814
-9.03737574387
-9.55640397101
3340.28925665
2840.52836425
2339.56189529
1837.32903854
1333.8008892
828.503721756
336.823496225
45.8866005718
-9.03903916652
-9.55706291653
3351.72515983
2852.6076464
2352.35411398
1850.90086093
1348.21597666
843.918880401
350.758470615
51.2200637495
-9.04090045792
-9.55803240961
3364.21313882
2865.81275937
2366.35855971
1865.78541731
1364.05710299
860.885391029
366.465988288
57.4504434516
-9.04277405572
-9.55937236116
3377.67539011
2880.06352889
2381.49374479
1881.90140456
1381.24564406
879.323818455
383.95451341
64.657528689
-9.04432186386
-9.56120510605
3392.02233007
2895.26610495
2397.6626478
1899.15027522
1399.6874579
899.135878281
403.203966581
72.9154700895
-9.04518454141
-9.5638772639
3407.15204785
2911.3117971
2414.75112803
1917.41694716
1419.26923261
920.208453258
424.18856557
82.314681458
-9.04590921681
-9.56808836654
3422.95004177
2928.07563327
2432.62361768
1936.55629245
1439.8412242
942.439049675
446.834206678
92.9498605871
-9.04949967767
-9.57488177065
3439.28998631
2945.41614797
2451.12149161
1956.39171367
1461.21956492
965.653801764
471.009954945
104.928720467
-9.0589685631
-9.57792691408
)
;

boundaryField
{
    back
    {
        type            calculated;
        value           nonuniform List<scalar> 
167
(
4293.12551423
3793.52172954
3292.6067927
2790.31702942
2286.58570988
1781.35217564
1274.57826258
765.78488889
281.683859336
25.550100768
-9.05903473247
-9.53979872594
4294.57734117
3795.0347227
3294.18670308
2791.96764889
2288.3117133
1783.16369376
1276.44011674
767.314811795
285.276018223
28.2440119489
-9.00488091585
-9.56506235657
4296.99549574
3797.56806013
3296.84809953
2794.7677178
2291.25779853
1786.26943046
1279.74120823
770.833684113
287.744655483
28.7882206396
-9.04090633532
-9.555287925
3801.41733766
3300.88518718
2799.01215363
2295.73011459
1790.9970687
1284.77773932
776.305445437
292.284686925
30.2282597506
-9.03244329755
-9.55873182767
3306.25061705
2804.65618885
2301.67913222
1797.27663426
1291.42112618
783.381733572
298.058425056
32.0929523925
-9.03295717761
-9.55652250216
3312.91035571
2811.66523304
2309.06945393
1805.07594324
1299.65801035
792.124598441
305.304069457
34.5337895417
-9.03435549145
-9.55608682098
3320.83034239
2820.00630745
2317.87073482
1814.37158789
1309.48215628
802.568987899
314.144332177
37.6129815134
-9.03585675715
-9.55605748747
3329.9721782
2829.64252888
2328.04922979
1825.13550571
1320.87407297
814.705062699
324.634337928
41.3757846814
-9.03737574387
-9.55640397101
3340.28925665
2840.52836425
2339.56189529
1837.32903854
1333.8008892
828.503721756
336.823496225
45.8866005718
-9.03903916652
-9.55706291653
3351.72515983
2852.6076464
2352.35411398
1850.90086093
1348.21597666
843.918880401
350.758470615
51.2200637495
-9.04090045792
-9.55803240961
3364.21313882
2865.81275937
2366.35855971
1865.78541731
1364.05710299
860.885391029
366.465988288
57.4504434516
-9.04277405572
-9.55937236116
3377.67539011
2880.06352889
2381.49374479
1881.90140456
1381.24564406
879.323818455
383.95451341
64.657528689
-9.04432186386
-9.56120510605
3392.02233007
2895.26610495
2397.6626478
1899.15027522
1399.6874579
899.135878281
403.203966581
72.9154700895
-9.04518454141
-9.5638772639
3407.15204785
2911.3117971
2414.75112803
1917.41694716
1419.26923261
920.208453258
424.18856557
82.314681458
-9.04590921681
-9.56808836654
3422.95004177
2928.07563327
2432.62361768
1936.55629245
1439.8412242
942.439049675
446.834206678
92.9498605871
-9.04949967767
-9.57488177065
3439.28998631
2945.41614797
2451.12149161
1956.39171367
1461.21956492
965.653801764
471.009954945
104.928720467
-9.0589685631
-9.57792691408
)
;
    }
    sides
    {
        type            calculated;
        value           nonuniform List<scalar> 
12
(
4293.12551423
3793.52172954
3292.6067927
2790.31702942
2286.58570988
1781.35217564
1274.57826258
765.78488889
281.683859336
25.550100768
-9.05903473247
-9.53979872594
)
;
    }
    bottom
    {
        type            calculated;
        value           nonuniform List<scalar> 0();
    }
    front
    {
        type            calculated;
        value           nonuniform List<scalar> 
167
(
4293.12551423
3793.52172954
3292.6067927
2790.31702942
2286.58570988
1781.35217564
1274.57826258
765.78488889
281.683859336
25.550100768
-9.05903473247
-9.53979872594
4294.57734117
3795.0347227
3294.18670308
2791.96764889
2288.3117133
1783.16369376
1276.44011674
767.314811795
285.276018223
28.2440119489
-9.00488091585
-9.56506235657
4296.99549574
3797.56806013
3296.84809953
2794.7677178
2291.25779853
1786.26943046
1279.74120823
770.833684113
287.744655483
28.7882206396
-9.04090633532
-9.555287925
3801.41733766
3300.88518718
2799.01215363
2295.73011459
1790.9970687
1284.77773932
776.305445437
292.284686925
30.2282597506
-9.03244329755
-9.55873182767
3306.25061705
2804.65618885
2301.67913222
1797.27663426
1291.42112618
783.381733572
298.058425056
32.0929523925
-9.03295717761
-9.55652250216
3312.91035571
2811.66523304
2309.06945393
1805.07594324
1299.65801035
792.124598441
305.304069457
34.5337895417
-9.03435549145
-9.55608682098
3320.83034239
2820.00630745
2317.87073482
1814.37158789
1309.48215628
802.568987899
314.144332177
37.6129815134
-9.03585675715
-9.55605748747
3329.9721782
2829.64252888
2328.04922979
1825.13550571
1320.87407297
814.705062699
324.634337928
41.3757846814
-9.03737574387
-9.55640397101
3340.28925665
2840.52836425
2339.56189529
1837.32903854
1333.8008892
828.503721756
336.823496225
45.8866005718
-9.03903916652
-9.55706291653
3351.72515983
2852.6076464
2352.35411398
1850.90086093
1348.21597666
843.918880401
350.758470615
51.2200637495
-9.04090045792
-9.55803240961
3364.21313882
2865.81275937
2366.35855971
1865.78541731
1364.05710299
860.885391029
366.465988288
57.4504434516
-9.04277405572
-9.55937236116
3377.67539011
2880.06352889
2381.49374479
1881.90140456
1381.24564406
879.323818455
383.95451341
64.657528689
-9.04432186386
-9.56120510605
3392.02233007
2895.26610495
2397.6626478
1899.15027522
1399.6874579
899.135878281
403.203966581
72.9154700895
-9.04518454141
-9.5638772639
3407.15204785
2911.3117971
2414.75112803
1917.41694716
1419.26923261
920.208453258
424.18856557
82.314681458
-9.04590921681
-9.56808836654
3422.95004177
2928.07563327
2432.62361768
1936.55629245
1439.8412242
942.439049675
446.834206678
92.9498605871
-9.04949967767
-9.57488177065
3439.28998631
2945.41614797
2451.12149161
1956.39171367
1461.21956492
965.653801764
471.009954945
104.928720467
-9.0589685631
-9.57792691408
)
;
    }
    atmosphere
    {
        type            calculated;
        value           nonuniform List<scalar> 
16
(
-9.82093664483
-9.81000007601
-9.8107277689
-9.81149083019
-9.81139531011
-9.81130560037
-9.81116381435
-9.81101717494
-9.81087235084
-9.81072452114
-9.81058228829
-9.81047304107
-9.81039318672
-9.81034413392
-9.81024267509
-9.81
)
;
    }
    floatingObject
    {
        type            calculated;
        value           nonuniform List<scalar> 0();
    }
    procBoundary1to0
    {
        type            processor;
        value           nonuniform List<scalar> 10(3456.03572326 2963.17706914 2470.06184564 1976.70336723 1483.13201936 989.455766101 496.6017797 118.386963362 -9.02655161441 -9.58489822318);
    }
    procBoundary1to2
    {
        type            processor;
        value           nonuniform List<scalar> 
18
(
4791.47670558
4792.87417728
4795.19027001
4300.67633298
4300.67633298
3806.53065279
3806.53065279
3812.87441136
3820.41412474
3829.11089366
3838.91797157
3849.77955809
3861.63054094
3874.39612359
3887.9914615
3902.32155633
3917.28159511
3932.75794942
)
;
    }
}


// ************************************************************************* //
