/*--------------------------------*- C++ -*----------------------------------*\
| =========                 |                                                 |
| \\      /  F ield         | OpenFOAM: The Open Source CFD Toolbox           |
|  \\    /   O peration     | Version:  v2012                                 |
|   \\  /    A nd           | Website:  www.openfoam.com                      |
|    \\/     M anipulation  |                                                 |
\*---------------------------------------------------------------------------*/
FoamFile
{
    version     2.0;
    format      ascii;
    class       volVectorField;
    location    "1.5";
    object      U;
}
// * * * * * * * * * * * * * * * * * * * * * * * * * * * * * * * * * * * * * //

dimensions      [0 1 -1 0 0 0 0];


internalField   nonuniform List<vector> 
167
(
(0.0020424438843 -0.0185575926101 1.81292675971e-21)
(0.00212504263432 -0.0211763579799 2.23797957713e-21)
(0.00221449642417 -0.0239720975557 -1.11728209006e-22)
(0.0022641016601 -0.0269644880217 5.44221956663e-22)
(0.00208983693336 -0.0300194292813 1.80364218824e-22)
(0.00140206301388 -0.0328802062183 8.27026795096e-22)
(0.000455197184232 -0.0349002188039 -2.81156352567e-22)
(0.00215703296796 -0.0369525204757 -2.19345140198e-21)
(0.0132932844722 -0.0587303327201 -9.97195528464e-21)
(0.0521692675095 -0.0580833568567 -3.22999592517e-20)
(0.0992959651152 -0.0673721576888 -2.64698548594e-20)
(0.00894862025265 -0.147835777345 -1.63769144881e-21)
(0.00358721619881 -0.0209891903352 1.01585970895e-21)
(0.00381213021485 -0.0239094438433 -2.1340381723e-21)
(0.00408181036667 -0.0270119664834 -6.81418602949e-22)
(0.00438531569541 -0.0303578881572 -1.24436971013e-21)
(0.00465001861781 -0.03393747267 -7.66845660085e-22)
(0.00477911255157 -0.0378084399798 4.32509131604e-22)
(0.00505358197377 -0.0421696037953 -3.78781953508e-22)
(0.00680338134053 -0.0495294121287 -6.34842104008e-21)
(0.00791628209403 -0.0683996631493 -7.21710196524e-21)
(0.00497291701799 -0.0610274653247 -2.33299041155e-20)
(0.00630276081066 -0.0429459332533 -2.34155415618e-20)
(0.028343657849 0.000378860768315 9.13606944359e-21)
(0.00674853933536 -0.0213856436506 2.52145322203e-22)
(0.00710665414433 -0.0243280622208 -6.73847058109e-22)
(0.007541199827 -0.0274446119438 -1.07691428021e-22)
(0.00806347034578 -0.03079790355 9.70233061124e-23)
(0.00868074781619 -0.0343606544585 2.40674878408e-22)
(0.00941368940387 -0.0380158920649 1.34363320705e-21)
(0.0104766180924 -0.0415366690483 -2.50798546104e-21)
(0.0128339166076 -0.0473992870772 -1.07899809981e-20)
(0.016537129401 -0.0652017318788 -8.38200182477e-21)
(0.016360853956 -0.0573207011922 -2.3082201831e-20)
(0.0183482540962 -0.0477600118549 -1.57646790149e-20)
(-0.00747736868797 -0.0381554977864 -6.38610375358e-22)
(0.0102452359204 -0.024020315205 2.37443946659e-22)
(0.0108609790493 -0.0270553679391 -9.26065977442e-23)
(0.0116027366992 -0.0303096348656 1.05984716041e-22)
(0.0124907584052 -0.0337486854873 -9.29404856835e-23)
(0.0135466689027 -0.0371914134453 2.78891939614e-22)
(0.0148427299508 -0.0402439637359 -1.64055084964e-22)
(0.0167651172344 -0.0452287694808 3.11584026985e-21)
(0.0194178365865 -0.0625563561519 -3.2398007205e-21)
(0.0138655543345 -0.0550328563995 -6.30577762319e-21)
(0.0128182559006 -0.0459101696679 -6.07493552908e-21)
(0.0011404153698 -0.0545943253443 -7.0891223696e-22)
(0.0139257948477 -0.0263210624886 -2.7327392782e-23)
(0.0148523589481 -0.0294149061948 1.48646720979e-23)
(0.0159569612628 -0.0326583309434 2.02015893554e-22)
(0.0172488059326 -0.0358558507158 8.2426202923e-22)
(0.0187252005912 -0.0385576461338 -1.83138539654e-22)
(0.0205030757407 -0.0429108211943 -1.58268493239e-21)
(0.022783474045 -0.0597971528402 -6.93133885325e-21)
(0.0147736132446 -0.0525608141674 -5.95373073263e-21)
(0.0153059223692 -0.0438692483552 -5.29185085051e-21)
(0.00123234880755 -0.052811784074 -1.0528158479e-21)
(0.0168028618578 -0.0254020442941 -2.02779278295e-23)
(0.0178752198601 -0.0283001856555 -2.80612803535e-23)
(0.0191464968457 -0.0313089286848 2.70060315292e-22)
(0.0206106572611 -0.0342288538535 8.47153277147e-22)
(0.0222189926751 -0.0365850602442 -3.04756945868e-22)
(0.0239857310298 -0.0403560727512 -2.62414286715e-21)
(0.0262211357552 -0.0568039975396 -8.6477023533e-21)
(0.0165173775426 -0.0500961991392 -6.66402494699e-21)
(0.017525244 -0.042002582682 -6.08602041621e-21)
(0.00386022556584 -0.051084716632 -1.23610697476e-21)
(0.019507128979 -0.0243585023246 -1.05335890265e-23)
(0.0206864849209 -0.0270404767515 5.48423957477e-24)
(0.0220773849726 -0.0297972952202 2.12835751972e-22)
(0.0236607716541 -0.0324339267055 5.37943587829e-22)
(0.0253512372725 -0.0344607224491 -1.90892597758e-21)
(0.0271179038619 -0.0376504906481 -1.24365691289e-20)
(0.0294215997849 -0.0535038860546 -5.82309596221e-21)
(0.0185763573915 -0.047344762572 4.18543977998e-21)
(0.0196256710786 -0.0396782763349 3.8561790534e-21)
(0.00562263767984 -0.0482302923095 8.71886523756e-22)
(0.0220146038308 -0.023229608456 -5.29090715694e-23)
(0.0232632293315 -0.0256829423664 -7.48160606991e-23)
(0.0247307986888 -0.0281774220352 1.47915621131e-22)
(0.0263904019666 -0.0305281192114 3.77456731954e-22)
(0.0281294346944 -0.0322390455521 -3.64650684691e-21)
(0.0298945629251 -0.0348343071281 -1.54288193726e-20)
(0.0322970203344 -0.0498728428362 -1.860252545e-20)
(0.0207801017349 -0.0442639368135 -2.1327645844e-20)
(0.021751655898 -0.0368966041322 -1.94485519208e-20)
(0.00718360661731 -0.0450890326025 -1.97535084157e-21)
(0.0243104794918 -0.0220520677446 4.48256657202e-24)
(0.0255909291092 -0.0242699294998 -5.9570068012e-23)
(0.027093728315 -0.0264946981319 -5.31243854047e-23)
(0.0287882561076 -0.028553727951 -1.81924659707e-22)
(0.0305385773672 -0.0299522412239 -1.24270733397e-21)
(0.0322725322052 -0.0319221385751 -7.46017424098e-22)
(0.0347471526077 -0.045902725402 -7.83325867005e-21)
(0.0230493261813 -0.0409077590067 -1.03074968035e-20)
(0.0239144721211 -0.0338352390757 -1.01886636874e-20)
(0.00881033748909 -0.0417558972947 -2.00464734636e-21)
(0.0263918943316 -0.0208617220807 -9.11975349324e-24)
(0.0276659473246 -0.0228427618442 -3.79109210118e-23)
(0.0291602746549 -0.0247941663092 1.38056356499e-22)
(0.0308420846693 -0.0265549915614 4.59772268207e-22)
(0.0325521328583 -0.0276429993148 -7.86574635461e-22)
(0.0341965441512 -0.028981404544 -3.38775430193e-21)
(0.0366798073632 -0.041644204052 -1.19608323452e-20)
(0.0253167621489 -0.037368774531 -8.96876071851e-21)
(0.0260446133379 -0.0305656184473 -8.57668444698e-21)
(0.01062663658 -0.0380537305193 -1.33735522022e-21)
(0.0282621644803 -0.0196944576813 -1.79502103581e-23)
(0.0294910402804 -0.0214445289612 -5.59148920283e-23)
(0.0309310984756 -0.0231268909175 -3.60317852255e-23)
(0.0325487735563 -0.0245924010061 4.00673438537e-22)
(0.0341614609485 -0.0253872981508 2.51281241744e-22)
(0.0356387412634 -0.0261274685598 3.34274094272e-21)
(0.0380082287005 -0.0371906493183 -9.70915680259e-21)
(0.0274788144966 -0.0337453087278 -1.60064489195e-20)
(0.0280216514131 -0.027130490459 -1.58030336917e-20)
(0.012597486082 -0.0341135458621 -1.07175776326e-21)
(0.0299305944876 -0.0185856485955 -1.30001865726e-23)
(0.0310760798012 -0.0201184196045 -6.8011150361e-23)
(0.0324150380328 -0.0215448850469 1.30008625629e-22)
(0.0339119752494 -0.0227253736619 6.34624076049e-22)
(0.0353570655034 -0.0232458769077 5.38536689437e-22)
(0.0365622681983 -0.0234278345127 4.26758637689e-22)
(0.0386545303997 -0.0326067729308 -1.04820758319e-20)
(0.0294551116599 -0.030123896944 -9.28759416583e-21)
(0.0298310873271 -0.0236567534752 -8.97140746462e-21)
(0.0151301403787 -0.0307452597153 -1.45074865654e-21)
(0.0314137016108 -0.0175691774393 -3.16955773567e-23)
(0.0324398412118 -0.0189072041694 -7.31369624527e-23)
(0.033631775277 -0.0201025041803 1.96740655221e-22)
(0.0349494870059 -0.0210239570132 8.03309225872e-22)
(0.0361538816001 -0.0213064714241 -1.22837416752e-21)
(0.0369676801241 -0.0210142610127 -1.15286418328e-20)
(0.0385838190722 -0.0280529832078 -2.27670610194e-20)
(0.0312107003106 -0.026688590515 -1.03961727183e-20)
(0.0316311989569 -0.0201592099695 -1.00162490353e-20)
(0.0189986172874 -0.0280276319297 -1.0578636214e-21)
(0.0327357131491 -0.0166756033793 -2.12623734565e-23)
(0.0336117278456 -0.0178506968879 -5.23306076544e-23)
(0.0346167617841 -0.0188534760981 -1.68033003806e-23)
(0.0357029519634 -0.0195631917822 3.45024685591e-22)
(0.0365927590707 -0.0196686059956 -1.0239386331e-21)
(0.0368815514477 -0.0190163974694 6.85630886024e-22)
(0.0377561889245 -0.023716131127 -3.54894332114e-21)
(0.0324635996061 -0.0236928644379 -1.03135062346e-20)
(0.0335339694984 -0.0168301334717 -1.03335806745e-20)
(0.0248931434689 -0.0262157540543 -4.68679655463e-22)
(0.0339277402051 -0.0159293849161 -1.99354008279e-23)
(0.0346309924932 -0.0169805230405 -1.98039590801e-23)
(0.0354212140662 -0.0178408603002 1.41791611709e-22)
(0.0362409133562 -0.0184058876901 6.71696411118e-22)
(0.0367655169271 -0.0184294135964 8.0170987146e-23)
(0.0364206762584 -0.0175685248853 -1.55907923646e-23)
(0.0362124328672 -0.019880033045 -1.57906740517e-20)
(0.0328582347816 -0.0215983121621 -1.25092076246e-20)
(0.0356335696944 -0.0139264545496 -1.23074530816e-20)
(0.0312463453753 -0.0220090416066 2.63657367183e-21)
(0.0350253017989 -0.0153466811718 -1.18213847478e-23)
(0.0355425179411 -0.0163158653921 -1.67755008864e-23)
(0.0361054300641 -0.0170873486739 -1.35133541906e-23)
(0.0366522318213 -0.0175823465412 5.51819055074e-23)
(0.0368394703416 -0.0176464284416 -4.66479809319e-22)
(0.0359267327978 -0.0167929310763 3.68229299378e-22)
(0.0341086075001 -0.0169147058403 -5.05684398525e-21)
(0.0313577264372 -0.0213632202124 -1.14831129733e-20)
(0.0338443575723 -0.0113335984718 -1.14963345746e-20)
(0.0479799921658 0.00823494453398 -6.45243015534e-21)
)
;

boundaryField
{
    back
    {
        type            noSlip;
    }
    sides
    {
        type            noSlip;
    }
    bottom
    {
        type            noSlip;
    }
    front
    {
        type            noSlip;
    }
    atmosphere
    {
        type            pressureInletOutletVelocity;
        value           nonuniform List<vector> 
16
(
(0 -0.147835777345 0)
(0 0.000378860768315 0)
(0 -0.0381554977864 0)
(0 -0.0545943253443 0)
(0 -0.052811784074 0)
(0 -0.051084716632 0)
(0 -0.0482302923095 0)
(0 -0.0450890326025 0)
(0 -0.0417558972947 0)
(0 -0.0380537305193 0)
(0 -0.0341135458621 0)
(0 -0.0307452597153 0)
(0 -0.0280276319297 0)
(0 -0.0262157540543 0)
(0 -0.0220090416066 0)
(0.0479799921658 0.00823494453398 -6.45243015534e-21)
)
;
    }
    floatingObject
    {
        type            movingWallVelocity;
        value           nonuniform List<vector> 0();
    }
    procBoundary1to0
    {
        type            processor;
        value           nonuniform List<vector> 10((0.0360655309578 -0.0149357544131 9.23379454357e-24) (0.0363901821408 -0.0158629056912 1.16899489638e-23) (0.0367228063154 -0.0165886505179 8.63551486729e-23) (0.0370120001313 -0.0170556584315 2.54212592292e-22) (0.0369500837545 -0.0171905002286 -3.97258207458e-22) (0.035713960801 -0.0166689417522 1.80196178673e-21) (0.0321571115968 -0.0152842965519 2.05317840128e-21) (0.026634528966 -0.0236161221473 -6.35403207468e-21) (0.00681008046551 -0.00604655509777 -5.95763523171e-21) (0.00822217572021 0.124777375291 -1.64073686736e-20));
    }
    procBoundary1to2
    {
        type            processor;
        value           nonuniform List<vector> 
18
(
(0.00197502163477 -0.0160656602593 1.89384493636e-21)
(0.00340289948854 -0.0181992684513 -6.67569633649e-22)
(0.0064560135031 -0.0185683485455 4.01615579027e-22)
(0.00973816575895 -0.0211444630194 -7.65755166772e-23)
(0.00973816575895 -0.0211444630194 -7.65755166772e-23)
(0.0131564266238 -0.0234174007853 4.80691937139e-23)
(0.0131564266238 -0.0234174007853 4.80691937139e-23)
(0.0159105769 -0.0226593273812 -1.57353565321e-23)
(0.0185227364231 -0.0217956212921 -2.83154075281e-23)
(0.0209696091622 -0.0208584354397 -2.5407716954e-23)
(0.0232369865386 -0.0198786620607 -6.0818663402e-24)
(0.0253223074011 -0.0188865557928 -6.64465524597e-24)
(0.0272286440138 -0.0179118019064 -5.21595398275e-24)
(0.0289641029628 -0.0169832414165 -2.49124428243e-24)
(0.0305426622073 -0.0161279355007 -1.16067359107e-23)
(0.0319842500177 -0.015369867696 -4.60099429582e-24)
(0.0333140099934 -0.0147282646065 1.0219132596e-24)
(0.0345608339491 -0.014216228425 2.58226697962e-23)
)
;
    }
}


// ************************************************************************* //
