/*--------------------------------*- C++ -*----------------------------------*\
| =========                 |                                                 |
| \\      /  F ield         | OpenFOAM: The Open Source CFD Toolbox           |
|  \\    /   O peration     | Version:  v2012                                 |
|   \\  /    A nd           | Website:  www.openfoam.com                      |
|    \\/     M anipulation  |                                                 |
\*---------------------------------------------------------------------------*/
FoamFile
{
    version     2.0;
    format      ascii;
    class       volScalarField;
    location    "4.6";
    object      ddt0(epsilon);
}
// * * * * * * * * * * * * * * * * * * * * * * * * * * * * * * * * * * * * * //

dimensions      [0 2 -4 0 0 0 0];


internalField   nonuniform List<scalar> 
167
(
-0.000367449993441
-0.000412561736209
-0.000438830754546
-0.000447094846895
-0.000450076297988
-0.000451632240333
-0.000452767158395
-0.000453744804745
-0.00041504634898
-0.000426082267103
-0.000460201227925
-0.000471036699346
-0.000474836178909
-0.000476690325314
-0.000478051772819
-0.000479328101929
-0.000446719250481
-0.000466926080665
-0.000507412063347
-0.000520488107247
-0.000525026077016
-0.000527216680622
-0.00052890140333
-0.000530603499996
-0.000459223242134
-0.000482983450811
-0.000526395361877
-0.000540575730546
-0.00054547751298
-0.000547840591943
-0.00054968599304
-0.000551546393471
-0.000553792967511
-0.000464758911649
-0.000489638498573
-0.000534354535375
-0.000549052598474
-0.000554109696935
-0.000556513747443
-0.000558414076332
-0.000560380352408
-0.00056274306451
-0.000566373011572
-0.000467864022359
-0.000492795906603
-0.000538158446275
-0.000553119255136
-0.000558236052325
-0.000560617238543
-0.000562484979165
-0.000564446512263
-0.00056682520594
-0.000570462561755
-0.000470180778801
-0.000494725189112
-0.000540485417509
-0.000555624645427
-0.000560772336298
-0.000563112021303
-0.000564917132721
-0.000566820394667
-0.000569149695305
-0.000572653744096
-0.000472317509829
-0.000496252836196
-0.00054233957238
-0.000557653863371
-0.000562842239885
-0.000565147241506
-0.00056688617172
-0.00056872042357
-0.000570968279742
-0.000574318126742
-0.00047444411312
-0.000497699709881
-0.000544097074333
-0.000559605888505
-0.000564858336067
-0.000567146796495
-0.000568832387057
-0.000570599422259
-0.000572762608296
-0.000575947088001
-0.000476630632883
-0.000499164887371
-0.000545889935731
-0.000561620607201
-0.000566962313642
-0.000569255083502
-0.000570903986136
-0.000572617223493
-0.000574698962853
-0.000577740464659
-0.000478909576476
-0.000500654518902
-0.000547755503714
-0.000563736966241
-0.000569194799654
-0.00057151382248
-0.000573144832742
-0.000574818284528
-0.000576841032292
-0.000579754279893
-0.000481258297106
-0.00050225642046
-0.000549715449856
-0.000565963959623
-0.000571557884344
-0.000573924825564
-0.000575557288383
-0.000577211884836
-0.000579195013255
-0.00058200937273
-0.000483648583083
-0.000503908400408
-0.00055176459148
-0.00056829878521
-0.000574043135102
-0.000576474255237
-0.000578127298795
-0.000579780569005
-0.000581750688285
-0.000584484778511
-0.000486097344096
-0.000505663891199
-0.000553902369247
-0.000570726902032
-0.000576633774489
-0.00057914138087
-0.000580828914982
-0.000582502310133
-0.000584479692774
-0.000587171609911
-0.000488594146835
-0.000507442455789
-0.000556102374361
-0.000573232433902
-0.000579309172621
-0.000581901150729
-0.000583631848875
-0.00058534841464
-0.000587369954428
-0.000590011351176
-0.000491117826476
-0.000509312678407
-0.000558359159064
-0.000575790650473
-0.000582033663545
-0.000584722649975
-0.000586517822837
-0.00058828900495
-0.000590311463653
-0.000593023854074
-0.000493646618136
-0.000511234469578
-0.000560654139411
-0.000578364827618
-0.000584792808218
-0.000587581359119
-0.00058944524389
-0.000496163339965
-0.000513155326815
-0.000562956597184
-0.00058096568266
-0.00058755065698
-0.000565275143153
-0.000583533423393
)
;

boundaryField
{
    back
    {
        type            calculated;
        value           nonuniform List<scalar> 
167
(
-0.000367449993441
-0.000412561736209
-0.000438830754546
-0.000447094846895
-0.000450076297988
-0.000451632240333
-0.000452767158395
-0.000453744804745
-0.00041504634898
-0.000426082267103
-0.000460201227925
-0.000471036699346
-0.000474836178909
-0.000476690325314
-0.000478051772819
-0.000479328101929
-0.000446719250481
-0.000466926080665
-0.000507412063347
-0.000520488107247
-0.000525026077016
-0.000527216680622
-0.00052890140333
-0.000530603499996
-0.000459223242134
-0.000482983450811
-0.000526395361877
-0.000540575730546
-0.00054547751298
-0.000547840591943
-0.00054968599304
-0.000551546393471
-0.000553792967511
-0.000464758911649
-0.000489638498573
-0.000534354535375
-0.000549052598474
-0.000554109696935
-0.000556513747443
-0.000558414076332
-0.000560380352408
-0.00056274306451
-0.000566373011572
-0.000467864022359
-0.000492795906603
-0.000538158446275
-0.000553119255136
-0.000558236052325
-0.000560617238543
-0.000562484979165
-0.000564446512263
-0.00056682520594
-0.000570462561755
-0.000470180778801
-0.000494725189112
-0.000540485417509
-0.000555624645427
-0.000560772336298
-0.000563112021303
-0.000564917132721
-0.000566820394667
-0.000569149695305
-0.000572653744096
-0.000472317509829
-0.000496252836196
-0.00054233957238
-0.000557653863371
-0.000562842239885
-0.000565147241506
-0.00056688617172
-0.00056872042357
-0.000570968279742
-0.000574318126742
-0.00047444411312
-0.000497699709881
-0.000544097074333
-0.000559605888505
-0.000564858336067
-0.000567146796495
-0.000568832387057
-0.000570599422259
-0.000572762608296
-0.000575947088001
-0.000476630632883
-0.000499164887371
-0.000545889935731
-0.000561620607201
-0.000566962313642
-0.000569255083502
-0.000570903986136
-0.000572617223493
-0.000574698962853
-0.000577740464659
-0.000478909576476
-0.000500654518902
-0.000547755503714
-0.000563736966241
-0.000569194799654
-0.00057151382248
-0.000573144832742
-0.000574818284528
-0.000576841032292
-0.000579754279893
-0.000481258297106
-0.00050225642046
-0.000549715449856
-0.000565963959623
-0.000571557884344
-0.000573924825564
-0.000575557288383
-0.000577211884836
-0.000579195013255
-0.00058200937273
-0.000483648583083
-0.000503908400408
-0.00055176459148
-0.00056829878521
-0.000574043135102
-0.000576474255237
-0.000578127298795
-0.000579780569005
-0.000581750688285
-0.000584484778511
-0.000486097344096
-0.000505663891199
-0.000553902369247
-0.000570726902032
-0.000576633774489
-0.00057914138087
-0.000580828914982
-0.000582502310133
-0.000584479692774
-0.000587171609911
-0.000488594146835
-0.000507442455789
-0.000556102374361
-0.000573232433902
-0.000579309172621
-0.000581901150729
-0.000583631848875
-0.00058534841464
-0.000587369954428
-0.000590011351176
-0.000491117826476
-0.000509312678407
-0.000558359159064
-0.000575790650473
-0.000582033663545
-0.000584722649975
-0.000586517822837
-0.00058828900495
-0.000590311463653
-0.000593023854074
-0.000493646618136
-0.000511234469578
-0.000560654139411
-0.000578364827618
-0.000584792808218
-0.000587581359119
-0.00058944524389
-0.000496163339965
-0.000513155326815
-0.000562956597184
-0.00058096568266
-0.00058755065698
-0.000565275143153
-0.000583533423393
)
;
    }
    sides
    {
        type            calculated;
        value           nonuniform List<scalar> 8(-0.000367449993441 -0.000412561736209 -0.000438830754546 -0.000447094846895 -0.000450076297988 -0.000451632240333 -0.000452767158395 -0.000453744804745);
    }
    bottom
    {
        type            calculated;
        value           nonuniform List<scalar> 
18
(
-0.000367449993441
-0.00041504634898
-0.000446719250481
-0.000459223242134
-0.000464758911649
-0.000467864022359
-0.000470180778801
-0.000472317509829
-0.00047444411312
-0.000476630632883
-0.000478909576476
-0.000481258297106
-0.000483648583083
-0.000486097344096
-0.000488594146835
-0.000491117826476
-0.000493646618136
-0.000496163339965
)
;
    }
    front
    {
        type            calculated;
        value           nonuniform List<scalar> 
167
(
-0.000367449993441
-0.000412561736209
-0.000438830754546
-0.000447094846895
-0.000450076297988
-0.000451632240333
-0.000452767158395
-0.000453744804745
-0.00041504634898
-0.000426082267103
-0.000460201227925
-0.000471036699346
-0.000474836178909
-0.000476690325314
-0.000478051772819
-0.000479328101929
-0.000446719250481
-0.000466926080665
-0.000507412063347
-0.000520488107247
-0.000525026077016
-0.000527216680622
-0.00052890140333
-0.000530603499996
-0.000459223242134
-0.000482983450811
-0.000526395361877
-0.000540575730546
-0.00054547751298
-0.000547840591943
-0.00054968599304
-0.000551546393471
-0.000553792967511
-0.000464758911649
-0.000489638498573
-0.000534354535375
-0.000549052598474
-0.000554109696935
-0.000556513747443
-0.000558414076332
-0.000560380352408
-0.00056274306451
-0.000566373011572
-0.000467864022359
-0.000492795906603
-0.000538158446275
-0.000553119255136
-0.000558236052325
-0.000560617238543
-0.000562484979165
-0.000564446512263
-0.00056682520594
-0.000570462561755
-0.000470180778801
-0.000494725189112
-0.000540485417509
-0.000555624645427
-0.000560772336298
-0.000563112021303
-0.000564917132721
-0.000566820394667
-0.000569149695305
-0.000572653744096
-0.000472317509829
-0.000496252836196
-0.00054233957238
-0.000557653863371
-0.000562842239885
-0.000565147241506
-0.00056688617172
-0.00056872042357
-0.000570968279742
-0.000574318126742
-0.00047444411312
-0.000497699709881
-0.000544097074333
-0.000559605888505
-0.000564858336067
-0.000567146796495
-0.000568832387057
-0.000570599422259
-0.000572762608296
-0.000575947088001
-0.000476630632883
-0.000499164887371
-0.000545889935731
-0.000561620607201
-0.000566962313642
-0.000569255083502
-0.000570903986136
-0.000572617223493
-0.000574698962853
-0.000577740464659
-0.000478909576476
-0.000500654518902
-0.000547755503714
-0.000563736966241
-0.000569194799654
-0.00057151382248
-0.000573144832742
-0.000574818284528
-0.000576841032292
-0.000579754279893
-0.000481258297106
-0.00050225642046
-0.000549715449856
-0.000565963959623
-0.000571557884344
-0.000573924825564
-0.000575557288383
-0.000577211884836
-0.000579195013255
-0.00058200937273
-0.000483648583083
-0.000503908400408
-0.00055176459148
-0.00056829878521
-0.000574043135102
-0.000576474255237
-0.000578127298795
-0.000579780569005
-0.000581750688285
-0.000584484778511
-0.000486097344096
-0.000505663891199
-0.000553902369247
-0.000570726902032
-0.000576633774489
-0.00057914138087
-0.000580828914982
-0.000582502310133
-0.000584479692774
-0.000587171609911
-0.000488594146835
-0.000507442455789
-0.000556102374361
-0.000573232433902
-0.000579309172621
-0.000581901150729
-0.000583631848875
-0.00058534841464
-0.000587369954428
-0.000590011351176
-0.000491117826476
-0.000509312678407
-0.000558359159064
-0.000575790650473
-0.000582033663545
-0.000584722649975
-0.000586517822837
-0.00058828900495
-0.000590311463653
-0.000593023854074
-0.000493646618136
-0.000511234469578
-0.000560654139411
-0.000578364827618
-0.000584792808218
-0.000587581359119
-0.00058944524389
-0.000496163339965
-0.000513155326815
-0.000562956597184
-0.00058096568266
-0.00058755065698
-0.000565275143153
-0.000583533423393
)
;
    }
    atmosphere
    {
        type            calculated;
        value           nonuniform List<scalar> 0();
    }
    floatingObject
    {
        type            calculated;
        value           nonuniform List<scalar> 0();
    }
    procBoundary2to0
    {
        type            processor;
        value           nonuniform List<scalar> 
14
(
-0.000591250086026
-0.000593396772446
-0.000596095197487
-0.000590421722089
-0.000591250086026
-0.00059238759918
-0.000498576369643
-0.000515120647643
-0.000590421722089
-0.000590288995219
-0.000515120647643
-0.00056772764473
-0.000590288995219
-0.000586236528529
)
;
    }
    procBoundary2to1
    {
        type            processor;
        value           nonuniform List<scalar> 
18
(
-0.000454577978399
-0.000480767136944
-0.000532440189315
-0.000532440189315
-0.000557250892448
-0.000557250892448
-0.000573524358197
-0.000577355649892
-0.000579247533925
-0.000580565679551
-0.00058185031556
-0.000583296484326
-0.000585002687676
-0.000586979082105
-0.000589220844376
-0.000591699296368
-0.000594430566917
-0.000597269902246
)
;
    }
}


// ************************************************************************* //
