/*--------------------------------*- C++ -*----------------------------------*\
| =========                 |                                                 |
| \\      /  F ield         | OpenFOAM: The Open Source CFD Toolbox           |
|  \\    /   O peration     | Version:  v2012                                 |
|   \\  /    A nd           | Website:  www.openfoam.com                      |
|    \\/     M anipulation  |                                                 |
\*---------------------------------------------------------------------------*/
FoamFile
{
    version     2.0;
    format      ascii;
    class       volVectorField;
    location    "4.6";
    object      ddtCorrDdt0(U);
}
// * * * * * * * * * * * * * * * * * * * * * * * * * * * * * * * * * * * * * //

dimensions      [0 1 -2 0 0 0 0];


internalField   nonuniform List<vector> 
167
(
(0.00630751253241 -0.00642514012624 2.76693975184e-23)
(0.0061364053258 -0.0195374922063 -3.5786757977e-22)
(0.00617092023476 -0.0323578128444 1.08189154915e-22)
(0.00625356162342 -0.0452493428708 1.40664788445e-22)
(0.00634386068352 -0.0582046602502 1.54724297227e-22)
(0.00642960600669 -0.071152437094 3.84391067889e-23)
(0.00650052882343 -0.0840099932207 3.42951128835e-23)
(0.00653010763275 -0.0967834541967 -4.96619723007e-22)
(0.019126147836 -0.00621455731949 4.23698447683e-23)
(0.0189751034941 -0.0192363295703 -7.43591049809e-23)
(0.019107425296 -0.032026998098 9.33942748683e-23)
(0.0193484217608 -0.0448638016814 2.18234890634e-22)
(0.0196397269859 -0.0577440963551 8.69380450045e-22)
(0.019956371896 -0.0706287349707 3.76172206793e-22)
(0.0202550072184 -0.0834627151754 4.46459018409e-22)
(0.020455810961 -0.0962435857856 -8.02728457644e-23)
(0.0315047293629 -0.00615804313967 2.02703250331e-23)
(0.0314345060768 -0.0190608654064 -6.53896777208e-22)
(0.0316700486252 -0.0317366924256 -2.94947776984e-23)
(0.0320654469411 -0.0444785900888 1.65213357258e-22)
(0.032568012497 -0.0572791469495 1.98486354684e-22)
(0.0331415884273 -0.0701244226235 1.07563611705e-22)
(0.0337058235072 -0.0830047787777 3.47539332195e-23)
(0.0341454429687 -0.0959620428588 5.76552142468e-24)
(0.0437629526861 -0.0061026268697 2.33489313648e-23)
(0.0437616052898 -0.0188294213384 -2.92154673102e-22)
(0.0441224568356 -0.0313360056825 -2.19421041815e-23)
(0.0447063681564 -0.043931808292 1.17330823628e-22)
(0.0454555681587 -0.0566098622355 1.24909292327e-22)
(0.0463278019251 -0.0693986828038 7.17606037132e-23)
(0.0472361099789 -0.0823365986503 3.12291916448e-23)
(0.0480492869782 -0.0954911658353 -4.68168274141e-23)
(0.0486040363192 -0.10888424353 -5.35467360287e-23)
(0.0558153404449 -0.00601119806718 2.62891296373e-22)
(0.0558780568873 -0.0184933786247 -5.92166840955e-22)
(0.0563812606632 -0.0307741621669 -1.03340386739e-22)
(0.0571849646554 -0.0431599271374 6.32766629874e-23)
(0.0582230016781 -0.0556607872857 7.81639204726e-23)
(0.0594461993488 -0.0683275367712 5.3667667569e-23)
(0.0607850117914 -0.0812493433702 1.71989777348e-23)
(0.0621073092366 -0.0945485839385 -1.31724469851e-23)
(0.0632310627351 -0.108398645343 -5.08038757309e-23)
(0.0638049271825 -0.123014885991 7.61588706749e-23)
(0.0675847885053 -0.00587243649944 1.01402855814e-22)
(0.0677030143927 -0.0180356894945 -3.51402468393e-22)
(0.0683704371449 -0.0300223903529 -7.9688080269e-23)
(0.0694235415535 -0.0421193815185 4.82680455217e-23)
(0.070793045319 -0.0543693089966 7.26812344284e-23)
(0.0724292978575 -0.0668422766953 5.06144573878e-23)
(0.0742682313984 -0.0796662438004 1.66081201108e-23)
(0.076200673489 -0.0930225348167 3.38068726698e-24)
(0.0780538524188 -0.107162917299 -2.31626479992e-24)
(0.0795933452454 -0.122412309835 5.03558611291e-23)
(0.0789955937479 -0.0056912704072 4.78065048012e-23)
(0.0791639801607 -0.0174469202778 -9.53629020097e-23)
(0.0800142808453 -0.0290497123666 -3.20250673478e-24)
(0.0813429530615 -0.0407741488371 7.36987901075e-23)
(0.0830814500113 -0.052682699338 7.22473619444e-23)
(0.0851890027658 -0.0648639324815 4.77513876307e-23)
(0.0876109305063 -0.0774757897569 3.39143751803e-23)
(0.0902684397241 -0.0907488938951 2.11220022105e-23)
(0.0930316055063 -0.104991961503 -2.63095995049e-25)
(0.0957431188086 -0.120564109104 8.93561307953e-24)
(0.089962907436 -0.00546404978374 1.78793975604e-22)
(0.0901854879053 -0.0167207187929 -5.64773758711e-22)
(0.0912282555253 -0.0278385995172 -1.04389034746e-22)
(0.092851356446 -0.0390942395729 4.56548350244e-23)
(0.0949889226427 -0.050554804313 5.42556529103e-23)
(0.0976097336601 -0.0623266369688 3.78647182983e-23)
(0.100680426933 -0.0745875835785 2.76791098478e-23)
(0.104151508186 -0.0875930451357 3.27376378485e-24)
(0.107955575478 -0.101676990824 7.1851725763e-24)
(0.112025502664 -0.11720489675 9.62797014741e-24)
(0.100395039926 -0.00518441534465 -9.54162872199e-23)
(0.100682838355 -0.0158562654199 -3.1982082464e-22)
(0.101920189944 -0.0263753457306 -9.52566002103e-23)
(0.103847984136 -0.0370590428019 -1.26873197202e-23)
(0.106401061927 -0.0479583752257 3.50139196159e-23)
(0.109558509302 -0.0591871127724 3.30595356703e-23)
(0.113311071043 -0.0709362138378 -1.76935719947e-23)
(0.117645614471 -0.083469107334 1.71995743795e-23)
(0.122554283379 -0.0971156177789 -1.13643402549e-23)
(0.128054612623 -0.112221947002 -2.21272379188e-25)
(0.110201113238 -0.00486565109177 -4.72631955576e-23)
(0.110567977113 -0.0148261598372 -6.79634507626e-22)
(0.111992383673 -0.0246598078525 -1.42955916883e-22)
(0.114222575001 -0.0346605398342 -2.77978697018e-23)
(0.117191342382 -0.0448794969271 2.7056839277e-23)
(0.1208891321 -0.055430945134 8.49255610006e-24)
(0.125326114037 -0.0665023049892 7.98640744397e-24)
(0.130528364619 -0.0783491190979 -1.77867802524e-24)
(0.13654368766 -0.0912785729212 8.45523366489e-24)
(0.143459307649 -0.105607641445 -1.80041314207e-23)
(0.119302127625 -0.00449080220516 1.77183901202e-22)
(0.119736177645 -0.0136463250195 2.28486238686e-22)
(0.121343280709 -0.0226987875636 -7.81117946182e-24)
(0.123860666151 -0.0319083103787 -1.63423414547e-23)
(0.127228694147 -0.0413275488576 2.44891432391e-23)
(0.131445619428 -0.0510655686085 1.24920905804e-23)
(0.13654279451 -0.0612978635555 9.28892547956e-24)
(0.142578279209 -0.072256154045 2.25684757994e-24)
(0.149648200762 -0.0842125405548 -1.92720671027e-23)
(0.157887443697 -0.0974509737251 -1.15073505521e-23)
(0.1276111347 -0.00407536839783 1.50534158999e-22)
(0.128101866261 -0.012334439489 -1.15030922739e-22)
(0.129876812494 -0.0205051183305 -6.26832066732e-23)
(0.132657275034 -0.0288240013187 -6.99957813853e-24)
(0.136387510063 -0.0373311260235 1.28112533173e-23)
(0.141078256622 -0.0461288849994 1.91264351454e-23)
(0.146781412413 -0.0553714735617 -3.33345832204e-23)
(0.153581847493 -0.0652600112396 6.68327936353e-24)
(0.161606497004 -0.0760174892411 -2.18187283319e-23)
(0.171018126162 -0.0878731630049 -5.3872701372e-23)
(0.135046546865 -0.00361600225728 5.02050493313e-23)
(0.135589333623 -0.0108996184202 -5.90515882449e-22)
(0.137504331155 -0.0181052838351 -1.63076414365e-22)
(0.140511174138 -0.0254448554311 -5.06644833787e-23)
(0.144551563735 -0.0329426630872 -8.39273275179e-24)
(0.149652317823 -0.0406855400976 1.08396862114e-23)
(0.155880322429 -0.0488026947441 2.85354493422e-26)
(0.16333998089 -0.0574561545915 -1.49144690527e-23)
(0.172179563309 -0.0668266709343 -7.13480969935e-23)
(0.182581431023 -0.0770904556099 -4.88886133895e-23)
(0.141539059492 -0.00312561999041 7.83369081456e-23)
(0.142125023714 -0.00936740666542 -2.16513216659e-22)
(0.144148912143 -0.015537418699 -1.68704986478e-22)
(0.147334206807 -0.0218239614054 -1.01714735019e-22)
(0.151624277862 -0.0282262686877 -5.11669894067e-24)
(0.157051657759 -0.0348144788064 -3.73728614862e-23)
(0.163699073303 -0.041692979195 -3.71877256609e-23)
(0.171689134954 -0.0489806852209 6.22998522788e-23)
(0.181181775491 -0.0568169678522 -7.6233574918e-23)
(0.192373654757 -0.0653418924487 -4.63839577224e-23)
(0.147039516736 -0.00260388542148 -8.67439579478e-23)
(0.147649197413 -0.007758370039 -2.10631862407e-22)
(0.149750982409 -0.0128438424028 -8.41145539029e-23)
(0.153060204005 -0.0180156477153 -6.87294252328e-23)
(0.157526235062 -0.0232565514827 2.59039159096e-23)
(0.163183601189 -0.0286137344876 -1.37861574448e-24)
(0.170128736 -0.0341592223494 -7.42890995494e-24)
(0.178503086052 -0.0399765315647 3.73848345849e-23)
(0.188472442864 -0.0461703421803 1.6896058628e-23)
(0.20024875779 -0.0528363027316 -5.31173894283e-24)
(0.151518077614 -0.00207455376394 2.04191546074e-22)
(0.152129091825 -0.00610730418525 8.98393189416e-23)
(0.154265481303 -0.0100650731827 4.77197809931e-23)
(0.15763853293 -0.0140827120733 -1.02704865663e-24)
(0.162197183102 -0.0181113294279 1.21531926461e-23)
(0.167979526152 -0.0221830493346 -1.81200527561e-23)
(0.175091142341 -0.0263379128476 -2.01674825443e-23)
(0.183685560615 -0.0306179381868 6.8004320558e-24)
(0.193950918664 -0.0350752549304 -2.27137734387e-23)
(0.206083926278 -0.0397798946053 -5.18595973594e-23)
(0.154953454466 -0.00154189465699 3.89433766055e-22)
(0.155548264656 -0.00444452241351 1.51786124667e-22)
(0.15767584602 -0.00725802622205 9.12249206043e-23)
(0.161050432854 -0.0101068750842 2.87080100084e-23)
(0.165610589052 -0.0129097616759 1.54685613057e-23)
(0.171408053644 -0.0156750219788 -2.4635802515e-23)
(0.178550372819 -0.0184043855421 -3.99947646688e-23)
(0.157353190624 -0.0010167680666 2.68781360125e-22)
(0.15790059811 -0.00279223888824 2.85739395166e-23)
(0.159991163248 -0.00447447883179 5.87641678198e-23)
(0.163306412511 -0.00618051226371 3.88472361015e-23)
(0.167776326491 -0.00777496430866 9.94558366309e-24)
(0.161223568894 -0.00176603886669 -3.23177193862e-23)
(0.164400810386 -0.00237686151037 -3.40406505503e-23)
)
;

boundaryField
{
    back
    {
        type            calculated;
        value           uniform (0 0 0);
    }
    sides
    {
        type            calculated;
        value           uniform (0 0 0);
    }
    bottom
    {
        type            calculated;
        value           uniform (0 0 0);
    }
    front
    {
        type            calculated;
        value           uniform (0 0 0);
    }
    atmosphere
    {
        type            calculated;
        value           nonuniform List<vector> 0();
    }
    floatingObject
    {
        type            calculated;
        value           nonuniform List<vector> 0();
    }
    procBoundary2to0
    {
        type            processor;
        value           nonuniform List<vector> 
14
(
(0.187184385141 -0.0210879154993 -2.60961399979e-23)
(0.197549449115 -0.0237560423446 -7.0875109923e-26)
(0.209771903357 -0.0264129292126 -1.59309991445e-23)
(0.173484934273 -0.00924117926763 3.89248039781e-24)
(0.187184385141 -0.0210879154993 -2.60961399979e-23)
(0.180519560369 -0.0105513019682 -1.38082909879e-23)
(0.15869739381 -0.000501790951054 -1.84366093953e-23)
(0.159270056681 -0.00119894080187 -7.04712813247e-23)
(0.173484934273 -0.00924117926763 3.89248039781e-24)
(0.168718941571 -0.00279743108397 8.3947538311e-24)
(0.159270056681 -0.00119894080187 -7.04712813247e-23)
(0.161404104402 0.000722319701927 -5.80384260403e-23)
(0.168718941571 -0.00279743108397 8.3947538311e-24)
(0.164394032037 0.00122818975497 -4.40639022926e-23)
)
;
    }
    procBoundary2to1
    {
        type            processor;
        value           nonuniform List<vector> 
18
(
(0.00650573759003 -0.109377669209 -2.87823349358e-22)
(0.0204733272745 -0.108904776943 -5.22023498451e-22)
(0.034310619786 -0.108894658716 -9.1028054091e-24)
(0.034310619786 -0.108894658716 -9.1028054091e-24)
(0.0484866739539 -0.122723289931 1.25922386824e-22)
(0.0484866739539 -0.122723289931 1.25922386824e-22)
(0.0635191358702 -0.138729146913 1.72250819148e-23)
(0.0805031347447 -0.13907710005 2.06284531607e-23)
(0.0982342445252 -0.13781754156 3.6705663452e-23)
(0.116302924062 -0.134555909779 1.2971396463e-23)
(0.134184852041 -0.129159596417 1.99324069729e-23)
(0.151389646924 -0.121674541997 6.96992968196e-24)
(0.167476540952 -0.112241494392 -7.66021634577e-25)
(0.182042989038 -0.101042917311 6.28491044614e-23)
(0.194781013285 -0.0884076711621 7.25932464631e-26)
(0.205500378361 -0.0746773928575 7.22677538008e-23)
(0.214062780179 -0.0600932060933 2.65469744853e-23)
(0.220350808846 -0.0448167000651 6.75404020754e-23)
)
;
    }
}


// ************************************************************************* //
