/*--------------------------------*- C++ -*----------------------------------*\
| =========                 |                                                 |
| \\      /  F ield         | OpenFOAM: The Open Source CFD Toolbox           |
|  \\    /   O peration     | Version:  v2012                                 |
|   \\  /    A nd           | Website:  www.openfoam.com                      |
|    \\/     M anipulation  |                                                 |
\*---------------------------------------------------------------------------*/
FoamFile
{
    version     2.0;
    format      ascii;
    class       volScalarField;
    location    "4.6";
    object      p;
}
// * * * * * * * * * * * * * * * * * * * * * * * * * * * * * * * * * * * * * //

dimensions      [1 -1 -2 0 0 0 0];


internalField   nonuniform List<scalar> 
167
(
8532.27257791
8043.32361358
7555.0184821
7067.37710855
6580.41990878
6094.16917415
5608.65482212
5123.9108913
8531.58045138
8042.62749435
7554.31304079
7066.65883654
6579.68620145
6093.41825847
5607.8844247
5123.11870197
8530.22905916
8041.26949035
7552.93975764
7065.26343228
6578.2628558
6091.96211253
5606.39141617
5121.5842227
8528.21771044
8039.24764982
7550.89563932
7063.18670083
6576.1444238
6089.79460265
5604.16695404
5119.29555809
4635.21516115
8525.55515207
8036.56990234
7548.18769367
7060.4345857
6573.33517544
6086.91677014
5601.21064514
5116.25171346
4632.07658583
4148.72138313
8522.25625995
8033.2510962
7544.83040716
7057.02065439
6569.84713032
6083.33815466
5597.52633918
5112.44777018
4628.14002413
4144.64076344
8518.34040817
8029.31093663
7540.84299766
7052.96328727
6565.69722336
6079.0735478
5593.12548172
5107.8896925
4623.40433085
4139.70763583
8513.83192115
8024.77390924
7536.24960485
7048.28601408
6560.90796686
6074.14387018
5588.02661441
5102.59265022
4617.87952773
4133.92606967
8508.76023432
8019.66938546
7531.07958979
7043.01795536
6555.50803874
6068.57703036
5582.25654704
5096.58155974
4611.58817389
4127.31406318
8503.16001004
8014.03157973
7525.3675468
7037.19397358
6549.53257463
6062.40851046
5575.85106778
5089.89267565
4604.56651499
4119.90836217
8497.0704527
8007.89967172
7519.1531921
7030.85455415
6543.0231251
6055.68129973
5568.85512092
5082.57333931
4596.86546618
4111.76354772
8490.53412922
8001.3178856
7512.48111101
7024.04543516
6536.02724644
6048.44544879
5561.32202229
5074.68118996
4588.5475916
4102.94945886
8483.5987079
7994.33348912
7505.39993726
7016.81700438
6528.59777548
6040.75706673
5553.31214483
5066.28182104
4579.68585667
4093.54726228
8476.31431379
7986.99781558
7497.96207347
7009.22357858
6520.79183676
6032.67722097
5544.89158343
5057.4479955
4570.36016915
4083.64545517
8468.73441043
7979.3643114
7490.2224941
7001.32246717
6512.67005552
6024.2709721
5536.13126886
5048.25725671
4560.65633933
4073.3376977
8460.91311387
7971.48892114
7482.23833745
6993.17324986
6504.29567973
6015.60651517
5527.10524843
5038.79136984
4550.6644191
4062.72567985
8452.90671848
7963.42849469
7474.0681361
6984.83714365
6495.73358117
6006.75324866
5517.88921898
8444.77201871
7955.24101762
7465.77051921
6976.37582245
6487.04913816
7457.40189552
6967.84994175
)
;

boundaryField
{
    back
    {
        type            calculated;
        value           nonuniform List<scalar> 
167
(
8532.27257791
8043.32361358
7555.0184821
7067.37710855
6580.41990878
6094.16917415
5608.65482212
5123.9108913
8531.58045138
8042.62749435
7554.31304079
7066.65883654
6579.68620145
6093.41825847
5607.8844247
5123.11870197
8530.22905916
8041.26949035
7552.93975764
7065.26343228
6578.2628558
6091.96211253
5606.39141617
5121.5842227
8528.21771044
8039.24764982
7550.89563932
7063.18670083
6576.1444238
6089.79460265
5604.16695404
5119.29555809
4635.21516115
8525.55515207
8036.56990234
7548.18769367
7060.4345857
6573.33517544
6086.91677014
5601.21064514
5116.25171346
4632.07658583
4148.72138313
8522.25625995
8033.2510962
7544.83040716
7057.02065439
6569.84713032
6083.33815466
5597.52633918
5112.44777018
4628.14002413
4144.64076344
8518.34040817
8029.31093663
7540.84299766
7052.96328727
6565.69722336
6079.0735478
5593.12548172
5107.8896925
4623.40433085
4139.70763583
8513.83192115
8024.77390924
7536.24960485
7048.28601408
6560.90796686
6074.14387018
5588.02661441
5102.59265022
4617.87952773
4133.92606967
8508.76023432
8019.66938546
7531.07958979
7043.01795536
6555.50803874
6068.57703036
5582.25654704
5096.58155974
4611.58817389
4127.31406318
8503.16001004
8014.03157973
7525.3675468
7037.19397358
6549.53257463
6062.40851046
5575.85106778
5089.89267565
4604.56651499
4119.90836217
8497.0704527
8007.89967172
7519.1531921
7030.85455415
6543.0231251
6055.68129973
5568.85512092
5082.57333931
4596.86546618
4111.76354772
8490.53412922
8001.3178856
7512.48111101
7024.04543516
6536.02724644
6048.44544879
5561.32202229
5074.68118996
4588.5475916
4102.94945886
8483.5987079
7994.33348912
7505.39993726
7016.81700438
6528.59777548
6040.75706673
5553.31214483
5066.28182104
4579.68585667
4093.54726228
8476.31431379
7986.99781558
7497.96207347
7009.22357858
6520.79183676
6032.67722097
5544.89158343
5057.4479955
4570.36016915
4083.64545517
8468.73441043
7979.3643114
7490.2224941
7001.32246717
6512.67005552
6024.2709721
5536.13126886
5048.25725671
4560.65633933
4073.3376977
8460.91311387
7971.48892114
7482.23833745
6993.17324986
6504.29567973
6015.60651517
5527.10524843
5038.79136984
4550.6644191
4062.72567985
8452.90671848
7963.42849469
7474.0681361
6984.83714365
6495.73358117
6006.75324866
5517.88921898
8444.77201871
7955.24101762
7465.77051921
6976.37582245
6487.04913816
7457.40189552
6967.84994175
)
;
    }
    sides
    {
        type            calculated;
        value           nonuniform List<scalar> 8(8532.27257791 8043.32361358 7555.0184821 7067.37710855 6580.41990878 6094.16917415 5608.65482212 5123.9108913);
    }
    bottom
    {
        type            calculated;
        value           nonuniform List<scalar> 
18
(
8777.08137134
8776.38926297
8775.0378444
8773.02644104
8770.36381498
8767.06485348
8763.14893434
8758.64038607
8753.56864239
8747.9683605
8741.87874059
8735.34235435
8728.40686739
8721.12238694
8713.54246572
8705.72124513
8697.71496501
8689.58030981
)
;
    }
    front
    {
        type            calculated;
        value           nonuniform List<scalar> 
167
(
8532.27257791
8043.32361358
7555.0184821
7067.37710855
6580.41990878
6094.16917415
5608.65482212
5123.9108913
8531.58045138
8042.62749435
7554.31304079
7066.65883654
6579.68620145
6093.41825847
5607.8844247
5123.11870197
8530.22905916
8041.26949035
7552.93975764
7065.26343228
6578.2628558
6091.96211253
5606.39141617
5121.5842227
8528.21771044
8039.24764982
7550.89563932
7063.18670083
6576.1444238
6089.79460265
5604.16695404
5119.29555809
4635.21516115
8525.55515207
8036.56990234
7548.18769367
7060.4345857
6573.33517544
6086.91677014
5601.21064514
5116.25171346
4632.07658583
4148.72138313
8522.25625995
8033.2510962
7544.83040716
7057.02065439
6569.84713032
6083.33815466
5597.52633918
5112.44777018
4628.14002413
4144.64076344
8518.34040817
8029.31093663
7540.84299766
7052.96328727
6565.69722336
6079.0735478
5593.12548172
5107.8896925
4623.40433085
4139.70763583
8513.83192115
8024.77390924
7536.24960485
7048.28601408
6560.90796686
6074.14387018
5588.02661441
5102.59265022
4617.87952773
4133.92606967
8508.76023432
8019.66938546
7531.07958979
7043.01795536
6555.50803874
6068.57703036
5582.25654704
5096.58155974
4611.58817389
4127.31406318
8503.16001004
8014.03157973
7525.3675468
7037.19397358
6549.53257463
6062.40851046
5575.85106778
5089.89267565
4604.56651499
4119.90836217
8497.0704527
8007.89967172
7519.1531921
7030.85455415
6543.0231251
6055.68129973
5568.85512092
5082.57333931
4596.86546618
4111.76354772
8490.53412922
8001.3178856
7512.48111101
7024.04543516
6536.02724644
6048.44544879
5561.32202229
5074.68118996
4588.5475916
4102.94945886
8483.5987079
7994.33348912
7505.39993726
7016.81700438
6528.59777548
6040.75706673
5553.31214483
5066.28182104
4579.68585667
4093.54726228
8476.31431379
7986.99781558
7497.96207347
7009.22357858
6520.79183676
6032.67722097
5544.89158343
5057.4479955
4570.36016915
4083.64545517
8468.73441043
7979.3643114
7490.2224941
7001.32246717
6512.67005552
6024.2709721
5536.13126886
5048.25725671
4560.65633933
4073.3376977
8460.91311387
7971.48892114
7482.23833745
6993.17324986
6504.29567973
6015.60651517
5527.10524843
5038.79136984
4550.6644191
4062.72567985
8452.90671848
7963.42849469
7474.0681361
6984.83714365
6495.73358117
6006.75324866
5517.88921898
8444.77201871
7955.24101762
7465.77051921
6976.37582245
6487.04913816
7457.40189552
6967.84994175
)
;
    }
    atmosphere
    {
        type            calculated;
        value           nonuniform List<scalar> 0();
    }
    floatingObject
    {
        type            calculated;
        value           nonuniform List<scalar> 0();
    }
    procBoundary2to0
    {
        type            processor;
        value           nonuniform List<scalar> 
14
(
5029.13457556
4540.48017083
4051.91558725
5997.78217868
5029.13457556
5508.55992474
8436.56421536
7946.98512708
5997.78217868
6478.30646842
7946.98512708
7449.02616217
6478.30646842
6959.31988702
)
;
    }
    procBoundary2to1
    {
        type            processor;
        value           nonuniform List<scalar> 
18
(
4639.96423842
4639.1521732
4637.57209176
4637.57209176
4151.96693182
4151.96693182
3666.21685316
3661.9857571
3656.84378915
3650.78164001
3643.81052937
3635.96611382
3627.30963554
3617.92201974
3607.89563749
3597.3262445
3586.31590787
3574.97673956
)
;
    }
}


// ************************************************************************* //
