/*--------------------------------*- C++ -*----------------------------------*\
| =========                 |                                                 |
| \\      /  F ield         | OpenFOAM: The Open Source CFD Toolbox           |
|  \\    /   O peration     | Version:  v2012                                 |
|   \\  /    A nd           | Website:  www.openfoam.com                      |
|    \\/     M anipulation  |                                                 |
\*---------------------------------------------------------------------------*/
FoamFile
{
    version     2.0;
    format      ascii;
    class       surfaceVectorField;
    location    "4.6";
    object      Uf;
}
// * * * * * * * * * * * * * * * * * * * * * * * * * * * * * * * * * * * * * //

dimensions      [0 1 -1 0 0 0 0];


internalField   nonuniform List<vector> 
305
(
(-0.00124436470668 0.00217136036271 7.26499704152e-22)
(-0.00217149087761 0.00120621759958 7.93811313717e-22)
(-0.00116119694025 0.00421982075239 6.09534041669e-22)
(-0.00204873077776 0.00309405195985 9.58427350862e-22)
(-0.00114499515649 0.00618422208078 8.65325783206e-23)
(-0.00196498398722 0.00504694092587 4.87272973897e-22)
(-0.00119802480328 0.00818612174337 -4.79912195861e-22)
(-0.00200295647124 0.00703100371173 -1.94553289528e-22)
(-0.00128118852205 0.0102982885965 -7.53079707551e-22)
(-0.00211380342602 0.0090743063428 -6.84084154955e-22)
(-0.00137535432321 0.0125595709067 -6.74844750052e-22)
(-0.00226343952017 0.0112333354151 -7.86057613281e-22)
(-0.00148355766626 0.0149982040926 -2.70849472876e-22)
(-0.00244162443079 0.0135492382746 -5.80005963377e-22)
(-0.0026587661714 0.0160554563306 -9.11059183504e-23)
(-0.00312483284125 0.00197937148028 1.02573896043e-21)
(-0.00415101202901 0.00108774072513 1.17898224169e-21)
(-0.00300591488768 0.00392673179745 8.36166283091e-22)
(-0.00399641293145 0.00283974941031 1.32065952239e-21)
(-0.00298864978203 0.0058769127231 2.06187106048e-22)
(-0.00391585996221 0.00472048120597 7.41175873749e-22)
(-0.00309189061818 0.00786839676498 -3.98725248622e-22)
(-0.00399566912676 0.00666304642236 1.00160357416e-23)
(-0.00327429868164 0.00994225868045 -7.17062060685e-22)
(-0.00418954129049 0.00864856122642 -4.91524774648e-22)
(-0.00351080141883 0.0121406435475 -6.91218826606e-22)
(-0.00446425965759 0.0107285714861 -6.17826323874e-22)
(-0.00380103237308 0.0145027220913 -4.00262408852e-22)
(-0.00480703241336 0.012946943793 -4.8216412059e-22)
(-0.00522930171177 0.0153414050597 -1.54247034618e-22)
(-0.00498479342267 0.00179345417903 1.47390280365e-21)
(-0.00594451786342 0.0010108116223 1.38276808513e-21)
(-0.00487826668121 0.00363532563721 1.22566911305e-21)
(-0.00583851420126 0.00263171273902 1.53018407412e-21)
(-0.00488890465304 0.00550004374347 5.45004803442e-22)
(-0.00578119495636 0.00441309373675 9.90294404723e-22)
(-0.00505137918504 0.00740328549793 -8.27834902847e-23)
(-0.00590008227057 0.00626147283894 3.06106642995e-22)
(-0.00533251862182 0.00937779165216 -3.92289037837e-22)
(-0.00616591098558 0.0081446645045 -1.71621451859e-22)
(-0.0057082005666 0.0114610255168 -4.08771617858e-22)
(-0.00655013247802 0.0101099114 -2.95656263891e-22)
(-0.00617686030864 0.0136949823723 -2.36148746357e-22)
(-0.0070447243314 0.0121983939403 -2.46790207738e-22)
(-0.00765386126679 0.0144457053442 -7.14267779153e-23)
(-0.00675612276622 0.00168582681514 1.4390493556e-21)
(-0.00763024621187 0.000973747851045 1.23354802132e-21)
(-0.00669489633826 0.00342294758674 1.29480936579e-21)
(-0.00757571306091 0.00248232838752 1.43790723378e-21)
(-0.00673861266589 0.00517608972921 7.51396244276e-22)
(-0.00753480447157 0.00415460152889 1.07000793632e-21)
(-0.00695630060856 0.00696773276004 2.17268681421e-22)
(-0.00769275339186 0.00588828835165 4.88323599907e-22)
(-0.00732339731093 0.00882496018267 -7.49886779132e-23)
(-0.00802487140393 0.00765145805308 8.20884082586e-23)
(-0.00782019379781 0.0107815787822 -1.33674853771e-22)
(-0.00850911662699 0.00948633913605 -6.32791195539e-23)
(-0.00844713811447 0.0128666117357 -8.20682392958e-23)
(-0.00913303454214 0.0114288191508 -7.13493788606e-23)
(-0.00922091100413 0.0151202490603 -2.94351036218e-23)
(-0.00991228762829 0.0135081891199 -2.13466662079e-23)
(-0.010866719651 0.0157578582725 -8.63205679288e-24)
(-0.00841848014848 0.00160646035239 1.2324058995e-21)
(-0.00923645873814 0.000940470205785 9.94870486994e-22)
(-0.00838306295635 0.00323872136331 1.21310580431e-21)
(-0.00920790047812 0.00234364579841 1.26059463571e-21)
(-0.00845098354647 0.00487467468083 8.0693529195e-22)
(-0.00917106449958 0.00390559389555 1.0069456627e-21)
(-0.00871851449912 0.00654140085132 3.53143326744e-22)
(-0.00936033393266 0.00551138451346 5.21271952169e-22)
(-0.00916275529376 0.00826870799384 9.37979666179e-23)
(-0.00975371143422 0.0071409273333 1.79563516827e-22)
(-0.00976495674231 0.0100791889823 -9.53644643391e-25)
(-0.0103218099866 0.00883133286997 4.30146529155e-23)
(-0.010528369155 0.0120004531093 -1.06278057728e-23)
(-0.0110570707392 0.0106108122673 -6.01126409229e-24)
(-0.0114719291963 0.0140598026482 -5.4361937904e-25)
(-0.0119749355202 0.0125001921722 7.42071262833e-25)
(-0.0126266237216 0.0162867286592 4.04499774633e-24)
(-0.0130969237953 0.0145234073924 1.30542165994e-24)
(-0.0144603721363 0.0167068080845 1.11440455928e-23)
(-0.0099857048292 0.00151802132598 1.02305922321e-21)
(-0.010754121568 0.000895913303996 8.37280074633e-22)
(-0.00995648338988 0.00303380966967 1.05443449411e-21)
(-0.0107234998215 0.00218633063011 1.12396462697e-21)
(-0.0100403789254 0.00454888426206 7.21282322915e-22)
(-0.0106863070103 0.00363347650027 8.85271220527e-22)
(-0.0103489167527 0.00608537126649 3.47692142251e-22)
(-0.0108974932454 0.00510276790227 4.76842325504e-22)
(-0.0108580688847 0.00766935852497 1.28780203124e-22)
(-0.0113389739058 0.0065874939243 1.96342359536e-22)
(-0.0115475824771 0.00931841192682 3.79570334666e-23)
(-0.011972751358 0.00812024276793 6.073540015e-23)
(-0.0124214897362 0.0110562321664 5.35861294333e-24)
(-0.0127972924778 0.00972059447687 1.24970781914e-23)
(-0.0134998501935 0.0128981331071 2.59111230181e-24)
(-0.0138192056209 0.0114024046842 7.45753124987e-25)
(-0.0148109265103 0.0148663259858 8.40446950639e-24)
(-0.0150669633532 0.0131811679303 -1.25004902599e-23)
(-0.0165720853572 0.015072812764 1.29888457733e-23)
(-0.0114477623127 0.00141218342832 9.38185478399e-22)
(-0.0121658967722 0.000841495340703 8.66495729538e-22)
(-0.0114096213953 0.00280689786808 9.54801353394e-22)
(-0.0121179660165 0.00200679991549 1.09273452185e-21)
(-0.0114989300628 0.00419079594696 6.40831223115e-22)
(-0.012070272643 0.00333012924204 8.56849496219e-22)
(-0.0118362542234 0.00558503934621 3.25492542789e-22)
(-0.0122922421944 0.00465652239304 4.67190642778e-22)
(-0.0123952086073 0.00701122503979 1.28297556562e-22)
(-0.0127661508043 0.00598695751359 1.98802565615e-22)
(-0.0131522646888 0.00849013242987 3.52754448748e-23)
(-0.01345311012 0.00735047110871 6.62315490325e-23)
(-0.0141086059255 0.0100283162058 7.88421837303e-24)
(-0.0143372257836 0.00876003389449 1.84832681516e-23)
(-0.015282574599 0.011640056399 -1.43458494368e-23)
(-0.0154323701324 0.0102229157734 6.88481644105e-24)
(-0.0167026669481 0.0133378908598 -7.91611399299e-24)
(-0.0167646788253 0.0117473180423 -1.62348771494e-23)
(-0.0183585187635 0.013339394327 8.89343416207e-25)
(-0.0127914543225 0.00129005464766 1.02104477299e-21)
(-0.0134555600978 0.00077907817092 8.86300179556e-22)
(-0.0127342345764 0.00255691247972 9.94782664672e-22)
(-0.0133845766468 0.00181148120602 1.0642564667e-21)
(-0.0128168621525 0.00380109605141 6.83208915882e-22)
(-0.0133144727187 0.00300194032735 8.54308077599e-22)
(-0.0131699357285 0.00504502977316 3.40500665605e-22)
(-0.013536541145 0.00417966231527 4.79650760026e-22)
(-0.0137620187573 0.00630650548152 1.36736558086e-22)
(-0.0140283554038 0.00534926865838 1.9701350687e-22)
(-0.0145653299408 0.00759987340436 4.94393723093e-23)
(-0.0147474585708 0.00653515925562 7.12480994861e-23)
(-0.0155762452552 0.00893092435021 1.74838662196e-23)
(-0.0156693238873 0.00774683721388 3.56556731561e-23)
(-0.016809754587 0.0103055743335 4.99578872841e-24)
(-0.0168071570559 0.00898552790419 6.77332414937e-24)
(-0.018294172059 0.0117227444262 -7.42941974021e-24)
(-0.0181800561973 0.0102518730176 2.7629950037e-24)
(-0.0198181872378 0.0115449505711 -7.05923243531e-24)
(-0.0140046311727 0.00115693812343 9.29511873274e-22)
(-0.0146121807395 0.000709832065273 7.0200766636e-22)
(-0.0139220353418 0.00228914233076 9.23781879631e-22)
(-0.0145165884657 0.00160676807271 8.62272460424e-22)
(-0.0139875600185 0.00338901294122 6.50749921743e-22)
(-0.0144143573028 0.00265759943411 7.4009075355e-22)
(-0.0143436054728 0.00447707482919 3.36163601291e-22)
(-0.0146248749871 0.00368323432642 4.30034069966e-22)
(-0.0149521049041 0.0055695529314 1.3152504827e-22)
(-0.0151213342022 0.00468948182889 1.7768108315e-22)
(-0.015779041833 0.006671846519 5.74644003329e-23)
(-0.0158503563601 0.00569498471661 5.95983462865e-23)
(-0.0168170276876 0.00779113013791 2.49451310859e-23)
(-0.0167890149393 0.00670588355766 3.0992735053e-23)
(-0.0180779862995 0.0089225108486 4.54053042466e-24)
(-0.0179377174909 0.00771934240801 1.74757427854e-24)
(-0.0195872274622 0.0100683214498 3.1331823086e-24)
(-0.0193223997556 0.00872969710423 1.87347344518e-24)
(-0.0209586092345 0.00973036354469 -1.88287633075e-25)
(-0.0150805199024 0.00101921948206 6.34768253509e-22)
(-0.0156311916831 0.000632781454935 3.58336507801e-22)
(-0.0149673352722 0.00201148054831 6.78581334343e-22)
(-0.0155087456654 0.00139944369796 5.98480582002e-22)
(-0.0150062408582 0.0029636512796 5.19374901774e-22)
(-0.0153665809279 0.00230674274887 5.46701911292e-22)
(-0.0153528248137 0.00389482481119 2.71551551825e-22)
(-0.0155562774642 0.0031795693859 3.45426337379e-22)
(-0.0159626868672 0.00481535371016 1.05754381166e-22)
(-0.0160422241863 0.00402245185918 1.39526076586e-22)
(-0.0167930481291 0.00573025622901 3.31266810066e-23)
(-0.0167655782081 0.00485013823452 4.51986522683e-23)
(-0.0178316774817 0.00663647950847 7.79517824569e-24)
(-0.017695246311 0.00566374085064 9.35731346355e-24)
(-0.0190881737792 0.00753096544804 -9.19482700932e-25)
(-0.0188306465494 0.00645568484192 -1.0771222173e-24)
(-0.0205847960577 0.00839981188564 -1.44799649649e-24)
(-0.020187273546 0.00721541196807 -3.39637093433e-24)
(-0.0217934537591 0.00793375619247 9.97957451061e-25)
(-0.0160164487121 0.000884299296225 3.22048836294e-22)
(-0.0165153988712 0.000552368918452 1.32795711962e-22)
(-0.0158672721962 0.00173271054192 4.6660115895e-22)
(-0.016357150321 0.00119480339908 4.7198873875e-22)
(-0.0158717460173 0.00253586054863 3.72753346897e-22)
(-0.0161698423621 0.00195805539275 4.5041855712e-22)
(-0.0161975590268 0.00331162542591 2.1340086214e-22)
(-0.0163322757103 0.00268027208554 2.98242961561e-22)
(-0.0167939361122 0.00406331307625 7.89703476879e-23)
(-0.0167942052203 0.00336271289798 1.15413990439e-22)
(-0.0176091964229 0.00479404466703 2.14292847253e-23)
(-0.0174965263056 0.00401837525716 3.14570106333e-23)
(-0.0186252214673 0.00549661597946 4.85013000557e-25)
(-0.0183976485595 0.00464335597195 7.8213292052e-24)
(-0.0198472574777 0.00615915866966 -3.5540104507e-24)
(-0.0194915750264 0.00522486989635 -6.87642555703e-24)
(-0.0212936457327 0.00676893112733 -9.50416986779e-25)
(-0.0207930015545 0.00574794077728 -7.24452575754e-24)
(-0.0223134445055 0.00619896916741 -5.6041566807e-24)
(-0.0168151488951 0.000745754126499 2.82735614418e-22)
(-0.017261157085 0.000474103336354 1.01060930384e-22)
(-0.0166248719872 0.00145804179939 4.55806136919e-22)
(-0.0170695093283 0.000995531287404 4.03926127299e-22)
(-0.0165885634594 0.00211953340642 3.75908171784e-22)
(-0.0168314992581 0.00161798881999 4.43591677233e-22)
(-0.0168834106228 0.00273874741798 2.0025608986e-22)
(-0.016951745909 0.0021956960013 2.79152257715e-22)
(-0.0174517782524 0.00332963662481 6.79006533844e-23)
(-0.0173853949907 0.00272453020749 1.0531120858e-22)
(-0.0182346527223 0.00388376292894 1.78490551132e-23)
(-0.0180508551343 0.00321642079893 2.60336690232e-23)
(-0.0192074167954 0.0043930086161 4.59890647614e-25)
(-0.0189067870815 0.00366465863133 8.70911271415e-24)
(-0.0203696692242 0.00484313716404 -1.05669408639e-23)
(-0.0199402691878 0.00405267255338 -7.25375500949e-24)
(-0.0217343702514 0.00521167213282 -1.18982654515e-23)
(-0.0211584475814 0.00436277088433 -9.57832111853e-24)
(-0.0225810670652 0.00457297296592 -1.56447218519e-23)
(-0.0174800220427 0.000616256983121 2.22251443265e-22)
(-0.0178774727442 0.000399001353488 -4.04003392032e-23)
(-0.01724443483 0.00119359239632 3.91711667613e-22)
(-0.0176469541493 0.000805121972809 2.3447567862e-22)
(-0.0171606484613 0.00171558693452 3.46835763165e-22)
(-0.0173536821284 0.00129329660401 3.03952103014e-22)
(-0.0174158584479 0.0021907021988 1.84207376435e-22)
(-0.0174271334542 0.00173476068682 2.12405036003e-22)
(-0.017945014495 0.00262839425901 6.34442242184e-23)
(-0.0178234061809 0.00211930051053 7.82454983205e-23)
(-0.0186814314235 0.0030188707145 1.68937266242e-23)
(-0.0184416203527 0.00245853327053 2.0205620053e-23)
(-0.0195937924747 0.00335136303753 9.9546705704e-25)
(-0.0192393297423 0.00274631257755 4.69783042536e-24)
(-0.0206773592908 0.00360817374313 -6.26513526416e-24)
(-0.0201962442589 0.00296208380543 -9.36011859277e-24)
(-0.021940047534 0.00376580581948 -1.33247775189e-23)
(-0.021313904354 0.00308541966642 -9.2047035382e-24)
(-0.0226116327663 0.00308954086902 -1.46958418076e-23)
(-0.0180139545425 0.000491096824034 -2.81761038483e-23)
(-0.0183686306204 0.000326294097718 -3.18429148225e-22)
(-0.0177302417748 0.00094041881209 1.46716114021e-22)
(-0.018096372367 0.000625275552682 -7.78285218996e-23)
(-0.0175941513882 0.00133314346723 1.69521375852e-22)
(-0.0177465742596 0.000988322180982 3.27682380782e-23)
(-0.0178035570211 0.00167604552223 1.06443157888e-22)
(-0.0177702890666 0.00130265972114 6.72908577384e-23)
(-0.0182857052934 0.00196800740695 3.5006894155e-23)
(-0.0181157030974 0.00155600707161 1.92819488341e-23)
(-0.0189660814873 0.00221023959105 8.0097238541e-24)
(-0.0186842018966 0.00175945057143 2.5651460799e-24)
(-0.019807951329 0.00238374234513 -5.65775522445e-24)
(-0.0194130867387 0.00190539142374 -2.20086618794e-24)
(-0.0207995963969 0.0024766122499 -1.22996868668e-23)
(-0.0202888241609 0.0019718589175 -9.20338278818e-24)
(-0.0219425543827 0.00245883644582 -1.05757678268e-23)
(-0.0212953744913 0.00193560962931 -6.36756493569e-24)
(-0.0224449861021 0.00176889450916 5.90216710849e-24)
(-0.0184244398336 0.000375770791489 -3.68081566276e-22)
(-0.0187444166369 0.000257059657498 -6.12906032964e-22)
(-0.0180902602197 0.000706269476623 -1.91776397842e-22)
(-0.0184269094451 0.000456969842342 -3.67754193238e-22)
(-0.0178992283655 0.000977359895381 -6.94622800352e-23)
(-0.0180177679419 0.000706077793342 -2.04976603627e-22)
(-0.0180589251546 0.00119757557429 -1.98703513159e-23)
(-0.0179907028807 0.000906422128388 -7.44427256126e-23)
(-0.0184899580671 0.00136504399855 -1.3159799241e-23)
(-0.0182834789337 0.00104516850498 -3.25731676623e-23)
(-0.0191094391741 0.00147724225822 -7.64544396215e-24)
(-0.0187967335244 0.0011314719731 -9.7899036119e-24)
(-0.0198734358014 0.00152204454546 -5.74649375167e-24)
(-0.0194583876538 0.00115432429445 1.16597542239e-24)
(-0.0207631076496 0.00146942327795 -3.27126085705e-24)
(-0.0202367237814 0.00109564725181 3.51818870062e-24)
(-0.0217741209154 0.00129951406935 1.01103699996e-23)
(-0.0211253743838 0.000930551216877 1.13387023813e-23)
(-0.0221231347911 0.000630716725286 3.12027397524e-23)
(-0.0187229950901 0.000266331627578 -6.12578659926e-22)
(-0.0190106260631 0.000191317070563 -7.14209034017e-22)
(-0.0183377370731 0.000491601124756 -3.80954399023e-22)
(-0.0186520782995 0.000302074637593 -4.23969536943e-22)
(-0.0180907293308 0.000655216945383 -2.09957049204e-22)
(-0.0181813842429 0.000450865694695 -2.51132305501e-22)
(-0.018198541497 0.000767537580279 -8.7145541959e-23)
(-0.0181031388443 0.000551676571677 -1.06891121717e-22)
(-0.0185746962333 0.000830258648701 -2.92032720332e-23)
(-0.0183461666142 0.00059192824732 -3.92065907022e-23)
(-0.0191289805975 0.000830918007929 -9.78484227366e-25)
(-0.0187977553011 0.000579496319093 -1.04674590566e-23)
(-0.0198094168306 0.000759768259495 1.04306578747e-23)
(-0.0193878623617 0.000499761730739 1.11403806388e-23)
(-0.0205920209122 0.000597074777347 1.8128151939e-23)
(-0.0214678944846 0.000309431999746 3.24310721341e-23)
(-0.0189206229892 0.000165338972991 -5.25599911034e-22)
(-0.0191756678443 0.000127980870661 -4.65902893934e-22)
(-0.0184858626279 0.000292986627336 -2.94147443421e-22)
(-0.0187794958572 0.000160820303846 -2.20717280673e-22)
(-0.0181845594222 0.000366351767087 -1.48066378014e-22)
(-0.0182545896166 0.000220453993493 -1.04946624685e-22)
(-0.0182414275004 0.000387467495732 -5.89521704598e-23)
(-0.0181237648725 0.000230213048053 -3.7776890375e-23)
(-0.0185619537368 0.000359461716511 -2.04707777256e-23)
(-0.0183181403005 0.000183955335995 -2.00861139612e-23)
(-0.0190460481022 0.000272448140976 1.65140580951e-24)
(-0.0190248565938 7.43602471029e-05 -1.61020263573e-22)
(-0.0185415260994 0.000116422045095 -3.15164619372e-23)
(-0.0181876909984 9.85287278449e-05 5.34286295317e-24)
(-0.0182360360794 1.0171601756e-05 7.17340350787e-23)
(-0.0181965817694 3.574299628e-05 1.08916612356e-24)
(-0.0180606426513 -6.75979090299e-05 6.0866083999e-23)
(-0.0181063188455 -0.000152919849195 1.27257256125e-22)
)
;

boundaryField
{
    back
    {
        type            calculated;
        value           uniform (0 0 0);
    }
    sides
    {
        type            calculated;
        value           uniform (0 0 0);
    }
    bottom
    {
        type            calculated;
        value           uniform (0 0 0);
    }
    front
    {
        type            calculated;
        value           uniform (0 0 0);
    }
    atmosphere
    {
        type            calculated;
        value           nonuniform List<vector> 0();
    }
    floatingObject
    {
        type            calculated;
        value           nonuniform List<vector> 0();
    }
    procBoundary2to0
    {
        type            processor;
        value           nonuniform List<vector> 
14
(
(-0.0200746407268 0.000336984277951 1.67738209807e-23)
(-0.0208387977695 7.23886666527e-05 1.9434975971e-23)
(-0.0216826198341 -0.000318663937785 2.57243200313e-23)
(-0.0187107403185 8.74691864514e-05 -8.79254684731e-24)
(-0.0196372857815 0.00010054027032 1.74835437448e-23)
(-0.0192163534834 -7.56070837011e-05 4.58021226242e-24)
(-0.0192496129288 7.05986602134e-05 -1.16561679873e-22)
(-0.0188211389435 3.24028574565e-05 5.31307227656e-23)
(-0.0184638574467 -7.40822727898e-05 -8.4078830829e-24)
(-0.0182077445659 -0.0001956746206 8.96051547254e-24)
(-0.0185073561106 -5.4229572648e-05 1.56381219781e-22)
(-0.018136633091 -0.000186693133605 1.09374279316e-22)
(-0.0180686905314 -0.000293741630769 6.8737433348e-23)
(-0.0179191504753 -0.000345998233144 9.41871931018e-23)
)
;
    }
    procBoundary2to1
    {
        type            processor;
        value           nonuniform List<vector> 
18
(
(-0.00161239871703 0.0176539109684 2.72494602007e-22)
(-0.00415830452565 0.0170691881259 -6.16993672163e-23)
(-0.00675427355517 0.0161162254802 -3.22574034674e-23)
(-0.00840150495671 0.0168906790579 9.73427082618e-24)
(-0.0101745658297 0.0175819041298 -7.26337390703e-24)
(-0.012035822868 0.0182103197623 5.41368063218e-24)
(-0.0140444756618 0.0187110058467 -1.21922194109e-23)
(-0.0164030819587 0.016978940772 -1.30585570626e-23)
(-0.0184135903987 0.0151265600213 -1.59879598724e-23)
(-0.0200700530354 0.0131866943186 -3.14674655579e-23)
(-0.0213797948725 0.0112142476293 -2.56322751565e-23)
(-0.0223514200584 0.00924092310563 -2.34443011511e-23)
(-0.0229945849848 0.0072945901597 -2.73926313204e-23)
(-0.0233297037517 0.00548402789282 -3.74129267617e-23)
(-0.0233985310954 0.00379941871437 -3.93563693724e-23)
(-0.0232438014254 0.00229393308865 -3.49227919622e-23)
(-0.0229071253262 0.00097753465945 -9.53115627527e-24)
(-0.0224322202782 -0.000131057448226 -1.19153561563e-24)
)
;
    }
}


// ************************************************************************* //
