/*--------------------------------*- C++ -*----------------------------------*\
| =========                 |                                                 |
| \\      /  F ield         | OpenFOAM: The Open Source CFD Toolbox           |
|  \\    /   O peration     | Version:  v2012                                 |
|   \\  /    A nd           | Website:  www.openfoam.com                      |
|    \\/     M anipulation  |                                                 |
\*---------------------------------------------------------------------------*/
FoamFile
{
    version     2.0;
    format      ascii;
    class       volScalarField;
    location    "1.6";
    object      k;
}
// * * * * * * * * * * * * * * * * * * * * * * * * * * * * * * * * * * * * * //

dimensions      [0 2 -2 0 0 0 0];


internalField   nonuniform List<scalar> 
167
(
0.00678141262896
0.0078070577245
0.00807887445149
0.00816459489837
0.00820835320233
0.00824446429667
0.00827985402471
0.00831581779324
0.00784175589357
0.00950688010868
0.00993451685398
0.0100643246974
0.0101183029854
0.0101559879617
0.0101909486741
0.0102259187552
0.00817999893074
0.0100341268498
0.0105205507922
0.0106658394559
0.0107224624569
0.0107602244814
0.0107952438926
0.0108306746889
0.00830502335619
0.0102293499369
0.0107386396492
0.010889232067
0.010945772499
0.0109826142729
0.0110170471866
0.0110523974861
0.0110896921947
0.00836161130816
0.0103109932581
0.0108281553821
0.0109795716005
0.0110346822379
0.011069862087
0.0111029681162
0.0111374045215
0.0111741554077
0.011216122719
0.00839687595618
0.0103553123411
0.010874844436
0.0110254560732
0.0110786580429
0.011111841048
0.0111431909864
0.0111761675807
0.0112117166719
0.0112525771765
0.00842557922199
0.0103878951633
0.0109081396429
0.0110576014177
0.0111088884425
0.0111400400437
0.0111694925561
0.0112007694661
0.011234789407
0.011274119888
0.00845206969206
0.0104168193361
0.0109374902806
0.0110859318115
0.0111354962441
0.0111647403593
0.0111923271253
0.0112218547391
0.0112542266824
0.0112918408376
0.00847752888875
0.0104444531273
0.0109656847144
0.0111133645458
0.0111614528879
0.0111889744927
0.0112148104547
0.0112426399004
0.0112733608175
0.0113092038321
0.0085022266208
0.0104714111242
0.0109934336588
0.0111406164276
0.0111874695666
0.0112134652522
0.0112376973698
0.0112639278347
0.0112930542263
0.0113271429895
0.0085261870636
0.0104978006777
0.0110208434194
0.0111677653672
0.0112135996024
0.0112382567526
0.011261039097
0.0112857901408
0.0113134089975
0.0113458011665
0.00854937570179
0.0105235946842
0.011047862793
0.0111947273545
0.0112397316407
0.0112632216073
0.0112847043709
0.01130810233
0.0113343164908
0.011365094211
0.00857174725578
0.010548736274
0.0110744097045
0.0112213917484
0.0112657304902
0.0112882077639
0.0113085330804
0.011330704813
0.011355624568
0.0113848870538
0.00859325535314
0.0105731648559
0.0111004026724
0.0112476543207
0.0112914716559
0.0113130755659
0.011332376978
0.0113534470663
0.0113771867936
0.0114050430557
0.00861385269779
0.0105968207081
0.0111257661061
0.0112734222882
0.0113168468146
0.0113377050803
0.0113561091996
0.0113761994166
0.0113988729807
0.0114254435277
0.00863348996456
0.0106196446593
0.0111504296637
0.0112986134698
0.011341763788
0.0113619963952
0.0113796248822
0.0113988548565
0.0114205825406
0.0114459829203
0.00865211492761
0.0106415782095
0.0111743273788
0.011323154873
0.0113661437841
0.0113858623384
0.0114028253047
0.00866967043462
0.0106625602698
0.0111973965349
0.0113469785259
0.0113899030337
0.0112195705317
0.0113700003395
)
;

boundaryField
{
    back
    {
        type            kqRWallFunction;
        value           nonuniform List<scalar> 
167
(
0.00678141262896
0.0078070577245
0.00807887445149
0.00816459489837
0.00820835320233
0.00824446429667
0.00827985402471
0.00831581779324
0.00784175589357
0.00950688010868
0.00993451685398
0.0100643246974
0.0101183029854
0.0101559879617
0.0101909486741
0.0102259187552
0.00817999893074
0.0100341268498
0.0105205507922
0.0106658394559
0.0107224624569
0.0107602244814
0.0107952438926
0.0108306746889
0.00830502335619
0.0102293499369
0.0107386396492
0.010889232067
0.010945772499
0.0109826142729
0.0110170471866
0.0110523974861
0.0110896921947
0.00836161130816
0.0103109932581
0.0108281553821
0.0109795716005
0.0110346822379
0.011069862087
0.0111029681162
0.0111374045215
0.0111741554077
0.011216122719
0.00839687595618
0.0103553123411
0.010874844436
0.0110254560732
0.0110786580429
0.011111841048
0.0111431909864
0.0111761675807
0.0112117166719
0.0112525771765
0.00842557922199
0.0103878951633
0.0109081396429
0.0110576014177
0.0111088884425
0.0111400400437
0.0111694925561
0.0112007694661
0.011234789407
0.011274119888
0.00845206969206
0.0104168193361
0.0109374902806
0.0110859318115
0.0111354962441
0.0111647403593
0.0111923271253
0.0112218547391
0.0112542266824
0.0112918408376
0.00847752888875
0.0104444531273
0.0109656847144
0.0111133645458
0.0111614528879
0.0111889744927
0.0112148104547
0.0112426399004
0.0112733608175
0.0113092038321
0.0085022266208
0.0104714111242
0.0109934336588
0.0111406164276
0.0111874695666
0.0112134652522
0.0112376973698
0.0112639278347
0.0112930542263
0.0113271429895
0.0085261870636
0.0104978006777
0.0110208434194
0.0111677653672
0.0112135996024
0.0112382567526
0.011261039097
0.0112857901408
0.0113134089975
0.0113458011665
0.00854937570179
0.0105235946842
0.011047862793
0.0111947273545
0.0112397316407
0.0112632216073
0.0112847043709
0.01130810233
0.0113343164908
0.011365094211
0.00857174725578
0.010548736274
0.0110744097045
0.0112213917484
0.0112657304902
0.0112882077639
0.0113085330804
0.011330704813
0.011355624568
0.0113848870538
0.00859325535314
0.0105731648559
0.0111004026724
0.0112476543207
0.0112914716559
0.0113130755659
0.011332376978
0.0113534470663
0.0113771867936
0.0114050430557
0.00861385269779
0.0105968207081
0.0111257661061
0.0112734222882
0.0113168468146
0.0113377050803
0.0113561091996
0.0113761994166
0.0113988729807
0.0114254435277
0.00863348996456
0.0106196446593
0.0111504296637
0.0112986134698
0.011341763788
0.0113619963952
0.0113796248822
0.0113988548565
0.0114205825406
0.0114459829203
0.00865211492761
0.0106415782095
0.0111743273788
0.011323154873
0.0113661437841
0.0113858623384
0.0114028253047
0.00866967043462
0.0106625602698
0.0111973965349
0.0113469785259
0.0113899030337
0.0112195705317
0.0113700003395
)
;
    }
    sides
    {
        type            kqRWallFunction;
        value           nonuniform List<scalar> 8(0.00678141262896 0.0078070577245 0.00807887445149 0.00816459489837 0.00820835320233 0.00824446429667 0.00827985402471 0.00831581779324);
    }
    bottom
    {
        type            kqRWallFunction;
        value           nonuniform List<scalar> 
18
(
0.00678141262896
0.00784175589357
0.00817999893074
0.00830502335619
0.00836161130816
0.00839687595618
0.00842557922199
0.00845206969206
0.00847752888875
0.0085022266208
0.0085261870636
0.00854937570179
0.00857174725578
0.00859325535314
0.00861385269779
0.00863348996456
0.00865211492761
0.00866967043462
)
;
    }
    front
    {
        type            kqRWallFunction;
        value           nonuniform List<scalar> 
167
(
0.00678141262896
0.0078070577245
0.00807887445149
0.00816459489837
0.00820835320233
0.00824446429667
0.00827985402471
0.00831581779324
0.00784175589357
0.00950688010868
0.00993451685398
0.0100643246974
0.0101183029854
0.0101559879617
0.0101909486741
0.0102259187552
0.00817999893074
0.0100341268498
0.0105205507922
0.0106658394559
0.0107224624569
0.0107602244814
0.0107952438926
0.0108306746889
0.00830502335619
0.0102293499369
0.0107386396492
0.010889232067
0.010945772499
0.0109826142729
0.0110170471866
0.0110523974861
0.0110896921947
0.00836161130816
0.0103109932581
0.0108281553821
0.0109795716005
0.0110346822379
0.011069862087
0.0111029681162
0.0111374045215
0.0111741554077
0.011216122719
0.00839687595618
0.0103553123411
0.010874844436
0.0110254560732
0.0110786580429
0.011111841048
0.0111431909864
0.0111761675807
0.0112117166719
0.0112525771765
0.00842557922199
0.0103878951633
0.0109081396429
0.0110576014177
0.0111088884425
0.0111400400437
0.0111694925561
0.0112007694661
0.011234789407
0.011274119888
0.00845206969206
0.0104168193361
0.0109374902806
0.0110859318115
0.0111354962441
0.0111647403593
0.0111923271253
0.0112218547391
0.0112542266824
0.0112918408376
0.00847752888875
0.0104444531273
0.0109656847144
0.0111133645458
0.0111614528879
0.0111889744927
0.0112148104547
0.0112426399004
0.0112733608175
0.0113092038321
0.0085022266208
0.0104714111242
0.0109934336588
0.0111406164276
0.0111874695666
0.0112134652522
0.0112376973698
0.0112639278347
0.0112930542263
0.0113271429895
0.0085261870636
0.0104978006777
0.0110208434194
0.0111677653672
0.0112135996024
0.0112382567526
0.011261039097
0.0112857901408
0.0113134089975
0.0113458011665
0.00854937570179
0.0105235946842
0.011047862793
0.0111947273545
0.0112397316407
0.0112632216073
0.0112847043709
0.01130810233
0.0113343164908
0.011365094211
0.00857174725578
0.010548736274
0.0110744097045
0.0112213917484
0.0112657304902
0.0112882077639
0.0113085330804
0.011330704813
0.011355624568
0.0113848870538
0.00859325535314
0.0105731648559
0.0111004026724
0.0112476543207
0.0112914716559
0.0113130755659
0.011332376978
0.0113534470663
0.0113771867936
0.0114050430557
0.00861385269779
0.0105968207081
0.0111257661061
0.0112734222882
0.0113168468146
0.0113377050803
0.0113561091996
0.0113761994166
0.0113988729807
0.0114254435277
0.00863348996456
0.0106196446593
0.0111504296637
0.0112986134698
0.011341763788
0.0113619963952
0.0113796248822
0.0113988548565
0.0114205825406
0.0114459829203
0.00865211492761
0.0106415782095
0.0111743273788
0.011323154873
0.0113661437841
0.0113858623384
0.0114028253047
0.00866967043462
0.0106625602698
0.0111973965349
0.0113469785259
0.0113899030337
0.0112195705317
0.0113700003395
)
;
    }
    atmosphere
    {
        type            inletOutlet;
        inletValue      nonuniform List<scalar> 0();
        value           nonuniform List<scalar> 0();
    }
    floatingObject
    {
        type            kqRWallFunction;
        value           nonuniform List<scalar> 0();
    }
    procBoundary2to0
    {
        type            processor;
        value           nonuniform List<scalar> 
14
(
0.0114213178416
0.0114422025048
0.0114665705987
0.011409205778
0.0114213178416
0.0114255902525
0.00868609037052
0.0106825270625
0.011409205778
0.0114129526309
0.0106825270625
0.0112407592953
0.0114129526309
0.0113921436366
)
;
    }
    procBoundary2to1
    {
        type            processor;
        value           nonuniform List<scalar> 
18
(
0.00835291410408
0.0102619294104
0.0108676123359
0.0108676123359
0.0111320123892
0.0111320123892
0.0112754689314
0.011310322434
0.0113297033077
0.0113449765914
0.0113597660397
0.0113750971397
0.0113911728267
0.0114079520749
0.0114253330684
0.0114432070957
0.0114614701623
0.0114800481158
)
;
    }
}


// ************************************************************************* //
