/*--------------------------------*- C++ -*----------------------------------*\
| =========                 |                                                 |
| \\      /  F ield         | OpenFOAM: The Open Source CFD Toolbox           |
|  \\    /   O peration     | Version:  v2012                                 |
|   \\  /    A nd           | Website:  www.openfoam.com                      |
|    \\/     M anipulation  |                                                 |
\*---------------------------------------------------------------------------*/
FoamFile
{
    version     2.0;
    format      ascii;
    class       volScalarField;
    location    "4";
    object      ddt0(k);
}
// * * * * * * * * * * * * * * * * * * * * * * * * * * * * * * * * * * * * * //

dimensions      [0 2 -3 0 0 0 0];


internalField   nonuniform List<scalar> 
164
(
-0.000884286160775
-0.001112541167
-0.00117802284167
-0.00119845677632
-0.00120430812284
-0.00120623193988
-0.00120741925524
-0.00120861987207
-0.000884042448065
-0.00111091379986
-0.00117738205955
-0.00119853630996
-0.00120476750786
-0.00120682328891
-0.00120801709065
-0.00120916988145
-0.000883800635627
-0.00110922100898
-0.00117672851558
-0.00119866943644
-0.00120534454631
-0.00120758106035
-0.00120881844963
-0.00120992938753
-0.00121106837877
-0.00121232147459
-0.000883682353804
-0.00110747151561
-0.00117602513705
-0.00119879303085
-0.00120595442456
-0.00120840612327
-0.00120971002966
-0.00121081026768
-0.00121189810669
-0.00121311416186
-0.00088324396482
-0.00110567187155
-0.00117536170419
-0.00119898610664
-0.0012066196625
-0.00120928638486
-0.00121067437065
-0.00121180680618
-0.00121289600255
-0.0012140483739
-0.000880839026135
-0.00110454293745
-0.00117516079179
-0.00119943641637
-0.00120739424801
-0.00121019084359
-0.00121162500266
-0.00121275857163
-0.00121384024579
-0.00121493280291
-0.00087862994786
-0.00110324595597
-0.00117474438079
-0.00119970666993
-0.00120805688334
-0.00121103714372
-0.00121255145003
-0.00121371710582
-0.0012148131801
-0.00121581430531
-0.000876645788577
-0.00110166428973
-0.00117406294342
-0.00119976808599
-0.00120856465768
-0.00121177394766
-0.00121339796295
-0.00121464041023
-0.00121578311462
-0.00121672698254
-0.000874824887129
-0.0010997805037
-0.00117308909279
-0.00119957817594
-0.00120886155729
-0.00121232920805
-0.00121409903065
-0.00121546419207
-0.00121671705716
-0.00121764718332
-0.000872981106919
-0.00109763106791
-0.00117177146484
-0.00119905418599
-0.00120886099066
-0.00121262771265
-0.00121459658396
-0.00121612342985
-0.00121752818677
-0.00121850975361
-0.000871031853208
-0.00109512344694
-0.001170034294
-0.00119811546946
-0.00120848468957
-0.00121260507894
-0.00121479552542
-0.00121650276199
-0.00121810042045
-0.00121921223889
-0.000868931409748
-0.00109213897846
-0.00116779940092
-0.00119669691231
-0.00120766032235
-0.00121215557382
-0.00121458197495
-0.00121648999851
-0.00121829372386
-0.00121959317855
-0.000866654757968
-0.00108873148195
-0.00116503748122
-0.00119471930704
-0.00120628787958
-0.00121117553344
-0.00121385796461
-0.00121597141027
-0.00121797825027
-0.00121945883321
-0.000864099480805
-0.00108487060366
-0.00116170698843
-0.0011921197918
-0.00120429069721
-0.00120958577524
-0.00121253924536
-0.0012148554719
-0.00121709064902
-0.00121872094924
-0.000861175613274
-0.0010804343126
-0.00115772160474
-0.00118883541498
-0.00120160540974
-0.00120730525131
-0.00121050476992
-0.00121307197961
-0.00121554148922
-0.00121745920418
-0.000857938553832
-0.00107550008673
-0.00115313048656
-0.00118486396781
-0.00119816033152
-0.00120425009645
-0.00120776750164
-0.0012105602949
-0.00121331121695
-0.0012154966071
-0.00085423721985
-0.00107011862507
-0.00114799292668
-0.00118020202749
-0.00119403251066
-0.00120049747112
-0.00120430460407
-0.00118919223879
)
;

boundaryField
{
    back
    {
        type            calculated;
        value           nonuniform List<scalar> 
164
(
-0.000884286160775
-0.001112541167
-0.00117802284167
-0.00119845677632
-0.00120430812284
-0.00120623193988
-0.00120741925524
-0.00120861987207
-0.000884042448065
-0.00111091379986
-0.00117738205955
-0.00119853630996
-0.00120476750786
-0.00120682328891
-0.00120801709065
-0.00120916988145
-0.000883800635627
-0.00110922100898
-0.00117672851558
-0.00119866943644
-0.00120534454631
-0.00120758106035
-0.00120881844963
-0.00120992938753
-0.00121106837877
-0.00121232147459
-0.000883682353804
-0.00110747151561
-0.00117602513705
-0.00119879303085
-0.00120595442456
-0.00120840612327
-0.00120971002966
-0.00121081026768
-0.00121189810669
-0.00121311416186
-0.00088324396482
-0.00110567187155
-0.00117536170419
-0.00119898610664
-0.0012066196625
-0.00120928638486
-0.00121067437065
-0.00121180680618
-0.00121289600255
-0.0012140483739
-0.000880839026135
-0.00110454293745
-0.00117516079179
-0.00119943641637
-0.00120739424801
-0.00121019084359
-0.00121162500266
-0.00121275857163
-0.00121384024579
-0.00121493280291
-0.00087862994786
-0.00110324595597
-0.00117474438079
-0.00119970666993
-0.00120805688334
-0.00121103714372
-0.00121255145003
-0.00121371710582
-0.0012148131801
-0.00121581430531
-0.000876645788577
-0.00110166428973
-0.00117406294342
-0.00119976808599
-0.00120856465768
-0.00121177394766
-0.00121339796295
-0.00121464041023
-0.00121578311462
-0.00121672698254
-0.000874824887129
-0.0010997805037
-0.00117308909279
-0.00119957817594
-0.00120886155729
-0.00121232920805
-0.00121409903065
-0.00121546419207
-0.00121671705716
-0.00121764718332
-0.000872981106919
-0.00109763106791
-0.00117177146484
-0.00119905418599
-0.00120886099066
-0.00121262771265
-0.00121459658396
-0.00121612342985
-0.00121752818677
-0.00121850975361
-0.000871031853208
-0.00109512344694
-0.001170034294
-0.00119811546946
-0.00120848468957
-0.00121260507894
-0.00121479552542
-0.00121650276199
-0.00121810042045
-0.00121921223889
-0.000868931409748
-0.00109213897846
-0.00116779940092
-0.00119669691231
-0.00120766032235
-0.00121215557382
-0.00121458197495
-0.00121648999851
-0.00121829372386
-0.00121959317855
-0.000866654757968
-0.00108873148195
-0.00116503748122
-0.00119471930704
-0.00120628787958
-0.00121117553344
-0.00121385796461
-0.00121597141027
-0.00121797825027
-0.00121945883321
-0.000864099480805
-0.00108487060366
-0.00116170698843
-0.0011921197918
-0.00120429069721
-0.00120958577524
-0.00121253924536
-0.0012148554719
-0.00121709064902
-0.00121872094924
-0.000861175613274
-0.0010804343126
-0.00115772160474
-0.00118883541498
-0.00120160540974
-0.00120730525131
-0.00121050476992
-0.00121307197961
-0.00121554148922
-0.00121745920418
-0.000857938553832
-0.00107550008673
-0.00115313048656
-0.00118486396781
-0.00119816033152
-0.00120425009645
-0.00120776750164
-0.0012105602949
-0.00121331121695
-0.0012154966071
-0.00085423721985
-0.00107011862507
-0.00114799292668
-0.00118020202749
-0.00119403251066
-0.00120049747112
-0.00120430460407
-0.00118919223879
)
;
    }
    sides
    {
        type            calculated;
        value           nonuniform List<scalar> 0();
    }
    bottom
    {
        type            calculated;
        value           nonuniform List<scalar> 
17
(
-0.000884286160775
-0.000884042448065
-0.000883800635627
-0.000883682353804
-0.00088324396482
-0.000880839026135
-0.00087862994786
-0.000876645788577
-0.000874824887129
-0.000872981106919
-0.000871031853208
-0.000868931409748
-0.000866654757968
-0.000864099480805
-0.000861175613274
-0.000857938553832
-0.00085423721985
)
;
    }
    front
    {
        type            calculated;
        value           nonuniform List<scalar> 
164
(
-0.000884286160775
-0.001112541167
-0.00117802284167
-0.00119845677632
-0.00120430812284
-0.00120623193988
-0.00120741925524
-0.00120861987207
-0.000884042448065
-0.00111091379986
-0.00117738205955
-0.00119853630996
-0.00120476750786
-0.00120682328891
-0.00120801709065
-0.00120916988145
-0.000883800635627
-0.00110922100898
-0.00117672851558
-0.00119866943644
-0.00120534454631
-0.00120758106035
-0.00120881844963
-0.00120992938753
-0.00121106837877
-0.00121232147459
-0.000883682353804
-0.00110747151561
-0.00117602513705
-0.00119879303085
-0.00120595442456
-0.00120840612327
-0.00120971002966
-0.00121081026768
-0.00121189810669
-0.00121311416186
-0.00088324396482
-0.00110567187155
-0.00117536170419
-0.00119898610664
-0.0012066196625
-0.00120928638486
-0.00121067437065
-0.00121180680618
-0.00121289600255
-0.0012140483739
-0.000880839026135
-0.00110454293745
-0.00117516079179
-0.00119943641637
-0.00120739424801
-0.00121019084359
-0.00121162500266
-0.00121275857163
-0.00121384024579
-0.00121493280291
-0.00087862994786
-0.00110324595597
-0.00117474438079
-0.00119970666993
-0.00120805688334
-0.00121103714372
-0.00121255145003
-0.00121371710582
-0.0012148131801
-0.00121581430531
-0.000876645788577
-0.00110166428973
-0.00117406294342
-0.00119976808599
-0.00120856465768
-0.00121177394766
-0.00121339796295
-0.00121464041023
-0.00121578311462
-0.00121672698254
-0.000874824887129
-0.0010997805037
-0.00117308909279
-0.00119957817594
-0.00120886155729
-0.00121232920805
-0.00121409903065
-0.00121546419207
-0.00121671705716
-0.00121764718332
-0.000872981106919
-0.00109763106791
-0.00117177146484
-0.00119905418599
-0.00120886099066
-0.00121262771265
-0.00121459658396
-0.00121612342985
-0.00121752818677
-0.00121850975361
-0.000871031853208
-0.00109512344694
-0.001170034294
-0.00119811546946
-0.00120848468957
-0.00121260507894
-0.00121479552542
-0.00121650276199
-0.00121810042045
-0.00121921223889
-0.000868931409748
-0.00109213897846
-0.00116779940092
-0.00119669691231
-0.00120766032235
-0.00121215557382
-0.00121458197495
-0.00121648999851
-0.00121829372386
-0.00121959317855
-0.000866654757968
-0.00108873148195
-0.00116503748122
-0.00119471930704
-0.00120628787958
-0.00121117553344
-0.00121385796461
-0.00121597141027
-0.00121797825027
-0.00121945883321
-0.000864099480805
-0.00108487060366
-0.00116170698843
-0.0011921197918
-0.00120429069721
-0.00120958577524
-0.00121253924536
-0.0012148554719
-0.00121709064902
-0.00121872094924
-0.000861175613274
-0.0010804343126
-0.00115772160474
-0.00118883541498
-0.00120160540974
-0.00120730525131
-0.00121050476992
-0.00121307197961
-0.00121554148922
-0.00121745920418
-0.000857938553832
-0.00107550008673
-0.00115313048656
-0.00118486396781
-0.00119816033152
-0.00120425009645
-0.00120776750164
-0.0012105602949
-0.00121331121695
-0.0012154966071
-0.00085423721985
-0.00107011862507
-0.00114799292668
-0.00118020202749
-0.00119403251066
-0.00120049747112
-0.00120430460407
-0.00118919223879
)
;
    }
    atmosphere
    {
        type            calculated;
        value           nonuniform List<scalar> 0();
    }
    floatingObject
    {
        type            calculated;
        value           nonuniform List<scalar> 0();
    }
    procBoundary4to0
    {
        type            processor;
        value           nonuniform List<scalar> 8(-0.000884461672985 -0.00111399008285 -0.00117850751871 -0.00119825623032 -0.00120374204962 -0.0012055291282 -0.00120673882614 -0.00120802432582);
    }
    procBoundary4to3
    {
        type            processor;
        value           nonuniform List<scalar> 
13
(
-0.00120735975777
-0.00121036817005
-0.00121287741807
-0.000850257002203
-0.00106451401054
-0.00114238384429
-0.00117501944169
-0.00119606118133
-0.00120735975777
-0.00120028894993
-0.00117501944169
-0.00119606118133
-0.00118400400068
)
;
    }
    procBoundary4to5
    {
        type            processor;
        value           nonuniform List<scalar> 
18
(
-0.00121000310241
-0.00121044231348
-0.00121044231348
-0.00121182977434
-0.00121419194393
-0.0012146583609
-0.00121534643696
-0.00121579371234
-0.00121615285677
-0.00121648191555
-0.00121681412282
-0.0012172320797
-0.00121772430589
-0.00121798270976
-0.00121761134178
-0.00121679379852
-0.00121588655151
-0.00121460830098
)
;
    }
}


// ************************************************************************* //
