/*--------------------------------*- C++ -*----------------------------------*\
| =========                 |                                                 |
| \\      /  F ield         | OpenFOAM: The Open Source CFD Toolbox           |
|  \\    /   O peration     | Version:  v2012                                 |
|   \\  /    A nd           | Website:  www.openfoam.com                      |
|    \\/     M anipulation  |                                                 |
\*---------------------------------------------------------------------------*/
FoamFile
{
    version     2.0;
    format      ascii;
    class       volScalarField;
    location    "4";
    object      epsilon;
}
// * * * * * * * * * * * * * * * * * * * * * * * * * * * * * * * * * * * * * //

dimensions      [0 2 -3 0 0 0 0];


internalField   nonuniform List<scalar> 
164
(
0.00106032125723
0.00110622228912
0.0012139725266
0.00125422288063
0.0012695282715
0.00127657792029
0.00128143915917
0.0012861528048
0.00106127911846
0.00110745291281
0.00121551642323
0.00125597354639
0.00127142329505
0.00127859469181
0.00128358183887
0.00128843090878
0.00106182423841
0.00110834395055
0.00121666715327
0.00125731553034
0.00127291433162
0.00128022288332
0.00128535098487
0.00129035269132
0.00129590551254
0.0013024666971
0.00106198270429
0.00110883827968
0.00121737461503
0.00125820982736
0.00127397133524
0.00128143361879
0.00128672209145
0.00129190005453
0.00129766307204
0.00130441766497
0.00106174912491
0.00110886569495
0.00121757327161
0.00125860633655
0.00127455498196
0.00128219601408
0.0012876672836
0.00129304286616
0.00129902575197
0.00130601310576
0.00106117150617
0.00110839361173
0.00121719539008
0.00125844284323
0.00127461842854
0.00128247274187
0.00128815564934
0.00129375663966
0.00129999090654
0.00130725095511
0.00106024255922
0.00110736369051
0.00121619054931
0.00125766916027
0.00127411763679
0.00128222876931
0.00128815868123
0.00129401923279
0.00130054119194
0.00130812298265
0.00105883672561
0.0011057085915
0.00121452375686
0.00125626112516
0.00127302680929
0.00128143866751
0.00128765523701
0.00129381349535
0.00130066248626
0.00130861864823
0.00105688591072
0.00110340384502
0.00121216787332
0.00125418991114
0.00127131591936
0.00128007245278
0.00128661953227
0.00129311469684
0.0013003342051
0.00130872516427
0.00105432758279
0.00110043575945
0.00120909410643
0.00125142034211
0.00126895136193
0.00127810147008
0.00128502028894
0.00129189840003
0.00129953483152
0.00130841519391
0.00105110560973
0.00109676857618
0.00120527249544
0.00124792333807
0.00126590208198
0.00127549322286
0.00128283666748
0.00129014954549
0.00129824912618
0.00130765254175
0.00104716902704
0.00109237079786
0.00120068227109
0.00124367163306
0.00126214386297
0.00127223221443
0.00128005929546
0.00128785931693
0.00129647144878
0.00130643002374
0.00104248119428
0.00108725016924
0.00119532113815
0.00123866030629
0.0012576677947
0.00126830857136
0.00127667628131
0.00128502474787
0.00129420986181
0.00130475959506
0.0010369847161
0.00108140811613
0.00118919940815
0.00123289409
0.00125246892368
0.00126371330253
0.00127268538946
0.00128165301857
0.00129147795262
0.00130270081448
0.00103075688895
0.00107484445227
0.00118232436911
0.00122638030474
0.00124655189719
0.00125845004036
0.00126809623527
0.00127776975275
0.00128831133215
0.00130027549482
0.00102365871349
0.00106761511657
0.00117475539971
0.00121915920628
0.00123993927553
0.00125253709811
0.00126293578281
0.00127337897847
0.00128473640562
0.00129748404401
0.00101590638228
0.00105981269784
0.00116658185588
0.0012112993289
0.00123268663428
0.00124600599016
0.00125718909027
0.00122483708086
)
;

boundaryField
{
    back
    {
        lowReCorrection 0;
        blending        stepwise;
        n               2;
        type            epsilonWallFunction;
        value           nonuniform List<scalar> 
164
(
0.00106032125723
0.00110622228912
0.0012139725266
0.00125422288063
0.0012695282715
0.00127657792029
0.00128143915917
0.0012861528048
0.00106127911846
0.00110745291281
0.00121551642323
0.00125597354639
0.00127142329505
0.00127859469181
0.00128358183887
0.00128843090878
0.00106182423841
0.00110834395055
0.00121666715327
0.00125731553034
0.00127291433162
0.00128022288332
0.00128535098487
0.00129035269132
0.00129590551254
0.0013024666971
0.00106198270429
0.00110883827968
0.00121737461503
0.00125820982736
0.00127397133524
0.00128143361879
0.00128672209145
0.00129190005453
0.00129766307204
0.00130441766497
0.00106174912491
0.00110886569495
0.00121757327161
0.00125860633655
0.00127455498196
0.00128219601408
0.0012876672836
0.00129304286616
0.00129902575197
0.00130601310576
0.00106117150617
0.00110839361173
0.00121719539008
0.00125844284323
0.00127461842854
0.00128247274187
0.00128815564934
0.00129375663966
0.00129999090654
0.00130725095511
0.00106024255922
0.00110736369051
0.00121619054931
0.00125766916027
0.00127411763679
0.00128222876931
0.00128815868123
0.00129401923279
0.00130054119194
0.00130812298265
0.00105883672561
0.0011057085915
0.00121452375686
0.00125626112516
0.00127302680929
0.00128143866751
0.00128765523701
0.00129381349535
0.00130066248626
0.00130861864823
0.00105688591072
0.00110340384502
0.00121216787332
0.00125418991114
0.00127131591936
0.00128007245278
0.00128661953227
0.00129311469684
0.0013003342051
0.00130872516427
0.00105432758279
0.00110043575945
0.00120909410643
0.00125142034211
0.00126895136193
0.00127810147008
0.00128502028894
0.00129189840003
0.00129953483152
0.00130841519391
0.00105110560973
0.00109676857618
0.00120527249544
0.00124792333807
0.00126590208198
0.00127549322286
0.00128283666748
0.00129014954549
0.00129824912618
0.00130765254175
0.00104716902704
0.00109237079786
0.00120068227109
0.00124367163306
0.00126214386297
0.00127223221443
0.00128005929546
0.00128785931693
0.00129647144878
0.00130643002374
0.00104248119428
0.00108725016924
0.00119532113815
0.00123866030629
0.0012576677947
0.00126830857136
0.00127667628131
0.00128502474787
0.00129420986181
0.00130475959506
0.0010369847161
0.00108140811613
0.00118919940815
0.00123289409
0.00125246892368
0.00126371330253
0.00127268538946
0.00128165301857
0.00129147795262
0.00130270081448
0.00103075688895
0.00107484445227
0.00118232436911
0.00122638030474
0.00124655189719
0.00125845004036
0.00126809623527
0.00127776975275
0.00128831133215
0.00130027549482
0.00102365871349
0.00106761511657
0.00117475539971
0.00121915920628
0.00123993927553
0.00125253709811
0.00126293578281
0.00127337897847
0.00128473640562
0.00129748404401
0.00101590638228
0.00105981269784
0.00116658185588
0.0012112993289
0.00123268663428
0.00124600599016
0.00125718909027
0.00122483708086
)
;
    }
    sides
    {
        lowReCorrection 0;
        blending        stepwise;
        n               2;
        type            epsilonWallFunction;
        value           nonuniform List<scalar> 0();
    }
    bottom
    {
        lowReCorrection 0;
        blending        stepwise;
        n               2;
        type            epsilonWallFunction;
        value           nonuniform List<scalar> 
17
(
0.00106032125723
0.00106127911846
0.00106182423841
0.00106198270429
0.00106174912491
0.00106117150617
0.00106024255922
0.00105883672561
0.00105688591072
0.00105432758279
0.00105110560973
0.00104716902704
0.00104248119428
0.0010369847161
0.00103075688895
0.00102365871349
0.00101590638228
)
;
    }
    front
    {
        lowReCorrection 0;
        blending        stepwise;
        n               2;
        type            epsilonWallFunction;
        value           nonuniform List<scalar> 
164
(
0.00106032125723
0.00110622228912
0.0012139725266
0.00125422288063
0.0012695282715
0.00127657792029
0.00128143915917
0.0012861528048
0.00106127911846
0.00110745291281
0.00121551642323
0.00125597354639
0.00127142329505
0.00127859469181
0.00128358183887
0.00128843090878
0.00106182423841
0.00110834395055
0.00121666715327
0.00125731553034
0.00127291433162
0.00128022288332
0.00128535098487
0.00129035269132
0.00129590551254
0.0013024666971
0.00106198270429
0.00110883827968
0.00121737461503
0.00125820982736
0.00127397133524
0.00128143361879
0.00128672209145
0.00129190005453
0.00129766307204
0.00130441766497
0.00106174912491
0.00110886569495
0.00121757327161
0.00125860633655
0.00127455498196
0.00128219601408
0.0012876672836
0.00129304286616
0.00129902575197
0.00130601310576
0.00106117150617
0.00110839361173
0.00121719539008
0.00125844284323
0.00127461842854
0.00128247274187
0.00128815564934
0.00129375663966
0.00129999090654
0.00130725095511
0.00106024255922
0.00110736369051
0.00121619054931
0.00125766916027
0.00127411763679
0.00128222876931
0.00128815868123
0.00129401923279
0.00130054119194
0.00130812298265
0.00105883672561
0.0011057085915
0.00121452375686
0.00125626112516
0.00127302680929
0.00128143866751
0.00128765523701
0.00129381349535
0.00130066248626
0.00130861864823
0.00105688591072
0.00110340384502
0.00121216787332
0.00125418991114
0.00127131591936
0.00128007245278
0.00128661953227
0.00129311469684
0.0013003342051
0.00130872516427
0.00105432758279
0.00110043575945
0.00120909410643
0.00125142034211
0.00126895136193
0.00127810147008
0.00128502028894
0.00129189840003
0.00129953483152
0.00130841519391
0.00105110560973
0.00109676857618
0.00120527249544
0.00124792333807
0.00126590208198
0.00127549322286
0.00128283666748
0.00129014954549
0.00129824912618
0.00130765254175
0.00104716902704
0.00109237079786
0.00120068227109
0.00124367163306
0.00126214386297
0.00127223221443
0.00128005929546
0.00128785931693
0.00129647144878
0.00130643002374
0.00104248119428
0.00108725016924
0.00119532113815
0.00123866030629
0.0012576677947
0.00126830857136
0.00127667628131
0.00128502474787
0.00129420986181
0.00130475959506
0.0010369847161
0.00108140811613
0.00118919940815
0.00123289409
0.00125246892368
0.00126371330253
0.00127268538946
0.00128165301857
0.00129147795262
0.00130270081448
0.00103075688895
0.00107484445227
0.00118232436911
0.00122638030474
0.00124655189719
0.00125845004036
0.00126809623527
0.00127776975275
0.00128831133215
0.00130027549482
0.00102365871349
0.00106761511657
0.00117475539971
0.00121915920628
0.00123993927553
0.00125253709811
0.00126293578281
0.00127337897847
0.00128473640562
0.00129748404401
0.00101590638228
0.00105981269784
0.00116658185588
0.0012112993289
0.00123268663428
0.00124600599016
0.00125718909027
0.00122483708086
)
;
    }
    atmosphere
    {
        type            inletOutlet;
        inletValue      nonuniform List<scalar> 0();
        value           nonuniform List<scalar> 0();
    }
    floatingObject
    {
        lowReCorrection 0;
        blending        stepwise;
        n               2;
        type            epsilonWallFunction;
        value           nonuniform List<scalar> 0();
    }
    procBoundary4to0
    {
        type            processor;
        value           nonuniform List<scalar> 8(0.00105894840418 0.0011046621062 0.00121207070208 0.00125211391781 0.0012672884139 0.00127423462305 0.00127899112991 0.00128359403075);
    }
    procBoundary4to3
    {
        type            processor;
        value           nonuniform List<scalar> 
13
(
0.00126850168682
0.00128079373554
0.00129444704538
0.00100746740784
0.00105156090645
0.00115791569773
0.00120290154529
0.0012388481516
0.00126850168682
0.00125083130903
0.00120290154529
0.0012388481516
0.00121646847467
)
;
    }
    procBoundary4to5
    {
        type            processor;
        value           nonuniform List<scalar> 
18
(
0.00129140957693
0.00129382360801
0.00129382360801
0.00130024029799
0.00131078159344
0.00131284894468
0.00131464229619
0.00131616016205
0.001317418969
0.00131842842626
0.0013191828741
0.00131960346825
0.00131955535955
0.00131896589913
0.00131797359337
0.0013167069133
0.00131501396103
0.00131276819563
)
;
    }
}


// ************************************************************************* //
