/*--------------------------------*- C++ -*----------------------------------*\
| =========                 |                                                 |
| \\      /  F ield         | OpenFOAM: The Open Source CFD Toolbox           |
|  \\    /   O peration     | Version:  v2012                                 |
|   \\  /    A nd           | Website:  www.openfoam.com                      |
|    \\/     M anipulation  |                                                 |
\*---------------------------------------------------------------------------*/
FoamFile
{
    version     2.0;
    format      ascii;
    class       volScalarField;
    location    "4";
    object      epsilon_0;
}
// * * * * * * * * * * * * * * * * * * * * * * * * * * * * * * * * * * * * * //

dimensions      [0 2 -3 0 0 0 0];


internalField   nonuniform List<scalar> 
164
(
0.00108249779775
0.00112957858059
0.00123947359394
0.00128044405727
0.00129598054208
0.0013031192598
0.00130803931597
0.00131281103043
0.00108345151513
0.00113078077016
0.00124101096809
0.00128220493772
0.00129789518659
0.00130515999081
0.0013102076395
0.00131511604472
0.0010839899997
0.00113163961105
0.00124215224384
0.00128355553658
0.00129940548735
0.00130681236119
0.0013120030142
0.00131706453389
0.00132268200181
0.00132931634624
0.00108414218492
0.0011320972089
0.00124284563339
0.00128445481407
0.0013004792335
0.00130804566781
0.00131339927705
0.00131863825192
0.0013244668172
0.00133129574776
0.00108389525953
0.00113208249314
0.00124302636832
0.00128485346333
0.00130107710489
0.001308828542
0.00131436815625
0.00131980692577
0.00132585688387
0.00133291891975
0.00108326626485
0.00113157388216
0.00124263302626
0.00128469212167
0.00130115296125
0.00130912296503
0.00131487724117
0.00132054337007
0.00132684630602
0.00133418158288
0.00108227102296
0.00113050587499
0.00124160837897
0.00128391520386
0.00130065948681
0.00130889212704
0.0013148968314
0.00132082479348
0.00132741738046
0.00133507464733
0.00108080066044
0.00112880248811
0.00123991165338
0.00128249522169
0.00129956876581
0.00130810924923
0.00131440493993
0.00132063406006
0.00132755647037
0.00133558918072
0.00107878577776
0.00112643876406
0.00123751498216
0.00128040226349
0.00129784938189
0.00130674261999
0.00131337424641
0.00131994503949
0.0013272425821
0.00133571263023
0.00107615894122
0.00112340177788
0.00123438828135
0.00127759910233
0.00129546559535
0.00130476173671
0.00131177205632
0.00131873183202
0.00132645232341
0.00133541623235
0.00107286154555
0.00111965360433
0.0012304997452
0.00127405465821
0.0012923843921
0.00130213247846
0.00130957529272
0.00131697674694
0.00132516779942
0.00133466129407
0.00106884117734
0.00111516002746
0.00122582675687
0.00126974005201
0.00128857977947
0.00129883686773
0.00130677193732
0.00131466837483
0.00132338015585
0.00133343688787
0.00106406038718
0.00110993004451
0.00122036638932
0.00126464856697
0.00128404053591
0.00129486260049
0.00130334779484
0.00131180112905
0.00132109448515
0.00133175071457
0.00105845890131
0.00110396450206
0.00121412814197
0.00125878357427
0.0012787599547
0.00129019884613
0.00129929871349
0.00130838013663
0.0013183229984
0.0013296605604
0.00105211209999
0.00109726069172
0.00120711753935
0.00125215113097
0.00127274134833
0.00128484751101
0.00129463172311
0.0013044296025
0.00131509937935
0.00132719000578
0.00104488182894
0.00108987664833
0.00119939552535
0.00124479170998
0.00126600599832
0.00127882519815
0.00128937417314
0.00129995210933
0.00131144984114
0.001324335189
0.00103698160272
0.00108190666357
0.00119105327594
0.00123677453006
0.00125861127411
0.00127216531141
0.00128351045867
0.00125060055504
)
;

boundaryField
{
    back
    {
        lowReCorrection 0;
        blending        stepwise;
        n               2;
        type            epsilonWallFunction;
        value           nonuniform List<scalar> 
164
(
0.00108249779775
0.00112957858059
0.00123947359394
0.00128044405727
0.00129598054208
0.0013031192598
0.00130803931597
0.00131281103043
0.00108345151513
0.00113078077016
0.00124101096809
0.00128220493772
0.00129789518659
0.00130515999081
0.0013102076395
0.00131511604472
0.0010839899997
0.00113163961105
0.00124215224384
0.00128355553658
0.00129940548735
0.00130681236119
0.0013120030142
0.00131706453389
0.00132268200181
0.00132931634624
0.00108414218492
0.0011320972089
0.00124284563339
0.00128445481407
0.0013004792335
0.00130804566781
0.00131339927705
0.00131863825192
0.0013244668172
0.00133129574776
0.00108389525953
0.00113208249314
0.00124302636832
0.00128485346333
0.00130107710489
0.001308828542
0.00131436815625
0.00131980692577
0.00132585688387
0.00133291891975
0.00108326626485
0.00113157388216
0.00124263302626
0.00128469212167
0.00130115296125
0.00130912296503
0.00131487724117
0.00132054337007
0.00132684630602
0.00133418158288
0.00108227102296
0.00113050587499
0.00124160837897
0.00128391520386
0.00130065948681
0.00130889212704
0.0013148968314
0.00132082479348
0.00132741738046
0.00133507464733
0.00108080066044
0.00112880248811
0.00123991165338
0.00128249522169
0.00129956876581
0.00130810924923
0.00131440493993
0.00132063406006
0.00132755647037
0.00133558918072
0.00107878577776
0.00112643876406
0.00123751498216
0.00128040226349
0.00129784938189
0.00130674261999
0.00131337424641
0.00131994503949
0.0013272425821
0.00133571263023
0.00107615894122
0.00112340177788
0.00123438828135
0.00127759910233
0.00129546559535
0.00130476173671
0.00131177205632
0.00131873183202
0.00132645232341
0.00133541623235
0.00107286154555
0.00111965360433
0.0012304997452
0.00127405465821
0.0012923843921
0.00130213247846
0.00130957529272
0.00131697674694
0.00132516779942
0.00133466129407
0.00106884117734
0.00111516002746
0.00122582675687
0.00126974005201
0.00128857977947
0.00129883686773
0.00130677193732
0.00131466837483
0.00132338015585
0.00133343688787
0.00106406038718
0.00110993004451
0.00122036638932
0.00126464856697
0.00128404053591
0.00129486260049
0.00130334779484
0.00131180112905
0.00132109448515
0.00133175071457
0.00105845890131
0.00110396450206
0.00121412814197
0.00125878357427
0.0012787599547
0.00129019884613
0.00129929871349
0.00130838013663
0.0013183229984
0.0013296605604
0.00105211209999
0.00109726069172
0.00120711753935
0.00125215113097
0.00127274134833
0.00128484751101
0.00129463172311
0.0013044296025
0.00131509937935
0.00132719000578
0.00104488182894
0.00108987664833
0.00119939552535
0.00124479170998
0.00126600599832
0.00127882519815
0.00128937417314
0.00129995210933
0.00131144984114
0.001324335189
0.00103698160272
0.00108190666357
0.00119105327594
0.00123677453006
0.00125861127411
0.00127216531141
0.00128351045867
0.00125060055504
)
;
    }
    sides
    {
        lowReCorrection 0;
        blending        stepwise;
        n               2;
        type            epsilonWallFunction;
        value           nonuniform List<scalar> 0();
    }
    bottom
    {
        lowReCorrection 0;
        blending        stepwise;
        n               2;
        type            epsilonWallFunction;
        value           nonuniform List<scalar> 
17
(
0.00108249779775
0.00108345151513
0.0010839899997
0.00108414218492
0.00108389525953
0.00108326626485
0.00108227102296
0.00108080066044
0.00107878577776
0.00107615894122
0.00107286154555
0.00106884117734
0.00106406038718
0.00105845890131
0.00105211209999
0.00104488182894
0.00103698160272
)
;
    }
    front
    {
        lowReCorrection 0;
        blending        stepwise;
        n               2;
        type            epsilonWallFunction;
        value           nonuniform List<scalar> 
164
(
0.00108249779775
0.00112957858059
0.00123947359394
0.00128044405727
0.00129598054208
0.0013031192598
0.00130803931597
0.00131281103043
0.00108345151513
0.00113078077016
0.00124101096809
0.00128220493772
0.00129789518659
0.00130515999081
0.0013102076395
0.00131511604472
0.0010839899997
0.00113163961105
0.00124215224384
0.00128355553658
0.00129940548735
0.00130681236119
0.0013120030142
0.00131706453389
0.00132268200181
0.00132931634624
0.00108414218492
0.0011320972089
0.00124284563339
0.00128445481407
0.0013004792335
0.00130804566781
0.00131339927705
0.00131863825192
0.0013244668172
0.00133129574776
0.00108389525953
0.00113208249314
0.00124302636832
0.00128485346333
0.00130107710489
0.001308828542
0.00131436815625
0.00131980692577
0.00132585688387
0.00133291891975
0.00108326626485
0.00113157388216
0.00124263302626
0.00128469212167
0.00130115296125
0.00130912296503
0.00131487724117
0.00132054337007
0.00132684630602
0.00133418158288
0.00108227102296
0.00113050587499
0.00124160837897
0.00128391520386
0.00130065948681
0.00130889212704
0.0013148968314
0.00132082479348
0.00132741738046
0.00133507464733
0.00108080066044
0.00112880248811
0.00123991165338
0.00128249522169
0.00129956876581
0.00130810924923
0.00131440493993
0.00132063406006
0.00132755647037
0.00133558918072
0.00107878577776
0.00112643876406
0.00123751498216
0.00128040226349
0.00129784938189
0.00130674261999
0.00131337424641
0.00131994503949
0.0013272425821
0.00133571263023
0.00107615894122
0.00112340177788
0.00123438828135
0.00127759910233
0.00129546559535
0.00130476173671
0.00131177205632
0.00131873183202
0.00132645232341
0.00133541623235
0.00107286154555
0.00111965360433
0.0012304997452
0.00127405465821
0.0012923843921
0.00130213247846
0.00130957529272
0.00131697674694
0.00132516779942
0.00133466129407
0.00106884117734
0.00111516002746
0.00122582675687
0.00126974005201
0.00128857977947
0.00129883686773
0.00130677193732
0.00131466837483
0.00132338015585
0.00133343688787
0.00106406038718
0.00110993004451
0.00122036638932
0.00126464856697
0.00128404053591
0.00129486260049
0.00130334779484
0.00131180112905
0.00132109448515
0.00133175071457
0.00105845890131
0.00110396450206
0.00121412814197
0.00125878357427
0.0012787599547
0.00129019884613
0.00129929871349
0.00130838013663
0.0013183229984
0.0013296605604
0.00105211209999
0.00109726069172
0.00120711753935
0.00125215113097
0.00127274134833
0.00128484751101
0.00129463172311
0.0013044296025
0.00131509937935
0.00132719000578
0.00104488182894
0.00108987664833
0.00119939552535
0.00124479170998
0.00126600599832
0.00127882519815
0.00128937417314
0.00129995210933
0.00131144984114
0.001324335189
0.00103698160272
0.00108190666357
0.00119105327594
0.00123677453006
0.00125861127411
0.00127216531141
0.00128351045867
0.00125060055504
)
;
    }
    atmosphere
    {
        type            inletOutlet;
        inletValue      nonuniform List<scalar> 0();
        value           nonuniform List<scalar> 0();
    }
    floatingObject
    {
        lowReCorrection 0;
        blending        stepwise;
        n               2;
        type            epsilonWallFunction;
        value           nonuniform List<scalar> 0();
    }
    procBoundary4to0
    {
        type            processor;
        value           nonuniform List<scalar> 8(0.00108112288319 0.0011280387599 0.00123757047017 0.00127831815788 0.00129371539987 0.00130074758543 0.00130556269928 0.00131022553771);
    }
    procBoundary4to3
    {
        type            processor;
        value           nonuniform List<scalar> 
13
(
0.00129496989284
0.00130741417958
0.00132121892086
0.00102838366468
0.00107348011198
0.00118220551761
0.00122820444154
0.00126485955714
0.00129496989284
0.00127701943246
0.00122820444154
0.00126485955714
0.00124205930987
)
;
    }
    procBoundary4to5
    {
        type            processor;
        value           nonuniform List<scalar> 
18
(
0.00131813302482
0.00132057453614
0.00132057453614
0.00132706654805
0.00133773143202
0.00133982105496
0.00134163849496
0.00134317484826
0.0013444459716
0.00134546440499
0.00134622687341
0.0013466559972
0.00134661575605
0.00134602619889
0.00134501782706
0.00134372372922
0.00134199845968
0.00133970858095
)
;
    }
}


// ************************************************************************* //
