/*--------------------------------*- C++ -*----------------------------------*\
| =========                 |                                                 |
| \\      /  F ield         | OpenFOAM: The Open Source CFD Toolbox           |
|  \\    /   O peration     | Version:  v2012                                 |
|   \\  /    A nd           | Website:  www.openfoam.com                      |
|    \\/     M anipulation  |                                                 |
\*---------------------------------------------------------------------------*/
FoamFile
{
    version     2.0;
    format      ascii;
    class       volScalarField;
    location    "4";
    object      k_0;
}
// * * * * * * * * * * * * * * * * * * * * * * * * * * * * * * * * * * * * * //

dimensions      [0 2 -2 0 0 0 0];


internalField   nonuniform List<scalar> 
164
(
0.00214312321321
0.00267060457809
0.00284132268156
0.00290378505361
0.00292736069358
0.00293818771382
0.0029456421132
0.00295286119165
0.00214441370618
0.00267258483122
0.00284373118155
0.00290648652731
0.00293027308152
0.00294128145063
0.00294892478171
0.00295634700896
0.00214514795389
0.00267401818319
0.00284552567302
0.00290855650934
0.00293256358058
0.00294377791735
0.00295163380559
0.00295928600738
0.00296776979791
0.00297777859914
0.00214536137547
0.00267481321126
0.00284662863452
0.00290993553478
0.00293418678565
0.00294563362276
0.0029537324725
0.00296165134289
0.00297045253141
0.00298075147156
0.00214504678744
0.00267485729971
0.00284693830975
0.00291054685603
0.00293508288
0.00294680185317
0.00295517878483
0.0029633976652
0.00297253168843
0.00298318149261
0.00214426874326
0.00267409805846
0.0028463492358
0.00291029479666
0.00293518028363
0.00294722583028
0.00295592593274
0.00296448811637
0.00297400386731
0.00298506618333
0.00214301716885
0.00267244128419
0.00284478250764
0.00290910185346
0.00293441142067
0.00294685203934
0.00295593057091
0.00296488923656
0.00297484307086
0.00298639353397
0.0021411223875
0.00266977774643
0.00284218272548
0.00290693017356
0.00293273633013
0.00294564135976
0.00295516035363
0.00296457496773
0.00297502803281
0.00298714787642
0.00213849169101
0.00266606652119
0.00283850610297
0.00290373416595
0.00293010809869
0.00294354731023
0.00295357551739
0.00296350741194
0.00297452742293
0.00298730996838
0.0021350393016
0.00266128334322
0.00283370555908
0.00289945780402
0.00292647377603
0.00294052499656
0.00295112751837
0.0029616488143
0.00297330824798
0.00298683825533
0.00213068736668
0.00265536760046
0.00282773137117
0.00289405373448
0.00292178370106
0.00293652310924
0.00294778335751
0.00295897540372
0.00297134681336
0.00298567749229
0.00212536416464
0.00264826459113
0.00282054728384
0.00288747658878
0.00291599802793
0.00293151583753
0.00294352713988
0.00295547258678
0.00296863377359
0.00298381633863
0.00211901638309
0.00263998205784
0.00281214505861
0.00287971472005
0.00290909974765
0.00292548541738
0.00293833863784
0.00295113434519
0.00296518041207
0.00298127234976
0.00211156148519
0.00263051673529
0.00280253541196
0.00287077066553
0.00290107724048
0.00291841483363
0.00293221194258
0.00294596983627
0.00296100620178
0.00297813542405
0.00210309871942
0.00261986189826
0.00279172357047
0.00286065025664
0.00289193301076
0.00291030589278
0.00292515889144
0.00294001618704
0.00295616409112
0.0029744378887
0.00209343245702
0.00260810133996
0.00277979617242
0.00284940993572
0.00288169666404
0.00290118251388
0.0029172176434
0.00293327717851
0.00295069286546
0.002970179319
0.00208284980551
0.00259537867372
0.00276688726394
0.00283715004043
0.00287044861867
0.00289108863259
0.00290836150963
0.00285824994077
)
;

boundaryField
{
    back
    {
        type            kqRWallFunction;
        value           nonuniform List<scalar> 
164
(
0.00214312321321
0.00267060457809
0.00284132268156
0.00290378505361
0.00292736069358
0.00293818771382
0.0029456421132
0.00295286119165
0.00214441370618
0.00267258483122
0.00284373118155
0.00290648652731
0.00293027308152
0.00294128145063
0.00294892478171
0.00295634700896
0.00214514795389
0.00267401818319
0.00284552567302
0.00290855650934
0.00293256358058
0.00294377791735
0.00295163380559
0.00295928600738
0.00296776979791
0.00297777859914
0.00214536137547
0.00267481321126
0.00284662863452
0.00290993553478
0.00293418678565
0.00294563362276
0.0029537324725
0.00296165134289
0.00297045253141
0.00298075147156
0.00214504678744
0.00267485729971
0.00284693830975
0.00291054685603
0.00293508288
0.00294680185317
0.00295517878483
0.0029633976652
0.00297253168843
0.00298318149261
0.00214426874326
0.00267409805846
0.0028463492358
0.00291029479666
0.00293518028363
0.00294722583028
0.00295592593274
0.00296448811637
0.00297400386731
0.00298506618333
0.00214301716885
0.00267244128419
0.00284478250764
0.00290910185346
0.00293441142067
0.00294685203934
0.00295593057091
0.00296488923656
0.00297484307086
0.00298639353397
0.0021411223875
0.00266977774643
0.00284218272548
0.00290693017356
0.00293273633013
0.00294564135976
0.00295516035363
0.00296457496773
0.00297502803281
0.00298714787642
0.00213849169101
0.00266606652119
0.00283850610297
0.00290373416595
0.00293010809869
0.00294354731023
0.00295357551739
0.00296350741194
0.00297452742293
0.00298730996838
0.0021350393016
0.00266128334322
0.00283370555908
0.00289945780402
0.00292647377603
0.00294052499656
0.00295112751837
0.0029616488143
0.00297330824798
0.00298683825533
0.00213068736668
0.00265536760046
0.00282773137117
0.00289405373448
0.00292178370106
0.00293652310924
0.00294778335751
0.00295897540372
0.00297134681336
0.00298567749229
0.00212536416464
0.00264826459113
0.00282054728384
0.00288747658878
0.00291599802793
0.00293151583753
0.00294352713988
0.00295547258678
0.00296863377359
0.00298381633863
0.00211901638309
0.00263998205784
0.00281214505861
0.00287971472005
0.00290909974765
0.00292548541738
0.00293833863784
0.00295113434519
0.00296518041207
0.00298127234976
0.00211156148519
0.00263051673529
0.00280253541196
0.00287077066553
0.00290107724048
0.00291841483363
0.00293221194258
0.00294596983627
0.00296100620178
0.00297813542405
0.00210309871942
0.00261986189826
0.00279172357047
0.00286065025664
0.00289193301076
0.00291030589278
0.00292515889144
0.00294001618704
0.00295616409112
0.0029744378887
0.00209343245702
0.00260810133996
0.00277979617242
0.00284940993572
0.00288169666404
0.00290118251388
0.0029172176434
0.00293327717851
0.00295069286546
0.002970179319
0.00208284980551
0.00259537867372
0.00276688726394
0.00283715004043
0.00287044861867
0.00289108863259
0.00290836150963
0.00285824994077
)
;
    }
    sides
    {
        type            kqRWallFunction;
        value           nonuniform List<scalar> 0();
    }
    bottom
    {
        type            kqRWallFunction;
        value           nonuniform List<scalar> 
17
(
0.00214312321321
0.00214441370618
0.00214514795389
0.00214536137547
0.00214504678744
0.00214426874326
0.00214301716885
0.0021411223875
0.00213849169101
0.0021350393016
0.00213068736668
0.00212536416464
0.00211901638309
0.00211156148519
0.00210309871942
0.00209343245702
0.00208284980551
)
;
    }
    front
    {
        type            kqRWallFunction;
        value           nonuniform List<scalar> 
164
(
0.00214312321321
0.00267060457809
0.00284132268156
0.00290378505361
0.00292736069358
0.00293818771382
0.0029456421132
0.00295286119165
0.00214441370618
0.00267258483122
0.00284373118155
0.00290648652731
0.00293027308152
0.00294128145063
0.00294892478171
0.00295634700896
0.00214514795389
0.00267401818319
0.00284552567302
0.00290855650934
0.00293256358058
0.00294377791735
0.00295163380559
0.00295928600738
0.00296776979791
0.00297777859914
0.00214536137547
0.00267481321126
0.00284662863452
0.00290993553478
0.00293418678565
0.00294563362276
0.0029537324725
0.00296165134289
0.00297045253141
0.00298075147156
0.00214504678744
0.00267485729971
0.00284693830975
0.00291054685603
0.00293508288
0.00294680185317
0.00295517878483
0.0029633976652
0.00297253168843
0.00298318149261
0.00214426874326
0.00267409805846
0.0028463492358
0.00291029479666
0.00293518028363
0.00294722583028
0.00295592593274
0.00296448811637
0.00297400386731
0.00298506618333
0.00214301716885
0.00267244128419
0.00284478250764
0.00290910185346
0.00293441142067
0.00294685203934
0.00295593057091
0.00296488923656
0.00297484307086
0.00298639353397
0.0021411223875
0.00266977774643
0.00284218272548
0.00290693017356
0.00293273633013
0.00294564135976
0.00295516035363
0.00296457496773
0.00297502803281
0.00298714787642
0.00213849169101
0.00266606652119
0.00283850610297
0.00290373416595
0.00293010809869
0.00294354731023
0.00295357551739
0.00296350741194
0.00297452742293
0.00298730996838
0.0021350393016
0.00266128334322
0.00283370555908
0.00289945780402
0.00292647377603
0.00294052499656
0.00295112751837
0.0029616488143
0.00297330824798
0.00298683825533
0.00213068736668
0.00265536760046
0.00282773137117
0.00289405373448
0.00292178370106
0.00293652310924
0.00294778335751
0.00295897540372
0.00297134681336
0.00298567749229
0.00212536416464
0.00264826459113
0.00282054728384
0.00288747658878
0.00291599802793
0.00293151583753
0.00294352713988
0.00295547258678
0.00296863377359
0.00298381633863
0.00211901638309
0.00263998205784
0.00281214505861
0.00287971472005
0.00290909974765
0.00292548541738
0.00293833863784
0.00295113434519
0.00296518041207
0.00298127234976
0.00211156148519
0.00263051673529
0.00280253541196
0.00287077066553
0.00290107724048
0.00291841483363
0.00293221194258
0.00294596983627
0.00296100620178
0.00297813542405
0.00210309871942
0.00261986189826
0.00279172357047
0.00286065025664
0.00289193301076
0.00291030589278
0.00292515889144
0.00294001618704
0.00295616409112
0.0029744378887
0.00209343245702
0.00260810133996
0.00277979617242
0.00284940993572
0.00288169666404
0.00290118251388
0.0029172176434
0.00293327717851
0.00295069286546
0.002970179319
0.00208284980551
0.00259537867372
0.00276688726394
0.00283715004043
0.00287044861867
0.00289108863259
0.00290836150963
0.00285824994077
)
;
    }
    atmosphere
    {
        type            inletOutlet;
        inletValue      nonuniform List<scalar> 0();
        value           nonuniform List<scalar> 0();
    }
    floatingObject
    {
        type            kqRWallFunction;
        value           nonuniform List<scalar> 0();
    }
    procBoundary4to0
    {
        type            processor;
        value           nonuniform List<scalar> 8(0.00214127293843 0.00266809296011 0.00283835440514 0.00290052901764 0.00292391647426 0.00293459103808 0.00294188939714 0.00294894345492);
    }
    procBoundary4to3
    {
        type            processor;
        value           nonuniform List<scalar> 
13
(
0.00292578237041
0.00294465294066
0.00296554267717
0.00207129917321
0.00258188923868
0.00275316737007
0.00282402177566
0.00288000585569
0.00292578237041
0.00289854789895
0.00282402177566
0.00288000585569
0.00284521588661
)
;
    }
    procBoundary4to5
    {
        type            processor;
        value           nonuniform List<scalar> 
18
(
0.00296090168966
0.00296459041545
0.00296459041545
0.00297438421224
0.0029904385008
0.00299358200074
0.00299630753556
0.00299861341918
0.0030005250781
0.00300205762784
0.00300320276897
0.00300384107442
0.00300376806675
0.00300287345517
0.0030013671527
0.00299944380553
0.00299687223656
0.00299345924917
)
;
    }
}


// ************************************************************************* //
