/*--------------------------------*- C++ -*----------------------------------*\
| =========                 |                                                 |
| \\      /  F ield         | OpenFOAM: The Open Source CFD Toolbox           |
|  \\    /   O peration     | Version:  v2012                                 |
|   \\  /    A nd           | Website:  www.openfoam.com                      |
|    \\/     M anipulation  |                                                 |
\*---------------------------------------------------------------------------*/
FoamFile
{
    version     2.0;
    format      ascii;
    class       volScalarField;
    location    "1.8";
    object      p;
}
// * * * * * * * * * * * * * * * * * * * * * * * * * * * * * * * * * * * * * //

dimensions      [1 -1 -2 0 0 0 0];


internalField   nonuniform List<scalar> 
167
(
6853.53644731
6362.88805031
5871.9575998
5380.78324494
4889.39002349
4397.80723608
3906.07184288
3414.23526977
7826.39116072
7336.20550718
6845.67393773
6354.90877207
5863.87757861
5372.59393907
4881.0801088
4389.36654464
3897.49275747
3405.51477715
2913.4960509
7818.85711636
7328.61937676
6838.04761589
6347.18929289
5856.04429089
5364.62676066
4872.95810564
4381.06797476
3888.99572197
3396.79246706
2904.52340257
7811.63926224
7321.35182591
6830.7109889
6339.75159714
5848.47716736
5356.90169369
4865.0453667
4372.93497277
3880.60564318
3388.1033606
8294.74153497
7804.76139556
7314.41889835
6823.69692762
6332.62393533
5841.20375715
5349.44801585
4857.37369653
4365.00308747
3872.36428096
3379.49482567
8288.25229982
7798.24786761
7307.8469752
6817.03499841
6325.83783744
5834.25792873
5342.30293544
4849.98492767
4357.3198298
3864.3277483
3371.03555142
8282.15891934
7792.12749547
7301.66473454
6810.75758253
6319.42845612
5827.6779421
5335.50914601
4842.92837485
4349.94328152
3856.56508745
8276.49119156
7786.43186613
7295.90481169
6804.89890948
6313.43345805
5821.50578878
5329.11405218
4836.25825108
4342.93797934
8271.27991671
7781.19195789
7290.60006022
6799.49524787
6307.89221867
5815.78570201
5323.16839627
4830.033822
4336.37328305
8266.55541289
7776.43915769
7285.78443649
6794.58189333
6302.84425485
5810.56257765
5317.72396013
4824.31557053
4330.32031397
3835.71754761
8262.34752434
7772.20432491
7281.48977386
6790.19432323
6298.32863028
5805.88047113
5312.83172296
4819.16281556
4324.84897927
3829.85993004
8258.68454628
7768.51623876
7277.74688794
6786.36608671
6294.38282397
5801.78169629
5308.53989386
4814.63182442
4320.02567057
3824.68221218
8255.59200889
7765.40136641
7274.58359381
6783.1278468
6291.04090757
5798.30497998
5304.89277359
4810.77410483
4315.91089065
3820.25599326
8253.09225821
7762.88216324
7272.02372348
6780.50570565
6288.33220854
5795.48334038
5301.92890386
4807.63468743
4312.55732913
3816.6436594
8251.20398493
7760.97635889
7270.08653661
6778.52018394
6286.27949787
5793.34346604
5299.67946744
4805.24999793
4310.00797942
8249.95474367
7759.71900895
7268.80731787
6777.20854336
6284.92313874
5791.92899954
5298.1915764
4803.67124432
4308.31875198
8249.36150629
7759.11943973
7268.19604865
6776.58457255
6284.2792894
5791.25855299
5297.48698069
4802.92404355
4307.519539
)
;

boundaryField
{
    back
    {
        type            calculated;
        value           nonuniform List<scalar> 
167
(
6853.53644731
6362.88805031
5871.9575998
5380.78324494
4889.39002349
4397.80723608
3906.07184288
3414.23526977
7826.39116072
7336.20550718
6845.67393773
6354.90877207
5863.87757861
5372.59393907
4881.0801088
4389.36654464
3897.49275747
3405.51477715
2913.4960509
7818.85711636
7328.61937676
6838.04761589
6347.18929289
5856.04429089
5364.62676066
4872.95810564
4381.06797476
3888.99572197
3396.79246706
2904.52340257
7811.63926224
7321.35182591
6830.7109889
6339.75159714
5848.47716736
5356.90169369
4865.0453667
4372.93497277
3880.60564318
3388.1033606
8294.74153497
7804.76139556
7314.41889835
6823.69692762
6332.62393533
5841.20375715
5349.44801585
4857.37369653
4365.00308747
3872.36428096
3379.49482567
8288.25229982
7798.24786761
7307.8469752
6817.03499841
6325.83783744
5834.25792873
5342.30293544
4849.98492767
4357.3198298
3864.3277483
3371.03555142
8282.15891934
7792.12749547
7301.66473454
6810.75758253
6319.42845612
5827.6779421
5335.50914601
4842.92837485
4349.94328152
3856.56508745
8276.49119156
7786.43186613
7295.90481169
6804.89890948
6313.43345805
5821.50578878
5329.11405218
4836.25825108
4342.93797934
8271.27991671
7781.19195789
7290.60006022
6799.49524787
6307.89221867
5815.78570201
5323.16839627
4830.033822
4336.37328305
8266.55541289
7776.43915769
7285.78443649
6794.58189333
6302.84425485
5810.56257765
5317.72396013
4824.31557053
4330.32031397
3835.71754761
8262.34752434
7772.20432491
7281.48977386
6790.19432323
6298.32863028
5805.88047113
5312.83172296
4819.16281556
4324.84897927
3829.85993004
8258.68454628
7768.51623876
7277.74688794
6786.36608671
6294.38282397
5801.78169629
5308.53989386
4814.63182442
4320.02567057
3824.68221218
8255.59200889
7765.40136641
7274.58359381
6783.1278468
6291.04090757
5798.30497998
5304.89277359
4810.77410483
4315.91089065
3820.25599326
8253.09225821
7762.88216324
7272.02372348
6780.50570565
6288.33220854
5795.48334038
5301.92890386
4807.63468743
4312.55732913
3816.6436594
8251.20398493
7760.97635889
7270.08653661
6778.52018394
6286.27949787
5793.34346604
5299.67946744
4805.24999793
4310.00797942
8249.95474367
7759.71900895
7268.80731787
6777.20854336
6284.92313874
5791.92899954
5298.1915764
4803.67124432
4308.31875198
8249.36150629
7759.11943973
7268.19604865
6776.58457255
6284.2792894
5791.25855299
5297.48698069
4802.92404355
4307.519539
)
;
    }
    sides
    {
        type            calculated;
        value           nonuniform List<scalar> 9(8249.36150629 7759.11943973 7268.19604865 6776.58457255 6284.2792894 5791.25855299 5297.48698069 4802.92404355 4307.519539);
    }
    bottom
    {
        type            calculated;
        value           nonuniform List<scalar> 
13
(
8539.55026014
8533.06097066
8526.96757967
8521.29984771
8516.0885711
8511.36406721
8507.15618008
8503.49320487
8500.40067186
8497.90092748
8496.0126675
8494.76343282
8494.17012915
)
;
    }
    front
    {
        type            calculated;
        value           nonuniform List<scalar> 
167
(
6853.53644731
6362.88805031
5871.9575998
5380.78324494
4889.39002349
4397.80723608
3906.07184288
3414.23526977
7826.39116072
7336.20550718
6845.67393773
6354.90877207
5863.87757861
5372.59393907
4881.0801088
4389.36654464
3897.49275747
3405.51477715
2913.4960509
7818.85711636
7328.61937676
6838.04761589
6347.18929289
5856.04429089
5364.62676066
4872.95810564
4381.06797476
3888.99572197
3396.79246706
2904.52340257
7811.63926224
7321.35182591
6830.7109889
6339.75159714
5848.47716736
5356.90169369
4865.0453667
4372.93497277
3880.60564318
3388.1033606
8294.74153497
7804.76139556
7314.41889835
6823.69692762
6332.62393533
5841.20375715
5349.44801585
4857.37369653
4365.00308747
3872.36428096
3379.49482567
8288.25229982
7798.24786761
7307.8469752
6817.03499841
6325.83783744
5834.25792873
5342.30293544
4849.98492767
4357.3198298
3864.3277483
3371.03555142
8282.15891934
7792.12749547
7301.66473454
6810.75758253
6319.42845612
5827.6779421
5335.50914601
4842.92837485
4349.94328152
3856.56508745
8276.49119156
7786.43186613
7295.90481169
6804.89890948
6313.43345805
5821.50578878
5329.11405218
4836.25825108
4342.93797934
8271.27991671
7781.19195789
7290.60006022
6799.49524787
6307.89221867
5815.78570201
5323.16839627
4830.033822
4336.37328305
8266.55541289
7776.43915769
7285.78443649
6794.58189333
6302.84425485
5810.56257765
5317.72396013
4824.31557053
4330.32031397
3835.71754761
8262.34752434
7772.20432491
7281.48977386
6790.19432323
6298.32863028
5805.88047113
5312.83172296
4819.16281556
4324.84897927
3829.85993004
8258.68454628
7768.51623876
7277.74688794
6786.36608671
6294.38282397
5801.78169629
5308.53989386
4814.63182442
4320.02567057
3824.68221218
8255.59200889
7765.40136641
7274.58359381
6783.1278468
6291.04090757
5798.30497998
5304.89277359
4810.77410483
4315.91089065
3820.25599326
8253.09225821
7762.88216324
7272.02372348
6780.50570565
6288.33220854
5795.48334038
5301.92890386
4807.63468743
4312.55732913
3816.6436594
8251.20398493
7760.97635889
7270.08653661
6778.52018394
6286.27949787
5793.34346604
5299.67946744
4805.24999793
4310.00797942
8249.95474367
7759.71900895
7268.80731787
6777.20854336
6284.92313874
5791.92899954
5298.1915764
4803.67124432
4308.31875198
8249.36150629
7759.11943973
7268.19604865
6776.58457255
6284.2792894
5791.25855299
5297.48698069
4802.92404355
4307.519539
)
;
    }
    atmosphere
    {
        type            calculated;
        value           nonuniform List<scalar> 0();
    }
    floatingObject
    {
        type            calculated;
        value           nonuniform List<scalar> 0();
    }
    procBoundary10to9
    {
        type            processor;
        value           nonuniform List<scalar> 
15
(
6861.76410068
6371.13805085
5880.27550083
5389.18358876
4897.8783967
4406.38311456
3914.72921915
3422.9587206
7834.21746822
7344.11857102
7344.11857102
8316.31777073
8308.79809246
8301.59835602
8301.59835602
)
;
    }
    procBoundary10to11
    {
        type            processor;
        value           nonuniform List<scalar> 
23
(
2922.36194695
2922.36194695
2421.51514874
2412.273583
2895.48745216
2895.48745216
2886.44396861
2877.47713069
3362.80845023
3362.80845023
3849.15392963
3849.15392963
3842.17634293
3842.17634293
3340.48219036
3334.1583528
3328.55316114
3323.75186586
3319.82853945
3813.89588832
3813.89588832
3812.07422099
3811.21257548
)
;
    }
}


// ************************************************************************* //
