/*--------------------------------*- C++ -*----------------------------------*\
| =========                 |                                                 |
| \\      /  F ield         | OpenFOAM: The Open Source CFD Toolbox           |
|  \\    /   O peration     | Version:  v2012                                 |
|   \\  /    A nd           | Website:  www.openfoam.com                      |
|    \\/     M anipulation  |                                                 |
\*---------------------------------------------------------------------------*/
FoamFile
{
    version     2.0;
    format      ascii;
    class       volScalarField;
    location    "6";
    object      ddt0(epsilon);
}
// * * * * * * * * * * * * * * * * * * * * * * * * * * * * * * * * * * * * * //

dimensions      [0 2 -4 0 0 0 0];


internalField   nonuniform List<scalar> 
167
(
-0.000193085845891
-0.000195172792642
-0.000196130798502
-0.00019684216813
-0.000197593426392
-0.000198526111028
-0.000199847180153
-0.000202183353959
-0.000171149083958
-0.000186889051892
-0.000192538501352
-0.000194575866466
-0.000195521975347
-0.000196242520748
-0.000197016729583
-0.000197987227571
-0.000199408087951
-0.000201957390874
-0.00020751935294
-0.000170849855266
-0.000186420393669
-0.000191977025814
-0.000193974764079
-0.000194918580936
-0.000195658634993
-0.00019646826663
-0.000197498180943
-0.000199044229272
-0.0002018392217
-0.000208049062155
-0.000170490205405
-0.000185932381241
-0.00019140739107
-0.000193373866008
-0.000194324051063
-0.000195093942243
-0.000195952150579
-0.000197057621466
-0.000198727067833
-0.000201821027403
-0.000160655173132
-0.000170113586817
-0.000185420374147
-0.000190823344705
-0.000192774045387
-0.000193741326794
-0.000194548460039
-0.00019546219065
-0.000196651075838
-0.000198464834655
-0.00020187335068
-0.000160197178985
-0.000169693803559
-0.000184888136326
-0.00019023565497
-0.000192178004339
-0.000193168787593
-0.00019402035046
-0.000194996553368
-0.000196273621741
-0.000198257956192
-0.000201993903085
-0.000159708150904
-0.000169240051626
-0.000184331942954
-0.000189635760527
-0.000191580475015
-0.000192604642765
-0.000193507633914
-0.000194549366556
-0.000195934541095
-0.000198076710779
-0.000159197440704
-0.0001687426631
-0.000183751479381
-0.000189025359664
-0.00019098241987
-0.000192046622369
-0.000193006671669
-0.000194125347081
-0.000195605488104
-0.000158657768028
-0.000168201674391
-0.000183134001442
-0.000188387294112
-0.000190370641636
-0.000191486549107
-0.000192513109276
-0.000193709666752
-0.00019528692228
-0.000158065251355
-0.000167578913235
-0.000182460455755
-0.000187708014221
-0.000189727524071
-0.000190900741049
-0.000191994496981
-0.000193263828019
-0.000194938342217
-0.000197552708687
-0.000157404686553
-0.000166886411051
-0.000181678100029
-0.000186924015107
-0.000188984221459
-0.000190214110407
-0.000191370868846
-0.000192713452242
-0.000194482731719
-0.000197245008293
-0.00015657489298
-0.00016595198516
-0.000180631967739
-0.00018586430469
-0.000187960154689
-0.000189242327041
-0.000190454037573
-0.000191853768132
-0.000193691736135
-0.000196573087702
-0.000155326747965
-0.000164443874324
-0.000178921574201
-0.000184101003938
-0.000186214364517
-0.000187533011481
-0.000188779312298
-0.000190209481235
-0.000192083303488
-0.000195045914075
-0.000153022388408
-0.000161533583642
-0.000175575786071
-0.000180600329798
-0.000182683922238
-0.000184005567494
-0.00018525380512
-0.000186669379338
-0.000188532484481
-0.000191471574284
-0.000148059011408
-0.000155207082661
-0.00016823803865
-0.000172893169387
-0.00017486443157
-0.00017614484009
-0.000177347969102
-0.000178696669129
-0.000180455513059
-0.00013642917889
-0.00014039812173
-0.000151296098671
-0.000155208372961
-0.000156952506238
-0.000158136136672
-0.000159245644646
-0.000160494714939
-0.000162102925875
-0.00012080509347
-0.00013654715196
-0.000145532093189
-0.000148935199178
-0.000150722770143
-0.000152153880444
-0.00015366848793
-0.000155420125581
-0.000157504719553
)
;

boundaryField
{
    back
    {
        type            calculated;
        value           nonuniform List<scalar> 
167
(
-0.000193085845891
-0.000195172792642
-0.000196130798502
-0.00019684216813
-0.000197593426392
-0.000198526111028
-0.000199847180153
-0.000202183353959
-0.000171149083958
-0.000186889051892
-0.000192538501352
-0.000194575866466
-0.000195521975347
-0.000196242520748
-0.000197016729583
-0.000197987227571
-0.000199408087951
-0.000201957390874
-0.00020751935294
-0.000170849855266
-0.000186420393669
-0.000191977025814
-0.000193974764079
-0.000194918580936
-0.000195658634993
-0.00019646826663
-0.000197498180943
-0.000199044229272
-0.0002018392217
-0.000208049062155
-0.000170490205405
-0.000185932381241
-0.00019140739107
-0.000193373866008
-0.000194324051063
-0.000195093942243
-0.000195952150579
-0.000197057621466
-0.000198727067833
-0.000201821027403
-0.000160655173132
-0.000170113586817
-0.000185420374147
-0.000190823344705
-0.000192774045387
-0.000193741326794
-0.000194548460039
-0.00019546219065
-0.000196651075838
-0.000198464834655
-0.00020187335068
-0.000160197178985
-0.000169693803559
-0.000184888136326
-0.00019023565497
-0.000192178004339
-0.000193168787593
-0.00019402035046
-0.000194996553368
-0.000196273621741
-0.000198257956192
-0.000201993903085
-0.000159708150904
-0.000169240051626
-0.000184331942954
-0.000189635760527
-0.000191580475015
-0.000192604642765
-0.000193507633914
-0.000194549366556
-0.000195934541095
-0.000198076710779
-0.000159197440704
-0.0001687426631
-0.000183751479381
-0.000189025359664
-0.00019098241987
-0.000192046622369
-0.000193006671669
-0.000194125347081
-0.000195605488104
-0.000158657768028
-0.000168201674391
-0.000183134001442
-0.000188387294112
-0.000190370641636
-0.000191486549107
-0.000192513109276
-0.000193709666752
-0.00019528692228
-0.000158065251355
-0.000167578913235
-0.000182460455755
-0.000187708014221
-0.000189727524071
-0.000190900741049
-0.000191994496981
-0.000193263828019
-0.000194938342217
-0.000197552708687
-0.000157404686553
-0.000166886411051
-0.000181678100029
-0.000186924015107
-0.000188984221459
-0.000190214110407
-0.000191370868846
-0.000192713452242
-0.000194482731719
-0.000197245008293
-0.00015657489298
-0.00016595198516
-0.000180631967739
-0.00018586430469
-0.000187960154689
-0.000189242327041
-0.000190454037573
-0.000191853768132
-0.000193691736135
-0.000196573087702
-0.000155326747965
-0.000164443874324
-0.000178921574201
-0.000184101003938
-0.000186214364517
-0.000187533011481
-0.000188779312298
-0.000190209481235
-0.000192083303488
-0.000195045914075
-0.000153022388408
-0.000161533583642
-0.000175575786071
-0.000180600329798
-0.000182683922238
-0.000184005567494
-0.00018525380512
-0.000186669379338
-0.000188532484481
-0.000191471574284
-0.000148059011408
-0.000155207082661
-0.00016823803865
-0.000172893169387
-0.00017486443157
-0.00017614484009
-0.000177347969102
-0.000178696669129
-0.000180455513059
-0.00013642917889
-0.00014039812173
-0.000151296098671
-0.000155208372961
-0.000156952506238
-0.000158136136672
-0.000159245644646
-0.000160494714939
-0.000162102925875
-0.00012080509347
-0.00013654715196
-0.000145532093189
-0.000148935199178
-0.000150722770143
-0.000152153880444
-0.00015366848793
-0.000155420125581
-0.000157504719553
)
;
    }
    sides
    {
        type            calculated;
        value           nonuniform List<scalar> 9(-0.00012080509347 -0.00013654715196 -0.000145532093189 -0.000148935199178 -0.000150722770143 -0.000152153880444 -0.00015366848793 -0.000155420125581 -0.000157504719553);
    }
    bottom
    {
        type            calculated;
        value           nonuniform List<scalar> 
13
(
-0.000160655173132
-0.000160197178985
-0.000159708150904
-0.000159197440704
-0.000158657768028
-0.000158065251355
-0.000157404686553
-0.00015657489298
-0.000155326747965
-0.000153022388408
-0.000148059011408
-0.00013642917889
-0.00012080509347
)
;
    }
    front
    {
        type            calculated;
        value           nonuniform List<scalar> 
167
(
-0.000193085845891
-0.000195172792642
-0.000196130798502
-0.00019684216813
-0.000197593426392
-0.000198526111028
-0.000199847180153
-0.000202183353959
-0.000171149083958
-0.000186889051892
-0.000192538501352
-0.000194575866466
-0.000195521975347
-0.000196242520748
-0.000197016729583
-0.000197987227571
-0.000199408087951
-0.000201957390874
-0.00020751935294
-0.000170849855266
-0.000186420393669
-0.000191977025814
-0.000193974764079
-0.000194918580936
-0.000195658634993
-0.00019646826663
-0.000197498180943
-0.000199044229272
-0.0002018392217
-0.000208049062155
-0.000170490205405
-0.000185932381241
-0.00019140739107
-0.000193373866008
-0.000194324051063
-0.000195093942243
-0.000195952150579
-0.000197057621466
-0.000198727067833
-0.000201821027403
-0.000160655173132
-0.000170113586817
-0.000185420374147
-0.000190823344705
-0.000192774045387
-0.000193741326794
-0.000194548460039
-0.00019546219065
-0.000196651075838
-0.000198464834655
-0.00020187335068
-0.000160197178985
-0.000169693803559
-0.000184888136326
-0.00019023565497
-0.000192178004339
-0.000193168787593
-0.00019402035046
-0.000194996553368
-0.000196273621741
-0.000198257956192
-0.000201993903085
-0.000159708150904
-0.000169240051626
-0.000184331942954
-0.000189635760527
-0.000191580475015
-0.000192604642765
-0.000193507633914
-0.000194549366556
-0.000195934541095
-0.000198076710779
-0.000159197440704
-0.0001687426631
-0.000183751479381
-0.000189025359664
-0.00019098241987
-0.000192046622369
-0.000193006671669
-0.000194125347081
-0.000195605488104
-0.000158657768028
-0.000168201674391
-0.000183134001442
-0.000188387294112
-0.000190370641636
-0.000191486549107
-0.000192513109276
-0.000193709666752
-0.00019528692228
-0.000158065251355
-0.000167578913235
-0.000182460455755
-0.000187708014221
-0.000189727524071
-0.000190900741049
-0.000191994496981
-0.000193263828019
-0.000194938342217
-0.000197552708687
-0.000157404686553
-0.000166886411051
-0.000181678100029
-0.000186924015107
-0.000188984221459
-0.000190214110407
-0.000191370868846
-0.000192713452242
-0.000194482731719
-0.000197245008293
-0.00015657489298
-0.00016595198516
-0.000180631967739
-0.00018586430469
-0.000187960154689
-0.000189242327041
-0.000190454037573
-0.000191853768132
-0.000193691736135
-0.000196573087702
-0.000155326747965
-0.000164443874324
-0.000178921574201
-0.000184101003938
-0.000186214364517
-0.000187533011481
-0.000188779312298
-0.000190209481235
-0.000192083303488
-0.000195045914075
-0.000153022388408
-0.000161533583642
-0.000175575786071
-0.000180600329798
-0.000182683922238
-0.000184005567494
-0.00018525380512
-0.000186669379338
-0.000188532484481
-0.000191471574284
-0.000148059011408
-0.000155207082661
-0.00016823803865
-0.000172893169387
-0.00017486443157
-0.00017614484009
-0.000177347969102
-0.000178696669129
-0.000180455513059
-0.00013642917889
-0.00014039812173
-0.000151296098671
-0.000155208372961
-0.000156952506238
-0.000158136136672
-0.000159245644646
-0.000160494714939
-0.000162102925875
-0.00012080509347
-0.00013654715196
-0.000145532093189
-0.000148935199178
-0.000150722770143
-0.000152153880444
-0.00015366848793
-0.000155420125581
-0.000157504719553
)
;
    }
    atmosphere
    {
        type            calculated;
        value           nonuniform List<scalar> 0();
    }
    floatingObject
    {
        type            calculated;
        value           nonuniform List<scalar> 0();
    }
    procBoundary10to9
    {
        type            processor;
        value           nonuniform List<scalar> 
15
(
-0.000193630236959
-0.000195773318764
-0.000196747783
-0.000197451403971
-0.000198179494223
-0.000199059572094
-0.000200302036106
-0.000202399848628
-0.000171458408612
-0.000187336923655
-0.000187336923655
-0.000161892884329
-0.000161492090228
-0.000161089331775
-0.000161089331775
)
;
    }
    procBoundary10to11
    {
        type            processor;
        value           nonuniform List<scalar> 
23
(
-0.000207144739754
-0.000207144739754
-0.000221693264618
-0.000224214810006
-0.000208791352828
-0.000208791352828
-0.000209588330155
-0.000210483257311
-0.000202144516634
-0.000202144516634
-0.000197915408206
-0.000197915408206
-0.000197756600675
-0.000197756600675
-0.000202554324788
-0.000202524071794
-0.000202107344426
-0.000200765412247
-0.000197237177358
-0.000183257709525
-0.000183257709525
-0.000164599113921
-0.000160474728238
)
;
    }
}


// ************************************************************************* //
