/*--------------------------------*- C++ -*----------------------------------*\
| =========                 |                                                 |
| \\      /  F ield         | OpenFOAM: The Open Source CFD Toolbox           |
|  \\    /   O peration     | Version:  v2012                                 |
|   \\  /    A nd           | Website:  www.openfoam.com                      |
|    \\/     M anipulation  |                                                 |
\*---------------------------------------------------------------------------*/
FoamFile
{
    version     2.0;
    format      ascii;
    class       volScalarField;
    location    "6";
    object      ddt0(k);
}
// * * * * * * * * * * * * * * * * * * * * * * * * * * * * * * * * * * * * * //

dimensions      [0 2 -3 0 0 0 0];


internalField   nonuniform List<scalar> 
167
(
-0.000413246483126
-0.000415573815088
-0.000416516602943
-0.000417242195964
-0.000418093786254
-0.000419210541694
-0.00042096454824
-0.000424291182625
-0.000383680033938
-0.0004056628952
-0.000412817490147
-0.000415031715672
-0.000415946889805
-0.00041669337691
-0.000417587582769
-0.000418791366895
-0.000420705474334
-0.000424473447457
-0.000433295687183
-0.000383686547642
-0.000405393868505
-0.000412359609923
-0.000414492667643
-0.000415397231125
-0.000416177455792
-0.000417135520528
-0.000418453810653
-0.000420578398088
-0.000424836091535
-0.000434881214966
-0.000383622308607
-0.000405098542707
-0.000411914391043
-0.000413983217115
-0.000414894601527
-0.000415726905192
-0.000416773599098
-0.000418223979405
-0.000420598762292
-0.000425373015507
-0.000302154442125
-0.00038351666228
-0.000404780458968
-0.000411467148999
-0.000413503040577
-0.000414440452055
-0.000415337722607
-0.000416482796593
-0.00041808619664
-0.000420727881058
-0.000426082698278
-0.000302005923335
-0.00038334482283
-0.000404444430306
-0.000411035910255
-0.000413052062264
-0.000414025952764
-0.000414997900898
-0.000416251636003
-0.000418019577873
-0.000420968228871
-0.000426907219401
-0.000301832278933
-0.000383123332976
-0.000404080545671
-0.000410599389174
-0.000412614302803
-0.000413639929661
-0.000414696422368
-0.000416066660132
-0.000418020408761
-0.000421254130318
-0.000301646283727
-0.000382830984461
-0.000403684971578
-0.000410156311438
-0.000412185562514
-0.000413271447797
-0.000414420543486
-0.000415916441678
-0.000418036371846
-0.000301432935151
-0.000382467746435
-0.000403230467652
-0.000409668868274
-0.000411735421791
-0.000412899825111
-0.000414153779354
-0.000415774338295
-0.00041805431931
-0.00030114956502
-0.000381951487446
-0.000402678358413
-0.000409111323323
-0.000411230625197
-0.000412479688707
-0.000413833871851
-0.000415566525623
-0.000418004211907
-0.00042204904502
-0.000300776113071
-0.000381326767354
-0.000401939681956
-0.00040837402677
-0.000410550814503
-0.00041187870087
-0.000413321444727
-0.00041516512402
-0.000417754475828
-0.000422034102014
-0.00030016054524
-0.000380275818107
-0.000400753235527
-0.000407171293624
-0.000409394916485
-0.000410790600563
-0.000412305610155
-0.000414229138002
-0.000416921904399
-0.000421396548808
-0.000298947043239
-0.000378236928644
-0.000398461055434
-0.000404808653197
-0.000407051419228
-0.000408488176458
-0.000410040310126
-0.000411998376188
-0.00041474511113
-0.000419348170336
-0.000296245252881
-0.000373840337459
-0.000393502284233
-0.000399642194892
-0.000401839083978
-0.000403268425921
-0.000404809880068
-0.000406736994435
-0.000409456868927
-0.000414054029064
-0.000289847812386
-0.000363789066212
-0.000382102234074
-0.000387764205956
-0.000389825189996
-0.000391205459563
-0.000392683870925
-0.000394507886461
-0.000397095168703
-0.000274175117126
-0.000339490279797
-0.000355048615243
-0.000359842360041
-0.000361707211063
-0.000363027675025
-0.000364423282236
-0.000366167679045
-0.000368604735792
-0.000233631446078
-0.000274648805229
-0.000285332198654
-0.000288820825561
-0.00029053197098
-0.000292021397871
-0.000293809536882
-0.00029604588387
-0.000298819195686
)
;

boundaryField
{
    back
    {
        type            calculated;
        value           nonuniform List<scalar> 
167
(
-0.000413246483126
-0.000415573815088
-0.000416516602943
-0.000417242195964
-0.000418093786254
-0.000419210541694
-0.00042096454824
-0.000424291182625
-0.000383680033938
-0.000405662895199
-0.000412817490147
-0.000415031715672
-0.000415946889805
-0.00041669337691
-0.000417587582769
-0.000418791366895
-0.000420705474334
-0.000424473447457
-0.000433295687183
-0.000383686547642
-0.000405393868505
-0.000412359609923
-0.000414492667643
-0.000415397231125
-0.000416177455792
-0.000417135520528
-0.000418453810653
-0.000420578398088
-0.000424836091535
-0.000434881214966
-0.000383622308607
-0.000405098542707
-0.000411914391043
-0.000413983217115
-0.000414894601527
-0.000415726905192
-0.000416773599098
-0.000418223979405
-0.000420598762292
-0.000425373015507
-0.000302154442125
-0.00038351666228
-0.000404780458968
-0.000411467148999
-0.000413503040577
-0.000414440452055
-0.000415337722607
-0.000416482796593
-0.00041808619664
-0.000420727881058
-0.000426082698278
-0.000302005923335
-0.00038334482283
-0.000404444430306
-0.000411035910255
-0.000413052062264
-0.000414025952764
-0.000414997900898
-0.000416251636003
-0.000418019577873
-0.000420968228871
-0.000426907219401
-0.000301832278933
-0.000383123332976
-0.000404080545671
-0.000410599389174
-0.000412614302803
-0.000413639929661
-0.000414696422368
-0.000416066660132
-0.000418020408761
-0.000421254130318
-0.000301646283727
-0.000382830984461
-0.000403684971578
-0.000410156311438
-0.000412185562514
-0.000413271447797
-0.000414420543486
-0.000415916441678
-0.000418036371846
-0.000301432935151
-0.000382467746435
-0.000403230467652
-0.000409668868274
-0.000411735421791
-0.000412899825111
-0.000414153779354
-0.000415774338295
-0.00041805431931
-0.00030114956502
-0.000381951487446
-0.000402678358413
-0.000409111323323
-0.000411230625197
-0.000412479688707
-0.000413833871851
-0.000415566525623
-0.000418004211907
-0.00042204904502
-0.000300776113071
-0.000381326767354
-0.000401939681956
-0.00040837402677
-0.000410550814503
-0.00041187870087
-0.000413321444727
-0.00041516512402
-0.000417754475828
-0.000422034102014
-0.00030016054524
-0.000380275818107
-0.000400753235527
-0.000407171293624
-0.000409394916485
-0.000410790600563
-0.000412305610155
-0.000414229138002
-0.000416921904399
-0.000421396548808
-0.000298947043239
-0.000378236928644
-0.000398461055434
-0.000404808653197
-0.000407051419228
-0.000408488176458
-0.000410040310126
-0.000411998376188
-0.00041474511113
-0.000419348170336
-0.000296245252881
-0.000373840337459
-0.000393502284233
-0.000399642194892
-0.000401839083978
-0.000403268425921
-0.000404809880068
-0.000406736994435
-0.000409456868927
-0.000414054029064
-0.000289847812386
-0.000363789066212
-0.000382102234074
-0.000387764205956
-0.000389825189996
-0.000391205459563
-0.000392683870925
-0.000394507886461
-0.000397095168703
-0.000274175117126
-0.000339490279797
-0.000355048615243
-0.000359842360041
-0.000361707211063
-0.000363027675025
-0.000364423282236
-0.000366167679045
-0.000368604735792
-0.000233631446078
-0.000274648805229
-0.000285332198654
-0.000288820825561
-0.00029053197098
-0.000292021397871
-0.000293809536882
-0.00029604588387
-0.000298819195686
)
;
    }
    sides
    {
        type            calculated;
        value           nonuniform List<scalar> 9(-0.000233631446078 -0.000274648805229 -0.000285332198654 -0.000288820825561 -0.00029053197098 -0.000292021397871 -0.000293809536882 -0.00029604588387 -0.000298819195686);
    }
    bottom
    {
        type            calculated;
        value           nonuniform List<scalar> 
13
(
-0.000302154442125
-0.000302005923335
-0.000301832278933
-0.000301646283727
-0.000301432935151
-0.00030114956502
-0.000300776113071
-0.00030016054524
-0.000298947043239
-0.000296245252881
-0.000289847812386
-0.000274175117126
-0.000233631446078
)
;
    }
    front
    {
        type            calculated;
        value           nonuniform List<scalar> 
167
(
-0.000413246483126
-0.000415573815088
-0.000416516602943
-0.000417242195964
-0.000418093786254
-0.000419210541694
-0.00042096454824
-0.000424291182625
-0.000383680033938
-0.000405662895199
-0.000412817490147
-0.000415031715672
-0.000415946889805
-0.00041669337691
-0.000417587582769
-0.000418791366895
-0.000420705474334
-0.000424473447457
-0.000433295687183
-0.000383686547642
-0.000405393868505
-0.000412359609923
-0.000414492667643
-0.000415397231125
-0.000416177455792
-0.000417135520528
-0.000418453810653
-0.000420578398088
-0.000424836091535
-0.000434881214966
-0.000383622308607
-0.000405098542707
-0.000411914391043
-0.000413983217115
-0.000414894601527
-0.000415726905192
-0.000416773599098
-0.000418223979405
-0.000420598762292
-0.000425373015507
-0.000302154442125
-0.00038351666228
-0.000404780458968
-0.000411467148999
-0.000413503040577
-0.000414440452055
-0.000415337722607
-0.000416482796593
-0.00041808619664
-0.000420727881058
-0.000426082698278
-0.000302005923335
-0.00038334482283
-0.000404444430306
-0.000411035910255
-0.000413052062264
-0.000414025952764
-0.000414997900898
-0.000416251636003
-0.000418019577873
-0.000420968228871
-0.000426907219401
-0.000301832278933
-0.000383123332976
-0.000404080545671
-0.000410599389174
-0.000412614302803
-0.000413639929661
-0.000414696422368
-0.000416066660132
-0.000418020408761
-0.000421254130318
-0.000301646283727
-0.000382830984461
-0.000403684971578
-0.000410156311438
-0.000412185562514
-0.000413271447797
-0.000414420543486
-0.000415916441678
-0.000418036371846
-0.000301432935151
-0.000382467746435
-0.000403230467652
-0.000409668868274
-0.000411735421791
-0.000412899825111
-0.000414153779354
-0.000415774338295
-0.00041805431931
-0.00030114956502
-0.000381951487446
-0.000402678358413
-0.000409111323323
-0.000411230625197
-0.000412479688707
-0.000413833871851
-0.000415566525623
-0.000418004211907
-0.00042204904502
-0.000300776113071
-0.000381326767354
-0.000401939681956
-0.00040837402677
-0.000410550814503
-0.00041187870087
-0.000413321444727
-0.00041516512402
-0.000417754475828
-0.000422034102014
-0.00030016054524
-0.000380275818107
-0.000400753235527
-0.000407171293624
-0.000409394916485
-0.000410790600563
-0.000412305610155
-0.000414229138002
-0.000416921904399
-0.000421396548808
-0.000298947043239
-0.000378236928644
-0.000398461055434
-0.000404808653197
-0.000407051419228
-0.000408488176458
-0.000410040310126
-0.000411998376188
-0.00041474511113
-0.000419348170336
-0.000296245252881
-0.000373840337459
-0.000393502284233
-0.000399642194892
-0.000401839083978
-0.000403268425921
-0.000404809880068
-0.000406736994435
-0.000409456868927
-0.000414054029064
-0.000289847812386
-0.000363789066212
-0.000382102234074
-0.000387764205956
-0.000389825189996
-0.000391205459563
-0.000392683870925
-0.000394507886461
-0.000397095168703
-0.000274175117126
-0.000339490279797
-0.000355048615243
-0.000359842360041
-0.000361707211063
-0.000363027675025
-0.000364423282236
-0.000366167679045
-0.000368604735792
-0.000233631446078
-0.000274648805229
-0.000285332198654
-0.000288820825561
-0.00029053197098
-0.000292021397871
-0.000293809536882
-0.00029604588387
-0.000298819195686
)
;
    }
    atmosphere
    {
        type            calculated;
        value           nonuniform List<scalar> 0();
    }
    floatingObject
    {
        type            calculated;
        value           nonuniform List<scalar> 0();
    }
    procBoundary10to9
    {
        type            processor;
        value           nonuniform List<scalar> 
15
(
-0.000413775266295
-0.000416211022146
-0.000417188637592
-0.000417915021635
-0.000418718357462
-0.000419767041068
-0.000421324536174
-0.000424321042268
-0.000383751799082
-0.000405947205144
-0.000405947205144
-0.00030253896239
-0.000302418536036
-0.000302280951966
-0.000302280951966
)
;
    }
    procBoundary10to11
    {
        type            processor;
        value           nonuniform List<scalar> 
23
(
-0.000432074690827
-0.000432074690827
-0.000456756925815
-0.000461829246084
-0.000436739153541
-0.000436739153541
-0.000438813207529
-0.000440998465462
-0.000427767156414
-0.000427767156414
-0.000421567344192
-0.000421567344192
-0.000421859057578
-0.000421859057578
-0.000430161557857
-0.000430609981322
-0.000430386494795
-0.000428654754662
-0.000423463701075
-0.000401523830363
-0.000401523830363
-0.000372675933576
-0.000302968494274
)
;
    }
}


// ************************************************************************* //
