/*--------------------------------*- C++ -*----------------------------------*\
| =========                 |                                                 |
| \\      /  F ield         | OpenFOAM: The Open Source CFD Toolbox           |
|  \\    /   O peration     | Version:  v2012                                 |
|   \\  /    A nd           | Website:  www.openfoam.com                      |
|    \\/     M anipulation  |                                                 |
\*---------------------------------------------------------------------------*/
FoamFile
{
    version     2.0;
    format      ascii;
    class       volScalarField;
    location    "0.6";
    object      k_0;
}
// * * * * * * * * * * * * * * * * * * * * * * * * * * * * * * * * * * * * * //

dimensions      [0 2 -2 0 0 0 0];


internalField   nonuniform List<scalar> 
167
(
0.0332327227429
0.0332474616734
0.0332661690515
0.0333107908634
0.0335068163987
0.0344364281828
0.0381930559178
0.050097527955
0.0785103678352
0.033218113772
0.0332362020209
0.0332780265401
0.0334613446855
0.0343446454468
0.0379864713635
0.0497631100547
0.0783457482387
0.0331905775134
0.0332082531494
0.0332477248471
0.0334197818674
0.0342609795682
0.0377959404943
0.0494504054921
0.0781945693642
0.0331502269289
0.0331648089544
0.0331822407379
0.0332197526821
0.0333818727556
0.0341849606903
0.0376209762538
0.0491592412896
0.0780557336445
0.0331260005661
0.0331407810686
0.0331581079236
0.0331940054777
0.0333473947386
0.0341161410534
0.0374610482685
0.0488894693987
0.0779283915248
0.0331033905855
0.0331184638388
0.0331358092865
0.0331703965831
0.0333161504432
0.0340541029789
0.0373156216764
0.0486409660615
0.077811951598
0.0330672432023
0.0330823949312
0.0330978437369
0.0331153133387
0.0331488555704
0.0332879690107
0.0339984645935
0.0371841687186
0.0484136210832
0.0777060904914
0.0330318355922
0.0330473411354
0.0330630350404
0.0330789216664
0.0330966013505
0.0331293288054
0.0332627053871
0.0339488894014
0.0370662306916
0.048207322617
0.0776104062779
0.0330128629316
0.0330290534141
0.0330453359519
0.0330617094097
0.0330796669451
0.0331117774616
0.0332402394767
0.0339050828837
0.0369613849126
0.0480219922317
0.0775246578008
0.033012426298
0.0330293317795
0.0330462254674
0.0330645103659
0.0330961720955
0.0332204707219
0.033866792506
0.0368692672835
0.0478575903817
0.077448704966
0.0329974671306
0.0330150205274
0.033032451221
0.0330510949662
0.0330824503908
0.0332032775606
0.0338337780404
0.0367895917006
0.0477141523029
0.0773823309848
0.0329837967613
0.0330020006674
0.0330199714333
0.0330389949958
0.0330701713067
0.0331881815823
0.0338054953533
0.0367218939106
0.0475916960366
0.0773252779268
0.0329679064621
0.0329867742219
0.0330053083103
0.0330247593991
0.0330559127528
0.0331717807392
0.0337785965383
0.0366632830364
0.047488768658
0.077276826399
0.0329256014278
0.0329452668339
0.0329645256612
0.0329846102799
0.0330160669852
0.0331306449846
0.0337300092302
0.0365925319665
0.0473908428357
0.0772332765595
0.0326950037617
0.0327163058802
0.0327371661229
0.0327576251625
0.0327789050294
0.0328113532092
0.0329257529357
0.0335212419537
0.0363770555834
0.047194767024
0.0771657090051
0.0316404061743
0.0316630473265
0.0316853189382
0.0317072844822
0.0317301191958
0.0317637015105
0.0318765928353
0.0324635994784
0.0353236189459
0.0462978526624
0.076829851715
0.026511733322
0.0265340198389
0.0265556312551
0.0265765415308
0.0265972990996
0.0266237462175
0.0267029042846
0.027144458507
0.029567181216
0.0401435043581
0.0737235246338
)
;

boundaryField
{
    back
    {
        type            kqRWallFunction;
        value           nonuniform List<scalar> 
167
(
0.0332327227429
0.0332474616734
0.0332661690515
0.0333107908634
0.0335068163987
0.0344364281828
0.0381930559178
0.050097527955
0.0785103678352
0.033218113772
0.0332362020209
0.0332780265401
0.0334613446855
0.0343446454468
0.0379864713635
0.0497631100547
0.0783457482387
0.0331905775134
0.0332082531494
0.0332477248471
0.0334197818674
0.0342609795682
0.0377959404943
0.0494504054921
0.0781945693642
0.0331502269289
0.0331648089544
0.0331822407379
0.0332197526821
0.0333818727556
0.0341849606903
0.0376209762538
0.0491592412896
0.0780557336445
0.0331260005661
0.0331407810686
0.0331581079236
0.0331940054777
0.0333473947386
0.0341161410534
0.0374610482685
0.0488894693987
0.0779283915248
0.0331033905855
0.0331184638388
0.0331358092865
0.0331703965831
0.0333161504432
0.0340541029789
0.0373156216764
0.0486409660615
0.077811951598
0.0330672432023
0.0330823949312
0.0330978437369
0.0331153133387
0.0331488555704
0.0332879690107
0.0339984645935
0.0371841687186
0.0484136210832
0.0777060904914
0.0330318355922
0.0330473411354
0.0330630350404
0.0330789216664
0.0330966013505
0.0331293288054
0.0332627053871
0.0339488894014
0.0370662306916
0.048207322617
0.0776104062779
0.0330128629316
0.0330290534141
0.0330453359519
0.0330617094097
0.0330796669451
0.0331117774616
0.0332402394767
0.0339050828837
0.0369613849126
0.0480219922317
0.0775246578008
0.033012426298
0.0330293317795
0.0330462254674
0.0330645103659
0.0330961720955
0.0332204707219
0.033866792506
0.0368692672835
0.0478575903817
0.077448704966
0.0329974671306
0.0330150205274
0.033032451221
0.0330510949662
0.0330824503908
0.0332032775606
0.0338337780404
0.0367895917006
0.0477141523029
0.0773823309848
0.0329837967613
0.0330020006674
0.0330199714333
0.0330389949958
0.0330701713067
0.0331881815823
0.0338054953533
0.0367218939106
0.0475916960366
0.0773252779268
0.0329679064621
0.0329867742219
0.0330053083103
0.0330247593991
0.0330559127528
0.0331717807392
0.0337785965383
0.0366632830364
0.047488768658
0.077276826399
0.0329256014278
0.0329452668339
0.0329645256612
0.0329846102799
0.0330160669852
0.0331306449846
0.0337300092302
0.0365925319665
0.0473908428357
0.0772332765595
0.0326950037617
0.0327163058802
0.0327371661229
0.0327576251625
0.0327789050294
0.0328113532092
0.0329257529357
0.0335212419537
0.0363770555834
0.047194767024
0.0771657090051
0.0316404061743
0.0316630473265
0.0316853189382
0.0317072844822
0.0317301191958
0.0317637015105
0.0318765928353
0.0324635994784
0.0353236189459
0.0462978526624
0.076829851715
0.026511733322
0.0265340198389
0.0265556312551
0.0265765415308
0.0265972990996
0.0266237462175
0.0267029042846
0.027144458507
0.029567181216
0.0401435043581
0.0737235246338
)
;
    }
    sides
    {
        type            kqRWallFunction;
        value           nonuniform List<scalar> 
11
(
0.026511733322
0.0265340198389
0.0265556312551
0.0265765415308
0.0265972990996
0.0266237462175
0.0267029042846
0.027144458507
0.029567181216
0.0401435043581
0.0737235246338
)
;
    }
    bottom
    {
        type            kqRWallFunction;
        value           nonuniform List<scalar> 0();
    }
    front
    {
        type            kqRWallFunction;
        value           nonuniform List<scalar> 
167
(
0.0332327227429
0.0332474616734
0.0332661690515
0.0333107908634
0.0335068163987
0.0344364281828
0.0381930559178
0.050097527955
0.0785103678352
0.033218113772
0.0332362020209
0.0332780265401
0.0334613446855
0.0343446454468
0.0379864713635
0.0497631100547
0.0783457482387
0.0331905775134
0.0332082531494
0.0332477248471
0.0334197818674
0.0342609795682
0.0377959404943
0.0494504054921
0.0781945693642
0.0331502269289
0.0331648089544
0.0331822407379
0.0332197526821
0.0333818727556
0.0341849606903
0.0376209762538
0.0491592412896
0.0780557336445
0.0331260005661
0.0331407810686
0.0331581079236
0.0331940054777
0.0333473947386
0.0341161410534
0.0374610482685
0.0488894693987
0.0779283915248
0.0331033905855
0.0331184638388
0.0331358092865
0.0331703965831
0.0333161504432
0.0340541029789
0.0373156216764
0.0486409660615
0.077811951598
0.0330672432023
0.0330823949312
0.0330978437369
0.0331153133387
0.0331488555704
0.0332879690107
0.0339984645935
0.0371841687186
0.0484136210832
0.0777060904914
0.0330318355922
0.0330473411354
0.0330630350404
0.0330789216664
0.0330966013505
0.0331293288054
0.0332627053871
0.0339488894014
0.0370662306916
0.048207322617
0.0776104062779
0.0330128629316
0.0330290534141
0.0330453359519
0.0330617094097
0.0330796669451
0.0331117774616
0.0332402394767
0.0339050828837
0.0369613849126
0.0480219922317
0.0775246578008
0.033012426298
0.0330293317795
0.0330462254674
0.0330645103659
0.0330961720955
0.0332204707219
0.033866792506
0.0368692672835
0.0478575903817
0.077448704966
0.0329974671306
0.0330150205274
0.033032451221
0.0330510949662
0.0330824503908
0.0332032775606
0.0338337780404
0.0367895917006
0.0477141523029
0.0773823309848
0.0329837967613
0.0330020006674
0.0330199714333
0.0330389949958
0.0330701713067
0.0331881815823
0.0338054953533
0.0367218939106
0.0475916960366
0.0773252779268
0.0329679064621
0.0329867742219
0.0330053083103
0.0330247593991
0.0330559127528
0.0331717807392
0.0337785965383
0.0366632830364
0.047488768658
0.077276826399
0.0329256014278
0.0329452668339
0.0329645256612
0.0329846102799
0.0330160669852
0.0331306449846
0.0337300092302
0.0365925319665
0.0473908428357
0.0772332765595
0.0326950037617
0.0327163058802
0.0327371661229
0.0327576251625
0.0327789050294
0.0328113532092
0.0329257529357
0.0335212419537
0.0363770555834
0.047194767024
0.0771657090051
0.0316404061743
0.0316630473265
0.0316853189382
0.0317072844822
0.0317301191958
0.0317637015105
0.0318765928353
0.0324635994784
0.0353236189459
0.0462978526624
0.076829851715
0.026511733322
0.0265340198389
0.0265556312551
0.0265765415308
0.0265972990996
0.0266237462175
0.0267029042846
0.027144458507
0.029567181216
0.0401435043581
0.0737235246338
)
;
    }
    atmosphere
    {
        type            inletOutlet;
        inletValue      uniform 0.1;
        value           uniform 0.1;
    }
    floatingObject
    {
        type            kqRWallFunction;
        value           nonuniform List<scalar> 0();
    }
    procBoundary11to9
    {
        type            processor;
        value           nonuniform List<scalar> 9(0.0332635569655 0.033278647036 0.0332981905781 0.0333461095046 0.0335564346604 0.0345367806439 0.0384160880866 0.0504536418935 0.0786890187641);
    }
    procBoundary11to10
    {
        type            processor;
        value           nonuniform List<scalar> 
23
(
0.0332188384001
0.0332035613807
0.0332035613807
0.0331760649269
0.0331760649269
0.0331361846436
0.033111675461
0.0330886936279
0.0330886936279
0.0330523388934
0.0330523388934
0.0330166844557
0.0329969531323
0.0329955075564
0.0329955075564
0.0329797850975
0.032965348558
0.0329486767796
0.0329054956471
0.0329054956471
0.0326733391322
0.0316174486052
0.0264888447078
)
;
    }
}


// ************************************************************************* //
