/*--------------------------------*- C++ -*----------------------------------*\
| =========                 |                                                 |
| \\      /  F ield         | OpenFOAM: The Open Source CFD Toolbox           |
|  \\    /   O peration     | Version:  v2012                                 |
|   \\  /    A nd           | Website:  www.openfoam.com                      |
|    \\/     M anipulation  |                                                 |
\*---------------------------------------------------------------------------*/
FoamFile
{
    version     2.0;
    format      ascii;
    class       volScalarField;
    location    "5.6";
    object      p_rgh;
}
// * * * * * * * * * * * * * * * * * * * * * * * * * * * * * * * * * * * * * //

dimensions      [1 -1 -2 0 0 0 0];


internalField   nonuniform List<scalar> 
167
(
8522.47425245
8521.86394323
8520.7468388
8519.0616308
8516.87089871
8514.15049267
8510.77951496
8506.78695505
8523.0887124
8522.519795
8521.42699491
8519.78956988
8517.59030838
8514.79455133
8511.39704102
8507.39082175
8524.19697796
8523.63466296
8522.55409413
8520.92743578
8518.74105154
8515.97657569
8512.62463741
8508.67197337
8525.84243129
8525.29207719
8524.22858418
8522.62601199
8520.47204687
8517.75109521
8514.45794086
8510.57228282
8506.0579737
8528.01794365
8527.48275984
8526.44373623
8524.87769259
8522.77337729
8520.11796178
8516.89036466
8513.08815665
8508.67098049
8503.5938945
8530.71174405
8530.19429467
8529.18642639
8527.66743483
8525.62604479
8523.04938346
8519.91801177
8516.21235591
8511.9200085
8506.9828566
8533.90765381
8533.41076236
8532.44042871
8530.97837378
8529.01346744
8526.53273001
8523.51747473
8519.92238807
8515.79811904
8511.02220334
8537.58658685
8537.11283869
8536.18631257
8534.79063147
8532.91541925
8530.54910533
8527.67924933
8524.29314188
8520.29337937
8515.70781506
8541.72649759
8541.27819558
8540.40129508
8539.08066533
8537.30652492
8535.0676796
8532.34976518
8529.13047957
8525.36038075
8520.99970421
8546.30229879
8545.88177056
8545.05988273
8543.82239804
8542.16016304
8540.06268882
8537.5151835
8534.49558279
8530.96630706
8526.89533836
8551.28606603
8550.89594557
8550.1338828
8548.98699751
8547.44664593
8545.50371856
8543.14391515
8540.34197097
8537.09235154
8533.36857492
8556.64772245
8556.29033831
8555.59240474
8554.54275134
8553.13353771
8551.35459408
8549.19672354
8546.65207752
8543.70805115
8540.33039551
8562.35505317
8562.03236065
8561.40208648
8560.455129
8559.18518083
8557.58329282
8555.64659721
8553.36743746
8550.72321267
8547.70302162
8568.37443931
8568.08747514
8567.5279251
8566.68784277
8565.56287059
8564.14975039
8562.44203196
8560.43202262
8558.11509518
8555.47495303
8574.67017448
8574.41954281
8573.93272755
8573.20406821
8572.22861542
8571.00731981
8569.53320077
8567.80534881
8565.8263461
8563.58028236
8581.2066148
8580.99309056
8580.58016109
8579.96339401
8579.14004775
8578.11091462
8576.87644239
8575.43421256
8573.7944504
8571.94935123
8587.94644423
8587.77079192
8587.43164248
8586.9213779
8586.24505789
8585.3964055
8584.41874817
8594.85258618
8594.71361086
8594.44719713
8594.04956324
8593.51604517
8601.58938972
8601.30147001
)
;

boundaryField
{
    back
    {
        type            fixedFluxPressure;
        gradient        uniform 0;
        value           nonuniform List<scalar> 
167
(
8522.47425245
8521.86394323
8520.7468388
8519.0616308
8516.87089871
8514.15049267
8510.77951496
8506.78695505
8523.0887124
8522.519795
8521.42699491
8519.78956988
8517.59030838
8514.79455133
8511.39704102
8507.39082175
8524.19697796
8523.63466296
8522.55409413
8520.92743578
8518.74105154
8515.97657569
8512.62463741
8508.67197337
8525.84243129
8525.29207719
8524.22858418
8522.62601199
8520.47204687
8517.75109521
8514.45794086
8510.57228282
8506.0579737
8528.01794365
8527.48275984
8526.44373623
8524.87769259
8522.77337729
8520.11796178
8516.89036466
8513.08815665
8508.67098049
8503.5938945
8530.71174405
8530.19429467
8529.18642639
8527.66743483
8525.62604479
8523.04938346
8519.91801177
8516.21235591
8511.9200085
8506.9828566
8533.90765381
8533.41076236
8532.44042871
8530.97837378
8529.01346744
8526.53273001
8523.51747473
8519.92238807
8515.79811904
8511.02220334
8537.58658685
8537.11283869
8536.18631257
8534.79063147
8532.91541925
8530.54910533
8527.67924933
8524.29314188
8520.29337937
8515.70781506
8541.72649759
8541.27819558
8540.40129508
8539.08066533
8537.30652492
8535.0676796
8532.34976518
8529.13047957
8525.36038075
8520.99970421
8546.30229879
8545.88177056
8545.05988273
8543.82239804
8542.16016304
8540.06268882
8537.5151835
8534.49558279
8530.96630706
8526.89533836
8551.28606603
8550.89594557
8550.1338828
8548.98699751
8547.44664593
8545.50371856
8543.14391515
8540.34197097
8537.09235154
8533.36857492
8556.64772245
8556.29033831
8555.59240474
8554.54275134
8553.13353771
8551.35459408
8549.19672354
8546.65207752
8543.70805115
8540.33039551
8562.35505317
8562.03236065
8561.40208648
8560.455129
8559.18518083
8557.58329282
8555.64659721
8553.36743746
8550.72321267
8547.70302162
8568.37443931
8568.08747514
8567.5279251
8566.68784277
8565.56287059
8564.14975039
8562.44203196
8560.43202262
8558.11509518
8555.47495303
8574.67017448
8574.41954281
8573.93272755
8573.20406821
8572.22861542
8571.00731981
8569.53320077
8567.80534881
8565.8263461
8563.58028236
8581.2066148
8580.99309056
8580.58016109
8579.96339401
8579.14004775
8578.11091462
8576.87644239
8575.43421256
8573.7944504
8571.94935123
8587.94644423
8587.77079192
8587.43164248
8586.9213779
8586.24505789
8585.3964055
8584.41874817
8594.85258618
8594.71361086
8594.44719713
8594.04956324
8593.51604517
8601.58938972
8601.30147001
)
;
    }
    sides
    {
        type            fixedFluxPressure;
        gradient        uniform 0;
        value           nonuniform List<scalar> 8(8522.47425245 8521.86394323 8520.7468388 8519.0616308 8516.87089871 8514.15049267 8510.77951496 8506.78695505);
    }
    bottom
    {
        type            fixedFluxPressure;
        gradient        uniform 0;
        value           nonuniform List<scalar> 
18
(
8522.47425245
8523.0887124
8524.19697796
8525.84243129
8528.01794365
8530.71174405
8533.90765381
8537.58658685
8541.72649759
8546.30229879
8551.28606603
8556.64772245
8562.35505317
8568.37443931
8574.67017448
8581.2066148
8587.94644423
8594.85258618
)
;
    }
    front
    {
        type            fixedFluxPressure;
        gradient        uniform 0;
        value           nonuniform List<scalar> 
167
(
8522.47425245
8521.86394323
8520.7468388
8519.0616308
8516.87089871
8514.15049267
8510.77951496
8506.78695505
8523.0887124
8522.519795
8521.42699491
8519.78956988
8517.59030838
8514.79455133
8511.39704102
8507.39082175
8524.19697796
8523.63466296
8522.55409413
8520.92743578
8518.74105154
8515.97657569
8512.62463741
8508.67197337
8525.84243129
8525.29207719
8524.22858418
8522.62601199
8520.47204687
8517.75109521
8514.45794086
8510.57228282
8506.0579737
8528.01794365
8527.48275984
8526.44373623
8524.87769259
8522.77337729
8520.11796178
8516.89036466
8513.08815665
8508.67098049
8503.5938945
8530.71174405
8530.19429467
8529.18642639
8527.66743483
8525.62604479
8523.04938346
8519.91801177
8516.21235591
8511.9200085
8506.9828566
8533.90765381
8533.41076236
8532.44042871
8530.97837378
8529.01346744
8526.53273001
8523.51747473
8519.92238807
8515.79811904
8511.02220334
8537.58658685
8537.11283869
8536.18631257
8534.79063147
8532.91541925
8530.54910533
8527.67924933
8524.29314188
8520.29337937
8515.70781506
8541.72649759
8541.27819558
8540.40129508
8539.08066533
8537.30652492
8535.0676796
8532.34976518
8529.13047957
8525.36038075
8520.99970421
8546.30229879
8545.88177056
8545.05988273
8543.82239804
8542.16016304
8540.06268882
8537.5151835
8534.49558279
8530.96630706
8526.89533836
8551.28606603
8550.89594557
8550.1338828
8548.98699751
8547.44664593
8545.50371856
8543.14391515
8540.34197097
8537.09235154
8533.36857492
8556.64772245
8556.29033831
8555.59240474
8554.54275134
8553.13353771
8551.35459408
8549.19672354
8546.65207752
8543.70805115
8540.33039551
8562.35505317
8562.03236065
8561.40208648
8560.455129
8559.18518083
8557.58329282
8555.64659721
8553.36743746
8550.72321267
8547.70302162
8568.37443931
8568.08747514
8567.5279251
8566.68784277
8565.56287059
8564.14975039
8562.44203196
8560.43202262
8558.11509518
8555.47495303
8574.67017448
8574.41954281
8573.93272755
8573.20406821
8572.22861542
8571.00731981
8569.53320077
8567.80534881
8565.8263461
8563.58028236
8581.2066148
8580.99309056
8580.58016109
8579.96339401
8579.14004775
8578.11091462
8576.87644239
8575.43421256
8573.7944504
8571.94935123
8587.94644423
8587.77079192
8587.43164248
8586.9213779
8586.24505789
8585.3964055
8584.41874817
8594.85258618
8594.71361086
8594.44719713
8594.04956324
8593.51604517
8601.58938972
8601.30147001
)
;
    }
    atmosphere
    {
        type            totalPressure;
        rho             rho;
        psi             none;
        gamma           1;
        p0              nonuniform List<scalar> 0();
        value           nonuniform List<scalar> 0();
    }
    floatingObject
    {
        type            fixedFluxPressure;
        gradient        nonuniform List<scalar> 0();
        value           nonuniform List<scalar> 0();
    }
    procBoundary2to0
    {
        type            processor;
        value           nonuniform List<scalar> 
14
(
8583.26649276
8581.96561392
8580.51407173
8592.86807718
8583.26649276
8592.10094919
8601.88862277
8601.78564959
8592.86807718
8600.92055254
8601.78564959
8608.82770975
8600.92055254
8608.64716259
)
;
    }
    procBoundary2to1
    {
        type            processor;
        value           nonuniform List<scalar> 
18
(
8502.18847621
8502.84832712
8504.09980018
8504.09980018
8500.881805
8500.881805
8497.84055402
8501.35764144
8505.59370502
8510.53945887
8516.11812369
8522.30298824
8529.1213356
8536.49689083
8544.28223886
8552.49504591
8561.06197099
8569.89521522
)
;
    }
}


// ************************************************************************* //
