/*--------------------------------*- C++ -*----------------------------------*\
| =========                 |                                                 |
| \\      /  F ield         | OpenFOAM: The Open Source CFD Toolbox           |
|  \\    /   O peration     | Version:  v2012                                 |
|   \\  /    A nd           | Website:  www.openfoam.com                      |
|    \\/     M anipulation  |                                                 |
\*---------------------------------------------------------------------------*/
FoamFile
{
    version     2.0;
    format      ascii;
    class       volScalarField;
    location    "3";
    object      epsilon;
}
// * * * * * * * * * * * * * * * * * * * * * * * * * * * * * * * * * * * * * //

dimensions      [0 2 -3 0 0 0 0];


internalField   nonuniform List<scalar> 
164
(
0.00211755855324
0.00220697360361
0.00241396513769
0.00249136979269
0.00252291621823
0.00253992646646
0.00255351585473
0.00256740784507
0.00212499667843
0.00221504136986
0.00242219500487
0.00249877718092
0.00252926778939
0.00254525685967
0.00255786448215
0.00257075155496
0.00258510845105
0.00260155183916
0.00262166146455
0.00213112186685
0.00222169993436
0.00242900926462
0.00250485270674
0.00253439990571
0.00254948667167
0.00256122467465
0.00257321386546
0.00258659872891
0.00260199015451
0.0026208738023
0.00264980195189
0.00271621874368
0.00213607420055
0.00222702815655
0.00243445567544
0.00250964586751
0.00253836391794
0.00255266149346
0.00256363169442
0.00257481837014
0.00258732001633
0.00260169174203
0.00261919493996
0.00264516603502
0.00270210652286
0.00287205746087
0.00213992019585
0.00223113066813
0.00243862215876
0.00251322804729
0.00254122360527
0.00255483584746
0.00256513325124
0.00257560377357
0.00258730235146
0.00260073344681
0.00261694680404
0.00264008468716
0.00268706608926
0.00281882004468
0.00214269980287
0.00223406402803
0.00244158342923
0.00251568400241
0.00254305347734
0.00255606826821
0.00256577716907
0.00257561472295
0.00258659803561
0.00259919736301
0.002614320842
0.00263532805138
0.00267499974749
0.0027781864495
0.00214450566232
0.0022359616542
0.00244340335161
0.00251707238764
0.00254391256301
0.00255641760277
0.00256561838293
0.00257490354042
0.0025852617831
0.00259713796932
0.00261137345999
0.00263095959435
0.00266657140337
0.0027541797295
0.00214541622229
0.00223683020254
0.00244419761376
0.00251748334044
0.00254387559955
0.00255594998262
0.00256471525984
0.00257352359319
0.00258333991848
0.00259459371755
0.00260812105544
0.00262682262016
0.00266062687145
0.00274179701379
0.00214558414838
0.00223680558906
0.00244398699803
0.00251695887527
0.0025429937887
0.00255471547054
0.00256311585755
0.00257152053943
0.00258087886931
0.0025916196414
0.00260460531796
0.00262279197359
0.00265601920569
0.00273518148005
0.00214497657653
0.00223584204407
0.00244284040101
0.00251557018656
0.00254132783374
0.00255276815165
0.00256087023517
0.00256894132931
0.002577924016
0.00258825821394
0.00260085469736
0.00261879683572
0.00265209363333
0.00273109216601
0.00294332265318
0.00352172606439
0.00214373108878
0.00223408161946
0.00244085127061
0.00251338119261
0.00253892929902
0.00255015254814
0.00255801779351
0.00256582284171
0.00257451077022
0.00258453954019
0.00259689131372
0.00261482752298
0.00264865064935
0.00272848022472
0.00293775961638
0.0034901872292
0.00214187682656
0.0022316938027
0.00243812461725
0.00251046164707
0.00253585047808
0.00254691039856
0.00255459333017
0.00256219194254
0.00257065649712
0.00258047375982
0.00259271978763
0.00261089309591
0.00264569700455
0.0027274642625
0.00293791064175
0.00348700003121
)
;

boundaryField
{
    back
    {
        lowReCorrection 0;
        blending        stepwise;
        n               2;
        type            epsilonWallFunction;
        value           nonuniform List<scalar> 
164
(
0.00211755855324
0.00220697360361
0.00241396513769
0.00249136979269
0.00252291621823
0.00253992646646
0.00255351585473
0.00256740784507
0.00212499667843
0.00221504136986
0.00242219500487
0.00249877718092
0.00252926778939
0.00254525685967
0.00255786448215
0.00257075155496
0.00258510845105
0.00260155183916
0.00262166146455
0.00213112186685
0.00222169993436
0.00242900926462
0.00250485270674
0.00253439990571
0.00254948667167
0.00256122467465
0.00257321386546
0.00258659872891
0.00260199015451
0.0026208738023
0.00264980195189
0.00271621874368
0.00213607420055
0.00222702815655
0.00243445567544
0.00250964586751
0.00253836391794
0.00255266149346
0.00256363169442
0.00257481837014
0.00258732001633
0.00260169174203
0.00261919493996
0.00264516603502
0.00270210652286
0.00287205746087
0.00213992019585
0.00223113066813
0.00243862215876
0.00251322804729
0.00254122360527
0.00255483584746
0.00256513325124
0.00257560377357
0.00258730235146
0.00260073344681
0.00261694680404
0.00264008468716
0.00268706608926
0.00281882004468
0.00214269980287
0.00223406402803
0.00244158342923
0.00251568400241
0.00254305347734
0.00255606826821
0.00256577716907
0.00257561472295
0.00258659803561
0.00259919736301
0.002614320842
0.00263532805138
0.00267499974749
0.0027781864495
0.00214450566232
0.0022359616542
0.00244340335161
0.00251707238764
0.00254391256301
0.00255641760277
0.00256561838293
0.00257490354042
0.0025852617831
0.00259713796932
0.00261137345999
0.00263095959435
0.00266657140337
0.0027541797295
0.00214541622229
0.00223683020254
0.00244419761376
0.00251748334044
0.00254387559955
0.00255594998262
0.00256471525984
0.00257352359319
0.00258333991848
0.00259459371755
0.00260812105544
0.00262682262016
0.00266062687145
0.00274179701379
0.00214558414838
0.00223680558906
0.00244398699803
0.00251695887527
0.0025429937887
0.00255471547054
0.00256311585755
0.00257152053943
0.00258087886931
0.0025916196414
0.00260460531796
0.00262279197359
0.00265601920569
0.00273518148005
0.00214497657653
0.00223584204407
0.00244284040101
0.00251557018656
0.00254132783374
0.00255276815165
0.00256087023517
0.00256894132931
0.002577924016
0.00258825821394
0.00260085469736
0.00261879683572
0.00265209363333
0.00273109216601
0.00294332265318
0.00352172606439
0.00214373108878
0.00223408161946
0.00244085127061
0.00251338119261
0.00253892929902
0.00255015254814
0.00255801779351
0.00256582284171
0.00257451077022
0.00258453954019
0.00259689131372
0.00261482752298
0.00264865064935
0.00272848022472
0.00293775961638
0.0034901872292
0.00214187682656
0.0022316938027
0.00243812461725
0.00251046164707
0.00253585047808
0.00254691039856
0.00255459333017
0.00256219194254
0.00257065649712
0.00258047375982
0.00259271978763
0.00261089309591
0.00264569700455
0.0027274642625
0.00293791064175
0.00348700003121
)
;
    }
    sides
    {
        lowReCorrection 0;
        blending        stepwise;
        n               2;
        type            epsilonWallFunction;
        value           nonuniform List<scalar> 0();
    }
    bottom
    {
        lowReCorrection 0;
        blending        stepwise;
        n               2;
        type            epsilonWallFunction;
        value           nonuniform List<scalar> 
12
(
0.00211755855324
0.00212499667843
0.00213112186685
0.00213607420055
0.00213992019585
0.00214269980287
0.00214450566232
0.00214541622229
0.00214558414838
0.00214497657653
0.00214373108878
0.00214187682656
)
;
    }
    front
    {
        lowReCorrection 0;
        blending        stepwise;
        n               2;
        type            epsilonWallFunction;
        value           nonuniform List<scalar> 
164
(
0.00211755855324
0.00220697360361
0.00241396513769
0.00249136979269
0.00252291621823
0.00253992646646
0.00255351585473
0.00256740784507
0.00212499667843
0.00221504136986
0.00242219500487
0.00249877718092
0.00252926778939
0.00254525685967
0.00255786448215
0.00257075155496
0.00258510845105
0.00260155183916
0.00262166146455
0.00213112186685
0.00222169993436
0.00242900926462
0.00250485270674
0.00253439990571
0.00254948667167
0.00256122467465
0.00257321386546
0.00258659872891
0.00260199015451
0.0026208738023
0.00264980195189
0.00271621874368
0.00213607420055
0.00222702815655
0.00243445567544
0.00250964586751
0.00253836391794
0.00255266149346
0.00256363169442
0.00257481837014
0.00258732001633
0.00260169174203
0.00261919493996
0.00264516603502
0.00270210652286
0.00287205746087
0.00213992019585
0.00223113066813
0.00243862215876
0.00251322804729
0.00254122360527
0.00255483584746
0.00256513325124
0.00257560377357
0.00258730235146
0.00260073344681
0.00261694680404
0.00264008468716
0.00268706608926
0.00281882004468
0.00214269980287
0.00223406402803
0.00244158342923
0.00251568400241
0.00254305347734
0.00255606826821
0.00256577716907
0.00257561472295
0.00258659803561
0.00259919736301
0.002614320842
0.00263532805138
0.00267499974749
0.0027781864495
0.00214450566232
0.0022359616542
0.00244340335161
0.00251707238764
0.00254391256301
0.00255641760277
0.00256561838293
0.00257490354042
0.0025852617831
0.00259713796932
0.00261137345999
0.00263095959435
0.00266657140337
0.0027541797295
0.00214541622229
0.00223683020254
0.00244419761376
0.00251748334044
0.00254387559955
0.00255594998262
0.00256471525984
0.00257352359319
0.00258333991848
0.00259459371755
0.00260812105544
0.00262682262016
0.00266062687145
0.00274179701379
0.00214558414838
0.00223680558906
0.00244398699803
0.00251695887527
0.0025429937887
0.00255471547054
0.00256311585755
0.00257152053943
0.00258087886931
0.0025916196414
0.00260460531796
0.00262279197359
0.00265601920569
0.00273518148005
0.00214497657653
0.00223584204407
0.00244284040101
0.00251557018656
0.00254132783374
0.00255276815165
0.00256087023517
0.00256894132931
0.002577924016
0.00258825821394
0.00260085469736
0.00261879683572
0.00265209363333
0.00273109216601
0.00294332265318
0.00352172606439
0.00214373108878
0.00223408161946
0.00244085127061
0.00251338119261
0.00253892929902
0.00255015254814
0.00255801779351
0.00256582284171
0.00257451077022
0.00258453954019
0.00259689131372
0.00261482752298
0.00264865064935
0.00272848022472
0.00293775961638
0.0034901872292
0.00214187682656
0.0022316938027
0.00243812461725
0.00251046164707
0.00253585047808
0.00254691039856
0.00255459333017
0.00256219194254
0.00257065649712
0.00258047375982
0.00259271978763
0.00261089309591
0.00264569700455
0.0027274642625
0.00293791064175
0.00348700003121
)
;
    }
    atmosphere
    {
        type            inletOutlet;
        inletValue      nonuniform List<scalar> 0();
        value           nonuniform List<scalar> 0();
    }
    floatingObject
    {
        lowReCorrection 0;
        blending        stepwise;
        n               2;
        type            epsilonWallFunction;
        value           nonuniform List<scalar> 0();
    }
    procBoundary7to6
    {
        type            processor;
        value           nonuniform List<scalar> 
11
(
0.0033805089298
0.00321439911433
0.00308337842063
0.00300762384685
0.00297144046882
0.00295389338257
0.00295389338257
0.00357886518546
0.00498989149354
0.00487763059732
0.00492701991495
)
;
    }
    procBoundary7to8
    {
        type            processor;
        value           nonuniform List<scalar> 
17
(
0.00210878823545
0.00219750668631
0.00240426227389
0.0024825436635
0.0025152505035
0.00253340109562
0.0025481053724
0.00256314578255
0.00258283250427
0.00258283250427
0.00260037773187
0.00262146441721
0.0026524245833
0.0026524245833
0.00272305664489
0.00291998927316
0.00291998927316
)
;
    }
    procBoundary7to9
    {
        type            processor;
        value           nonuniform List<scalar> 
16
(
0.00213939211153
0.00222867133383
0.00243468756329
0.0025068561826
0.00253213467117
0.00254308064929
0.0025506311951
0.00255807803802
0.00256638187078
0.00257606622732
0.00258831517718
0.00260690137689
0.00264308728893
0.00272779393415
0.00294185943804
0.00349381104075
)
;
    }
}


// ************************************************************************* //
