/*--------------------------------*- C++ -*----------------------------------*\
| =========                 |                                                 |
| \\      /  F ield         | OpenFOAM: The Open Source CFD Toolbox           |
|  \\    /   O peration     | Version:  v2012                                 |
|   \\  /    A nd           | Website:  www.openfoam.com                      |
|    \\/     M anipulation  |                                                 |
\*---------------------------------------------------------------------------*/
FoamFile
{
    version     2.0;
    format      ascii;
    class       volScalarField;
    location    "3";
    object      nut;
}
// * * * * * * * * * * * * * * * * * * * * * * * * * * * * * * * * * * * * * //

dimensions      [0 2 -1 0 0 0 0];


internalField   nonuniform List<scalar> 
164
(
0.000479536749478
0.000713462859216
0.000735322549137
0.000743226020301
0.00074641672064
0.000748124532875
0.000749475710687
0.000750846724839
0.000480105280574
0.000714362413669
0.000736176645033
0.000743974076704
0.000747049968885
0.000748651663582
0.000749902634074
0.000751171854059
0.000752578622473
0.000754184158074
0.000756143254284
0.000480571708724
0.000715105151333
0.000736881799595
0.000744584867455
0.000747558628229
0.000749066613707
0.00075022875757
0.000751407026504
0.000752715615646
0.000754214095106
0.000756046876348
0.000758841398705
0.000765162524582
0.000480946200652
0.000715700725164
0.000737444270938
0.00074506447753
0.000747948681346
0.000749374979492
0.000750458920788
0.000751555966361
0.000752775489665
0.000754171460259
0.000755865446428
0.000758371071234
0.000763834131397
0.000779699709031
0.000481234491766
0.000716161174419
0.000737874100508
0.000745421102835
0.000748227385348
0.000749582997058
0.000750598830228
0.000751624007322
0.000752763518216
0.000754065959439
0.000755632468775
0.00075787085689
0.000762410322792
0.00077486610648
0.000481440660978
0.000716493625999
0.000738179416084
0.000745663778338
0.000748402881373
0.000749697211047
0.000750653991012
0.0007516163825
0.00075268547913
0.000753906796312
0.000755369617705
0.000757403162596
0.000761252772066
0.000771126596697
0.000481571981051
0.000716712146787
0.000738367571088
0.000745799001529
0.000748481630061
0.000749724085751
0.000750630430415
0.000751539000901
0.000752547647182
0.000753699316723
0.000755077262652
0.000756977636837
0.000760447216605
0.000768915528718
0.000481640562075
0.00071681763324
0.000738448089203
0.000745834350965
0.000748470411375
0.000749669893021
0.000750533642602
0.000751396130714
0.000752352859234
0.000753446359475
0.00075475931235
0.000756581121618
0.000759891195321
0.000767786821201
0.000481664290071
0.000716816790713
0.000738421380724
0.000745774133937
0.000748374609589
0.000749539827491
0.000750368556001
0.000751192639515
0.000752106491557
0.000753152681387
0.000754417854899
0.000756198677033
0.000759469813692
0.000767204464181
0.000481626887523
0.00071671611316
0.000738300100252
0.000745627661504
0.000748200987043
0.000749339281374
0.000750139836134
0.00075093279407
0.00075181214223
0.000752821902523
0.000754054650042
0.000755821738395
0.000759118105725
0.000766864649187
0.000786849451471
0.000836070070373
0.000481540052883
0.000716530564415
0.000738093469909
0.000745401462021
0.000747954712488
0.000749072625533
0.000749851279145
0.000750619943506
0.000751472916935
0.000752456439888
0.000753671202718
0.000755448316867
0.000758814840218
0.000766676420697
0.000786482630588
0.000834089763161
0.000481404939648
0.000716275642614
0.000737811299383
0.00074510211709
0.000747640746138
0.000748743821945
0.00074950616417
0.000750256589441
0.000751090376372
0.000752057087765
0.000753267655838
0.000755078722735
0.00075856057672
0.000766644357964
0.000786646092203
0.000834503771164
)
;

boundaryField
{
    back
    {
        type            nutkWallFunction;
        blending        stepwise;
        Cmu             0.09;
        kappa           0.41;
        E               9.8;
        value           nonuniform List<scalar> 
164
(
6.64210778041e-05
7.33903955587e-05
7.54181013504e-05
7.61463775771e-05
7.64390524078e-05
7.65957712635e-05
7.672026866e-05
7.68469384506e-05
6.64919967193e-05
7.34723836899e-05
7.54964358887e-05
7.6215248419e-05
7.64975322849e-05
7.66445801215e-05
7.67599070594e-05
7.68772596386e-05
7.70074632403e-05
7.71559883894e-05
7.73368528475e-05
6.65502438238e-05
7.35399398821e-05
7.55611427219e-05
7.62715913205e-05
7.65446576734e-05
7.66831949782e-05
7.67904237312e-05
7.68994758203e-05
7.70207464585e-05
7.71596412165e-05
7.73293253833e-05
7.75877123756e-05
7.81731605733e-05
6.65971903573e-05
7.35939508938e-05
7.56127654445e-05
7.63159382806e-05
7.65809565017e-05
7.67120843972e-05
7.68121904778e-05
7.69138461703e-05
7.70270243737e-05
7.71566363172e-05
7.7313835552e-05
7.75458817202e-05
7.80497460793e-05
7.95110177632e-05
6.66335293951e-05
7.36355349186e-05
7.56522048095e-05
7.63490096231e-05
7.66070617479e-05
7.67317851082e-05
7.68256781062e-05
7.69207654549e-05
7.70266261486e-05
7.71477167408e-05
7.72933175591e-05
7.75003439804e-05
7.79176503357e-05
7.90614721718e-05
6.6659702176e-05
7.36653189243e-05
7.5680209993e-05
7.63716264522e-05
7.66236917365e-05
7.67428615638e-05
7.68313481534e-05
7.69206623502e-05
7.70200403859e-05
7.71336472011e-05
7.72695556317e-05
7.74576874046e-05
7.7811036428e-05
7.87141462727e-05
6.6676613827e-05
7.36846564177e-05
7.56974244114e-05
7.63843611132e-05
7.663141213e-05
7.67458726621e-05
7.68297182026e-05
7.69140299156e-05
7.70077811231e-05
7.71149151621e-05
7.72429324007e-05
7.74185692992e-05
7.7736485387e-05
7.85076352049e-05
6.66852127456e-05
7.36936322624e-05
7.57048978652e-05
7.63880208523e-05
7.66308976357e-05
7.67414177812e-05
7.68213130729e-05
7.69013273343e-05
7.69902237009e-05
7.70918405147e-05
7.7213643937e-05
7.73816426436e-05
7.76841114199e-05
7.84010157824e-05
6.66871473142e-05
7.3693428123e-05
7.57027913229e-05
7.63829983385e-05
7.66226243328e-05
7.67299576882e-05
7.68065712532e-05
7.68829732214e-05
7.69678018994e-05
7.70648993675e-05
7.71820143816e-05
7.73457255644e-05
7.76436960002e-05
7.83444282765e-05
6.66816733685e-05
7.36838526259e-05
7.56918841097e-05
7.63699992148e-05
7.66071616296e-05
7.67119822226e-05
7.67859364688e-05
7.68593793839e-05
7.69409001182e-05
7.70344564492e-05
7.71482716164e-05
7.73101457407e-05
7.76094036219e-05
7.83098809714e-05
8.0121679308e-05
8.46185618998e-05
6.66701294006e-05
7.36663146606e-05
7.56730436727e-05
7.63496102141e-05
7.65849761916e-05
7.66878897843e-05
7.6759757806e-05
7.68308665912e-05
7.69098230839e-05
7.70007647229e-05
7.71125950865e-05
7.72747924445e-05
7.75794255523e-05
7.82884694333e-05
8.00787179446e-05
8.44000645792e-05
6.66527524421e-05
7.36424387384e-05
7.5647229533e-05
7.6322456766e-05
7.65565325261e-05
7.66580483992e-05
7.67283395113e-05
7.67976667376e-05
7.68747164404e-05
7.69639040194e-05
7.70750146415e-05
7.72397343209e-05
7.75538285875e-05
7.82810936474e-05
8.00834394492e-05
8.43920527989e-05
)
;
    }
    sides
    {
        type            nutkWallFunction;
        blending        stepwise;
        Cmu             0.09;
        kappa           0.41;
        E               9.8;
        value           nonuniform List<scalar> 0();
    }
    bottom
    {
        type            nutkWallFunction;
        blending        stepwise;
        Cmu             0.09;
        kappa           0.41;
        E               9.8;
        value           nonuniform List<scalar> 
12
(
3.53186925085e-05
3.53565536807e-05
3.53876496105e-05
3.54127124624e-05
3.54321123224e-05
3.54460848094e-05
3.54551131708e-05
3.54597037365e-05
3.54607365129e-05
3.54578142269e-05
3.54516514315e-05
3.54423746569e-05
)
;
    }
    front
    {
        type            nutkWallFunction;
        blending        stepwise;
        Cmu             0.09;
        kappa           0.41;
        E               9.8;
        value           nonuniform List<scalar> 
164
(
6.64210778041e-05
7.33903955587e-05
7.54181013504e-05
7.61463775771e-05
7.64390524078e-05
7.65957712635e-05
7.672026866e-05
7.68469384506e-05
6.64919967193e-05
7.34723836899e-05
7.54964358887e-05
7.6215248419e-05
7.64975322849e-05
7.66445801215e-05
7.67599070594e-05
7.68772596386e-05
7.70074632403e-05
7.71559883894e-05
7.73368528475e-05
6.65502438238e-05
7.35399398821e-05
7.55611427219e-05
7.62715913205e-05
7.65446576734e-05
7.66831949782e-05
7.67904237312e-05
7.68994758203e-05
7.70207464585e-05
7.71596412165e-05
7.73293253833e-05
7.75877123756e-05
7.81731605733e-05
6.65971903573e-05
7.35939508938e-05
7.56127654445e-05
7.63159382806e-05
7.65809565017e-05
7.67120843972e-05
7.68121904778e-05
7.69138461703e-05
7.70270243737e-05
7.71566363172e-05
7.7313835552e-05
7.75458817202e-05
7.80497460793e-05
7.95110177632e-05
6.66335293951e-05
7.36355349186e-05
7.56522048095e-05
7.63490096231e-05
7.66070617479e-05
7.67317851082e-05
7.68256781062e-05
7.69207654549e-05
7.70266261486e-05
7.71477167408e-05
7.72933175591e-05
7.75003439804e-05
7.79176503357e-05
7.90614721718e-05
6.6659702176e-05
7.36653189243e-05
7.5680209993e-05
7.63716264522e-05
7.66236917365e-05
7.67428615638e-05
7.68313481534e-05
7.69206623502e-05
7.70200403859e-05
7.71336472011e-05
7.72695556317e-05
7.74576874046e-05
7.7811036428e-05
7.87141462727e-05
6.6676613827e-05
7.36846564177e-05
7.56974244114e-05
7.63843611132e-05
7.663141213e-05
7.67458726621e-05
7.68297182026e-05
7.69140299156e-05
7.70077811231e-05
7.71149151621e-05
7.72429324007e-05
7.74185692992e-05
7.7736485387e-05
7.85076352049e-05
6.66852127456e-05
7.36936322624e-05
7.57048978652e-05
7.63880208523e-05
7.66308976357e-05
7.67414177812e-05
7.68213130729e-05
7.69013273343e-05
7.69902237009e-05
7.70918405147e-05
7.7213643937e-05
7.73816426436e-05
7.76841114199e-05
7.84010157824e-05
6.66871473142e-05
7.3693428123e-05
7.57027913229e-05
7.63829983385e-05
7.66226243328e-05
7.67299576882e-05
7.68065712532e-05
7.68829732214e-05
7.69678018994e-05
7.70648993675e-05
7.71820143816e-05
7.73457255644e-05
7.76436960002e-05
7.83444282765e-05
6.66816733685e-05
7.36838526259e-05
7.56918841097e-05
7.63699992148e-05
7.66071616296e-05
7.67119822226e-05
7.67859364688e-05
7.68593793839e-05
7.69409001182e-05
7.70344564492e-05
7.71482716164e-05
7.73101457407e-05
7.76094036219e-05
7.83098809714e-05
8.0121679308e-05
8.46185618998e-05
6.66701294006e-05
7.36663146606e-05
7.56730436727e-05
7.63496102141e-05
7.65849761916e-05
7.66878897843e-05
7.6759757806e-05
7.68308665912e-05
7.69098230839e-05
7.70007647229e-05
7.71125950865e-05
7.72747924445e-05
7.75794255523e-05
7.82884694333e-05
8.00787179446e-05
8.44000645792e-05
6.66527524421e-05
7.36424387384e-05
7.5647229533e-05
7.6322456766e-05
7.65565325261e-05
7.66580483992e-05
7.67283395113e-05
7.67976667376e-05
7.68747164404e-05
7.69639040194e-05
7.70750146415e-05
7.72397343209e-05
7.75538285875e-05
7.82810936474e-05
8.00834394492e-05
8.43920527989e-05
)
;
    }
    atmosphere
    {
        type            calculated;
        value           nonuniform List<scalar> 0();
    }
    floatingObject
    {
        type            nutkWallFunction;
        blending        stepwise;
        Cmu             0.09;
        kappa           0.41;
        E               9.8;
        value           nonuniform List<scalar> 0();
    }
    procBoundary7to6
    {
        type            processor;
        value           nonuniform List<scalar> 
11
(
0.000823200453917
0.000809795070763
0.000798908817043
0.000792471238857
0.000789311642649
0.000787754861936
0.000787754861936
0.000840654048272
0.000939928946144
0.000935013484517
0.000941254728574
)
;
    }
    procBoundary7to8
    {
        type            processor;
        value           nonuniform List<scalar> 
17
(
0.000478862396463
0.000712406228145
0.000734312312363
0.000742330847694
0.000745648390651
0.000747475044004
0.000748940120766
0.000750427335458
0.000752361690989
0.000752361690989
0.000754079266243
0.00075614213801
0.00075913105055
0.00075913105055
0.000765889349466
0.000783914917014
0.000783914917014
)
;
    }
    procBoundary7to9
    {
        type            processor;
        value           nonuniform List<scalar> 
16
(
0.000481219681763
0.000715950451259
0.000737456543929
0.000744734084444
0.000747263274341
0.000748356481271
0.000749107500566
0.000749845180392
0.000750665992058
0.000751623765269
0.000752841080338
0.000754704121067
0.000758340810807
0.000766740280477
0.000787144905697
0.000835493846157
)
;
    }
}


// ************************************************************************* //
