/*--------------------------------*- C++ -*----------------------------------*\
| =========                 |                                                 |
| \\      /  F ield         | OpenFOAM: The Open Source CFD Toolbox           |
|  \\    /   O peration     | Version:  v2012                                 |
|   \\  /    A nd           | Website:  www.openfoam.com                      |
|    \\/     M anipulation  |                                                 |
\*---------------------------------------------------------------------------*/
FoamFile
{
    version     2.0;
    format      ascii;
    class       volVectorField;
    location    "3";
    object      U_0;
}
// * * * * * * * * * * * * * * * * * * * * * * * * * * * * * * * * * * * * * //

dimensions      [0 1 -1 0 0 0 0];


internalField   nonuniform List<vector> 
164
(
(-0.036818522045 0.000746932819772 -3.45004391565e-22)
(-0.0388205834241 0.0023505216618 -4.07673496879e-22)
(-0.0407226554732 0.00390988109731 -1.97348555852e-22)
(-0.0422234889683 0.0054416623937 6.28557112155e-23)
(-0.0436444662036 0.00695121918997 1.96736945272e-22)
(-0.0452748129721 0.00837206070165 1.58355875081e-22)
(-0.0472335917744 0.00966866944863 1.22929665473e-22)
(-0.0495789879623 0.0107908097128 1.21648482121e-22)
(-0.0382299306353 0.000612643400036 -1.41397713626e-22)
(-0.040238444861 0.00193466749249 -2.1864923529e-22)
(-0.0421325729077 0.00319431346813 -5.22669488876e-25)
(-0.0435926684101 0.00442030306838 9.09220718492e-23)
(-0.0449394126463 0.00559372403266 1.36844454801e-22)
(-0.0464549337223 0.00666450739583 1.01742628148e-22)
(-0.0482570998969 0.00760235024844 7.30647155295e-23)
(-0.0503846968128 0.00834181625905 4.70295986464e-23)
(-0.0528620060176 0.00880906176455 1.27165050312e-23)
(-0.0556942112301 0.00893050464361 6.08072243744e-23)
(-0.0588915979204 0.00858053862469 5.91409298172e-23)
(-0.0393851308775 0.000493637362611 9.6816660855e-23)
(-0.0413807746576 0.00154607625452 -2.91279149809e-23)
(-0.0432490902597 0.00252209185359 1.03172211415e-22)
(-0.0446549420842 0.00346395873807 9.70157537671e-23)
(-0.0459199709408 0.00434163247162 9.76420141241e-23)
(-0.0473072808739 0.00510814261407 5.68510360728e-23)
(-0.0489388902221 0.00573323949855 4.81007252216e-23)
(-0.0508406544812 0.00615989276576 2.97076788783e-23)
(-0.0530035923766 0.00632076722577 2.43042924724e-23)
(-0.0554112383494 0.00613664677546 3.50251874866e-24)
(-0.0580474667269 0.00549089840509 -6.41704335032e-23)
(-0.0608672638503 0.00423883126201 -2.48060832865e-22)
(-0.0639020409167 0.00215352749606 -1.27269852543e-21)
(-0.0402887305698 0.000381173916383 6.6268783401e-23)
(-0.0422618972152 0.00118217347292 9.22548452764e-23)
(-0.0440916944914 0.00189794272916 1.29146943326e-23)
(-0.0454384630536 0.00258214323928 4.78042997925e-23)
(-0.0466161857131 0.00319708853761 6.76691868948e-23)
(-0.0478816509387 0.00370239935934 4.85280274648e-23)
(-0.0493425683031 0.00406758027618 7.00138758594e-23)
(-0.0510165764754 0.00425616103349 8.13632692611e-23)
(-0.0528865845563 0.00420457359845 4.02756250478e-23)
(-0.0549266029594 0.0038469922751 3.69843443551e-25)
(-0.0570576302122 0.00310442040671 -1.5332954235e-22)
(-0.0592017707378 0.00186855953938 -4.99136774195e-22)
(-0.0612972237059 -5.68948259744e-05 -1.62433392219e-21)
(-0.0636244594066 -0.00277980765676 -2.51113383548e-21)
(-0.0409606573218 0.000273011037363 -1.10960929333e-22)
(-0.0429015975549 0.000845616043725 -3.95342278327e-23)
(-0.0446894569429 0.00132329138498 -8.09761898193e-23)
(-0.0459735151798 0.0017710343313 1.2068054808e-24)
(-0.0470630268251 0.00215256322876 7.13607075173e-23)
(-0.0482171078975 0.00243832813056 4.97064318822e-23)
(-0.0495281675119 0.00259977991725 6.55633336693e-23)
(-0.051008330513 0.00260080846079 5.23950096428e-23)
(-0.0526381440481 0.0023905222761 2.16882856841e-24)
(-0.0543682151503 0.00194670676381 2.61406459318e-23)
(-0.0561197910646 0.00121455593107 -8.72387254107e-23)
(-0.0577754593417 0.000133863079311 -3.69961198935e-22)
(-0.0592015930488 -0.00141516907998 -1.05412783046e-21)
(-0.0604271375183 -0.00344314803918 -3.14605626754e-21)
(-0.0414188609636 0.000174254492405 -2.39517889964e-22)
(-0.0433175155988 0.000532054836913 -6.74685806776e-23)
(-0.0450642514937 0.000793213980594 -1.12972406007e-22)
(-0.0462875460855 0.00103355375873 -2.30790771572e-23)
(-0.0472963519573 0.00120512089236 2.34217363526e-23)
(-0.0483514201308 0.00129455330249 4.09978766494e-23)
(-0.0495390022192 0.00128075149225 5.64490053926e-23)
(-0.0508695383714 0.00113647844978 3.3494162825e-23)
(-0.0523104525873 0.000831186242915 4.63177521414e-23)
(-0.0537930893528 0.000350854311083 1.18900128044e-22)
(-0.0552811178566 -0.000313928154546 6.02604459231e-23)
(-0.056646676188 -0.00120471830794 -2.37036605514e-23)
(-0.0577576091682 -0.00229743921013 -3.39527540466e-22)
(-0.0585341040841 -0.00351678994552 -1.67442934616e-21)
(-0.0416755957163 8.51376791888e-05 -2.91937804638e-22)
(-0.0435304785041 0.000242434269412 -1.73077021461e-22)
(-0.0452325418502 0.000303387740968 -1.21149637453e-22)
(-0.0463995553298 0.00035512232772 8.48167794424e-24)
(-0.0473435090851 0.000336714825978 2.48489396818e-23)
(-0.0483136807205 0.000252313831135 2.93163850077e-23)
(-0.04939943321 8.73962092972e-05 4.60495618774e-23)
(-0.0506064397854 -0.000178306987675 8.72003961545e-24)
(-0.0519067650391 -0.00054713647549 5.24711235275e-23)
(-0.0532506538311 -0.00104194055615 9.18192397016e-23)
(-0.0545872079813 -0.00165572476315 2.89796603722e-23)
(-0.0558374225779 -0.00235313144209 1.62475435323e-22)
(-0.0568763099319 -0.0030932623543 -1.44366033929e-22)
(-0.0577024205935 -0.00378790343565 -7.28439068142e-22)
(-0.0417375906907 8.3784948002e-06 -2.39244918946e-22)
(-0.0435554285133 -2.63817070354e-05 -1.88708399537e-22)
(-0.0452084724126 -0.000148295634854 -7.8626345457e-23)
(-0.0463312523594 -0.00027190791554 4.2322010067e-23)
(-0.047218885065 -0.000464265638095 1.689309252e-23)
(-0.0481193165063 -0.000705645611235 -5.99221318323e-24)
(-0.0491259487256 -0.00100792661378 3.57014340465e-24)
(-0.0502459160482 -0.00138101486016 5.34270051969e-25)
(-0.0514566908644 -0.00182943231226 3.77476266368e-23)
(-0.0527324615525 -0.00235048351495 2.59347893247e-23)
(-0.0540110633182 -0.00292450099726 -1.06967802131e-23)
(-0.055245638119 -0.0035120690792 8.47784652582e-23)
(-0.0563666724412 -0.00405286027908 -9.74815568569e-23)
(-0.0573589417207 -0.00445725961436 -7.10984551122e-22)
(-0.0416304232734 -8.24401690575e-05 -2.50639709561e-22)
(-0.0434050360029 -0.000282376643996 -9.80913239497e-24)
(-0.0450106033156 -0.000574219205168 -3.73340701136e-23)
(-0.0460934080206 -0.000862724422625 2.80908822847e-23)
(-0.0469336366069 -0.00121206862632 1.81096984766e-23)
(-0.0477828348614 -0.00160223073773 2.13747816481e-23)
(-0.0487328261198 -0.00203807682451 -4.53207342244e-24)
(-0.0497967136284 -0.00252234833251 -2.20670858872e-23)
(-0.0509574615235 -0.00305224349146 2.4662941713e-23)
(-0.0521889716702 -0.00361778555975 -2.61259833284e-24)
(-0.0534586044737 -0.00419632913707 -1.9327253812e-23)
(-0.0547312688766 -0.00474955364562 7.24436276882e-23)
(-0.0559710584983 -0.00521986876818 1.3948802794e-24)
(-0.0571522242892 -0.00553099332467 -3.72105094723e-22)
(-0.0413732200411 -0.000156806757388 -3.39219519492e-22)
(-0.0430921527016 -0.000520834402496 -3.96639605729e-23)
(-0.0446530874073 -0.000975515754662 -1.07748927416e-23)
(-0.0456936349315 -0.00142181712925 -1.41187888398e-23)
(-0.046495643893 -0.00192425889687 -1.68310695833e-23)
(-0.047306388508 -0.00245817657506 5.52448558317e-24)
(-0.0482167155452 -0.00302491843971 -1.03485326684e-23)
(-0.0492443660796 -0.00362268188525 -1.9404407196e-23)
(-0.0503767517406 -0.00424442576594 -2.50122636144e-23)
(-0.0515942031123 -0.00487856315809 -2.33411556248e-23)
(-0.0528786686539 -0.00550200131976 9.25062128626e-25)
(-0.054202944726 -0.00608326946602 9.3080501689e-23)
(-0.0555558448437 -0.00656691319171 1.2660806679e-22)
(-0.0568969517835 -0.00690297471493 -4.15264429841e-23)
(-0.0583567469473 -0.00703683972892 -1.88586271519e-21)
(-0.0604338654059 -0.00763501030184 -6.48189279063e-21)
(-0.040962567739 -0.000218908514745 -3.68906636324e-22)
(-0.0426225423619 -0.000746306346023 -1.41777063942e-22)
(-0.0441342158072 -0.00136325174712 -9.47438124e-23)
(-0.0451381659528 -0.00196012479831 3.19618586576e-23)
(-0.0459099299743 -0.00261051581136 -9.57070271171e-24)
(-0.0466925440072 -0.0032858089367 -1.14514902225e-23)
(-0.0475761854286 -0.00398503144494 -1.28809836637e-23)
(-0.0485806038155 -0.0047029816759 -1.16901903108e-23)
(-0.0497026365277 -0.00542800072794 1.79163684054e-23)
(-0.0509245534692 -0.00615071029273 -2.9946182151e-24)
(-0.0522384152564 -0.00684689468048 1.87837638571e-23)
(-0.053623931645 -0.00749952942145 7.80986049495e-23)
(-0.055057105761 -0.00805764267271 2.4462117243e-22)
(-0.0565146000061 -0.00849426716604 3.90918651436e-22)
(-0.0580273812155 -0.00876166940828 -8.35842924931e-22)
(-0.0602001957457 -0.00942570437533 -5.05131379385e-21)
(-0.0403918160379 -0.000295352702042 -4.37231129109e-22)
(-0.0420015998562 -0.000974039450402 -1.96967519633e-22)
(-0.0434622802722 -0.00174205133847 -1.83511883828e-22)
(-0.0444327975134 -0.00248583155429 1.11355396333e-22)
(-0.0451809352094 -0.00328078301204 2.21441781693e-23)
(-0.0459436387314 -0.00409594706227 6.4203109617e-25)
(-0.046810967441 -0.0049278847282 -1.07086033716e-23)
(-0.0478023425864 -0.00577346915504 -1.0487101437e-23)
(-0.0489229039457 -0.00661606841526 3.03117185612e-23)
(-0.050162687886 -0.00744611189312 1.1584391083e-23)
(-0.051514541397 -0.00824366540199 -2.59598048528e-24)
(-0.0529750463065 -0.00897874577347 7.10625460923e-23)
(-0.0545034893063 -0.00962741158318 3.60060214525e-22)
(-0.0560402115474 -0.0101664448112 1.09529050858e-21)
(-0.0575376874727 -0.0105371597351 2.15723600337e-22)
(-0.0595731351578 -0.0112696999768 -2.86901299204e-21)
)
;

boundaryField
{
    back
    {
        type            noSlip;
    }
    sides
    {
        type            noSlip;
    }
    bottom
    {
        type            noSlip;
    }
    front
    {
        type            noSlip;
    }
    atmosphere
    {
        type            pressureInletOutletVelocity;
        value           nonuniform List<vector> 0();
    }
    floatingObject
    {
        type            movingWallVelocity;
        value           nonuniform List<vector> 0();
    }
    procBoundary7to6
    {
        type            processor;
        value           nonuniform List<vector> 
11
(
(-0.0677965463937 -0.0074956840888 -5.00915371805e-21)
(-0.0631815093494 -0.00677463477446 -9.45653368262e-21)
(-0.0603714137493 -0.00531285675728 -4.98773639512e-21)
(-0.0591502631183 -0.00471033880836 -3.67449155659e-21)
(-0.0586413922066 -0.00483122343679 -1.98802605526e-21)
(-0.0584948876975 -0.00569632754172 -2.19415209182e-21)
(-0.0584948876975 -0.00569632754172 -2.19415209182e-21)
(-0.0606268319937 -0.00596673084634 -6.06057460777e-21)
(-0.0643728713276 -0.00848444060668 -1.81118168905e-20)
(-0.0645522242907 -0.00995616508481 -1.36593390557e-20)
(-0.0640120863743 -0.0130023512187 -9.6287570918e-21)
)
;
    }
    procBoundary7to8
    {
        type            processor;
        value           nonuniform List<vector> 
17
(
(-0.035135975224 0.000875443491561 -1.36499329599e-22)
(-0.0371121522616 0.00278383011628 -7.14149473432e-22)
(-0.0389992236362 0.00466535532186 -2.35317295992e-22)
(-0.0405220489915 0.00653000441783 8.08647566996e-24)
(-0.0419986602369 0.00840253035039 2.54961024983e-22)
(-0.0437139786124 0.0102096114338 2.02912108746e-22)
(-0.0458045329339 0.011919222389 1.5333913238e-22)
(-0.0483439991724 0.0134849700881 1.35050922748e-22)
(-0.0523499488682 0.0116692261147 1.40338242657e-22)
(-0.0523499488682 0.0116692261147 1.40338242657e-22)
(-0.0555824448682 0.0122318620453 2.13729830673e-22)
(-0.0593071231836 0.0123942968168 1.92719784934e-22)
(-0.0624924058234 0.00759928507572 -1.73531305129e-22)
(-0.0624924058234 0.00759928507572 -1.73531305129e-22)
(-0.0665555940615 0.00578108359524 -7.88072327322e-22)
(-0.0674476071935 -0.00078924196297 -1.32017485665e-21)
(-0.0674476071935 -0.00078924196297 -1.32017485665e-21)
)
;
    }
    procBoundary7to9
    {
        type            processor;
        value           nonuniform List<vector> 
16
(
(-0.0396717123819 -0.000374800200703 -5.25264635465e-22)
(-0.0412221909991 -0.00119846979944 -2.25058852892e-22)
(-0.0426414973232 -0.00210831904619 -1.65245747407e-22)
(-0.043582055667 -0.00299661200872 8.29014438177e-23)
(-0.044309104191 -0.00393509033625 2.01208845933e-23)
(-0.0450546763535 -0.00489165712242 -6.61531134983e-24)
(-0.045910305368 -0.00586000526428 -6.96622494597e-24)
(-0.0468958183276 -0.0068397151991 -5.69970999631e-24)
(-0.0480225191457 -0.00781565282297 1.45317953903e-23)
(-0.0492901985671 -0.00877218649188 3.23613943973e-24)
(-0.0506889714111 -0.00969658121871 -3.51065650511e-24)
(-0.0522188500817 -0.0105588763082 1.19662710347e-23)
(-0.0538616215521 -0.0113053116993 7.10996167272e-23)
(-0.0555191641328 -0.0119133527628 3.77924936935e-22)
(-0.0570963974078 -0.0123704668761 -6.43757399861e-23)
(-0.0590164085701 -0.012889509032 -1.27130159834e-21)
)
;
    }
}


// ************************************************************************* //
