/*--------------------------------*- C++ -*----------------------------------*\
| =========                 |                                                 |
| \\      /  F ield         | OpenFOAM: The Open Source CFD Toolbox           |
|  \\    /   O peration     | Version:  v2012                                 |
|   \\  /    A nd           | Website:  www.openfoam.com                      |
|    \\/     M anipulation  |                                                 |
\*---------------------------------------------------------------------------*/
FoamFile
{
    version     2.0;
    format      ascii;
    class       surfaceVectorField;
    location    "3";
    object      Uf;
}
// * * * * * * * * * * * * * * * * * * * * * * * * * * * * * * * * * * * * * //

dimensions      [0 1 -1 0 0 0 0];


internalField   nonuniform List<vector> 
300
(
(-0.0402758065117 0.00165892884986 -3.71146275162e-22)
(-0.0400741848548 0.000731932617705 -2.40014781828e-22)
(-0.0422682636125 0.00332620083924 -2.96816301616e-22)
(-0.0421329218172 0.0022831474902 -3.06075631813e-22)
(-0.0440310760779 0.00500028883462 -6.61710316437e-23)
(-0.0440793965933 0.00378765432169 -9.75917235446e-23)
(-0.0455851695468 0.00664487696888 1.2774199771e-22)
(-0.0456434045247 0.00526548263565 7.52884393406e-23)
(-0.0472335603732 0.00823239559969 1.75393156345e-22)
(-0.0471478918231 0.00670743065919 1.6377027382e-22)
(-0.0491836175493 0.00972059019426 1.39289771222e-22)
(-0.0488614550133 0.00805766866217 1.28550921681e-22)
(-0.0515290177777 0.0110692582229 1.19615035978e-22)
(-0.0509226270589 0.00928384676875 9.68213083246e-23)
(-0.0533848318753 0.0103289843374 8.33281839761e-23)
(-0.041785102821 0.00135920105689 -1.74944138478e-22)
(-0.0414334703105 0.000591729558334 -2.11912274093e-23)
(-0.0437780563095 0.0027177735014 -1.06851053742e-22)
(-0.0434915880201 0.00184254331467 -1.1884727073e-22)
(-0.0455183405693 0.00406190342142 4.38677474396e-23)
(-0.0454236448473 0.00302891633324 4.89819032944e-23)
(-0.0470177031289 0.00535810405633 1.11316715451e-22)
(-0.0469397508297 0.00418288350728 9.15984521452e-23)
(-0.0485752666377 0.00657368967732 1.16928039156e-22)
(-0.0483636376897 0.00527789341779 1.15339919077e-22)
(-0.0503940664746 0.00766921497267 8.60824587837e-23)
(-0.0499571285759 0.00626652333819 7.89905985521e-23)
(-0.0525574288747 0.00860596661671 6.05344563222e-23)
(-0.0518594947496 0.00711796718023 6.0132927232e-23)
(-0.0551024141147 0.00931717452429 2.88945581677e-23)
(-0.0540960880346 0.00777118336288 4.06889484991e-23)
(-0.0580502746045 0.00973421710589 3.2924709836e-23)
(-0.0566902109351 0.0081551845461 1.66202147658e-23)
(-0.0614165541062 0.00972524524778 5.64524435742e-23)
(-0.0596303470003 0.00819229594121 2.96660213048e-23)
(-0.0629449589251 0.00776086440026 -5.57760452505e-24)
(-0.0430024871326 0.00107902209884 3.49056403391e-23)
(-0.0425125090722 0.000462257868347 7.91694945496e-23)
(-0.0449763888757 0.00214243923485 3.69856863063e-23)
(-0.0445550325547 0.00142754577471 3.18110496541e-23)
(-0.04667675584 0.00317351402121 9.6712608e-23)
(-0.0464547761678 0.00231542596513 5.569341879e-23)
(-0.0481082864949 0.00414588532574 9.56216557715e-23)
(-0.0479122158241 0.00316964011266 6.99793982834e-23)
(-0.0495612079012 0.00502741643073 7.74024784733e-23)
(-0.0492452950007 0.00395430573642 8.21876901203e-23)
(-0.0512308600222 0.00578663760569 5.30410670004e-23)
(-0.0507164933187 0.0046259051049 5.28530634327e-23)
(-0.0531956632833 0.00636899137988 4.02874194089e-23)
(-0.0524419914779 0.00515274883818 5.82240264309e-23)
(-0.0554697924399 0.00672544209995 2.84146050972e-23)
(-0.0544526517656 0.00548675667124 5.58482361964e-23)
(-0.0580470348798 0.00676524272878 1.33615262346e-23)
(-0.0567300578604 0.00556109811949 3.21056535908e-23)
(-0.0609179471684 0.00640451834961 -3.23640267944e-23)
(-0.0592696041294 0.00530183541616 -1.11985338622e-24)
(-0.0640609302922 0.00551234720409 -1.64284727529e-22)
(-0.0620526645108 0.00460871115767 -1.11804228337e-22)
(-0.0674763680515 0.00386720346929 -7.77801855114e-22)
(-0.0649902287591 0.00335688306264 -3.82631146134e-22)
(-0.0681094725963 0.00132792629142 -1.44878637744e-21)
(-0.0439375359949 0.000817010718768 7.60749038647e-23)
(-0.0433294930897 0.000338452989804 -2.50261404276e-23)
(-0.0458802729367 0.00160475614873 5.05187821378e-23)
(-0.0453427631174 0.00103925474252 2.38417804861e-23)
(-0.0475303443028 0.00234655488934 2.89602090734e-23)
(-0.0471965920239 0.00165198664278 -3.43891484354e-23)
(-0.0488863642921 0.00302387658113 5.65454326322e-23)
(-0.0485895976949 0.00223117799647 2.2373174808e-23)
(-0.0502316197029 0.0036120118408 5.76382750797e-23)
(-0.0498335340123 0.00273750102571 6.81328664936e-23)
(-0.0517510190513 0.00407697390975 5.80360228632e-23)
(-0.0511815933295 0.0031353598213 4.88552713603e-23)
(-0.0535113222623 0.0043687804629 7.37848432183e-23)
(-0.0527339548156 0.0033933908338 6.59363673391e-23)
(-0.0555184105147 0.00444664741033 5.953928469e-23)
(-0.0545306682217 0.00347221549212 6.5542109226e-23)
(-0.0577565475294 0.00424347533213 1.762427397e-23)
(-0.0565270043047 0.00331286170176 1.9353947436e-23)
(-0.060179928226 0.00369155398077 -8.05600549289e-23)
(-0.0587177562368 0.00286896762063 1.11208784287e-23)
(-0.0627215211794 0.00265541518362 -3.30150646942e-22)
(-0.0610165304707 0.00206663637279 -1.20440626045e-22)
(-0.0653187667509 0.0010286292075 -1.05361566846e-21)
(-0.0633633471277 0.000826763492463 -4.34367426211e-22)
(-0.0680986791907 -0.00145011909266 -2.07694431904e-21)
(-0.0656305107449 -0.00102258400816 -1.32211938334e-21)
(-0.068006808967 -0.00353867076586 -2.85076437595e-21)
(-0.0446105580038 0.000568308988831 -7.72592638062e-23)
(-0.0438977477505 0.000221954784477 -1.76401070839e-22)
(-0.0465145959331 0.00109805161411 -6.10661500871e-23)
(-0.0458724635609 0.00067781581127 -5.64247635966e-23)
(-0.0481092537806 0.00158394647725 -4.09761827008e-23)
(-0.0476824776306 0.00103856521136 -9.5727951967e-23)
(-0.0493853751986 0.00200258323975 3.39606086694e-23)
(-0.0490082707763 0.00136920401024 -1.20548482874e-23)
(-0.0506248601029 0.00232392155965 5.93498627742e-23)
(-0.0501549572705 0.00162513739509 4.60031974116e-23)
(-0.0520057243823 0.00253122593332 5.67556158362e-23)
(-0.0513890254948 0.00178363467971 4.4923424274e-23)
(-0.053583384696 0.00259359987408 5.76936333467e-23)
(-0.0527964843014 0.00181806252416 5.91592005527e-23)
(-0.0553600928263 0.00245719693051 2.5356771972e-23)
(-0.0543944277592 0.0016907064281 4.10451325551e-23)
(-0.0573079803189 0.00209677196929 1.28505518947e-23)
(-0.0561667244241 0.0013583850756 2.1881038767e-23)
(-0.0593648750279 0.00141985172131 -2.87596926876e-23)
(-0.0580409454666 0.000805046596306 7.16244168015e-23)
(-0.0614460031188 0.000381634106199 -2.24657405313e-22)
(-0.0599783649249 -1.99921966828e-05 -1.21677906473e-23)
(-0.0634466328865 -0.00111771759051 -7.02871141091e-22)
(-0.0618639514172 -0.00116838455835 -1.93656448394e-22)
(-0.0653326478184 -0.00309137334527 -2.09593944026e-21)
(-0.0636566912971 -0.00269600725246 -6.89919791636e-22)
(-0.0652404520235 -0.00457850409695 -2.41525514377e-21)
(-0.045040641001 0.000338701370707 -1.55566570629e-22)
(-0.0442363779438 0.000116023339065 -2.645070805e-22)
(-0.0469005353881 0.000626511959509 -9.10865654765e-23)
(-0.0461602148917 0.000342541785227 -1.22620739968e-22)
(-0.0484395544446 0.000870057365505 -6.68066175536e-23)
(-0.0479259963389 0.000472286219392 -1.1617670358e-22)
(-0.0496383872429 0.00104732723315 -1.22595451696e-26)
(-0.0491855593822 0.000579956311759 -7.63053034006e-24)
(-0.0507794673637 0.00114443188524 3.15767589114e-23)
(-0.0502521300224 0.000609245329866 2.3055242846e-23)
(-0.0520382835346 0.00113819049031 4.73270089906e-23)
(-0.0513828970646 0.000553618591958 3.42591927119e-23)
(-0.0534623624436 0.00100532568494 4.25106997611e-23)
(-0.0526637635842 0.000396994944042 4.94581437447e-23)
(-0.0550489043361 0.000702937018647 3.75693993501e-23)
(-0.0540921941056 0.000100410759736 2.02137542418e-23)
(-0.0567539563709 0.000208076870262 8.06549036738e-23)
(-0.0556720085521 -0.000353721878112 4.82577510404e-23)
(-0.058528231749 -0.000522913847353 8.82163188418e-23)
(-0.0573100665169 -0.000978216632343 1.01613752921e-22)
(-0.060300686887 -0.00147229519748 1.88331662721e-23)
(-0.0590290414997 -0.00180062438366 4.42786693422e-23)
(-0.061958664177 -0.00265980591688 -1.80705098939e-22)
(-0.0606764071639 -0.00283028974959 6.54336219823e-23)
(-0.0634173433001 -0.00416344530316 -1.00923549515e-21)
(-0.062152901955 -0.00404252784068 -2.41266394689e-22)
(-0.0635001545443 -0.00537262340251 -1.20425118366e-21)
(-0.0452450429942 0.000119056625712 -2.31561249839e-22)
(-0.0443553541388 2.20424782088e-05 -2.63914322945e-22)
(-0.0470585109798 0.000200915172657 -1.47710878072e-22)
(-0.0462420048951 3.24472035974e-05 -1.78687170297e-22)
(-0.0485407922048 0.000224876408904 -5.70006163665e-23)
(-0.0479499208343 -4.885542494e-05 -1.00204098002e-22)
(-0.0496700111866 0.000185654111937 1.54369720511e-23)
(-0.0491463443695 -0.000145349982309 2.40793769863e-23)
(-0.0507246504456 7.68635922705e-05 2.57376766465e-23)
(-0.0501433944761 -0.000321988505758 1.9867442049e-23)
(-0.0518741855824 -0.000130028999948 3.63903274661e-23)
(-0.0511761025652 -0.00056764204694 1.15703402801e-23)
(-0.0531688984458 -0.000451001005059 2.71611982254e-23)
(-0.052342919896 -0.000895595517429 2.37652305097e-23)
(-0.0546005870754 -0.000880774422992 3.09021059321e-23)
(-0.0536625599808 -0.00133640794302 5.15999674404e-24)
(-0.0561339030681 -0.0014739850717 6.92166002872e-23)
(-0.0550789277303 -0.00189535523348 4.37363242748e-23)
(-0.0577286903489 -0.00217619361388 5.7676103421e-23)
(-0.0566079573538 -0.00258355021281 5.57185497116e-23)
(-0.0593232402459 -0.0030479270473 9.08791250523e-23)
(-0.0581573568255 -0.00340713651562 9.41414785677e-24)
(-0.0608209313625 -0.00405579636473 4.87232623208e-24)
(-0.0596685015556 -0.00433722750743 1.17298285246e-22)
(-0.062177923743 -0.00514419870933 -4.36282083195e-22)
(-0.0610643535591 -0.00534208694898 -1.18904374779e-22)
(-0.062332127528 -0.00635620501163 -7.18513717636e-22)
(-0.0452386817426 -7.30387677362e-05 -2.11040243403e-22)
(-0.0442822313499 -7.14832468791e-05 -2.44340693404e-22)
(-0.0470040116265 -0.000206193649974 -1.31180390227e-22)
(-0.0461087782033 -0.000256634792159 -9.78193297304e-23)
(-0.0484335579946 -0.000393137742788 -1.91241046495e-23)
(-0.0477629361482 -0.000532494651012 -5.80357185239e-23)
(-0.0495033079928 -0.000619799437616 2.85098469842e-23)
(-0.0489196844619 -0.000817989587143 3.35635461661e-23)
(-0.0504812970578 -0.000915134642464 5.70010568257e-24)
(-0.0498481062985 -0.00117950133901 1.67453945241e-23)
(-0.0515383835241 -0.00128490734186 -1.05475667632e-24)
(-0.0508064169316 -0.0015981990752 7.4731748544e-24)
(-0.0527308266469 -0.00174162589757 1.76402902829e-24)
(-0.0518863156935 -0.00208744925823 -7.36752506781e-25)
(-0.0540487720052 -0.00230113427769 1.79942150868e-23)
(-0.0531031749156 -0.00266109033338 -1.02665092464e-23)
(-0.0554693276008 -0.00294874542378 3.02382736992e-23)
(-0.0544314293372 -0.00332528988943 2.88908865314e-23)
(-0.0569552435452 -0.00370971169544 7.4565941473e-24)
(-0.0558470743424 -0.00408043966393 1.08763905795e-23)
(-0.0584516188279 -0.00456345160991 3.58333080501e-23)
(-0.057303652862 -0.00491772141992 -1.38738869952e-23)
(-0.0599043692479 -0.0054712890695 -6.47841576515e-24)
(-0.0587606206061 -0.00581122133563 7.67876358984e-23)
(-0.0612757541014 -0.00637809749263 -4.01136009219e-22)
(-0.0601573898187 -0.00672061597502 -4.65450950045e-23)
(-0.061462343982 -0.00759034889095 -5.42292146064e-22)
(-0.0450415019785 -0.000263211924294 -1.31119779731e-22)
(-0.044018936247 -0.000161854672 -2.94387384927e-22)
(-0.0467568655152 -0.000573521232058 -2.46746580269e-23)
(-0.045798398241 -0.000525740074304 -2.74785909117e-23)
(-0.048136278241 -0.000934931431223 -5.34806770824e-24)
(-0.0474014860533 -0.000984624814637 -2.47405987284e-23)
(-0.0491526885115 -0.00135216744719 2.1799093706e-23)
(-0.0485024495301 -0.00144716989286 6.62389234068e-24)
(-0.0500674521456 -0.00182187938684 1.85184636959e-23)
(-0.0493784383626 -0.00197884244594 7.81262385903e-26)
(-0.0510534471113 -0.00235190017316 7.79117902393e-24)
(-0.0502764770498 -0.00256065012354 1.25201846265e-23)
(-0.0521647405239 -0.00294982204345 -1.27672907815e-23)
(-0.0512884985456 -0.00320032981544 -7.51034690024e-24)
(-0.0533991948256 -0.00362392900707 6.30162198129e-25)
(-0.0524291786636 -0.00390416251189 -2.00651397847e-23)
(-0.0547356876621 -0.00437208649351 9.52900341168e-24)
(-0.0536833697718 -0.0046733413212 -1.12482482298e-24)
(-0.056146009966 -0.00519066449805 -1.0454090563e-23)
(-0.0550285642824 -0.00550452368615 -1.29108785263e-23)
(-0.0575950069934 -0.00605782664184 2.70804408532e-23)
(-0.0564365133712 -0.00638480711671 -7.90677872253e-24)
(-0.0590449720377 -0.00694427055812 3.67209566591e-23)
(-0.0578741185451 -0.00729145186511 8.32015948447e-23)
(-0.0604603001218 -0.00779970502791 -1.87701231849e-22)
(-0.0593018063143 -0.00818350757759 6.4751716624e-23)
(-0.0606574082207 -0.00901916223624 -2.06198824488e-22)
(-0.0446732833825 -0.000428424931854 -1.90746196108e-22)
(-0.0435904152663 -0.000236692880266 -3.5304410621e-22)
(-0.0463347781613 -0.000916285313018 -2.75445316133e-23)
(-0.0453104595072 -0.000775845994489 -9.3463178705e-23)
(-0.0476628916762 -0.00145722074927 -1.27686386795e-23)
(-0.0468605069588 -0.00140986704504 -5.39268559142e-23)
(-0.048627976686 -0.00204411920595 -1.50970751268e-23)
(-0.0479155527377 -0.00203907881228 9.64026606822e-24)
(-0.0494902935125 -0.00267706775967 -5.92015283085e-24)
(-0.0487455387512 -0.00273332378903 -1.28131283352e-23)
(-0.0504186425058 -0.00335975756856 -2.7813412977e-24)
(-0.0495938759944 -0.00347005086499 -3.24631711525e-24)
(-0.0514675704389 -0.0040960897543 -1.48081959035e-23)
(-0.0505522793447 -0.00425378595876 -1.16112608971e-23)
(-0.0526392144751 -0.0048871520548 -2.18201268058e-23)
(-0.0516382328194 -0.00508624162312 -1.53124715156e-23)
(-0.0539166407861 -0.00573272116281 -2.35647067609e-23)
(-0.052837899053 -0.00596391537872 -3.21548788571e-24)
(-0.0552794722446 -0.00662374449231 -1.03635666859e-23)
(-0.054137602765 -0.00688313091361 -1.25308140893e-23)
(-0.0567018594572 -0.00754107907167 4.8214375269e-23)
(-0.0555191889701 -0.00782855864174 1.04888484903e-23)
(-0.0581584593308 -0.00846752415066 1.1123235481e-22)
(-0.0569476152885 -0.00878516624806 8.71640127954e-23)
(-0.0596130980545 -0.00935447426117 4.62541239851e-23)
(-0.058414706479 -0.00971108984898 1.87582120301e-22)
(-0.0610911302471 -0.010168959458 -9.64437286534e-22)
(-0.0598426339145 -0.0105784763913 1.81437617093e-22)
(-0.0628746546961 -0.0109210692019 -4.23740242803e-21)
(-0.0613424037625 -0.0113460387797 -1.36464804791e-21)
(-0.06341947654 -0.0125728708551 -5.82206898906e-21)
(-0.0441377920144 -0.000595369988368 -2.55761088807e-22)
(-0.0429949325826 -0.000311360625827 -4.01797643866e-22)
(-0.0457410910387 -0.00124454142072 -1.19845503006e-22)
(-0.0446611999431 -0.00101646411553 -1.71624328091e-22)
(-0.0470187353185 -0.00195023949942 -3.15179511664e-23)
(-0.0461547654423 -0.0018162934675 -1.3951913739e-22)
(-0.0479395053504 -0.00269974023528 1.19242128598e-23)
(-0.0471660650582 -0.00260340289079 7.16231185071e-23)
(-0.0487582674503 -0.00348859901117 -1.01392926196e-23)
(-0.0479567500523 -0.0034524588418 6.6646235962e-24)
(-0.0496405828928 -0.00431691288369 -1.20762367147e-23)
(-0.0487656773368 -0.0043378875172 -5.6886750962e-24)
(-0.0506408328437 -0.00518672883804 -1.21155365092e-23)
(-0.0496826019612 -0.00526148804194 -1.21805051084e-23)
(-0.0517660887913 -0.00610365060858 3.29216740457e-24)
(-0.0507214458286 -0.00622376557648 -1.06821394111e-23)
(-0.0530041183887 -0.00705211102014 7.81840478592e-24)
(-0.0518895433874 -0.00721594844895 2.39219010679e-23)
(-0.0543392209241 -0.00802699017982 8.32160108684e-24)
(-0.0531627777904 -0.00823431513673 4.62360263148e-24)
(-0.0557528552468 -0.00900942285527 4.94384860167e-23)
(-0.0545367436733 -0.00926362195519 8.44423309559e-24)
(-0.0572158086746 -0.00996823989561 1.63513778286e-22)
(-0.0559887019101 -0.0102870723705 7.62338788261e-23)
(-0.0586926633178 -0.0109224626958 3.22765613408e-22)
(-0.057460277295 -0.011273897418 3.03515853915e-22)
(-0.0601699959821 -0.0118140104508 -2.18773144282e-22)
(-0.0589507180293 -0.0122012983539 7.4190030449e-22)
(-0.0619392575689 -0.01273724003 -2.94931460895e-21)
(-0.0604186297566 -0.0130136600636 -3.19307419682e-22)
(-0.0625608477593 -0.0142050623085 -3.95699175433e-21)
(-0.0434373074433 -0.00075520557483 -3.1766088315e-22)
(-0.0449857511153 -0.00156425728377 -1.91297962475e-22)
(-0.0462141455356 -0.00242597431167 -3.63780677165e-23)
(-0.0470959358745 -0.00332924569138 6.63635292435e-23)
(-0.0478789875327 -0.00426714425316 1.11152411196e-23)
(-0.0487252776849 -0.00523916584616 -5.79294348994e-24)
(-0.0496884114117 -0.00624517314695 -1.07471080103e-23)
(-0.0507788138042 -0.007278040293 9.94759425217e-24)
(-0.0519914955491 -0.00834203627087 2.07270989134e-23)
(-0.0533143877707 -0.0094140531611 4.74623464023e-24)
(-0.0547371901127 -0.0104889940294 3.5239625905e-23)
(-0.056231649353 -0.0115296204663 2.16235954455e-22)
(-0.0577391289678 -0.0125266514292 7.22650544997e-22)
(-0.0591988449725 -0.0134364554191 6.4136602909e-22)
(-0.0608764395365 -0.0143726537002 -1.32698456506e-21)
)
;

boundaryField
{
    back
    {
        type            calculated;
        value           uniform (0 0 0);
    }
    sides
    {
        type            calculated;
        value           nonuniform List<vector> 0();
    }
    bottom
    {
        type            calculated;
        value           uniform (0 0 0);
    }
    front
    {
        type            calculated;
        value           uniform (0 0 0);
    }
    atmosphere
    {
        type            calculated;
        value           nonuniform List<vector> 0();
    }
    floatingObject
    {
        type            calculated;
        value           nonuniform List<vector> 0();
    }
    procBoundary7to6
    {
        type            processor;
        value           nonuniform List<vector> 
11
(
(-0.0720360589347 -0.00514092768386 -3.87680151052e-21)
(-0.0680113168084 -0.00585749271641 -6.23895258662e-21)
(-0.0653608599783 -0.00590352149306 -3.32847982697e-21)
(-0.0638338230634 -0.00631201014103 -2.16202279249e-21)
(-0.0627760683901 -0.00724763408336 -1.35049535531e-21)
(-0.0619274733887 -0.00860438604605 -1.2945838474e-21)
(-0.0620951007305 -0.00980202066466 -2.05282230945e-21)
(-0.0641109259755 -0.0109528093448 -6.37758622245e-21)
(-0.0657905922709 -0.0116119371864 -1.18893438465e-20)
(-0.0650300113665 -0.0135953494798 -8.99526071682e-21)
(-0.0639612822718 -0.0155520518154 -5.73852337907e-21)
)
;
    }
    procBoundary7to8
    {
        type            processor;
        value           nonuniform List<vector> 
17
(
(-0.0384148782636 0.000876565092219 -2.4190192788e-22)
(-0.0404652622417 0.00274484773427 -5.52148735418e-22)
(-0.0424049004651 0.00458591785203 -2.15672879687e-22)
(-0.0439983999899 0.00641119260599 3.3681959614e-23)
(-0.0455599938259 0.00823286565491 2.22448519126e-22)
(-0.0473729930192 0.0099849611596 1.78737128614e-22)
(-0.0495738814143 0.0116353126939 1.36450849322e-22)
(-0.0522312120507 0.0131374251487 1.26559708426e-22)
(-0.0543241376051 0.012223056181 1.27058042473e-22)
(-0.0562733750848 0.0111222621524 7.26244166646e-23)
(-0.0596397930204 0.0115906871263 1.32422868165e-22)
(-0.0634932199984 0.0116284976676 1.22479785486e-22)
(-0.0652336465305 0.00917763105227 -6.18528338985e-23)
(-0.0666358385901 0.00670771366605 -2.20559956902e-22)
(-0.070718770165 0.00481096026429 -1.0442186495e-21)
(-0.0713404471772 0.00125857754323 -1.32411813681e-21)
(-0.0716981422788 -0.00154252401703 -1.9522760784e-21)
)
;
    }
    procBoundary7to9
    {
        type            processor;
        value           nonuniform List<vector> 
16
(
(-0.0422396138997 -0.000393026975885 -4.79737534274e-22)
(-0.043852062379 -0.00125214916272 -2.12824978113e-22)
(-0.0452930110586 -0.00220481175969 -1.73192950335e-22)
(-0.0462628169666 -0.00314349933717 9.57765428343e-23)
(-0.0470189341899 -0.00414166985377 2.13399151348e-23)
(-0.0477937834596 -0.00517183051149 -2.80689543951e-24)
(-0.048676742567 -0.00623272868301 -9.01358583054e-24)
(-0.0496887173825 -0.00732660758479 -7.63850893572e-24)
(-0.0508256503242 -0.00844235659294 2.20715203846e-23)
(-0.0520908069805 -0.00957224386255 7.75914052179e-24)
(-0.0534617743139 -0.0107053039216 -2.75509546453e-24)
(-0.0549479510686 -0.0118172385998 4.26885751718e-23)
(-0.0564629966867 -0.0128739067182 2.13310020681e-22)
(-0.0580404877689 -0.0138530916192 7.19716445017e-22)
(-0.0594818899457 -0.0147168923434 5.21319207183e-23)
(-0.0613809190701 -0.0157831108855 -2.04809016374e-21)
)
;
    }
}


// ************************************************************************* //
