/*--------------------------------*- C++ -*----------------------------------*\
| =========                 |                                                 |
| \\      /  F ield         | OpenFOAM: The Open Source CFD Toolbox           |
|  \\    /   O peration     | Version:  v2012                                 |
|   \\  /    A nd           | Website:  www.openfoam.com                      |
|    \\/     M anipulation  |                                                 |
\*---------------------------------------------------------------------------*/
FoamFile
{
    version     2.0;
    format      ascii;
    class       volScalarField;
    location    "5.5";
    object      k_0;
}
// * * * * * * * * * * * * * * * * * * * * * * * * * * * * * * * * * * * * * //

dimensions      [0 2 -2 0 0 0 0];


internalField   nonuniform List<scalar> 
164
(
0.00169317751257
0.00170414827425
0.0017166307943
0.00173258630181
0.00175838454737
0.0018131147291
0.00195146787696
0.00232413708935
0.00326527190077
0.00524129597379
0.00896291347687
0.0179412250209
0.0527384941441
0.00119298271127
0.00148814568942
0.00158944205978
0.00163194602128
0.0016657440714
0.00167664186278
0.00168753571945
0.00169933608399
0.00171262764368
0.00172906150229
0.00175465450786
0.00180822944935
0.0019454978153
0.00232271283809
0.00327687257063
0.00526533542188
0.00915570282692
0.019365602726
0.0476334914465
0.00118546806544
0.00148003984212
0.00158113496826
0.0016237534907
0.0016447584826
0.00165815630182
0.00166941942134
0.00168081861383
0.00169344176079
0.00170777109214
0.00172516654708
0.00175183596199
0.00180728364095
0.00194722992155
0.00233082371015
0.00329829321848
0.00531476439181
0.00949253928153
0.021998639842
0.0593001198547
0.0011778261438
0.00147198711038
0.00157285461767
0.00161540474606
0.00163632443079
0.00164940215453
0.00166005247952
0.00167091958447
0.00168386009522
0.0016993726078
0.00171812682339
0.00174711588034
0.00180925102236
0.00195818418235
0.00235159325291
0.00333225703382
0.0053568131216
0.00950859960533
0.021803753684
0.0618696218735
0.00117032208066
0.00146429654278
0.00156483030239
0.00160696912859
0.00162697503338
0.00163801814946
0.00164502379456
0.0016513938164
0.00166210829585
0.00167834754459
0.00169835931177
0.00173111378125
0.00181064897328
0.00198256228079
0.00239875189179
0.0033985900474
0.00539379755509
0.00911453676835
0.0186095981331
0.0516525742853
0.00116314480713
0.00145720552229
0.00155725910488
0.00159836439041
0.00161584900843
0.00162087296538
0.00161551289931
0.00160034964135
0.00159923739755
0.00161352384709
0.00163483543355
0.00167629697988
0.00179918889096
0.00202482330429
0.00249015090682
0.00351910084252
0.00546416395409
0.00884267358856
0.0174869313874
0.0613775421516
0.00115657053195
0.00145105240139
0.00155045314374
0.0015898678628
0.00160287182572
0.00159623175782
0.00156086356439
0.00147237564964
0.00137154206491
0.00136337345375
0.00138580317946
0.00146474068013
0.0017440399497
0.00210517271438
0.00265829717476
0.0037151114555
0.00559871466007
0.00896235625694
0.0176413113041
0.0453855132454
0.00115076920248
0.00144570824359
0.00154463026124
0.00158238242693
0.00159132399101
0.0015746437007
0.00151082931731
0.00127816888919
0.00114693817393
0.00144271427732
0.00154146153086
0.00157823097263
0.00158469075926
0.00156244060278
0.00148524690192
0.00121752977952
0.00114683040445
0.00144264445354
0.00154141376039
0.00157819726418
0.00158466110416
0.0015624008851
0.00148525513694
0.00121773765511
0.0011506216301
0.00144555721848
0.00154452320549
0.00158229598805
0.00159123938447
0.00157455500951
0.00151080891814
0.00127824508096
)
;

boundaryField
{
    back
    {
        type            kqRWallFunction;
        value           nonuniform List<scalar> 
164
(
0.00169317751257
0.00170414827425
0.0017166307943
0.00173258630181
0.00175838454737
0.0018131147291
0.00195146787696
0.00232413708935
0.00326527190077
0.00524129597379
0.00896291347687
0.0179412250209
0.0527384941441
0.00119298271127
0.00148814568942
0.00158944205978
0.00163194602128
0.0016657440714
0.00167664186278
0.00168753571945
0.00169933608399
0.00171262764368
0.00172906150229
0.00175465450786
0.00180822944935
0.0019454978153
0.00232271283809
0.00327687257063
0.00526533542188
0.00915570282692
0.019365602726
0.0476334914465
0.00118546806544
0.00148003984212
0.00158113496826
0.0016237534907
0.0016447584826
0.00165815630182
0.00166941942134
0.00168081861383
0.00169344176079
0.00170777109214
0.00172516654708
0.00175183596199
0.00180728364095
0.00194722992155
0.00233082371015
0.00329829321848
0.00531476439181
0.00949253928153
0.021998639842
0.0593001198547
0.0011778261438
0.00147198711038
0.00157285461767
0.00161540474606
0.00163632443079
0.00164940215453
0.00166005247952
0.00167091958447
0.00168386009522
0.0016993726078
0.00171812682339
0.00174711588034
0.00180925102236
0.00195818418235
0.00235159325291
0.00333225703382
0.0053568131216
0.00950859960533
0.021803753684
0.0618696218735
0.00117032208066
0.00146429654278
0.00156483030239
0.00160696912859
0.00162697503338
0.00163801814946
0.00164502379456
0.0016513938164
0.00166210829585
0.00167834754459
0.00169835931177
0.00173111378125
0.00181064897328
0.00198256228079
0.00239875189179
0.0033985900474
0.00539379755509
0.00911453676835
0.0186095981331
0.0516525742853
0.00116314480713
0.00145720552229
0.00155725910488
0.00159836439041
0.00161584900843
0.00162087296538
0.00161551289931
0.00160034964135
0.00159923739755
0.00161352384709
0.00163483543355
0.00167629697988
0.00179918889096
0.00202482330429
0.00249015090682
0.00351910084252
0.00546416395409
0.00884267358856
0.0174869313874
0.0613775421516
0.00115657053195
0.00145105240139
0.00155045314374
0.0015898678628
0.00160287182572
0.00159623175782
0.00156086356439
0.00147237564964
0.00137154206491
0.00136337345375
0.00138580317946
0.00146474068013
0.0017440399497
0.00210517271438
0.00265829717476
0.0037151114555
0.00559871466007
0.00896235625694
0.0176413113041
0.0453855132454
0.00115076920248
0.00144570824359
0.00154463026124
0.00158238242693
0.00159132399101
0.0015746437007
0.00151082931731
0.00127816888919
0.00114693817393
0.00144271427732
0.00154146153086
0.00157823097263
0.00158469075926
0.00156244060278
0.00148524690192
0.00121752977952
0.00114683040445
0.00144264445354
0.00154141376039
0.00157819726418
0.00158466110416
0.0015624008851
0.00148525513694
0.00121773765511
0.0011506216301
0.00144555721848
0.00154452320549
0.00158229598805
0.00159123938447
0.00157455500951
0.00151080891814
0.00127824508096
)
;
    }
    sides
    {
        type            kqRWallFunction;
        value           nonuniform List<scalar> 0();
    }
    bottom
    {
        type            kqRWallFunction;
        value           nonuniform List<scalar> 10(0.00119298271127 0.00118546806544 0.0011778261438 0.00117032208066 0.00116314480713 0.00115657053195 0.00115076920248 0.00114693817393 0.00114683040445 0.0011506216301);
    }
    front
    {
        type            kqRWallFunction;
        value           nonuniform List<scalar> 
164
(
0.00169317751257
0.00170414827425
0.0017166307943
0.00173258630181
0.00175838454737
0.0018131147291
0.00195146787696
0.00232413708935
0.00326527190077
0.00524129597379
0.00896291347687
0.0179412250209
0.0527384941441
0.00119298271127
0.00148814568942
0.00158944205978
0.00163194602128
0.0016657440714
0.00167664186278
0.00168753571945
0.00169933608399
0.00171262764368
0.00172906150229
0.00175465450786
0.00180822944935
0.0019454978153
0.00232271283809
0.00327687257063
0.00526533542188
0.00915570282692
0.019365602726
0.0476334914465
0.00118546806544
0.00148003984212
0.00158113496826
0.0016237534907
0.0016447584826
0.00165815630182
0.00166941942134
0.00168081861383
0.00169344176079
0.00170777109214
0.00172516654708
0.00175183596199
0.00180728364095
0.00194722992155
0.00233082371015
0.00329829321848
0.00531476439181
0.00949253928153
0.021998639842
0.0593001198547
0.0011778261438
0.00147198711038
0.00157285461767
0.00161540474606
0.00163632443079
0.00164940215453
0.00166005247952
0.00167091958447
0.00168386009522
0.0016993726078
0.00171812682339
0.00174711588034
0.00180925102236
0.00195818418235
0.00235159325291
0.00333225703382
0.0053568131216
0.00950859960533
0.021803753684
0.0618696218735
0.00117032208066
0.00146429654278
0.00156483030239
0.00160696912859
0.00162697503338
0.00163801814946
0.00164502379456
0.0016513938164
0.00166210829585
0.00167834754459
0.00169835931177
0.00173111378125
0.00181064897328
0.00198256228079
0.00239875189179
0.0033985900474
0.00539379755509
0.00911453676835
0.0186095981331
0.0516525742853
0.00116314480713
0.00145720552229
0.00155725910488
0.00159836439041
0.00161584900843
0.00162087296538
0.00161551289931
0.00160034964135
0.00159923739755
0.00161352384709
0.00163483543355
0.00167629697988
0.00179918889096
0.00202482330429
0.00249015090682
0.00351910084252
0.00546416395409
0.00884267358856
0.0174869313874
0.0613775421516
0.00115657053195
0.00145105240139
0.00155045314374
0.0015898678628
0.00160287182572
0.00159623175782
0.00156086356439
0.00147237564964
0.00137154206491
0.00136337345375
0.00138580317946
0.00146474068013
0.0017440399497
0.00210517271438
0.00265829717476
0.0037151114555
0.00559871466007
0.00896235625694
0.0176413113041
0.0453855132454
0.00115076920248
0.00144570824359
0.00154463026124
0.00158238242693
0.00159132399101
0.0015746437007
0.00151082931731
0.00127816888919
0.00114693817393
0.00144271427732
0.00154146153086
0.00157823097263
0.00158469075926
0.00156244060278
0.00148524690192
0.00121752977952
0.00114683040445
0.00144264445354
0.00154141376039
0.00157819726418
0.00158466110416
0.0015624008851
0.00148525513694
0.00121773765511
0.0011506216301
0.00144555721848
0.00154452320549
0.00158229598805
0.00159123938447
0.00157455500951
0.00151080891814
0.00127824508096
)
;
    }
    atmosphere
    {
        type            inletOutlet;
        inletValue      uniform 0.1;
        value           nonuniform List<scalar> 7(0.1 0.0476334914465 0.0593001198547 0.1 0.1 0.1 0.0453855132454);
    }
    floatingObject
    {
        type            kqRWallFunction;
        value           nonuniform List<scalar> 8(0.00137154206491 0.00136337345375 0.00138580317946 0.00146474068013 0.00127816888919 0.00121752977952 0.00121773765511 0.00127824508096);
    }
    procBoundary3to4
    {
        type            processor;
        value           nonuniform List<scalar> 
13
(
0.00169838211604
0.00170859493644
0.00172046414824
0.00120019114527
0.00149609009007
0.0015975846506
0.00163990388182
0.00167275660511
0.00168301825609
0.00168301825609
0.00165268967641
0.00165268967641
0.00165268967641
)
;
    }
    procBoundary3to5
    {
        type            processor;
        value           nonuniform List<scalar> 10(0.0017362787293 0.00176305463783 0.00182067250536 0.00196292042935 0.00233456882417 0.0032670420856 0.00525452950358 0.00904468476018 0.0182456471569 0.0534319990984);
    }
    procBoundary3to6
    {
        type            processor;
        value           nonuniform List<scalar> 8(0.00180617874402 0.00235200292718 0.00294718960906 0.00397964755847 0.00575826178612 0.00909708815358 0.0185663618964 0.0463270482021);
    }
    procBoundary3to8
    {
        type            processor;
        value           nonuniform List<scalar> 8(0.00115643216299 0.00145089956332 0.00155033270768 0.00158977409946 0.00160277022298 0.00159605654006 0.00156038259622 0.00147164483981);
    }
}


// ************************************************************************* //
