/*--------------------------------*- C++ -*----------------------------------*\
| =========                 |                                                 |
| \\      /  F ield         | OpenFOAM: The Open Source CFD Toolbox           |
|  \\    /   O peration     | Version:  v2012                                 |
|   \\  /    A nd           | Website:  www.openfoam.com                      |
|    \\/     M anipulation  |                                                 |
\*---------------------------------------------------------------------------*/
FoamFile
{
    version     2.0;
    format      ascii;
    class       volScalarField;
    location    "0.5";
    object      p;
}
// * * * * * * * * * * * * * * * * * * * * * * * * * * * * * * * * * * * * * //

dimensions      [1 -1 -2 0 0 0 0];


internalField   nonuniform List<scalar> 
164
(
5174.83449479
4684.12332451
4193.405212
3702.73893671
3212.20194485
2721.89834973
2231.95562946
1742.47641995
1253.68327676
766.247291788
294.402849379
26.6768555402
5161.64326368
4670.12157085
4178.46744936
3686.73074084
3194.98108914
2703.31749508
2211.86396024
1720.72611628
1230.16816757
740.858504683
272.560583903
18.1750391874
4163.48057889
3670.5808093
3177.49784971
2684.31904051
2191.15729149
1698.1150467
1205.49092643
713.94112657
250.237111952
10.2516833519
4148.58965783
3654.4426016
3159.91159811
2665.06384158
2169.99132225
1674.78440682
1179.7600861
685.544243347
227.692524519
3.21861307752
4133.96126145
3638.49707094
3142.41618214
2645.7552029
2148.57353101
1650.93779211
1153.14784023
655.764773347
205.292029652
-2.49956326569
4119.78294345
3622.95332742
3125.24227917
2626.64335394
2127.17013596
1626.85438674
1125.91430914
624.710319762
183.485902885
-6.33493200459
4106.26115268
3608.04762489
3108.65811649
2608.02859259
2106.11069831
1602.8923353
1098.41762296
592.222300066
162.462084557
-9.04619519055
4093.61711462
3594.04000875
3092.9677321
2590.26250049
2085.79239839
1579.45066055
1070.99257719
559.715723938
143.849511046
-9.76094048435
4082.08015184
3581.2078713
3078.50610842
2573.74821177
2066.69728106
1557.09970076
1044.33169138
527.644420365
125.46851644
-9.85802905866
4071.87769168
3569.83512988
3065.62739364
2558.92636209
2049.37717053
1536.57027805
1019.46423909
497.281479349
108.183897134
-9.85918209815
4063.2229817
3560.19733979
3054.68764965
2546.2494702
2034.39809122
1518.63490063
997.684243806
469.941251323
92.7267871681
-9.83644666699
4056.29484348
3552.5406571
3046.02417694
2536.16369791
2022.27355889
1503.80023455
980.726264613
446.984851062
79.7204675871
-9.81017462715
4051.21996149
3547.05810703
3039.93955247
2529.13336194
2013.55975937
1491.60501898
970.822688358
430.12566292
69.7845447452
-9.79834470023
4048.04313707
3543.84600979
3036.64578724
2525.6869887
2009.91562981
1487.98770745
959.640985902
423.136316844
62.9958627315
-9.82308221957
4046.69729277
3542.83925984
3036.08284234
2525.71479081
2010.69071288
1489.26158187
959.724995792
416.963281982
61.278922782
-9.94983754526
4046.98988232
3543.80359681
3037.96879644
2528.88635901
2015.72015763
1496.94494412
971.963172328
433.054541642
68.0770362152
-10.7072499304
)
;

boundaryField
{
    back
    {
        type            calculated;
        value           nonuniform List<scalar> 
164
(
5174.83449479
4684.12332451
4193.405212
3702.73893671
3212.20194485
2721.89834973
2231.95562946
1742.47641995
1253.68327676
766.247291788
294.402849379
26.6768555402
5161.64326368
4670.12157085
4178.46744936
3686.73074084
3194.98108914
2703.31749508
2211.86396024
1720.72611628
1230.16816757
740.858504683
272.560583903
18.1750391874
4163.48057889
3670.5808093
3177.49784971
2684.31904051
2191.15729149
1698.1150467
1205.49092643
713.94112657
250.237111952
10.2516833519
4148.58965783
3654.4426016
3159.91159811
2665.06384158
2169.99132225
1674.78440682
1179.7600861
685.544243347
227.692524519
3.21861307752
4133.96126145
3638.49707094
3142.41618214
2645.7552029
2148.57353101
1650.93779211
1153.14784023
655.764773347
205.292029652
-2.49956326569
4119.78294345
3622.95332742
3125.24227917
2626.64335394
2127.17013596
1626.85438674
1125.91430914
624.710319762
183.485902885
-6.33493200459
4106.26115268
3608.04762489
3108.65811649
2608.02859259
2106.11069831
1602.8923353
1098.41762296
592.222300066
162.462084557
-9.04619519055
4093.61711462
3594.04000875
3092.9677321
2590.26250049
2085.79239839
1579.45066055
1070.99257719
559.715723938
143.849511046
-9.76094048435
4082.08015184
3581.2078713
3078.50610842
2573.74821177
2066.69728106
1557.09970076
1044.33169138
527.644420365
125.46851644
-9.85802905866
4071.87769168
3569.83512988
3065.62739364
2558.92636209
2049.37717053
1536.57027805
1019.46423909
497.281479349
108.183897134
-9.85918209815
4063.2229817
3560.19733979
3054.68764965
2546.2494702
2034.39809122
1518.63490063
997.684243806
469.941251323
92.7267871681
-9.83644666699
4056.29484348
3552.5406571
3046.02417694
2536.16369791
2022.27355889
1503.80023455
980.726264613
446.984851062
79.7204675871
-9.81017462715
4051.21996149
3547.05810703
3039.93955247
2529.13336194
2013.55975937
1491.60501898
970.822688358
430.12566292
69.7845447452
-9.79834470023
4048.04313707
3543.84600979
3036.64578724
2525.6869887
2009.91562981
1487.98770745
959.640985902
423.136316844
62.9958627315
-9.82308221957
4046.69729277
3542.83925984
3036.08284234
2525.71479081
2010.69071288
1489.26158187
959.724995792
416.963281982
61.278922782
-9.94983754526
4046.98988232
3543.80359681
3037.96879644
2528.88635901
2015.72015763
1496.94494412
971.963172328
433.054541642
68.0770362152
-10.7072499304
)
;
    }
    sides
    {
        type            calculated;
        value           nonuniform List<scalar> 0();
    }
    bottom
    {
        type            calculated;
        value           nonuniform List<scalar> 0();
    }
    front
    {
        type            calculated;
        value           nonuniform List<scalar> 
164
(
5174.83449479
4684.12332451
4193.405212
3702.73893671
3212.20194485
2721.89834973
2231.95562946
1742.47641995
1253.68327676
766.247291788
294.402849379
26.6768555402
5161.64326368
4670.12157085
4178.46744936
3686.73074084
3194.98108914
2703.31749508
2211.86396024
1720.72611628
1230.16816757
740.858504683
272.560583903
18.1750391874
4163.48057889
3670.5808093
3177.49784971
2684.31904051
2191.15729149
1698.1150467
1205.49092643
713.94112657
250.237111952
10.2516833519
4148.58965783
3654.4426016
3159.91159811
2665.06384158
2169.99132225
1674.78440682
1179.7600861
685.544243347
227.692524519
3.21861307752
4133.96126145
3638.49707094
3142.41618214
2645.7552029
2148.57353101
1650.93779211
1153.14784023
655.764773347
205.292029652
-2.49956326569
4119.78294345
3622.95332742
3125.24227917
2626.64335394
2127.17013596
1626.85438674
1125.91430914
624.710319762
183.485902885
-6.33493200459
4106.26115268
3608.04762489
3108.65811649
2608.02859259
2106.11069831
1602.8923353
1098.41762296
592.222300066
162.462084557
-9.04619519055
4093.61711462
3594.04000875
3092.9677321
2590.26250049
2085.79239839
1579.45066055
1070.99257719
559.715723938
143.849511046
-9.76094048435
4082.08015184
3581.2078713
3078.50610842
2573.74821177
2066.69728106
1557.09970076
1044.33169138
527.644420365
125.46851644
-9.85802905866
4071.87769168
3569.83512988
3065.62739364
2558.92636209
2049.37717053
1536.57027805
1019.46423909
497.281479349
108.183897134
-9.85918209815
4063.2229817
3560.19733979
3054.68764965
2546.2494702
2034.39809122
1518.63490063
997.684243806
469.941251323
92.7267871681
-9.83644666699
4056.29484348
3552.5406571
3046.02417694
2536.16369791
2022.27355889
1503.80023455
980.726264613
446.984851062
79.7204675871
-9.81017462715
4051.21996149
3547.05810703
3039.93955247
2529.13336194
2013.55975937
1491.60501898
970.822688358
430.12566292
69.7845447452
-9.79834470023
4048.04313707
3543.84600979
3036.64578724
2525.6869887
2009.91562981
1487.98770745
959.640985902
423.136316844
62.9958627315
-9.82308221957
4046.69729277
3542.83925984
3036.08284234
2525.71479081
2010.69071288
1489.26158187
959.724995792
416.963281982
61.278922782
-9.94983754526
4046.98988232
3543.80359681
3037.96879644
2528.88635901
2015.72015763
1496.94494412
971.963172328
433.054541642
68.0770362152
-10.7072499304
)
;
    }
    atmosphere
    {
        type            calculated;
        value           nonuniform List<scalar> 
16
(
-9.8231183258
-9.82449726984
-9.82597598108
-9.82739343893
-9.82822157087
-9.82580271142
-9.81725650927
-9.8203046735
-9.82083288215
-9.81989411651
-9.8178407346
-9.81514204197
-9.81247301828
-9.81064153876
-9.81024154275
-9.81040666419
)
;
    }
    floatingObject
    {
        type            calculated;
        value           nonuniform List<scalar> 0();
    }
    procBoundary5to0
    {
        type            processor;
        value           nonuniform List<scalar> 
12
(
5187.9866102
4698.02734927
4208.1697121
3718.47761634
3229.03207209
2739.93762428
2251.31996917
1763.2761155
1275.98534298
790.122483964
315.619986658
35.5232481975
)
;
    }
    procBoundary5to3
    {
        type            processor;
        value           nonuniform List<scalar> 10(4048.59848432 3546.3289714 3041.78175955 2534.52869762 2024.09980874 1509.50604832 991.455080435 464.3589779 86.5001600456 -13.8748500206);
    }
    procBoundary5to4
    {
        type            processor;
        value           nonuniform List<scalar> 
18
(
5665.49472189
5652.99765727
5148.52545256
4656.14084797
4656.14084797
4642.31670369
4628.8012258
4615.76171391
4603.3780072
4591.83815961
4581.33224593
4572.04414171
4564.13639918
4557.74417889
4552.95258296
4549.78186182
4548.16945136
4547.96061661
)
;
    }
}


// ************************************************************************* //
