/*--------------------------------*- C++ -*----------------------------------*\
| =========                 |                                                 |
| \\      /  F ield         | OpenFOAM: The Open Source CFD Toolbox           |
|  \\    /   O peration     | Version:  v2012                                 |
|   \\  /    A nd           | Website:  www.openfoam.com                      |
|    \\/     M anipulation  |                                                 |
\*---------------------------------------------------------------------------*/
FoamFile
{
    version     2.0;
    format      ascii;
    class       volScalarField;
    location    "0.5";
    object      rAU;
}
// * * * * * * * * * * * * * * * * * * * * * * * * * * * * * * * * * * * * * //

dimensions      [-1 3 1 0 0 0 0];


internalField   nonuniform List<scalar> 
164
(
8.11080260004e-06
8.11020554356e-06
8.10965058489e-06
8.10910897641e-06
8.10850197834e-06
8.10831067711e-06
8.10882933248e-06
8.10225760924e-06
8.08506055335e-06
8.07926609957e-06
8.49127075345e-06
4.54305413638e-05
8.11061071037e-06
8.10991875612e-06
8.10929026553e-06
8.1086859261e-06
8.10802995946e-06
8.10784051406e-06
8.10808915958e-06
8.101180333e-06
8.08805270071e-06
8.08988524748e-06
8.70336853027e-06
5.69816976552e-05
8.10874937783e-06
8.10809051715e-06
8.10739939498e-06
8.10720719292e-06
8.10714099138e-06
8.10008451098e-06
8.09135995581e-06
8.1029505513e-06
8.98822379017e-06
7.5195911021e-05
8.10797771046e-06
8.10728055486e-06
8.10657278174e-06
8.10636741091e-06
8.10597138782e-06
8.09912459333e-06
8.0949142246e-06
8.1140124657e-06
9.36164660875e-06
0.000106694341541
8.1069322647e-06
8.10621976575e-06
8.10551365291e-06
8.10527095866e-06
8.10457244491e-06
8.09848787071e-06
8.09825064461e-06
8.11908438002e-06
9.84576654049e-06
0.000169990616814
8.10558886711e-06
8.10488643667e-06
8.10419421094e-06
8.10386907618e-06
8.10293002125e-06
8.09844053306e-06
8.10029125471e-06
8.104387832e-06
1.04575443386e-05
0.000343400948735
8.10395432017e-06
8.10328220175e-06
8.10260733025e-06
8.10214538722e-06
8.10098410807e-06
8.09938782539e-06
8.09643007963e-06
8.00285355469e-06
1.11673906242e-05
0.00139313204505
8.10207460651e-06
8.10143716626e-06
8.10076365919e-06
8.10013221701e-06
8.09898857707e-06
8.09931950235e-06
8.09018414918e-06
8.00108854014e-06
1.24494789175e-05
0.00210375154064
8.10003270523e-06
8.09941154996e-06
8.09870794539e-06
8.09790508e-06
8.09689401971e-06
8.09771787331e-06
8.08426740114e-06
8.03045970212e-06
1.41595008327e-05
0.00227295501136
8.0979278872e-06
8.09729227901e-06
8.09651939713e-06
8.0955530797e-06
8.09456602072e-06
8.09492193439e-06
8.07953755062e-06
8.06661018637e-06
1.62393934764e-05
0.00249076289844
8.09580746316e-06
8.09514492739e-06
8.09428312141e-06
8.09313996296e-06
8.0918670657e-06
8.0916844241e-06
8.07525264186e-06
8.11481314598e-06
1.86672723977e-05
0.00274186637461
8.09386587187e-06
8.0931192304e-06
8.0921062239e-06
8.0906481059e-06
8.08852572566e-06
8.0903827524e-06
8.07025090629e-06
8.19034276885e-06
2.14492645046e-05
0.0029870297223
8.09219787759e-06
8.09137943911e-06
8.09030743184e-06
8.08875607593e-06
8.08678217965e-06
8.0846032085e-06
8.06829526966e-06
8.28481695757e-06
2.43403176716e-05
0.00321217722844
8.09080943089e-06
8.09002378316e-06
8.0891061512e-06
8.08779440708e-06
8.08501864271e-06
8.07724724027e-06
8.06409594627e-06
8.35636266873e-06
2.68628677434e-05
0.00338178785774
8.08970824047e-06
8.08899714918e-06
8.08834005981e-06
8.08750772504e-06
8.08443999336e-06
8.07938078589e-06
8.05866617339e-06
8.31725973084e-06
2.79845121838e-05
0.003339889047
8.08890195935e-06
8.08829720623e-06
8.08805421023e-06
8.08848912996e-06
8.08829400478e-06
8.08661403271e-06
8.0548389734e-06
8.11267338968e-06
2.52783396058e-05
0.00320028748901
)
;

boundaryField
{
    back
    {
        type            calculated;
        value           nonuniform List<scalar> 
164
(
8.11080260004e-06
8.11020554356e-06
8.10965058489e-06
8.10910897641e-06
8.10850197834e-06
8.10831067711e-06
8.10882933248e-06
8.10225760924e-06
8.08506055335e-06
8.07926609957e-06
8.49127075345e-06
4.54305413638e-05
8.11061071037e-06
8.10991875612e-06
8.10929026553e-06
8.1086859261e-06
8.10802995946e-06
8.10784051406e-06
8.10808915958e-06
8.101180333e-06
8.08805270071e-06
8.08988524748e-06
8.70336853027e-06
5.69816976552e-05
8.10874937783e-06
8.10809051715e-06
8.10739939498e-06
8.10720719292e-06
8.10714099138e-06
8.10008451098e-06
8.09135995581e-06
8.1029505513e-06
8.98822379017e-06
7.5195911021e-05
8.10797771046e-06
8.10728055486e-06
8.10657278174e-06
8.10636741091e-06
8.10597138782e-06
8.09912459333e-06
8.0949142246e-06
8.1140124657e-06
9.36164660875e-06
0.000106694341541
8.1069322647e-06
8.10621976575e-06
8.10551365291e-06
8.10527095866e-06
8.10457244491e-06
8.09848787071e-06
8.09825064461e-06
8.11908438002e-06
9.84576654049e-06
0.000169990616814
8.10558886711e-06
8.10488643667e-06
8.10419421094e-06
8.10386907618e-06
8.10293002125e-06
8.09844053306e-06
8.10029125471e-06
8.104387832e-06
1.04575443386e-05
0.000343400948735
8.10395432017e-06
8.10328220175e-06
8.10260733025e-06
8.10214538722e-06
8.10098410807e-06
8.09938782539e-06
8.09643007963e-06
8.00285355469e-06
1.11673906242e-05
0.00139313204505
8.10207460651e-06
8.10143716626e-06
8.10076365919e-06
8.10013221701e-06
8.09898857707e-06
8.09931950235e-06
8.09018414918e-06
8.00108854014e-06
1.24494789175e-05
0.00210375154064
8.10003270523e-06
8.09941154996e-06
8.09870794539e-06
8.09790508e-06
8.09689401971e-06
8.09771787331e-06
8.08426740114e-06
8.03045970212e-06
1.41595008327e-05
0.00227295501136
8.0979278872e-06
8.09729227901e-06
8.09651939713e-06
8.0955530797e-06
8.09456602072e-06
8.09492193439e-06
8.07953755062e-06
8.06661018637e-06
1.62393934764e-05
0.00249076289844
8.09580746316e-06
8.09514492739e-06
8.09428312141e-06
8.09313996296e-06
8.0918670657e-06
8.0916844241e-06
8.07525264186e-06
8.11481314598e-06
1.86672723977e-05
0.00274186637461
8.09386587187e-06
8.0931192304e-06
8.0921062239e-06
8.0906481059e-06
8.08852572566e-06
8.0903827524e-06
8.07025090629e-06
8.19034276885e-06
2.14492645046e-05
0.0029870297223
8.09219787759e-06
8.09137943911e-06
8.09030743184e-06
8.08875607593e-06
8.08678217965e-06
8.0846032085e-06
8.06829526966e-06
8.28481695757e-06
2.43403176716e-05
0.00321217722844
8.09080943089e-06
8.09002378316e-06
8.0891061512e-06
8.08779440708e-06
8.08501864271e-06
8.07724724027e-06
8.06409594627e-06
8.35636266873e-06
2.68628677434e-05
0.00338178785774
8.08970824047e-06
8.08899714918e-06
8.08834005981e-06
8.08750772504e-06
8.08443999336e-06
8.07938078589e-06
8.05866617339e-06
8.31725973084e-06
2.79845121838e-05
0.003339889047
8.08890195935e-06
8.08829720623e-06
8.08805421023e-06
8.08848912996e-06
8.08829400478e-06
8.08661403271e-06
8.0548389734e-06
8.11267338968e-06
2.52783396058e-05
0.00320028748901
)
;
    }
    sides
    {
        type            calculated;
        value           nonuniform List<scalar> 0();
    }
    bottom
    {
        type            calculated;
        value           nonuniform List<scalar> 0();
    }
    front
    {
        type            calculated;
        value           nonuniform List<scalar> 
164
(
8.11080260004e-06
8.11020554356e-06
8.10965058489e-06
8.10910897641e-06
8.10850197834e-06
8.10831067711e-06
8.10882933248e-06
8.10225760924e-06
8.08506055335e-06
8.07926609957e-06
8.49127075345e-06
4.54305413638e-05
8.11061071037e-06
8.10991875612e-06
8.10929026553e-06
8.1086859261e-06
8.10802995946e-06
8.10784051406e-06
8.10808915958e-06
8.101180333e-06
8.08805270071e-06
8.08988524748e-06
8.70336853027e-06
5.69816976552e-05
8.10874937783e-06
8.10809051715e-06
8.10739939498e-06
8.10720719292e-06
8.10714099138e-06
8.10008451098e-06
8.09135995581e-06
8.1029505513e-06
8.98822379017e-06
7.5195911021e-05
8.10797771046e-06
8.10728055486e-06
8.10657278174e-06
8.10636741091e-06
8.10597138782e-06
8.09912459333e-06
8.0949142246e-06
8.1140124657e-06
9.36164660875e-06
0.000106694341541
8.1069322647e-06
8.10621976575e-06
8.10551365291e-06
8.10527095866e-06
8.10457244491e-06
8.09848787071e-06
8.09825064461e-06
8.11908438002e-06
9.84576654049e-06
0.000169990616814
8.10558886711e-06
8.10488643667e-06
8.10419421094e-06
8.10386907618e-06
8.10293002125e-06
8.09844053306e-06
8.10029125471e-06
8.104387832e-06
1.04575443386e-05
0.000343400948735
8.10395432017e-06
8.10328220175e-06
8.10260733025e-06
8.10214538722e-06
8.10098410807e-06
8.09938782539e-06
8.09643007963e-06
8.00285355469e-06
1.11673906242e-05
0.00139313204505
8.10207460651e-06
8.10143716626e-06
8.10076365919e-06
8.10013221701e-06
8.09898857707e-06
8.09931950235e-06
8.09018414918e-06
8.00108854014e-06
1.24494789175e-05
0.00210375154064
8.10003270523e-06
8.09941154996e-06
8.09870794539e-06
8.09790508e-06
8.09689401971e-06
8.09771787331e-06
8.08426740114e-06
8.03045970212e-06
1.41595008327e-05
0.00227295501136
8.0979278872e-06
8.09729227901e-06
8.09651939713e-06
8.0955530797e-06
8.09456602072e-06
8.09492193439e-06
8.07953755062e-06
8.06661018637e-06
1.62393934764e-05
0.00249076289844
8.09580746316e-06
8.09514492739e-06
8.09428312141e-06
8.09313996296e-06
8.0918670657e-06
8.0916844241e-06
8.07525264186e-06
8.11481314598e-06
1.86672723977e-05
0.00274186637461
8.09386587187e-06
8.0931192304e-06
8.0921062239e-06
8.0906481059e-06
8.08852572566e-06
8.0903827524e-06
8.07025090629e-06
8.19034276885e-06
2.14492645046e-05
0.0029870297223
8.09219787759e-06
8.09137943911e-06
8.09030743184e-06
8.08875607593e-06
8.08678217965e-06
8.0846032085e-06
8.06829526966e-06
8.28481695757e-06
2.43403176716e-05
0.00321217722844
8.09080943089e-06
8.09002378316e-06
8.0891061512e-06
8.08779440708e-06
8.08501864271e-06
8.07724724027e-06
8.06409594627e-06
8.35636266873e-06
2.68628677434e-05
0.00338178785774
8.08970824047e-06
8.08899714918e-06
8.08834005981e-06
8.08750772504e-06
8.08443999336e-06
8.07938078589e-06
8.05866617339e-06
8.31725973084e-06
2.79845121838e-05
0.003339889047
8.08890195935e-06
8.08829720623e-06
8.08805421023e-06
8.08848912996e-06
8.08829400478e-06
8.08661403271e-06
8.0548389734e-06
8.11267338968e-06
2.52783396058e-05
0.00320028748901
)
;
    }
    atmosphere
    {
        type            calculated;
        value           nonuniform List<scalar> 
16
(
4.54305413638e-05
5.69816976552e-05
7.5195911021e-05
0.000106694341541
0.000169990616814
0.000343400948735
0.00139313204505
0.00210375154064
0.00227295501136
0.00249076289844
0.00274186637461
0.0029870297223
0.00321217722844
0.00338178785774
0.003339889047
0.00320028748901
)
;
    }
    floatingObject
    {
        type            calculated;
        value           nonuniform List<scalar> 0();
    }
    procBoundary5to0
    {
        type            processor;
        value           nonuniform List<scalar> 
12
(
8.11086588989e-06
8.11036037731e-06
8.10987903243e-06
8.10940149818e-06
8.10885224009e-06
8.10865922203e-06
8.10938106626e-06
8.10332822368e-06
8.08227428232e-06
8.0742759375e-06
8.33893073889e-06
3.76097698489e-05
)
;
    }
    procBoundary5to3
    {
        type            processor;
        value           nonuniform List<scalar> 10(8.08835966769e-06 8.08783347445e-06 8.08801478078e-06 8.0901737381e-06 8.0923067002e-06 8.08812446625e-06 8.04478831098e-06 7.95079759389e-06 1.94833730959e-05 0.0027790636816);
    }
    procBoundary5to4
    {
        type            processor;
        value           nonuniform List<scalar> 
18
(
8.11144051037e-06
8.11137256053e-06
8.11022162373e-06
8.10944323026e-06
8.10944323026e-06
8.10871722826e-06
8.10768612896e-06
8.10631865521e-06
8.10462500437e-06
8.10266902465e-06
8.10056521721e-06
8.09840706747e-06
8.09629040727e-06
8.09442760254e-06
8.09286615232e-06
8.09157353719e-06
8.09053667608e-06
8.08969132799e-06
)
;
    }
}


// ************************************************************************* //
