/*--------------------------------*- C++ -*----------------------------------*\
| =========                 |                                                 |
| \\      /  F ield         | OpenFOAM: The Open Source CFD Toolbox           |
|  \\    /   O peration     | Version:  v2012                                 |
|   \\  /    A nd           | Website:  www.openfoam.com                      |
|    \\/     M anipulation  |                                                 |
\*---------------------------------------------------------------------------*/
FoamFile
{
    version     2.0;
    format      ascii;
    class       volScalarField;
    location    "4.1";
    object      rAU;
}
// * * * * * * * * * * * * * * * * * * * * * * * * * * * * * * * * * * * * * //

dimensions      [-1 3 1 0 0 0 0];


internalField   nonuniform List<scalar> 
167
(
2.17748791812e-05
2.17644417923e-05
2.1742706228e-05
2.16936509968e-05
2.16882295703e-05
2.15415501511e-05
3.44152357377e-05
0.000801777207368
0.0149719111153
2.17654557853e-05
2.1745008003e-05
2.16949141368e-05
2.17142338098e-05
2.15236916802e-05
3.64602326282e-05
0.00131026437153
0.0133088284465
2.17695026073e-05
2.17527361311e-05
2.17059838649e-05
2.1678107873e-05
2.14342011744e-05
3.85349615442e-05
0.00191684726016
0.0149510586819
2.17824032765e-05
2.17747569569e-05
2.17604354529e-05
2.17087272316e-05
2.14078643599e-05
2.11241240724e-05
4.06589629288e-05
0.00268306626884
0.0193195837278
2.17841709425e-05
2.1777084789e-05
2.17640052669e-05
2.17038847027e-05
2.1390053522e-05
2.10794700054e-05
4.28058600573e-05
0.00375726450663
0.0172288122338
2.17854772993e-05
2.17771126453e-05
2.17646961143e-05
2.1698164312e-05
2.13806276943e-05
2.10332289399e-05
4.50580727625e-05
0.00494260226949
0.01983173056
2.1791154718e-05
2.17868716877e-05
2.17776602495e-05
2.17649386873e-05
2.1697319036e-05
2.13804665684e-05
2.10557306893e-05
4.6997398656e-05
0.0055823258122
0.0158972419529
2.17948032448e-05
2.17930670553e-05
2.17884442874e-05
2.17794437781e-05
2.17658854412e-05
2.16961642929e-05
2.13795186854e-05
2.11081052331e-05
4.84913286232e-05
0.00575176394215
0.0191732753319
2.17968430495e-05
2.17949160905e-05
2.17903740762e-05
2.17813006298e-05
2.17677746631e-05
2.16931154318e-05
2.13739457028e-05
2.11446571107e-05
4.96111501365e-05
0.00575616752272
0.0152316106133
2.17965816746e-05
2.17924308132e-05
2.1783918261e-05
2.17701690795e-05
2.16868400283e-05
2.13634000088e-05
2.11694580294e-05
5.05475558741e-05
0.00614953770446
0.0192330974972
2.17985530887e-05
2.1794465307e-05
2.17864101366e-05
2.17734749071e-05
2.16808990218e-05
2.13568459706e-05
2.11902802646e-05
5.09857557341e-05
0.00639963922452
0.0158824633464
2.18001815016e-05
2.17963398826e-05
2.17896748855e-05
2.17810130089e-05
2.16749739937e-05
2.13524115929e-05
2.12112409076e-05
5.10022717441e-05
0.0062380676732
0.0201498253705
2.18025873586e-05
2.1799284155e-05
2.17923861767e-05
2.17893739438e-05
2.16717241558e-05
2.13490815967e-05
2.12223261637e-05
5.08956686915e-05
0.00592176740062
0.0190784272065
2.18055141559e-05
2.18031186823e-05
2.17973146535e-05
2.17977177863e-05
2.16711203192e-05
2.13504058041e-05
2.12198190117e-05
5.07110365662e-05
0.00624684243783
0.020288722066
2.18128833147e-05
2.18117753114e-05
2.18099339267e-05
2.18049153849e-05
2.18082500848e-05
2.16729384081e-05
2.13521395378e-05
2.12118722246e-05
5.0491760906e-05
0.00639629815353
0.0163724621786
2.18410046984e-05
2.18402772599e-05
2.18388131207e-05
2.18332918626e-05
2.18363024927e-05
2.17020902566e-05
2.13848280188e-05
2.12495865504e-05
5.0329614722e-05
0.00646672341712
0.0160195797872
2.20079439535e-05
2.20085361251e-05
2.20083376655e-05
2.20076867636e-05
2.20527304043e-05
2.19196820813e-05
2.16044372625e-05
2.14565824534e-05
5.08272587086e-05
0.00792753059988
0.0197245367653
)
;

boundaryField
{
    back
    {
        type            calculated;
        value           nonuniform List<scalar> 
167
(
2.17748791812e-05
2.17644417923e-05
2.1742706228e-05
2.16936509968e-05
2.16882295703e-05
2.15415501511e-05
3.44152357377e-05
0.000801777207368
0.0149719111153
2.17654557853e-05
2.1745008003e-05
2.16949141368e-05
2.17142338098e-05
2.15236916802e-05
3.64602326282e-05
0.00131026437153
0.0133088284465
2.17695026073e-05
2.17527361311e-05
2.17059838649e-05
2.1678107873e-05
2.14342011744e-05
3.85349615442e-05
0.00191684726016
0.0149510586819
2.17824032765e-05
2.17747569569e-05
2.17604354529e-05
2.17087272316e-05
2.14078643599e-05
2.11241240724e-05
4.06589629288e-05
0.00268306626884
0.0193195837278
2.17841709425e-05
2.1777084789e-05
2.17640052669e-05
2.17038847027e-05
2.1390053522e-05
2.10794700054e-05
4.28058600573e-05
0.00375726450663
0.0172288122338
2.17854772993e-05
2.17771126453e-05
2.17646961143e-05
2.1698164312e-05
2.13806276943e-05
2.10332289399e-05
4.50580727625e-05
0.00494260226949
0.01983173056
2.1791154718e-05
2.17868716877e-05
2.17776602495e-05
2.17649386873e-05
2.1697319036e-05
2.13804665684e-05
2.10557306893e-05
4.6997398656e-05
0.0055823258122
0.0158972419529
2.17948032448e-05
2.17930670553e-05
2.17884442874e-05
2.17794437781e-05
2.17658854412e-05
2.16961642929e-05
2.13795186854e-05
2.11081052331e-05
4.84913286232e-05
0.00575176394215
0.0191732753319
2.17968430495e-05
2.17949160905e-05
2.17903740762e-05
2.17813006298e-05
2.17677746631e-05
2.16931154318e-05
2.13739457028e-05
2.11446571107e-05
4.96111501365e-05
0.00575616752272
0.0152316106133
2.17965816746e-05
2.17924308132e-05
2.1783918261e-05
2.17701690795e-05
2.16868400283e-05
2.13634000088e-05
2.11694580294e-05
5.05475558741e-05
0.00614953770446
0.0192330974972
2.17985530887e-05
2.1794465307e-05
2.17864101366e-05
2.17734749071e-05
2.16808990218e-05
2.13568459706e-05
2.11902802646e-05
5.09857557341e-05
0.00639963922452
0.0158824633464
2.18001815016e-05
2.17963398826e-05
2.17896748855e-05
2.17810130089e-05
2.16749739937e-05
2.13524115929e-05
2.12112409076e-05
5.10022717441e-05
0.0062380676732
0.0201498253705
2.18025873586e-05
2.1799284155e-05
2.17923861767e-05
2.17893739438e-05
2.16717241558e-05
2.13490815967e-05
2.12223261637e-05
5.08956686915e-05
0.00592176740062
0.0190784272065
2.18055141559e-05
2.18031186823e-05
2.17973146535e-05
2.17977177863e-05
2.16711203192e-05
2.13504058041e-05
2.12198190117e-05
5.07110365662e-05
0.00624684243783
0.020288722066
2.18128833147e-05
2.18117753114e-05
2.18099339267e-05
2.18049153849e-05
2.18082500848e-05
2.16729384081e-05
2.13521395378e-05
2.12118722246e-05
5.0491760906e-05
0.00639629815353
0.0163724621786
2.18410046984e-05
2.18402772599e-05
2.18388131207e-05
2.18332918626e-05
2.18363024927e-05
2.17020902566e-05
2.13848280188e-05
2.12495865504e-05
5.0329614722e-05
0.00646672341712
0.0160195797872
2.20079439535e-05
2.20085361251e-05
2.20083376655e-05
2.20076867636e-05
2.20527304043e-05
2.19196820813e-05
2.16044372625e-05
2.14565824534e-05
5.08272587086e-05
0.00792753059988
0.0197245367653
)
;
    }
    sides
    {
        type            calculated;
        value           nonuniform List<scalar> 
11
(
2.20079439535e-05
2.20085361251e-05
2.20083376655e-05
2.20076867636e-05
2.20527304043e-05
2.19196820813e-05
2.16044372625e-05
2.14565824534e-05
5.08272587086e-05
0.00792753059988
0.0197245367653
)
;
    }
    bottom
    {
        type            calculated;
        value           nonuniform List<scalar> 0();
    }
    front
    {
        type            calculated;
        value           nonuniform List<scalar> 
167
(
2.17748791812e-05
2.17644417923e-05
2.1742706228e-05
2.16936509968e-05
2.16882295703e-05
2.15415501511e-05
3.44152357377e-05
0.000801777207368
0.0149719111153
2.17654557853e-05
2.1745008003e-05
2.16949141368e-05
2.17142338098e-05
2.15236916802e-05
3.64602326282e-05
0.00131026437153
0.0133088284465
2.17695026073e-05
2.17527361311e-05
2.17059838649e-05
2.1678107873e-05
2.14342011744e-05
3.85349615442e-05
0.00191684726016
0.0149510586819
2.17824032765e-05
2.17747569569e-05
2.17604354529e-05
2.17087272316e-05
2.14078643599e-05
2.11241240724e-05
4.06589629288e-05
0.00268306626884
0.0193195837278
2.17841709425e-05
2.1777084789e-05
2.17640052669e-05
2.17038847027e-05
2.1390053522e-05
2.10794700054e-05
4.28058600573e-05
0.00375726450663
0.0172288122338
2.17854772993e-05
2.17771126453e-05
2.17646961143e-05
2.1698164312e-05
2.13806276943e-05
2.10332289399e-05
4.50580727625e-05
0.00494260226949
0.01983173056
2.1791154718e-05
2.17868716877e-05
2.17776602495e-05
2.17649386873e-05
2.1697319036e-05
2.13804665684e-05
2.10557306893e-05
4.6997398656e-05
0.0055823258122
0.0158972419529
2.17948032448e-05
2.17930670553e-05
2.17884442874e-05
2.17794437781e-05
2.17658854412e-05
2.16961642929e-05
2.13795186854e-05
2.11081052331e-05
4.84913286232e-05
0.00575176394215
0.0191732753319
2.17968430495e-05
2.17949160905e-05
2.17903740762e-05
2.17813006298e-05
2.17677746631e-05
2.16931154318e-05
2.13739457028e-05
2.11446571107e-05
4.96111501365e-05
0.00575616752272
0.0152316106133
2.17965816746e-05
2.17924308132e-05
2.1783918261e-05
2.17701690795e-05
2.16868400283e-05
2.13634000088e-05
2.11694580294e-05
5.05475558741e-05
0.00614953770446
0.0192330974972
2.17985530887e-05
2.1794465307e-05
2.17864101366e-05
2.17734749071e-05
2.16808990218e-05
2.13568459706e-05
2.11902802646e-05
5.09857557341e-05
0.00639963922452
0.0158824633464
2.18001815016e-05
2.17963398826e-05
2.17896748855e-05
2.17810130089e-05
2.16749739937e-05
2.13524115929e-05
2.12112409076e-05
5.10022717441e-05
0.0062380676732
0.0201498253705
2.18025873586e-05
2.1799284155e-05
2.17923861767e-05
2.17893739438e-05
2.16717241558e-05
2.13490815967e-05
2.12223261637e-05
5.08956686915e-05
0.00592176740062
0.0190784272065
2.18055141559e-05
2.18031186823e-05
2.17973146535e-05
2.17977177863e-05
2.16711203192e-05
2.13504058041e-05
2.12198190117e-05
5.07110365662e-05
0.00624684243783
0.020288722066
2.18128833147e-05
2.18117753114e-05
2.18099339267e-05
2.18049153849e-05
2.18082500848e-05
2.16729384081e-05
2.13521395378e-05
2.12118722246e-05
5.0491760906e-05
0.00639629815353
0.0163724621786
2.18410046984e-05
2.18402772599e-05
2.18388131207e-05
2.18332918626e-05
2.18363024927e-05
2.17020902566e-05
2.13848280188e-05
2.12495865504e-05
5.0329614722e-05
0.00646672341712
0.0160195797872
2.20079439535e-05
2.20085361251e-05
2.20083376655e-05
2.20076867636e-05
2.20527304043e-05
2.19196820813e-05
2.16044372625e-05
2.14565824534e-05
5.08272587086e-05
0.00792753059988
0.0197245367653
)
;
    }
    atmosphere
    {
        type            calculated;
        value           nonuniform List<scalar> 
17
(
0.0149719111153
0.0133088284465
0.0149510586819
0.0193195837278
0.0172288122338
0.01983173056
0.0158972419529
0.0191732753319
0.0152316106133
0.0192330974972
0.0158824633464
0.0201498253705
0.0190784272065
0.020288722066
0.0163724621786
0.0160195797872
0.0197245367653
)
;
    }
    floatingObject
    {
        type            calculated;
        value           nonuniform List<scalar> 0();
    }
    procBoundary11to9
    {
        type            processor;
        value           nonuniform List<scalar> 9(2.17750948603e-05 2.17677239526e-05 2.17499566123e-05 2.17030575377e-05 2.16701243054e-05 2.15462720299e-05 3.26382881233e-05 0.000560457353967 0.0144636407021);
    }
    procBoundary11to10
    {
        type            processor;
        value           nonuniform List<scalar> 
23
(
2.17789258665e-05
2.17761503792e-05
2.17761503792e-05
2.17791120156e-05
2.17791120156e-05
2.17846086416e-05
2.17872105103e-05
2.17892834182e-05
2.17892834182e-05
2.17931000201e-05
2.17931000201e-05
2.17964060615e-05
2.17983588577e-05
2.17987915502e-05
2.17987915502e-05
2.18005715138e-05
2.18021913057e-05
2.18039386367e-05
2.18068490597e-05
2.18068490597e-05
2.1813519666e-05
2.18415301871e-05
2.20073882949e-05
)
;
    }
}


// ************************************************************************* //
