/*--------------------------------*- C++ -*----------------------------------*\
| =========                 |                                                 |
| \\      /  F ield         | OpenFOAM: The Open Source CFD Toolbox           |
|  \\    /   O peration     | Version:  v2012                                 |
|   \\  /    A nd           | Website:  www.openfoam.com                      |
|    \\/     M anipulation  |                                                 |
\*---------------------------------------------------------------------------*/
FoamFile
{
    version     2.0;
    format      ascii;
    class       surfaceScalarField;
    location    "4.6";
    object      alphaPhi0.water;
}
// * * * * * * * * * * * * * * * * * * * * * * * * * * * * * * * * * * * * * //

dimensions      [0 3 -1 0 0 0 0];
oriented        oriented;


internalField   nonuniform List<scalar> 
300
(
-2.36648407328e-05
-8.17979048484e-05
-2.6275395306e-05
-8.42270948896e-05
-2.86899698842e-05
-8.70375686092e-05
-3.08247631729e-05
-9.02582527264e-05
-3.25900075568e-05
-9.40121125347e-05
-3.4045508089e-05
-9.81641572531e-05
-3.54305939858e-05
-0.000101205454373
-3.70823729253e-05
-0.000100436170708
-3.20318864893e-05
-0.00010466113572
-3.05227431168e-07
-6.29368020013e-05
-4.80173145064e-08
-1.95000232212e-09
1.04658337333e-10
-2.59906234074e-05
-2.89178638379e-05
-3.16680173904e-05
-8.42876311361e-05
-3.41732972273e-05
-8.77549088263e-05
-3.64382053663e-05
-9.17492546786e-05
-3.85840173418e-05
-9.60200798995e-05
-4.11208086356e-05
-9.86727466879e-05
-4.4551656118e-05
-9.70103819834e-05
-4.14716608907e-05
-0.000103267264058
2.48848781629e-07
-6.26672887928e-05
-7.27164186444e-09
8.62563522869e-11
1.62009462443e-08
-3.47632864035e-05
-8.11026165892e-05
-3.77732835744e-05
-8.47467991335e-05
-4.05957949157e-05
-8.89288241014e-05
-4.3507966199e-05
-9.31096499067e-05
-4.74455872716e-05
-9.47404630459e-05
-5.33613812034e-05
-9.10984062756e-05
-5.3137445911e-05
-9.79340582701e-05
-1.96238290719e-07
-5.93763615501e-05
-4.49395243384e-07
3.90203767406e-09
8.68697853701e-09
-3.81082601532e-05
-7.74998539489e-05
-4.15822418307e-05
-8.12746815874e-05
-4.49878015216e-05
-8.55253871098e-05
-4.88467416833e-05
-8.92525478301e-05
-5.49127458365e-05
-8.86812326942e-05
-6.45836027002e-05
-8.14315470196e-05
-6.7283713323e-05
-8.81029166558e-05
-1.90737035507e-07
-5.3831420745e-05
-3.97318799941e-07
4.35809778996e-09
2.42605120653e-08
-4.15672368793e-05
-7.33846486317e-05
-4.56035212131e-05
-7.72396247332e-05
-4.95834429379e-05
-8.15475572564e-05
-5.41566253516e-05
-8.46811286955e-05
-6.17615830544e-05
-8.1083800337e-05
-7.38920302342e-05
-6.93068964427e-05
-7.94686141488e-05
-7.36366392621e-05
4.84890679009e-08
-4.43615691841e-05
-1.36069669506e-07
2.24715252584e-09
9.61643730419e-09
-4.53077527703e-05
-6.85747835184e-05
-5.01068803121e-05
-7.24441392173e-05
-5.49150804006e-05
-7.67401902648e-05
-6.04793428856e-05
-7.91179502434e-05
-6.91452855184e-05
-7.24272291136e-05
-8.25940559371e-05
-5.58646885796e-05
-9.00345334047e-05
-5.53648800413e-05
-3.15974515379e-07
-3.03337840692e-05
-4.84163366425e-07
2.7936488971e-09
2.68667831866e-08
-4.93957341819e-05
-6.27962940244e-05
-5.54671572043e-05
-6.63743499284e-05
-6.20081213064e-05
-7.0200611513e-05
-6.98277078731e-05
-7.13007385179e-05
-8.05847478837e-05
-6.16755983875e-05
-9.49011080235e-05
-4.15513499596e-05
-0.000101186408127
-3.59235116967e-05
-2.80529534619e-07
-1.6691958531e-05
-4.05941465237e-07
1.65602383734e-09
1.03717037499e-08
-5.35590659172e-05
-5.58118509584e-05
-6.14634952068e-05
-5.84715482629e-05
-7.06937441151e-05
-6.09717266903e-05
-8.20411697831e-05
-5.99563477564e-05
-9.51485498038e-05
-4.85712837785e-05
-0.000108859393901
-2.78422789237e-05
-0.00011067241714
-1.8604225886e-05
-1.97516536323e-08
-5.33245801404e-06
-7.6627208006e-08
5.31438332037e-10
6.40279736851e-10
-5.69377292818e-05
-4.77205438808e-05
-6.66292308926e-05
-4.87815902757e-05
-7.84781235644e-05
-4.91241765745e-05
-9.25408380019e-05
-4.58963234153e-05
-0.000106726248424
-3.43867920484e-05
-0.000118574211505
-1.59956961352e-05
-0.000115481432144
-4.32437239028e-06
-1.95582522579e-07
3.84640971922e-06
-1.20448291715e-07
-6.96877494791e-09
8.09047271431e-09
-5.8670346287e-05
-3.89497431458e-05
-6.9475122082e-05
-3.79788920545e-05
-8.27409508611e-05
-3.58609445858e-05
-9.79421783162e-05
-3.06972699058e-05
-0.000111951227019
-2.0379154502e-05
-0.000122091024153
-5.85713981085e-06
-0.000114979595848
7.11505963819e-06
-6.82323740322e-07
1.08685416845e-05
-5.68735755999e-07
-2.54198976552e-09
4.1006331017e-08
-5.81228060824e-05
-3.02643473342e-05
-6.86776736145e-05
-2.74262793794e-05
-8.14982008336e-05
-2.30423263576e-05
-9.58397722046e-05
-1.63574299224e-05
-0.000108276157382
-7.94429313696e-06
-0.000116953884335
2.8192831603e-06
-0.000107787713369
1.65921728241e-05
-8.42104571791e-08
1.58446991041e-05
-1.07283250899e-07
-1.01425653491e-09
1.43408366949e-08
-5.51067612628e-05
-2.2623146443e-05
-6.4288959836e-05
-1.82459025004e-05
-7.51600891031e-05
-1.21727449993e-05
-8.68680350912e-05
-4.65078328638e-06
-9.72787032038e-05
2.46511965285e-06
-0.000104900457071
1.04400434152e-05
-9.5952399709e-05
2.5340265098e-05
1.09737867708e-08
1.97527837111e-05
-2.01762653241e-08
-2.53620947812e-09
2.99615590316e-10
-5.06001173804e-05
-1.6175443975e-05
-5.78835081218e-05
-1.09637968516e-05
-6.61767845014e-05
-3.88073930637e-06
-7.46806274689e-05
3.85178909549e-06
-8.21755843473e-05
9.9588108928e-06
-8.85728826468e-05
1.68362506274e-05
-8.09272573074e-05
3.34674565428e-05
-1.95988903207e-07
2.36714214716e-05
-1.59230559793e-07
-1.20362427386e-09
9.05602494536e-11
-4.51830595035e-05
-1.11550543958e-05
-5.05689869836e-05
-5.57929085164e-06
-5.629275018e-05
1.84176266179e-06
-6.17401931349e-05
9.29805933534e-06
-6.59979035501e-05
1.42155479635e-05
-7.06531678921e-05
2.14906464221e-05
-6.42262243321e-05
4.01725637035e-05
-5.10495481802e-08
2.72984483702e-05
-5.50291237704e-08
-7.69247400903e-09
1.68567350592e-09
-3.88388134184e-05
-7.85999799581e-06
-4.18525191694e-05
-2.56706121197e-06
-4.45360936765e-05
4.52397819269e-06
-4.71338291954e-05
1.18946235295e-05
-4.95572067817e-05
1.66335727398e-05
-5.32486834097e-05
2.51807792367e-05
-4.90381218218e-05
4.63605875655e-05
-3.72990671756e-07
3.05569702806e-05
-3.84659287876e-07
1.06198504567e-10
2.13423671004e-09
-3.24167917448e-05
-3.24884091904e-05
-3.15402919332e-05
-3.11523127213e-05
-3.28152326538e-05
-3.79974583386e-05
-3.58946523466e-05
-9.51609943151e-09
-2.00139094832e-09
)
;

boundaryField
{
    back
    {
        type            calculated;
        value           uniform 0;
    }
    sides
    {
        type            calculated;
        value           nonuniform List<scalar> 0();
    }
    bottom
    {
        type            calculated;
        value           nonuniform List<scalar> 0();
    }
    front
    {
        type            calculated;
        value           uniform 0;
    }
    atmosphere
    {
        type            calculated;
        value           nonuniform List<scalar> 
16
(
-4.78977763562e-08
-2.33691283271e-08
-4.41875456945e-07
-4.12889806228e-07
-1.21425590254e-07
-5.01413518977e-07
-3.89446364982e-07
-6.68957760565e-08
-1.27898416988e-07
-6.01651523751e-07
-8.0617792492e-08
-6.13504364342e-09
-1.59021503707e-07
-5.66242347752e-08
-3.85107850992e-07
6.11323260685e-17
)
;
    }
    floatingObject
    {
        type            calculated;
        value           nonuniform List<scalar> 0();
    }
    procBoundary5to0
    {
        type            processor;
        value           nonuniform List<scalar> 
12
(
8.45267657615e-05
8.68366482295e-05
8.94499002905e-05
9.23901759749e-05
9.57743095703e-05
9.96171201114e-05
0.000102585597367
0.00010208481122
0.000103303873161
6.13747575665e-05
-3.07179494509e-09
-2.23788772395e-10
)
;
    }
    procBoundary5to3
    {
        type            processor;
        value           nonuniform List<scalar> 10(-6.45260881666e-06 -2.49687273516e-06 3.57449582082e-06 1.15051484475e-05 1.828735087e-05 3.03609396949e-05 5.21361937082e-05 3.21387165693e-05 7.54835327528e-11 1.32845704261e-10);
    }
    procBoundary5to4
    {
        type            processor;
        value           nonuniform List<scalar> 
18
(
2.09371015709e-05
2.2998990307e-05
-7.88060032513e-05
-8.13003197919e-05
3.15750693722e-05
3.45018394948e-05
3.74483915851e-05
4.04942327037e-05
4.36136202723e-05
4.65700858538e-05
4.88427476879e-05
4.98966104333e-05
4.94342840225e-05
4.74628844269e-05
4.41501440817e-05
4.01608085799e-05
3.55415399085e-05
3.10074779311e-05
)
;
    }
}


// ************************************************************************* //
