/*--------------------------------*- C++ -*----------------------------------*\
| =========                 |                                                 |
| \\      /  F ield         | OpenFOAM: The Open Source CFD Toolbox           |
|  \\    /   O peration     | Version:  v2012                                 |
|   \\  /    A nd           | Website:  www.openfoam.com                      |
|    \\/     M anipulation  |                                                 |
\*---------------------------------------------------------------------------*/
FoamFile
{
    version     2.0;
    format      ascii;
    class       volScalarField;
    location    "4.6";
    object      alpha.water;
}
// * * * * * * * * * * * * * * * * * * * * * * * * * * * * * * * * * * * * * //

dimensions      [0 0 0 0 0 0 0];


internalField   nonuniform List<scalar> 
164
(
0.999990853373
0.999992162701
0.999994428846
0.999995809578
0.999998235061
0.999998964027
0.999999392547
0.999999774525
0.99677590472
0.517080801989
-5.5466030082e-33
-1.02737341674e-11
0.999991137273
0.9999894858
0.999991852331
0.999993890564
0.999996053964
0.999996310083
0.999998770006
0.999999461809
0.996104336448
0.504660333225
-2.66497075121e-25
-1.47591021809e-10
0.999982228489
0.999992552053
0.999993871178
0.999992258744
0.999995236309
0.99999884059
0.995494214612
0.493552125406
0
-2.25862232027e-10
0.999982228073
0.999989037371
0.999991263141
0.999989030377
0.999993235953
0.999997276399
0.994804742597
0.482599683644
-8.81946474535e-20
-2.77345304553e-10
0.999982227864
0.999983295101
0.999988857851
0.99998585558
0.999991152201
0.999994536052
0.994178594123
0.471623828617
-1.79484515706e-17
-1.3133918045e-11
0.999982227943
0.999982227864
0.999984144906
0.999977779613
0.999987325344
0.999991756975
0.993508506387
0.46070510364
-8.98432890373e-15
-4.34083077293e-11
0.999982227952
0.999982812224
0.999980705986
0.99997283104
0.999975151131
0.999989235548
0.992509301332
0.449913732653
-8.80003512255e-16
-4.29333470319e-11
0.99998530131
0.99998586961
0.999980707405
0.999986535833
0.999990054034
0.999990038319
0.991283275622
0.439793679949
-1.37173855067e-15
-4.20180480586e-11
0.999988624875
0.999985874141
0.999980844015
0.999988424765
0.99999266232
0.999992114524
0.990008135999
0.430645386139
-1.40567402582e-16
-1.25268494631e-10
0.999986546895
0.999986411543
0.999989672586
0.999991746173
0.999995099271
0.999994537549
0.988673888681
0.422274090898
-7.71796754135e-17
-6.67842305092e-12
0.999991799263
0.999993256296
0.999994371174
0.999994845425
0.999996848713
0.999996566919
0.987372862295
0.414716331913
-1.14112199557e-15
-4.71481941703e-13
0.999995640315
0.999996966333
0.99999708311
0.999996846416
0.99999769528
0.999997656997
0.986322097606
0.408261730065
-1.84925831154e-16
-3.95264952751e-15
0.999996641959
0.999997967152
0.999997967152
0.999997967152
0.999997967152
0.999997959467
0.985461800084
0.403342236255
-9.09024000618e-16
-1.22024740064e-13
0.999996476099
0.999997965442
0.999997822707
0.999996845973
0.999997225867
0.999997665792
0.984897597073
0.40002225836
-5.5787643168e-19
-2.88820795412e-12
0.999996051688
0.999995679981
0.99999282176
0.999990384794
0.99999521817
0.999996712602
0.984415885023
0.398320392243
-2.19129699974e-20
-1.9711193365e-14
0.999997041733
0.999991823016
0.999986119205
0.99998611952
0.999992986838
0.999996437641
0.984060753432
0.397794028443
-6.05441210715e-19
-6.93369764305e-23
)
;

boundaryField
{
    back
    {
        type            zeroGradient;
    }
    sides
    {
        type            zeroGradient;
    }
    bottom
    {
        type            zeroGradient;
    }
    front
    {
        type            zeroGradient;
    }
    atmosphere
    {
        type            inletOutlet;
        inletValue      uniform 0;
        value           uniform 0;
    }
    floatingObject
    {
        type            zeroGradient;
    }
    procBoundary5to0
    {
        type            processor;
        value           nonuniform List<scalar> 
12
(
0.999990983182
0.99999424502
0.99999637708
0.999998978114
0.999999646185
0.999999896861
0.999999842219
0.999999851659
0.997528251981
0.532310644269
-4.21484889369e-29
-3.00005775807e-14
)
;
    }
    procBoundary5to3
    {
        type            processor;
        value           nonuniform List<scalar> 10(0.999997965417 0.999996939497 0.999992970009 0.999990868791 0.999996516891 0.999996583209 0.983716974527 0.398242414543 -2.80472811914e-21 0);
    }
    procBoundary5to4
    {
        type            processor;
        value           nonuniform List<scalar> 
18
(
0.99999417591
0.999997718458
0.999993443601
0.999983923706
0.999983923706
0.999989543253
0.99998822225
0.99998625763
0.9999886837
0.999991340776
0.999992657313
0.999992610125
0.999993995872
0.999996873384
0.999998168142
0.999998356097
0.999998449302
0.999998663582
)
;
    }
}


// ************************************************************************* //
