/*--------------------------------*- C++ -*----------------------------------*\
| =========                 |                                                 |
| \\      /  F ield         | OpenFOAM: The Open Source CFD Toolbox           |
|  \\    /   O peration     | Version:  v2012                                 |
|   \\  /    A nd           | Website:  www.openfoam.com                      |
|    \\/     M anipulation  |                                                 |
\*---------------------------------------------------------------------------*/
FoamFile
{
    version     2.0;
    format      ascii;
    class       volVectorField;
    location    "4.6";
    object      ddt0(rho,U);
}
// * * * * * * * * * * * * * * * * * * * * * * * * * * * * * * * * * * * * * //

dimensions      [1 -2 -2 0 0 0 0];


internalField   nonuniform List<vector> 
164
(
(158.314643489 49.1808075425 2.66043971699e-20)
(161.645065957 57.8750990029 9.13607114699e-21)
(164.885115868 67.7354659118 -3.4435953843e-20)
(167.78568005 79.0301350502 -8.23217671182e-21)
(169.977227671 92.0467606187 -3.22662176113e-19)
(171.038398597 107.153663875 -3.43333917008e-19)
(170.137551887 125.136243311 6.61104364413e-19)
(165.25039845 151.584728742 5.75441400649e-18)
(149.947203353 173.363222039 8.36243452803e-18)
(70.8241539616 94.0461869717 3.32095437988e-18)
(0.13536126656 0.139382476622 -2.24651244114e-20)
(0.0841218114768 0.238390749228 2.71442475716e-20)
(150.06704196 51.9664388879 1.44961575343e-20)
(152.399548371 60.5726331362 2.87679159834e-21)
(154.446178932 70.10057077 -3.77481800948e-20)
(155.937755489 80.7192525096 2.81292054259e-20)
(156.515239282 92.5594458337 -1.26201115864e-19)
(155.737266633 105.724703448 -2.8402667526e-20)
(152.808584657 120.510058203 -6.65318754059e-20)
(145.469450864 141.208142309 1.2199324592e-17)
(127.993501403 154.123424594 -2.65571532236e-17)
(60.7545212359 82.5073456606 1.01284945369e-17)
(0.182439203896 0.247042296666 3.32796170393e-20)
(0.0373273518592 0.214283970486 3.45993977065e-20)
(144.559901597 71.3592060154 1.60897640805e-20)
(145.071271472 81.1524605481 3.5891573149e-22)
(144.627647959 91.6996932043 -2.24862773751e-19)
(142.912505765 102.907608019 1.33625097491e-19)
(139.34487915 114.646315359 -3.08871923467e-19)
(131.670948032 129.799330009 -5.83449417015e-19)
(115.340392452 133.96952213 -2.01334374923e-17)
(57.269853803 70.7786696568 7.49902501044e-18)
(0.143989368005 0.21155786595 2.77175926902e-20)
(0.0123192778018 0.194445112489 2.77384382787e-20)
(135.277498273 71.8277214862 -1.02635366398e-20)
(135.193798794 80.8147172939 -4.68957746655e-20)
(134.252863708 90.1655987833 -4.30064422234e-19)
(132.334810196 99.7070053373 -7.1839153025e-20)
(129.115347034 108.980226386 9.05084274344e-19)
(122.111609362 120.168041913 -2.98526258471e-18)
(108.375139655 118.054624788 -1.02095859224e-17)
(57.959448599 62.4397977151 9.24787663511e-18)
(0.145631192903 0.184194041483 3.46373068751e-20)
(0.00318866272219 0.159003529822 2.93562456844e-20)
(126.602405579 71.8447541099 9.46719915214e-21)
(126.221294303 80.1163518728 -1.21789526479e-19)
(125.18877775 88.4714973569 -3.53690598732e-19)
(123.576797824 96.7237782364 4.2183881114e-19)
(121.240598346 104.195766993 1.48823229232e-18)
(115.193241047 112.537752899 1.38529406824e-17)
(104.008817736 105.605299076 -1.07956438639e-17)
(59.8319215525 55.9099259791 1.66632179632e-18)
(0.143811974357 0.172888564225 1.95117734162e-20)
(0.00172411101984 0.13811029477 2.76378112823e-20)
(118.465651438 71.6062389095 -1.15912299424e-20)
(118.000345899 79.3032095164 -1.22290129033e-19)
(117.145980904 86.9176726281 -1.52791727864e-19)
(116.164097878 94.2214883259 7.927600129e-19)
(115.016361203 100.519427156 2.13259448749e-18)
(110.335811597 106.50767428 3.85148855818e-18)
(101.298601862 95.9513114518 5.69354098075e-18)
(59.1968536457 51.6548465078 1.17481782699e-17)
(0.128732447726 0.167663754833 3.0257723099e-20)
(-0.00344919842971 0.141259880352 8.49473645046e-21)
(110.765709497 71.2607894689 -1.62159733415e-20)
(110.352956607 78.5303535783 1.05625736579e-19)
(109.833571812 85.6541880253 8.09141981552e-19)
(109.611912989 92.3160313899 2.71834749501e-18)
(109.6429396 98.1344220726 3.51530116059e-18)
(106.33002667 103.313877203 -1.46267488445e-18)
(98.4926932622 92.3397265206 1.59924882354e-17)
(54.6771114901 51.3846868263 1.95593196868e-17)
(0.107433241738 0.161089934357 4.212380245e-20)
(-0.00591694378895 0.145906074093 -1.30320850156e-20)
(103.384167953 70.9061030516 9.23472996595e-20)
(103.10486462 77.9045480523 5.62681590234e-19)
(102.962405767 84.7577263848 2.57148236288e-18)
(103.413561457 91.1585237287 7.63444754199e-18)
(104.198606284 97.3001701541 1.43007726011e-17)
(101.966978118 102.565395729 1.44496758341e-17)
(95.1734284781 92.1668601007 1.01800980083e-17)
(49.0263712892 51.3604266468 -1.76378872267e-17)
(0.0972072621355 0.145206189795 -2.65063798409e-22)
(-0.0054915023665 0.149484443529 -2.39076516344e-20)
(96.2069322742 70.630869312 2.04264189765e-19)
(96.0603747045 77.5348356293 1.33312783369e-18)
(96.198388241 84.3612626234 5.06502838681e-18)
(96.9774463955 90.9552194764 1.32294222912e-17)
(98.0243069581 97.7915694029 1.79407471074e-17)
(97.3058649408 103.475700011 4.25555824687e-18)
(92.4595304196 92.1269559773 -2.40134950556e-19)
(44.0968752229 51.3582589732 -2.885922361e-17)
(0.0977338454283 0.101403645919 7.71186576247e-20)
(0.00062837734284 0.139969807452 -3.67197659026e-20)
(89.1180431769 70.4346240874 4.92914888848e-19)
(89.0252642212 77.3605772859 1.86617493827e-18)
(89.2248150515 84.3280017749 6.91611499895e-18)
(89.9494222906 91.4158516341 1.5115561961e-17)
(91.0168765753 99.1711471298 1.86915236327e-17)
(92.3178255451 105.958837345 7.85398896456e-18)
(90.0070503501 94.8697552063 -3.35528156593e-17)
(40.1635311028 51.9286136747 -9.65971048099e-17)
(0.0935512673173 0.0875828766413 7.7238393813e-20)
(0.00651065911303 0.128893641721 -2.02640314273e-20)
(82.0431807221 70.2160937547 3.99652715368e-19)
(81.8786233722 77.2328916195 1.75836479153e-18)
(81.9114282209 84.4583067394 6.41087578123e-18)
(82.2814830948 92.1320703422 1.2642426978e-17)
(83.0809410386 100.856226401 1.12402989713e-17)
(85.5390871916 109.401315982 2.04187083467e-18)
(85.4350113224 99.4496476848 -3.82477754408e-17)
(36.1312604824 53.2742498649 -8.6036720764e-17)
(0.0750026178659 0.138502262958 -5.06965138092e-20)
(0.00506076649912 0.141360812869 -5.16784596832e-20)
(74.947207581 69.9123501269 8.21732497876e-20)
(74.5967668069 76.9914574527 9.58383266651e-19)
(74.2829138977 84.42449013 3.70019748772e-18)
(74.0130764505 92.4873045957 8.99433574578e-18)
(74.1038692294 101.961611725 9.07018726951e-18)
(76.200977318 112.618835783 7.86007757626e-19)
(76.6473979361 103.983937007 -5.17221625506e-18)
(30.6047397234 54.5481763304 -3.58836661421e-17)
(0.0657273131809 0.157045996706 9.45376772607e-21)
(0.0141191382829 0.163386857068 -1.10893254887e-19)
(67.871854122 69.4566035478 1.35250530655e-19)
(67.2968506217 76.5318127853 5.35638859249e-19)
(66.5786453855 84.0016195661 2.05690980044e-18)
(65.5396314852 92.1650947466 5.64873125016e-18)
(64.5911343105 101.851336273 8.69224187189e-18)
(66.4208503891 114.629691958 1.53775503688e-17)
(63.6755992817 107.727682782 -6.25489201035e-18)
(23.3392610884 54.5877715322 -2.76259493376e-17)
(0.0687293428735 0.138882689849 -1.00405294463e-20)
(0.0303877850239 0.181081583312 -5.76357787244e-20)
(60.8836962805 68.8339472998 5.27389156666e-20)
(60.0548004941 75.7911786351 3.90195387448e-19)
(58.9202182538 83.1267728648 7.44189751817e-19)
(57.1833645737 91.1221380092 1.73002643233e-18)
(55.7230476051 101.468375788 2.54271695593e-18)
(54.7623120846 114.023039865 1.0911358296e-17)
(48.4039328325 108.878430978 7.31365582319e-18)
(15.1710267403 53.9871469753 6.52230796821e-18)
(0.0532183511374 0.152472144993 2.45477260181e-20)
(0.0345019525231 0.197744422866 4.28987542575e-20)
(54.0516965137 68.0195381787 4.66313666021e-19)
(52.9883035677 74.7314877139 6.52953147471e-19)
(51.3713275806 81.7287662371 5.45441437612e-19)
(48.8372750506 89.516737318 9.07178817137e-19)
(46.2440632623 97.7833442615 1.2738330335e-18)
(42.4587021433 109.616427935 1.75031726389e-18)
(33.5047276978 108.790982784 -2.38399921092e-17)
(7.52236751731 53.1939643864 4.10674984275e-18)
(0.0360323933256 0.136002500193 -1.98325998233e-20)
(0.019741129211 0.184355986484 2.71806744652e-21)
(47.4849709157 67.0396632567 2.3919903968e-18)
(46.3280639693 73.2941646445 2.76892301759e-18)
(44.4174307699 79.529215348 2.27784987623e-18)
(41.4316548291 85.8364792026 1.33414395245e-18)
(37.4882344761 92.4060711407 2.85309971453e-19)
(33.1295715488 103.469693594 -8.49978488895e-18)
(21.1770460895 107.057840847 -7.07811658068e-18)
(1.73958245378 52.349744518 -6.3931277336e-18)
(0.0248954217822 0.116274030485 8.72636819018e-22)
(0.0160884230025 0.157786341097 1.57802146594e-20)
)
;

boundaryField
{
    back
    {
        type            calculated;
        value           uniform (0 0 0);
    }
    sides
    {
        type            calculated;
        value           nonuniform List<vector> 0();
    }
    bottom
    {
        type            calculated;
        value           nonuniform List<vector> 0();
    }
    front
    {
        type            calculated;
        value           uniform (0 0 0);
    }
    atmosphere
    {
        type            calculated;
        value           nonuniform List<vector> 
16
(
(0.000132844234042 0.238390753609 8.30120849243e-24)
(-4.25380318704e-05 0.214284019379 -6.11927962685e-24)
(2.26042582984e-05 0.194445182572 1.2614018428e-24)
(1.84257802995e-06 0.159003600762 -1.08732944374e-24)
(-2.31726846003e-05 0.13811029756 -3.8262022359e-24)
(5.86529443379e-07 0.141259895132 2.13339877935e-25)
(2.49041361347e-07 0.145906090419 1.73771847802e-25)
(1.09829355087e-06 0.149484460891 -1.17521137243e-25)
(2.0942325027e-07 0.13996985156 -5.62818911827e-26)
(-7.56819464605e-08 0.128893669574 5.74955777547e-26)
(3.03835124589e-08 0.141360807205 -3.85773040837e-26)
(-2.20418303316e-09 0.163386857258 5.14927181615e-27)
(5.23087713622e-10 0.181081583358 -5.48088689927e-28)
(-2.72091960096e-09 0.197744423974 1.01222872238e-27)
(2.9613342737e-10 0.184355986484 1.67676370702e-30)
(-3.25207820828e-10 0.157786341097 -6.19217695005e-29)
)
;
    }
    floatingObject
    {
        type            calculated;
        value           nonuniform List<vector> 0();
    }
    procBoundary5to0
    {
        type            processor;
        value           nonuniform List<vector> 
12
(
(166.435200838 45.3942236288 3.76848778187e-21)
(170.951916209 53.9614528985 3.68854966884e-20)
(175.650447912 63.8962075749 -2.83298652247e-20)
(180.358606281 75.5716900878 1.75561368374e-19)
(184.754660363 89.4102885595 -3.1007528036e-20)
(188.541472882 106.029424929 1.15461372786e-18)
(191.091940188 126.71971696 7.10831887774e-19)
(191.23772994 157.898906104 1.57131171113e-18)
(183.048870502 187.148280859 -2.16578131598e-17)
(90.8766880297 102.190559909 4.42620140965e-18)
(0.22059160519 0.189052325364 2.21966524066e-20)
(-0.100340173745 0.237721580177 2.34773850795e-19)
)
;
    }
    procBoundary5to3
    {
        type            processor;
        value           nonuniform List<vector> 10((41.2614985675 66.0809840726 1.30421534805e-17) (40.2803209708 71.781621164 1.28783998823e-17) (38.522555425 77.1850844664 1.11085739345e-17) (35.7048844427 81.9581957159 8.06744052578e-18) (31.651785971 86.4880253747 3.89546567419e-18) (26.0154999838 96.5070268415 -1.68370120974e-18) (12.6650709628 103.20739219 -1.39363074645e-17) (-2.54536634985 50.2387663307 1.03863321029e-17) (0.0128822282331 0.106756955921 2.64175414016e-20) (0.00740849069337 0.130900288161 1.35459591682e-20));
    }
    procBoundary5to4
    {
        type            processor;
        value           nonuniform List<vector> 
18
(
(155.070350538 41.4284441642 2.0725642473e-21)
(147.658051639 44.1283474637 2.31616763558e-21)
(141.850535901 53.9272831249 3.09930063457e-22)
(143.392303938 62.3127168868 9.80223915572e-21)
(143.392303938 62.3127168868 9.80223915572e-21)
(134.722506526 63.295310005 6.35747644296e-21)
(126.44698664 63.8015103043 1.01536353714e-20)
(118.529079933 63.9822292009 1.52529192422e-20)
(110.925650198 63.9604157737 5.08043052374e-21)
(103.566709985 63.8373977037 -3.81444674832e-20)
(96.3808851418 63.6816627699 1.86447363651e-21)
(89.2957988202 63.5178148283 3.22966224706e-20)
(82.26998923 63.2944970989 1.8366835918e-20)
(75.3045004661 63.0002970836 5.98030215218e-20)
(68.3742966926 62.5993775919 -4.63017775434e-23)
(61.5186387938 62.0800981273 1.06355863755e-19)
(54.8131194829 61.4504495911 4.18015944089e-19)
(48.2867330199 60.7442186255 2.22186178984e-18)
)
;
    }
}


// ************************************************************************* //
