/*--------------------------------*- C++ -*----------------------------------*\
| =========                 |                                                 |
| \\      /  F ield         | OpenFOAM: The Open Source CFD Toolbox           |
|  \\    /   O peration     | Version:  v2012                                 |
|   \\  /    A nd           | Website:  www.openfoam.com                      |
|    \\/     M anipulation  |                                                 |
\*---------------------------------------------------------------------------*/
FoamFile
{
    version     2.0;
    format      ascii;
    class       volScalarField;
    location    "4.6";
    object      k;
}
// * * * * * * * * * * * * * * * * * * * * * * * * * * * * * * * * * * * * * //

dimensions      [0 2 -2 0 0 0 0];


internalField   nonuniform List<scalar> 
164
(
0.00232824992791
0.00233717898101
0.00234925737193
0.00236939599803
0.00241330761537
0.00253378461577
0.00291249898697
0.00413267751375
0.00772384497435
0.0165385970381
0.0344438208807
0.0734271358779
0.00232984370184
0.00233888072491
0.00235099883272
0.00237103793176
0.00241472388211
0.0025353220255
0.00291764368198
0.00416102155151
0.00781792990036
0.0166896974653
0.0348167803547
0.0739703626712
0.00235238356895
0.00237243781981
0.00241612480416
0.00253725490868
0.0029227997258
0.00418305290295
0.0078970061962
0.0168725113912
0.0351421632846
0.0740970531464
0.00235349308693
0.00237376479709
0.00241799049365
0.00254098818341
0.00293277042426
0.00421417571033
0.00797695661186
0.017025162355
0.0354381648457
0.0741768752709
0.0023543805502
0.00237526229622
0.00242094581928
0.00254703741009
0.00294216133227
0.00422359104537
0.00802333669392
0.0172911380389
0.0360976227634
0.0744890509983
0.00235514423208
0.00237731225672
0.00242623721742
0.00255887121078
0.00295990117971
0.00423684952224
0.0080888108167
0.0177115200653
0.0369952027418
0.0749145682479
0.00235587509095
0.00238032291201
0.00243536872661
0.00258146343037
0.00300173959855
0.00428916254503
0.00814737811517
0.0178098563986
0.0371674338232
0.0750133986697
0.00235657736293
0.0023844099429
0.00244885426132
0.00261686507631
0.00307572346944
0.00440712429612
0.00826214062084
0.0177797754986
0.0370097098354
0.0749641422028
0.00235709353141
0.00238900550999
0.00246473042938
0.00265888009131
0.00316553860524
0.00456036343852
0.00843456648533
0.0177805441613
0.0367311330098
0.0748499767313
0.00235709658898
0.00239289600318
0.00247907555267
0.00269716521243
0.00324897336717
0.00471126530812
0.00862138109001
0.0178162823159
0.0364793317027
0.0747315858051
0.00235626457279
0.00239483063856
0.00248791858566
0.00272130545038
0.00330285171067
0.00481581886173
0.0087577801928
0.017793136678
0.0361486130329
0.074577358021
0.00235458431981
0.00239467855435
0.00249075542603
0.00273005604233
0.00332636830531
0.00487909135257
0.00888635305937
0.0178890135701
0.0359780125768
0.0744386166884
0.00235243140187
0.00239355144802
0.00249071436208
0.00273097111785
0.0033324281041
0.00491502306071
0.00900329732052
0.0180645343561
0.0360167044267
0.0744005328288
0.0023499106506
0.00239172371336
0.00248899762469
0.00272846132829
0.00333274985834
0.00494548806347
0.00911857042008
0.0182679804047
0.0361689133641
0.074415062864
0.00234665446023
0.00238785157199
0.00248224042157
0.00271722212053
0.00332523122082
0.00497861491342
0.00923285130514
0.0183490996577
0.0359653481544
0.0742664422395
0.00234276640148
0.00238187349695
0.00247000147971
0.00269627051071
0.00331064982472
0.00501928692409
0.00932317696848
0.0182502423375
0.0354248118241
0.0739844496841
)
;

boundaryField
{
    back
    {
        type            kqRWallFunction;
        value           nonuniform List<scalar> 
164
(
0.00232824992791
0.00233717898101
0.00234925737193
0.00236939599803
0.00241330761537
0.00253378461577
0.00291249898697
0.00413267751375
0.00772384497435
0.0165385970381
0.0344438208807
0.0734271358779
0.00232984370184
0.00233888072491
0.00235099883272
0.00237103793176
0.00241472388211
0.0025353220255
0.00291764368198
0.00416102155151
0.00781792990036
0.0166896974653
0.0348167803547
0.0739703626712
0.00235238356895
0.00237243781981
0.00241612480416
0.00253725490868
0.0029227997258
0.00418305290295
0.0078970061962
0.0168725113912
0.0351421632846
0.0740970531464
0.00235349308693
0.00237376479709
0.00241799049365
0.00254098818341
0.00293277042426
0.00421417571033
0.00797695661186
0.017025162355
0.0354381648457
0.0741768752709
0.0023543805502
0.00237526229622
0.00242094581928
0.00254703741009
0.00294216133227
0.00422359104537
0.00802333669392
0.0172911380389
0.0360976227634
0.0744890509983
0.00235514423208
0.00237731225672
0.00242623721742
0.00255887121078
0.00295990117971
0.00423684952224
0.0080888108167
0.0177115200653
0.0369952027418
0.0749145682479
0.00235587509095
0.00238032291201
0.00243536872661
0.00258146343037
0.00300173959855
0.00428916254503
0.00814737811517
0.0178098563986
0.0371674338232
0.0750133986697
0.00235657736293
0.0023844099429
0.00244885426132
0.00261686507631
0.00307572346944
0.00440712429612
0.00826214062084
0.0177797754986
0.0370097098354
0.0749641422028
0.00235709353141
0.00238900550999
0.00246473042938
0.00265888009131
0.00316553860524
0.00456036343852
0.00843456648533
0.0177805441613
0.0367311330098
0.0748499767313
0.00235709658898
0.00239289600318
0.00247907555267
0.00269716521243
0.00324897336717
0.00471126530812
0.00862138109001
0.0178162823159
0.0364793317027
0.0747315858051
0.00235626457279
0.00239483063856
0.00248791858566
0.00272130545038
0.00330285171067
0.00481581886173
0.0087577801928
0.017793136678
0.0361486130329
0.074577358021
0.00235458431981
0.00239467855435
0.00249075542603
0.00273005604233
0.00332636830531
0.00487909135257
0.00888635305937
0.0178890135701
0.0359780125768
0.0744386166884
0.00235243140187
0.00239355144802
0.00249071436208
0.00273097111785
0.0033324281041
0.00491502306071
0.00900329732052
0.0180645343561
0.0360167044267
0.0744005328288
0.0023499106506
0.00239172371336
0.00248899762469
0.00272846132829
0.00333274985834
0.00494548806347
0.00911857042008
0.0182679804047
0.0361689133641
0.074415062864
0.00234665446023
0.00238785157199
0.00248224042157
0.00271722212053
0.00332523122082
0.00497861491342
0.00923285130514
0.0183490996577
0.0359653481544
0.0742664422395
0.00234276640148
0.00238187349695
0.00247000147971
0.00269627051071
0.00331064982472
0.00501928692409
0.00932317696848
0.0182502423375
0.0354248118241
0.0739844496841
)
;
    }
    sides
    {
        type            kqRWallFunction;
        value           nonuniform List<scalar> 0();
    }
    bottom
    {
        type            kqRWallFunction;
        value           nonuniform List<scalar> 0();
    }
    front
    {
        type            kqRWallFunction;
        value           nonuniform List<scalar> 
164
(
0.00232824992791
0.00233717898101
0.00234925737193
0.00236939599803
0.00241330761537
0.00253378461577
0.00291249898697
0.00413267751375
0.00772384497435
0.0165385970381
0.0344438208807
0.0734271358779
0.00232984370184
0.00233888072491
0.00235099883272
0.00237103793176
0.00241472388211
0.0025353220255
0.00291764368198
0.00416102155151
0.00781792990036
0.0166896974653
0.0348167803547
0.0739703626712
0.00235238356895
0.00237243781981
0.00241612480416
0.00253725490868
0.0029227997258
0.00418305290295
0.0078970061962
0.0168725113912
0.0351421632846
0.0740970531464
0.00235349308693
0.00237376479709
0.00241799049365
0.00254098818341
0.00293277042426
0.00421417571033
0.00797695661186
0.017025162355
0.0354381648457
0.0741768752709
0.0023543805502
0.00237526229622
0.00242094581928
0.00254703741009
0.00294216133227
0.00422359104537
0.00802333669392
0.0172911380389
0.0360976227634
0.0744890509983
0.00235514423208
0.00237731225672
0.00242623721742
0.00255887121078
0.00295990117971
0.00423684952224
0.0080888108167
0.0177115200653
0.0369952027418
0.0749145682479
0.00235587509095
0.00238032291201
0.00243536872661
0.00258146343037
0.00300173959855
0.00428916254503
0.00814737811517
0.0178098563986
0.0371674338232
0.0750133986697
0.00235657736293
0.0023844099429
0.00244885426132
0.00261686507631
0.00307572346944
0.00440712429612
0.00826214062084
0.0177797754986
0.0370097098354
0.0749641422028
0.00235709353141
0.00238900550999
0.00246473042938
0.00265888009131
0.00316553860524
0.00456036343852
0.00843456648533
0.0177805441613
0.0367311330098
0.0748499767313
0.00235709658898
0.00239289600318
0.00247907555267
0.00269716521243
0.00324897336717
0.00471126530812
0.00862138109001
0.0178162823159
0.0364793317027
0.0747315858051
0.00235626457279
0.00239483063856
0.00248791858566
0.00272130545038
0.00330285171067
0.00481581886173
0.0087577801928
0.017793136678
0.0361486130329
0.074577358021
0.00235458431981
0.00239467855435
0.00249075542603
0.00273005604233
0.00332636830531
0.00487909135257
0.00888635305937
0.0178890135701
0.0359780125768
0.0744386166884
0.00235243140187
0.00239355144802
0.00249071436208
0.00273097111785
0.0033324281041
0.00491502306071
0.00900329732052
0.0180645343561
0.0360167044267
0.0744005328288
0.0023499106506
0.00239172371336
0.00248899762469
0.00272846132829
0.00333274985834
0.00494548806347
0.00911857042008
0.0182679804047
0.0361689133641
0.074415062864
0.00234665446023
0.00238785157199
0.00248224042157
0.00271722212053
0.00332523122082
0.00497861491342
0.00923285130514
0.0183490996577
0.0359653481544
0.0742664422395
0.00234276640148
0.00238187349695
0.00247000147971
0.00269627051071
0.00331064982472
0.00501928692409
0.00932317696848
0.0182502423375
0.0354248118241
0.0739844496841
)
;
    }
    atmosphere
    {
        type            inletOutlet;
        inletValue      uniform 0.1;
        value           uniform 0.1;
    }
    floatingObject
    {
        type            kqRWallFunction;
        value           nonuniform List<scalar> 0();
    }
    procBoundary5to0
    {
        type            processor;
        value           nonuniform List<scalar> 
12
(
0.00232623999527
0.00233508396365
0.00234715769102
0.0023674432368
0.00241156859898
0.00253146075202
0.00290360662475
0.00408816493909
0.00758856622185
0.0163480960478
0.0333267717751
0.0663250485305
)
;
    }
    procBoundary5to3
    {
        type            processor;
        value           nonuniform List<scalar> 10(0.00233919251725 0.00237656730379 0.00245920834319 0.00267973466576 0.00331241392371 0.00509905447669 0.00945784050337 0.0182108235898 0.0349927217369 0.0737367657286);
    }
    procBoundary5to4
    {
        type            processor;
        value           nonuniform List<scalar> 
18
(
0.00232089006959
0.00232235196178
0.00233098614131
0.00234016988305
0.00234016988305
0.00234109167172
0.00234162548581
0.00234179943351
0.00234162919612
0.00234109371638
0.00234013935677
0.0023386867939
0.00233667643801
0.00233413678832
0.00233116885175
0.00232786045353
0.00232419102144
0.00232024420098
)
;
    }
}


// ************************************************************************* //
