/*--------------------------------*- C++ -*----------------------------------*\
| =========                 |                                                 |
| \\      /  F ield         | OpenFOAM: The Open Source CFD Toolbox           |
|  \\    /   O peration     | Version:  v2012                                 |
|   \\  /    A nd           | Website:  www.openfoam.com                      |
|    \\/     M anipulation  |                                                 |
\*---------------------------------------------------------------------------*/
FoamFile
{
    version     2.0;
    format      ascii;
    class       volVectorField;
    location    "4.6";
    object      U_0;
}
// * * * * * * * * * * * * * * * * * * * * * * * * * * * * * * * * * * * * * //

dimensions      [0 1 -1 0 0 0 0];


internalField   nonuniform List<vector> 
164
(
(-0.022060000013 -0.00615647028041 -3.0745426654e-25)
(-0.0226471646205 -0.00698004295733 8.32767131826e-24)
(-0.023301160643 -0.00780542045294 2.18930495726e-23)
(-0.0240213693715 -0.00861895055761 6.23576060781e-23)
(-0.0248174605983 -0.00942213310304 8.95874009949e-23)
(-0.0256740222394 -0.0101521977762 -8.87174222041e-23)
(-0.0262763219823 -0.01058657951 -5.48247589874e-22)
(-0.0260305236566 -0.0118212343136 1.56137814459e-21)
(-0.0261888412318 -0.0174231619758 -6.13871733708e-21)
(-0.0279875587357 -0.0192434866089 -1.15317169325e-20)
(-0.0287426938348 -0.010876671873 -1.15111918994e-20)
(-0.0103371152843 -0.0114004241013 -6.37551787405e-21)
(-0.0212084917195 -0.00669413015087 1.04702289398e-23)
(-0.021783287626 -0.00757570431643 2.29485122505e-23)
(-0.0224389181978 -0.00845919899364 4.24381682122e-23)
(-0.0231687371779 -0.00932829364423 9.5583255718e-23)
(-0.0239791854368 -0.0101889293758 1.05329760704e-22)
(-0.024824702836 -0.0109682671904 -9.16548146962e-23)
(-0.0253566086134 -0.0115127196762 -4.98775565511e-22)
(-0.0249547235104 -0.013011437589 1.3747702554e-21)
(-0.02558296727 -0.0184999866635 -3.19974066328e-21)
(-0.0283839737111 -0.0202462148048 -1.4810429723e-20)
(-0.0275503893622 -0.0126219399274 -1.43916777405e-20)
(-0.0086395042602 -0.0145553697484 -7.78656693206e-21)
(-0.0215114377643 -0.00909737353076 4.77084703438e-23)
(-0.0222515645829 -0.0100433622762 1.11269080647e-22)
(-0.0230712515109 -0.0109759169205 9.96872681655e-23)
(-0.0238878434601 -0.0118181774425 -3.67590749616e-22)
(-0.0242728386919 -0.012533458546 -2.01869549276e-21)
(-0.0235720874906 -0.0143274932674 -2.766963389e-21)
(-0.0244867172106 -0.0198741697805 -3.54962131688e-21)
(-0.0279968528894 -0.0217207522503 -1.22103975091e-20)
(-0.0258886604982 -0.0155389150934 -1.15652598905e-20)
(-0.00587078266889 -0.0175492620878 -3.32094486879e-21)
(-0.0205218894805 -0.0097641823742 4.95039634619e-23)
(-0.0212693577525 -0.0107857736147 8.25123918339e-23)
(-0.0220936895197 -0.0117953337499 -2.01988062564e-23)
(-0.0228434287899 -0.012718267197 -8.66660094534e-22)
(-0.0229080481029 -0.0136844602537 -2.55254689473e-21)
(-0.0216766552563 -0.0160542718224 -3.42947612989e-21)
(-0.0227902983231 -0.0219962075643 -5.75435921908e-21)
(-0.0269993342865 -0.0239046007461 -1.13151365318e-20)
(-0.0248291631417 -0.0191784987534 -1.09520315802e-20)
(-0.00623123854024 -0.0207764665197 1.63624252964e-22)
(-0.0194565388748 -0.0104319530741 5.68356803272e-23)
(-0.0202187331569 -0.0115523593949 6.37520547033e-23)
(-0.021056456869 -0.0126541680967 -1.88184444179e-22)
(-0.0217141095769 -0.0136619425316 -1.05828001545e-21)
(-0.0212611851204 -0.014855441034 -1.5387706774e-21)
(-0.0192078358227 -0.0175908741663 -1.72706043655e-22)
(-0.0202393697214 -0.0237148042438 -7.45049161447e-21)
(-0.0247268765243 -0.0255263029771 -2.14036005094e-20)
(-0.023269212831 -0.0227197092293 -2.08738841547e-20)
(-0.00812026212341 -0.0300380252753 6.66774951024e-22)
(-0.0182891118452 -0.0111195518987 6.22591572436e-23)
(-0.0190695058387 -0.0123807457708 5.21989367832e-23)
(-0.0199328893034 -0.0136291276162 -1.77364495226e-22)
(-0.0205008635166 -0.014797064289 -7.52685851223e-22)
(-0.01947606413 -0.0162695087191 -1.38601128971e-21)
(-0.0164894303428 -0.0191671317605 -3.67908452196e-21)
(-0.0167446374128 -0.0250213528305 -3.71631137347e-21)
(-0.0199703638007 -0.0268098057604 -6.20572616183e-21)
(-0.0185613303158 -0.0264546440283 -6.39115369775e-21)
(-0.0052018619813 -0.0415811515344 -4.09681662138e-21)
(-0.0169672383315 -0.0118308190847 5.20148284043e-23)
(-0.0177301789965 -0.0133033110917 8.69969239395e-23)
(-0.01857496694 -0.0148357523859 3.47687468375e-22)
(-0.0189803619721 -0.0164021958818 1.03706791865e-21)
(-0.0173573611071 -0.0184504958619 3.16581476758e-21)
(-0.013485707385 -0.0217139662035 3.62597307354e-21)
(-0.0125585304636 -0.0270917566562 1.08398869263e-20)
(-0.0137769447681 -0.0284875202366 2.11221900022e-20)
(-0.0125896394163 -0.0292962249667 1.95518920943e-20)
(-0.00208205269999 -0.045308532395 -1.38283144535e-20)
(-0.015426216162 -0.0125147105853 -1.33700255184e-23)
(-0.0160771755313 -0.0142710329043 1.466097255e-22)
(-0.0167590243677 -0.016243595545 1.3049529512e-21)
(-0.0168254989456 -0.01848267992 5.7542903271e-21)
(-0.0146707436724 -0.0213145914728 1.70256187651e-20)
(-0.0103449915203 -0.0248409416337 3.02247746358e-20)
(-0.00863266546024 -0.0295262275851 3.74685449489e-20)
(-0.00809066594887 -0.029896907432 4.28792898152e-20)
(-0.00756243227808 -0.0311783542359 4.20146549595e-20)
(0.000333471200112 -0.0451012495193 4.71785802498e-21)
(-0.0136447418742 -0.0130540379397 1.11979928796e-22)
(-0.0140415424118 -0.0150839740133 7.09593734094e-22)
(-0.0143550741109 -0.0174946632266 4.04704939074e-21)
(-0.0139354680945 -0.0203691625057 1.5390980007e-20)
(-0.0115495727126 -0.0237310435402 4.06131600654e-20)
(-0.00745503154303 -0.0271419938425 6.77651044933e-20)
(-0.00520749782969 -0.0310607048518 8.15834284843e-20)
(-0.00330192012387 -0.0307215202905 8.75012742614e-20)
(-0.00350307465996 -0.0321900307482 8.53982462454e-20)
(0.00152151056169 -0.0431600180007 3.80326787672e-21)
(-0.011671420221 -0.0133080650156 2.55719688068e-22)
(-0.011683368092 -0.0155076845109 1.47462965698e-21)
(-0.011500803014 -0.0181871988037 7.13370060789e-21)
(-0.0106480915329 -0.0214029254347 2.54721423954e-20)
(-0.00843873516984 -0.0249074027432 6.29153513649e-20)
(-0.00513701294706 -0.0281423079909 1.06665898322e-19)
(-0.00250856904652 -0.0316825877324 1.31860694911e-19)
(0.000752069493903 -0.0308578489358 1.28473824711e-19)
(-0.000422793174584 -0.0319926874225 1.25034339917e-19)
(0.00155934178253 -0.0403889092414 1.61058391223e-20)
(-0.00963781349693 -0.0131861406708 4.07074094094e-22)
(-0.00921483308506 -0.0153498295351 1.6844803775e-21)
(-0.008525439729 -0.0179837994341 7.61232022585e-21)
(-0.0073465554181 -0.0210965981891 2.65806942687e-20)
(-0.00547289082242 -0.0243289709147 6.41491673249e-20)
(-0.00303703691191 -0.027286018778 1.0785677811e-19)
(-0.000276772232637 -0.0308465387679 1.34114326875e-19)
(0.00390403882234 -0.0301395101124 1.33517257801e-19)
(0.00185282288932 -0.0300708282689 1.31038430172e-19)
(0.00158417019984 -0.0366060632795 1.54742818247e-20)
(-0.00771533450332 -0.0126649757873 4.38585709921e-22)
(-0.00692458939634 -0.0145978522534 1.05107454132e-21)
(-0.0058152861882 -0.0168981662011 4.41286510563e-21)
(-0.00437596010812 -0.0195172488762 1.53105901719e-20)
(-0.00279525979301 -0.0222022735541 3.86036481394e-20)
(-0.000968872660953 -0.0248716753494 6.71574905356e-20)
(0.00191200174891 -0.0287855056749 8.7197108646e-20)
(0.00644861624511 -0.0287792392067 9.61488441668e-20)
(0.00369852815477 -0.0273659084292 9.45808238438e-20)
(0.000560958038028 -0.0325555992059 2.31019166767e-21)
(-0.00603808661361 -0.0118635016786 1.69346751366e-22)
(-0.00501909864428 -0.0134907527018 2.83766826767e-22)
(-0.00364475211149 -0.0153438568107 1.50699580472e-21)
(-0.00202124506449 -0.0173352449707 5.7196812821e-21)
(-0.000592384337982 -0.0192683298312 1.66647779324e-20)
(0.000945604266084 -0.0213994375187 3.27171219746e-20)
(0.00424268837778 -0.0259033693848 4.13829865196e-20)
(0.00905482867867 -0.0266267255543 3.56686758775e-20)
(0.00544762848946 -0.0239222685673 3.58583108507e-20)
(-0.000340415114129 -0.0296808857108 1.1824993676e-20)
(-0.00463366552241 -0.0108898131492 3.7208150293e-22)
(-0.00348762149611 -0.0121746196524 4.47904315178e-22)
(-0.00198525773797 -0.0135678153515 1.30911890852e-21)
(-0.000321408252663 -0.0149695566702 3.27905412403e-21)
(0.000961830379222 -0.0161279918784 6.97720976889e-21)
(0.00247505318027 -0.0175142874532 1.05396219629e-20)
(0.00629681351275 -0.022555949732 1.2482707379e-20)
(0.0117221797143 -0.0236364166369 1.78781473267e-20)
(0.00780866889342 -0.0196358469784 1.72262088847e-20)
(0.000451974462003 -0.0269648021024 -5.36869992639e-21)
(-0.00354586991977 -0.00977084301268 5.82837438085e-22)
(-0.00236687400286 -0.010623963787 7.96861047914e-22)
(-0.000811171538574 -0.011420245714 1.4040119344e-21)
(0.000817185392367 -0.0121512082743 2.48025248238e-21)
(0.00188052116077 -0.0127176555554 4.58689817946e-21)
(0.00352983527923 -0.0135828120605 8.38525921356e-21)
(0.00802902790901 -0.0190865755286 7.91980064938e-21)
(0.0141686109793 -0.0203882433835 -4.49661797804e-22)
(0.010366338489 -0.015565122503 -3.98037431004e-22)
(0.00260005510342 -0.0218569665641 1.16688399495e-21)
(-0.00285175959093 -0.0086674408029 2.53030830883e-21)
(-0.00182280865669 -0.00901154988397 2.99508942337e-21)
(-0.000339198466329 -0.00905680975705 3.50682356696e-21)
(0.00131023740377 -0.00901105288777 3.35680163589e-21)
(0.00248682301682 -0.00903105581405 3.20385527331e-21)
(0.00467223608054 -0.00982912233452 2.52491948895e-21)
(0.00973710185735 -0.015780293341 8.15312268852e-21)
(0.0159460301246 -0.0169117079852 1.27562085417e-20)
(0.0123654933257 -0.0115816730159 1.2201986058e-20)
(0.00418666085145 -0.0148074280856 -1.51157177844e-21)
)
;

boundaryField
{
    back
    {
        type            noSlip;
    }
    sides
    {
        type            noSlip;
    }
    bottom
    {
        type            noSlip;
    }
    front
    {
        type            noSlip;
    }
    atmosphere
    {
        type            pressureInletOutletVelocity;
        value           nonuniform List<vector> 
16
(
(0 -0.0114004241013 0)
(0 -0.0145553697484 0)
(0 -0.0175492620878 0)
(0 -0.0207764665197 0)
(0 -0.0300380252753 0)
(0 -0.0415811515344 0)
(0 -0.045308532395 0)
(0 -0.0451012495193 0)
(0 -0.0431600180007 0)
(0 -0.0403889092414 0)
(0 -0.0366060632795 0)
(0 -0.0325555992059 0)
(0 -0.0296808857108 0)
(0 -0.0269648021024 0)
(0 -0.0218569665641 0)
(0 -0.0148074280856 0)
)
;
    }
    floatingObject
    {
        type            movingWallVelocity;
        value           nonuniform List<vector> 0();
    }
    procBoundary5to0
    {
        type            processor;
        value           nonuniform List<vector> 
12
(
(-0.0228577027634 -0.00561110318991 -5.97144813009e-24)
(-0.0234579976771 -0.00638358006029 -2.51476204116e-24)
(-0.0241129010483 -0.0071610761494 2.02724694767e-23)
(-0.0248337464931 -0.0079369756703 2.34770424951e-23)
(-0.0256098502039 -0.00869309692264 1.50153371398e-23)
(-0.0264522684621 -0.00938352616583 -1.87907440628e-22)
(-0.0270914789813 -0.00978463329792 -7.88021913568e-22)
(-0.0270117977748 -0.0107871549104 1.38556163028e-21)
(-0.0266844041829 -0.0165312613769 -2.05204933444e-21)
(-0.0274374262766 -0.0186743747015 -1.36568052179e-20)
(-0.0296104924639 -0.0104815149202 -1.31564968372e-20)
(-0.00987229517266 -0.00245610455246 -1.83720118925e-20)
)
;
    }
    procBoundary5to3
    {
        type            processor;
        value           nonuniform List<vector> 10((-0.00251837463192 -0.00790587759711 1.33602171094e-20) (-0.0019173966708 -0.00782328183201 1.59386199312e-20) (-0.000721029638292 -0.00708802058953 1.59416554965e-20) (0.00110712583293 -0.00623222756066 1.28440610227e-20) (0.0030132363248 -0.00582060086503 5.79116949379e-21) (0.00614267200092 -0.00692809118179 2.78440169517e-21) (0.0111402503168 -0.0129650528246 7.06840942833e-21) (0.0166173261294 -0.0134504096124 7.3528338419e-21) (0.0134048673076 -0.00817399352432 7.25176458934e-21) (0.0044806208158 -0.00887068127341 -7.10887936829e-22));
    }
    procBoundary5to4
    {
        type            processor;
        value           nonuniform List<vector> 
18
(
(-0.0215409702994 -0.00534672133711 -2.69690244102e-24)
(-0.0207084109896 -0.00582711057514 1.57971534954e-24)
(-0.0202993827186 -0.00720634495899 2.44601451238e-23)
(-0.0208601617903 -0.00814704028989 2.16434572063e-23)
(-0.0208601617903 -0.00814704028989 2.16434572063e-23)
(-0.0198771583464 -0.00873999774167 2.66462422523e-23)
(-0.0188120630111 -0.00931321991245 2.91790356969e-23)
(-0.0176513636794 -0.00987927218047 3.75007616665e-23)
(-0.0163719594024 -0.0104358663264 5.62173695949e-23)
(-0.0149384738336 -0.0109358079706 8.40054503914e-23)
(-0.0133463809157 -0.0113026966365 9.43933504279e-23)
(-0.0116412743482 -0.0114572595787 9.43432531258e-23)
(-0.00991478599885 -0.0113562446884 1.09742192183e-22)
(-0.00827371962989 -0.0109944286018 2.17672388272e-22)
(-0.00677970028768 -0.010417360136 2.27619555426e-22)
(-0.00547844056314 -0.00968888951596 2.36732089358e-22)
(-0.00442323822364 -0.00885943710928 5.35254250057e-22)
(-0.00362550668612 -0.0080407820807 2.29771369687e-21)
)
;
    }
}


// ************************************************************************* //
