/*--------------------------------*- C++ -*----------------------------------*\
| =========                 |                                                 |
| \\      /  F ield         | OpenFOAM: The Open Source CFD Toolbox           |
|  \\    /   O peration     | Version:  v2012                                 |
|   \\  /    A nd           | Website:  www.openfoam.com                      |
|    \\/     M anipulation  |                                                 |
\*---------------------------------------------------------------------------*/
FoamFile
{
    version     2.0;
    format      ascii;
    class       surfaceVectorField;
    location    "4.6";
    object      Uf_0;
}
// * * * * * * * * * * * * * * * * * * * * * * * * * * * * * * * * * * * * * //

dimensions      [0 1 -1 0 0 0 0];


internalField   nonuniform List<vector> 
300
(
(-0.0223535823168 -0.00658032342582 4.01010852586e-24)
(-0.0216372494292 -0.00642530021564 5.08138733663e-24)
(-0.0229741626318 -0.00741280900947 1.51103604454e-23)
(-0.0222209305204 -0.00727787363688 1.56380917844e-23)
(-0.0236612650073 -0.00824474008758 4.21253278254e-23)
(-0.022876793222 -0.00813230972329 3.21656088924e-23)
(-0.0244194149849 -0.00906594053088 7.59725035365e-23)
(-0.0236029354111 -0.00897362210092 7.89704308981e-23)
(-0.0252457414189 -0.00986544124716 4.34989395379e-25)
(-0.0244128421491 -0.00980553123945 9.74585808496e-23)
(-0.0259751721109 -0.0106634661817 -3.18482506039e-22)
(-0.0252662985078 -0.0105602324833 -9.01861184502e-23)
(-0.0261534228195 -0.0115155677475 5.0656527736e-22)
(-0.0258422964672 -0.0110496495931 -5.23511577693e-22)
(-0.0261096824442 -0.0125132517593 -2.28866959625e-21)
(-0.0255346924318 -0.0124163359513 1.4680742e-21)
(-0.0270881999838 -0.0130167757106 -8.83521713478e-21)
(-0.0259783509562 -0.0179615743197 -4.66922900018e-21)
(-0.0283651262852 -0.0124940262349 -1.1521454416e-20)
(-0.0283547401986 -0.0197448507068 -1.31710733277e-20)
(-0.0195399045596 -0.0141276208228 -8.94335488674e-21)
(-0.0279575163038 -0.0117493059002 -1.295143482e-20)
(-0.00890903016664 -0.0129778969248 -7.08104240305e-21)
(-0.0214958896728 -0.00714385374873 1.67093705952e-23)
(-0.0221111029119 -0.00803608504514 3.26933402313e-23)
(-0.0228038276879 -0.00892325083047 6.90107119651e-23)
(-0.0219892060208 -0.0087782862622 4.5073319278e-23)
(-0.0235739613074 -0.00979504406924 1.00456508211e-22)
(-0.0227307757311 -0.0096858279602 1.03426168183e-22)
(-0.0244019441364 -0.010654094466 6.83747300405e-24)
(-0.0235534410906 -0.0105824231482 1.02508514435e-22)
(-0.0250906557247 -0.0115237435693 -2.95215190104e-22)
(-0.024396296848 -0.0113932223164 -2.29622782156e-22)
(-0.0251556660619 -0.0125020613767 4.37997344944e-22)
(-0.0248636500126 -0.0120230891111 -1.25873552914e-21)
(-0.0252688453902 -0.0136909223237 -9.12485203938e-22)
(-0.0243456094699 -0.0136694654282 -6.96096566798e-22)
(-0.0269834704906 -0.0144653308102 -9.00508519313e-21)
(-0.0252038737512 -0.019187078222 -3.37468099008e-21)
(-0.0279671815367 -0.0142918411224 -1.46010537317e-20)
(-0.0285278958749 -0.0209834835275 -1.35104136161e-20)
(-0.0180949468112 -0.0157103588716 -1.10891223363e-20)
(-0.0265388715507 -0.0140804275104 -1.29784688155e-20)
(-0.00701907856172 -0.0160523159181 -5.55375590042e-21)
(-0.0218815011736 -0.00959162607539 7.94887754955e-23)
(-0.021029197537 -0.00943077795248 4.86062169028e-23)
(-0.0226614080469 -0.0105383114787 1.05478174406e-22)
(-0.0217837649424 -0.0104145679454 9.68907362406e-23)
(-0.0234795474855 -0.0114675575341 -1.33951740725e-22)
(-0.0226238868309 -0.0113856253352 3.97442309545e-23)
(-0.024080341076 -0.0124259333164 -1.19314312119e-21)
(-0.0234376163329 -0.0122682223197 -6.17125422075e-22)
(-0.0239224630912 -0.0135846114746 -2.39282944088e-21)
(-0.0237046947328 -0.0131089593998 -2.28562119375e-21)
(-0.0240294023506 -0.0151169718739 -3.15829235294e-21)
(-0.0228130639288 -0.0151908825449 -3.09821975944e-21)
(-0.02624178505 -0.0164525093485 -7.88000941301e-21)
(-0.0238682789241 -0.0209351886724 -4.65199026798e-21)
(-0.0269427566938 -0.0172247492461 -1.18878286998e-20)
(-0.027755321095 -0.0228126764982 -1.17627670205e-20)
(-0.0158797215835 -0.0184479892121 -7.44310237966e-21)
(-0.0253156202263 -0.0173587069234 -1.12586457354e-20)
(-0.0060511558357 -0.0191628643038 -1.57866030791e-21)
(-0.0208956236165 -0.0102866190856 6.60081776479e-23)
(-0.0200002508701 -0.0100980677242 5.31698218946e-23)
(-0.0216815236361 -0.0113025271164 3.11567927888e-23)
(-0.0207675555136 -0.0111690665048 7.31322232686e-23)
(-0.0224685591548 -0.0123128275696 -4.43429450395e-22)
(-0.0216133016434 -0.0122247509233 -1.04191625218e-22)
(-0.0228757384464 -0.0134098087343 -1.70960349463e-21)
(-0.0223403573441 -0.0131901048643 -9.62470054992e-22)
(-0.0222923516796 -0.0149259336537 -2.99101151231e-21)
(-0.0221883218742 -0.0142699506438 -2.04565878606e-21)
(-0.0222334767897 -0.0171375042589 -4.59191767448e-21)
(-0.0206013292203 -0.0168225729944 -1.80109108677e-21)
(-0.0248948163048 -0.0192819730292 -8.53474787542e-21)
(-0.0217237591192 -0.0228555059041 -6.60242541678e-21)
(-0.0259142487141 -0.020902072482 -1.1133584056e-20)
(-0.0261349066485 -0.0247154518616 -1.63593685206e-20)
(-0.015530200841 -0.022183141165 -5.39420366363e-21)
(-0.0240345735495 -0.0209491039913 -1.59129578675e-20)
(-0.00713973936907 -0.0254072458975 4.15199601994e-22)
(-0.0198376360158 -0.0109907321669 6.02938675153e-23)
(-0.0188819420824 -0.0107757524864 5.95474187854e-23)
(-0.0206375950129 -0.0121000882842 -6.22161947378e-23)
(-0.0196579160744 -0.0119665525828 5.79754957433e-23)
(-0.0213852832229 -0.0131984113522 -6.23232229814e-22)
(-0.0205147107292 -0.0131416478565 -1.82774469703e-22)
(-0.0214876473487 -0.0144029419605 -1.29852534642e-21)
(-0.0211355672269 -0.0142295034103 -9.05482933336e-22)
(-0.0202345104716 -0.016184181472 -8.55738360526e-22)
(-0.0204068533204 -0.0155624748765 -1.46239098355e-21)
(-0.019723602772 -0.018835840133 -3.81159882906e-21)
(-0.0179495200813 -0.0183790029634 -1.92589528281e-21)
(-0.0224831231229 -0.0219028548633 -1.44270460619e-20)
(-0.0186566968431 -0.0243680785372 -5.58340149397e-21)
(-0.0239980446777 -0.0253002092073 -2.1138742332e-20)
(-0.0227373142404 -0.0261680543688 -1.38046633356e-20)
(-0.0156947374772 -0.0284502095556 -1.01035546018e-20)
(-0.0208845473312 -0.0245871766288 -1.36325189262e-20)
(-0.00696095349743 -0.0358095884048 -1.71502083518e-21)
(-0.0186793088419 -0.0117424921912 5.72290470134e-23)
(-0.017635176881 -0.0114751854917 5.7136992824e-23)
(-0.0195011975711 -0.0129905552989 -6.25827792216e-23)
(-0.0184095860488 -0.0128420284312 6.95979303614e-23)
(-0.02021687641 -0.0142373713334 -4.65025173225e-22)
(-0.0192676415693 -0.0142324400011 8.51614865745e-23)
(-0.0199884638233 -0.0156195906179 -1.06934857047e-21)
(-0.0197531032515 -0.0155996300854 1.42191033714e-22)
(-0.0179827472364 -0.0175913655283 -2.53254790584e-21)
(-0.0184348637142 -0.0173600022905 8.89901738935e-22)
(-0.0166170338778 -0.0204877077337 -3.69769794772e-21)
(-0.0150530375066 -0.020440548982 -2.65557242107e-23)
(-0.0183575006067 -0.024318598892 -4.96101876765e-21)
(-0.0148257620337 -0.0260565547434 3.5617877764e-21)
(-0.0192658470582 -0.030024033497 -6.29843992979e-21)
(-0.0170315921743 -0.0276486629985 7.45823192018e-21)
(-0.0118815961486 -0.0353175159254 -5.24398515956e-21)
(-0.0155910979761 -0.0278754344975 6.5803691983e-21)
(-0.00369989857256 -0.0434448419647 -8.96256553743e-21)
(-0.017348708664 -0.0125578998897 6.95058761719e-23)
(-0.0162021432372 -0.012172764835 1.9322401443e-23)
(-0.0181525729682 -0.0140514849832 2.17342196157e-22)
(-0.0169157496384 -0.013787171998 1.1680332472e-22)
(-0.018777664456 -0.0156355414541 6.92377693513e-22)
(-0.0176833453875 -0.0155396739655 8.26320209786e-22)
(-0.0181688615396 -0.0174621803148 2.10144134312e-21)
(-0.0179262325173 -0.0174424379009 3.39567912287e-21)
(-0.0154215342461 -0.0198579660746 3.39589392056e-21)
(-0.0160388751042 -0.0198825436674 1.00957167664e-20)
(-0.0130221189243 -0.0229460763261 7.23292999991e-21)
(-0.0119647951309 -0.0232774539186 1.69253738547e-20)
(-0.0131677376158 -0.027074674683 1.59810384642e-20)
(-0.0106971212555 -0.0283089921207 2.41542159376e-20)
(-0.0131832920922 -0.0330785010592 2.03370410483e-20)
(-0.0110276198796 -0.0291922138343 3.20007399087e-20)
(-0.00733584605812 -0.0385484242832 2.86178882043e-21)
(-0.0101210801148 -0.0302372896013 3.07832735269e-20)
(-0.000757259418228 -0.0452048909572 -4.55522821425e-21)
(-0.0157516958466 -0.013384207937 6.66198499909e-23)
(-0.0145328375514 -0.0127843742625 4.93049516387e-23)
(-0.0164180999495 -0.0152398572992 7.25781338348e-22)
(-0.0150598636099 -0.0146775034588 4.28101729797e-22)
(-0.0167922616567 -0.01735941968 3.52962163915e-21)
(-0.0155635554421 -0.0168691293858 2.67600117097e-21)
(-0.015748121309 -0.0199000349015 1.13899545461e-20)
(-0.0153853966868 -0.0194259212128 1.0572635167e-20)
(-0.0125078675963 -0.0227934700442 2.36251967005e-20)
(-0.013145247148 -0.0225228175065 2.88193894153e-20)
(-0.00948882849029 -0.0257923314949 3.38466597923e-20)
(-0.00896580873707 -0.0259914677381 4.89949395646e-20)
(-0.00836166570456 -0.0295143341259 4.0173917382e-20)
(-0.00697507892457 -0.0302934662185 5.95259867166e-20)
(-0.00782654911348 -0.0348010811452 4.24469723874e-20)
(-0.00574067689689 -0.0303092138613 6.51902820383e-20)
(-0.00361448053899 -0.0394181720215 2.33662564923e-20)
(-0.00550394376903 -0.031684192492 6.37064506025e-20)
(0.00100163735933 -0.04413063376 4.26056295085e-21)
(-0.013843142143 -0.0140504865813 4.10786831445e-22)
(-0.0126452002331 -0.0131810514777 1.83849808432e-22)
(-0.0141983082614 -0.0162630214938 2.37832156242e-21)
(-0.0128471058381 -0.0152958292621 1.09211169554e-21)
(-0.0141452711027 -0.0189122654373 9.71901469887e-21)
(-0.0129140951164 -0.0178409310151 5.59037499932e-21)
(-0.0127425204036 -0.0220131757715 2.80020700362e-20)
(-0.0122842759093 -0.0208860439702 2.04315612012e-20)
(-0.00950230212782 -0.0251518478748 5.41891322793e-20)
(-0.0100063911952 -0.0243192231417 5.17642557151e-20)
(-0.00633126468636 -0.0277899286528 7.46742664888e-20)
(-0.00632760920541 -0.0276421509167 8.72155014078e-20)
(-0.00425470897678 -0.0308867935624 8.45423513728e-20)
(-0.00387817826239 -0.0313716462921 1.06722061698e-19)
(-0.00340249739192 -0.0353985093792 8.64497602534e-20)
(-0.00122862506733 -0.0307896846132 1.07987549486e-19)
(-0.000990782049135 -0.0389525903345 4.4600757061e-20)
(-0.00194995177086 -0.0320913590854 1.05216293081e-19)
(0.00159104133773 -0.041774463621 9.95455349949e-21)
(-0.0116773941565 -0.014383793554 8.65174672523e-22)
(-0.0106235400293 -0.0132471028432 3.31396891081e-22)
(-0.011592085553 -0.0168196212104 4.30416513243e-21)
(-0.0104110689806 -0.015428757023 1.57955501724e-21)
(-0.0110744472735 -0.0197600420497 1.63029215016e-20)
(-0.00997346901317 -0.0180854991189 7.37301041687e-21)
(-0.00954341335138 -0.0231093989139 4.41937468802e-20)
(-0.00893471878887 -0.0212497618119 2.60264183321e-20)
(-0.00678787405845 -0.0262436288099 8.47906248436e-20)
(-0.00687198656171 -0.024618186829 6.35322593449e-20)
(-0.00382279099679 -0.0285823053171 1.19263296617e-19)
(-0.00398882038775 -0.0277141633844 1.07261338216e-19)
(-0.000878249776307 -0.0311471859341 1.30167259811e-19)
(-0.00131326385712 -0.0312645632501 1.32987510893e-19)
(0.000164638159659 -0.0348345394253 1.26754082314e-19)
(0.00245903833931 -0.0304986795241 1.30995541256e-19)
(0.000568274303975 -0.0374254072748 7.05700895197e-20)
(0.000640851283186 -0.0310317578457 1.28036385044e-19)
(0.00162384518609 -0.0384974862605 1.57900604735e-20)
(-0.009426323291 -0.0142531108226 1.0457772358e-21)
(-0.00862113296405 -0.0129255582291 4.22829902008e-22)
(-0.00887013640703 -0.0166395434949 4.64840030167e-21)
(-0.00802444155739 -0.0149738408943 1.36777745941e-21)
(-0.00793599757355 -0.0194974319295 1.70965072473e-20)
(-0.00711538758585 -0.0174409828176 6.01259266574e-21)
(-0.00640972312026 -0.022691391227 4.53649307968e-20)
(-0.00574057059673 -0.0203069235327 2.09456422203e-20)
(-0.00425496386717 -0.0255348455252 8.60029727176e-20)
(-0.00402836785597 -0.0232656222344 5.13764077322e-20)
(-0.00165690457228 -0.0276494236177 1.20985552493e-19)
(-0.0018741370712 -0.0260788470637 8.7507134323e-20)
(0.00181363329485 -0.0299285809446 1.33815792338e-19)
(0.000965925009428 -0.0298160222214 1.10655717761e-19)
(0.00287843085583 -0.0327758903319 1.32277843986e-19)
(0.00530663031277 -0.0294593746595 1.14833050984e-19)
(0.00171849654458 -0.0349286620699 7.32563559982e-20)
(0.00279360593265 -0.028718368349 1.12809627008e-19)
(0.00102304629904 -0.0345808312427 8.89223674619e-21)
(-0.00731996194983 -0.0136184634743 7.44830125619e-22)
(-0.00683301409729 -0.012264238733 3.03966230644e-22)
(-0.00636993779227 -0.0157277398142 2.73196982348e-21)
(-0.00591498603478 -0.0140443024776 6.67420684042e-22)
(-0.00509562314816 -0.0181961719729 9.86172763879e-21)
(-0.00464677635583 -0.0161210115059 2.95993045518e-21)
(-0.00358560995057 -0.0208651681056 2.69571191557e-20)
(-0.00307139839193 -0.0184262469235 1.0515135727e-20)
(-0.00188206622698 -0.0233129042577 5.28805693375e-20)
(-0.00158047904767 -0.0207353016926 2.76342130359e-20)
(0.00047156454398 -0.0253040561147 7.71772995908e-20)
(0.000117112567012 -0.023135556434 4.99373062551e-20)
(0.00418030899701 -0.0275376735232 9.16729764064e-20)
(0.00319957242552 -0.0273444375298 6.42900475828e-20)
(0.00507357219994 -0.0300948137485 9.53648340053e-20)
(0.00786392876814 -0.0277029823805 6.59087600221e-20)
(0.0021297430964 -0.0318772404962 4.84455077557e-20)
(0.00457617830369 -0.0256440884983 6.52195673472e-20)
(3.41927628988e-05 -0.0311182424583 7.06759267184e-21)
(-0.00552859262895 -0.0126753209909 2.26556789067e-22)
(-0.00529031809476 -0.0113766574139 2.70714127148e-22)
(-0.00433192537789 -0.0143964244686 8.95381315742e-22)
(-0.00419371959498 -0.0128326861771 3.65835570973e-22)
(-0.00283299858799 -0.0163421294285 3.61333854341e-21)
(-0.00270090661794 -0.0144558360811 1.40805735662e-21)
(-0.00130681470123 -0.0183640059743 1.11922296072e-20)
(-0.00104935916537 -0.0161524008205 4.49936770306e-21)
(0.000176609964051 -0.0202596960638 2.46909499535e-20)
(0.000315352045194 -0.0176981608548 1.18209938506e-20)
(0.00259414632193 -0.0219520740702 3.70500542471e-20)
(0.00180958116539 -0.0194568624859 2.16283719688e-20)
(0.00664875852823 -0.0241403852645 3.85258311985e-20)
(0.00538791084857 -0.0242296595584 2.69328469493e-20)
(0.00725122858407 -0.0267866562853 3.57634933641e-20)
(0.0105103710921 -0.0251315710956 2.67734116021e-20)
(0.00255360668767 -0.0287431005265 2.38416522634e-20)
(0.0065328391005 -0.0217790577729 2.65422598677e-20)
(-2.65138933428e-05 -0.0283228439066 3.22814687481e-21)
(-0.00406064350926 -0.0115398119304 4.09992909054e-22)
(-0.00404399953083 -0.0103303280809 4.77459470508e-22)
(-0.00273643961704 -0.0128685797467 8.78511611849e-22)
(-0.00286479543556 -0.0113992917197 6.22382681546e-22)
(-0.00115333299532 -0.0142852504129 2.29408651627e-21)
(-0.00128407684621 -0.0124940305328 1.35656542146e-21)
(0.000320211063279 -0.0156786710585 5.12813194646e-21)
(0.000344228118062 -0.0135603824723 2.8796533032e-21)
(0.00171844177974 -0.0168620742029 8.75841586589e-21)
(0.00149890034575 -0.0144228237169 5.78205397417e-21)
(0.00438593334651 -0.0181653173439 1.15111646709e-20)
(0.00311292951117 -0.0155485497569 9.46244058822e-21)
(0.00900949661353 -0.0200481623112 1.51804273528e-20)
(0.00727079274451 -0.0208212626303 1.02012540142e-20)
(0.00976542430386 -0.0225797327852 1.75521781057e-20)
(0.0130420770555 -0.0220123300102 8.71424276445e-21)
(0.00413032167771 -0.0251575325122 5.92875447913e-21)
(0.00911131396771 -0.0176004847407 8.41408572683e-21)
(0.00158677802659 -0.0244108843332 -2.10090796572e-21)
(-0.00295637196132 -0.01020968469 6.89849242999e-22)
(-0.00315689954904 -0.00921914190779 1.55657287346e-21)
(-0.00158902277072 -0.0110460986352 1.10043649116e-21)
(-0.00202821792026 -0.0098177568355 1.89597523564e-21)
(3.0069268965e-06 -0.0118264577943 1.94213220839e-21)
(-0.000503522046546 -0.0102385277355 2.45541775068e-21)
(0.00134885327657 -0.0125965372028 3.53357533092e-21)
(0.00111448134046 -0.010581130581 2.91852705914e-21)
(0.00270517822 -0.0133339175839 6.48607869651e-21)
(0.00223647091669 -0.0108743556847 3.89537672639e-21)
(0.00577943159412 -0.0143716421031 8.15252993147e-21)
(0.00415076854166 -0.0117059671975 5.45508935125e-21)
(0.0110988194442 -0.0160396899747 3.73506942579e-21)
(0.00893888034399 -0.0174334344348 8.03646166895e-21)
(0.0122674747342 -0.0182094320334 -4.23849614404e-22)
(0.0152122459398 -0.0186499756843 6.15327337192e-21)
(0.00648319679623 -0.0204927850644 3.84423281974e-22)
(0.0113959354579 -0.0135733977595 5.90197431348e-21)
(0.00346863189979 -0.0183321973248 -1.72343891743e-22)
(-0.00233728412381 -0.00885805826683 2.7626988661e-21)
(-0.00108100356151 -0.00907925522713 3.25095649517e-21)
(0.000485519468723 -0.00908571438796 3.43181260143e-21)
(0.0018985302103 -0.009201897641 3.2803284546e-21)
(0.00357952954868 -0.00972265941735 2.86438738113e-21)
(0.00720466896895 -0.0109829426765 5.33902108874e-21)
(0.012841565991 -0.0124246553101 1.04546656151e-20)
(0.0141557617251 -0.013593959215 1.24790972998e-20)
(0.00827607708858 -0.0150498944147 5.34520713976e-21)
)
;

boundaryField
{
    back
    {
        type            calculated;
        value           uniform (0 0 0);
    }
    sides
    {
        type            calculated;
        value           nonuniform List<vector> 0();
    }
    bottom
    {
        type            calculated;
        value           nonuniform List<vector> 0();
    }
    front
    {
        type            calculated;
        value           uniform (0 0 0);
    }
    atmosphere
    {
        type            calculated;
        value           nonuniform List<vector> 
16
(
(0 -0.0144219124926 0)
(0 -0.0176001259838 0)
(0 -0.0194157652006 0)
(0 -0.0210944266039 0)
(0 -0.0286288732202 0)
(0 -0.0385784552591 0)
(0 -0.0414909490776 0)
(0 -0.0411769534547 0)
(0 -0.0395418788136 0)
(0 -0.037458087978 0)
(0 -0.0343277156185 0)
(0 -0.0308881958062 0)
(0 -0.0286821074214 0)
(0 -0.0267700920327 0)
(0 -0.0223736820304 0)
(0 -0.0159658743769 0)
)
;
    }
    floatingObject
    {
        type            calculated;
        value           nonuniform List<vector> 0();
    }
    procBoundary5to0
    {
        type            processor;
        value           nonuniform List<vector> 
12
(
(-0.0224619293081 -0.00588378673516 -3.13945119832e-24)
(-0.0230543234122 -0.00668181150881 2.90645463855e-24)
(-0.0237095213324 -0.00748324830117 2.10827595246e-23)
(-0.0244248698599 -0.00827796311396 4.29173242866e-23)
(-0.0252130534635 -0.00905761501284 5.23013690673e-23)
(-0.0260650350962 -0.00976786197103 -1.38312431416e-22)
(-0.0266950774987 -0.010185606404 -6.68134751721e-22)
(-0.0265328980015 -0.011304194612 1.47346988744e-21)
(-0.026482085868 -0.0169772116763 -4.09538333576e-21)
(-0.0278324645782 -0.0189589306552 -1.25942610752e-20)
(-0.0295916879603 -0.0106790933966 -1.23338443683e-20)
(-0.00920397766753 -0.00692826432686 -1.23737648833e-20)
)
;
    }
    procBoundary5to3
    {
        type            processor;
        value           nonuniform List<vector> 10((-0.00266519994802 -0.00828665920001 7.94526270914e-21) (-0.00180683428852 -0.00841741585799 9.46685467727e-21) (-0.000496894761058 -0.00807241517329 9.72423953174e-21) (0.00123087744822 -0.00762164022421 8.10043132929e-21) (0.00275740274401 -0.00742582833954 4.49751238355e-21) (0.0054111808512 -0.00837860675815 2.65466059206e-21) (0.0103806418442 -0.0143726730828 7.61076605843e-21) (0.0163822365008 -0.0151810587988 1.00545211918e-20) (0.0128532673494 -0.0098778332701 9.72687532365e-21) (0.00438566337834 -0.0118390546795 -1.11122985763e-21));
    }
    procBoundary5to4
    {
        type            processor;
        value           nonuniform List<vector> 
18
(
(-0.0218004851562 -0.00575706459146 -1.50217835378e-24)
(-0.0209584513545 -0.00626545797385 6.02497214467e-24)
(-0.0207579754735 -0.00695023755493 1.74651870318e-23)
(-0.0213282015322 -0.00786137230316 2.22959847284e-23)
(-0.0211857997773 -0.00863226092825 3.4675963775e-23)
(-0.0201995239135 -0.00925825154502 3.80751028571e-23)
(-0.019134300943 -0.0098729595999 4.30073580121e-23)
(-0.0179702377623 -0.0104962272131 4.98799594551e-23)
(-0.016669598867 -0.0111253317851 5.41160989996e-23)
(-0.0151823449978 -0.0117153335499 3.53177124365e-23)
(-0.0134955613949 -0.0121632469077 1.03186639612e-22)
(-0.0116563472846 -0.0123624974741 1.75031470597e-22)
(-0.00977629974789 -0.012251033627 2.58408143139e-22)
(-0.0079945270666 -0.011830639073 3.28129049096e-22)
(-0.00640889345064 -0.0111328833142 1.98483153396e-22)
(-0.00505605304278 -0.010293724183 3.04406796144e-22)
(-0.00398455407171 -0.00932287953556 5.59045844071e-22)
(-0.00323863313853 -0.00836655651116 2.41401100285e-21)
)
;
    }
}


// ************************************************************************* //
