/*--------------------------------*- C++ -*----------------------------------*\
| =========                 |                                                 |
| \\      /  F ield         | OpenFOAM: The Open Source CFD Toolbox           |
|  \\    /   O peration     | Version:  v2012                                 |
|   \\  /    A nd           | Website:  www.openfoam.com                      |
|    \\/     M anipulation  |                                                 |
\*---------------------------------------------------------------------------*/
FoamFile
{
    version     2.0;
    format      ascii;
    class       volScalarField;
    location    "2.9";
    object      alpha.water;
}
// * * * * * * * * * * * * * * * * * * * * * * * * * * * * * * * * * * * * * //

dimensions      [0 0 0 0 0 0 0];


internalField   nonuniform List<scalar> 
1984
(
1.00000088133
1.00000101391
1.00000110332
1.00000115903
1.00000113279
1.00000088325
1.00000043978
0.999999999598
0.999999050883
0.999998559035
0.999998007629
0.999997322917
0.999996314515
0.999996300041
0.999997085574
0.999997132462
0.999997339689
0.788792514171
0.0907983166989
3.49557834901e-26
1.00000097867
1.00000109219
1.00000117329
1.0000011971
1.0000011159
1.00000083676
1.00000043958
0.999999227334
0.999998923954
0.999997735519
0.999997441367
0.999996577982
0.999996194686
0.999996328089
0.999997539187
0.999997477776
0.999997453718
0.790471102749
0.0912389168102
1.07771707648e-20
1.00000097039
1.00000107868
1.00000115671
1.00000117225
1.00000106278
1.0000007907
1.00000007635
0.999999695402
0.999997065325
0.999997573789
0.999997359487
0.999996515961
0.999996194686
0.999996328011
0.999997792442
0.999997645172
0.999997483562
0.797537790659
0.0903324834048
6.17840134975e-06
1.00000091034
1.00000101515
1.00000108986
1.00000109396
1.00000095554
1.00000069167
1.00000017938
0.999998942605
0.999997940134
0.999994773078
0.999996581392
0.99999675522
0.99999627788
0.99999698649
0.999998181377
0.999997954177
0.999997635278
0.806730403748
0.0901819067448
-1.36782586092e-21
1.00000083405
1.00000093409
1.00000100042
1.00000098714
1.00000081614
1.00000048634
1.00000006725
0.999999397021
0.99999770905
0.999995798601
0.999995600193
0.999995913618
0.999997348387
0.999997803142
0.999998759747
0.999998548742
0.999997954379
0.816226810747
0.0924520050528
-7.43787121894e-22
1.00000076213
1.0000008528
1.00000090047
1.00000085808
1.00000067182
1.00000030683
0.999999912687
0.999999300926
0.999998369172
0.999997845975
0.99999560023
0.999997094138
0.999997932163
0.999998655224
0.999999596102
0.999999275217
0.999998627303
0.825356215214
0.0974764306209
0
1.00000070153
1.00000077567
1.00000079116
1.00000070926
1.00000049413
1.00000016517
0.999999789215
0.999999418744
0.999998863303
0.999998899488
0.999997425958
0.999998212697
0.999998937419
0.999999636266
0.999999990565
0.999999867965
0.999999106252
0.832836210322
0.104143921898
-1.47131107826e-23
1.00000065091
1.00000069893
1.00000067023
1.00000053587
1.00000029792
0.999999991571
0.999999723663
0.999999552704
0.999999827756
0.999999856545
0.999999614611
0.999999693103
1.00000016418
1.00000065177
1
0.999999990594
0.999998980605
0.838835051392
0.111099626119
0
1.00000060544
1.00000061626
1.00000053155
1.00000033998
1.00000006944
0.999999832973
0.999999651125
0.999999934826
1.00000058062
1.0000013299
1.00000147647
1.00000113654
1.00000158293
1.00000196166
1.00000000001
0.999999996492
0.999998625392
0.843134814337
0.117781365238
0
1.00000055402
1.00000052366
1.00000037239
1.00000011854
0.999999851764
0.999999622868
0.999999647383
1.00000026041
1.00000169784
1.00000279294
1.00000382166
1.00000276395
1.00000290651
1.00000297122
1.00000000004
1.000000004
0.999998225805
0.844687749053
0.12338640739
0
1.00000048666
1.00000040853
1.00000019569
0.999999900565
0.99999958907
0.999999422502
0.999999639383
1.00000069269
1.00000261858
1.00000431296
1.00000592835
1.00000451159
1.00000440871
1.00000369414
1.00000000005
1.00000001061
0.999997491663
0.842361226955
0.124319361457
0
1.00000041676
1.00000028492
1.00000000831
0.999999650529
0.999999316419
0.999999176893
0.999999605912
1.00000097168
1.00000353567
1.00000541937
1.00000778943
1.00000615866
1.00000585874
1.00000444455
1.00000000003
1.00000000284
0.99999656716
0.836420543945
0.118767290031
-1.48960627488e-21
1.00000033201
1.00000015627
0.999999823643
0.99999939076
0.999999032971
0.999998960587
0.999999545223
1.00000120559
1.00000402073
1.00000622449
1.00000902953
1.00000717708
1.00000696751
1.00000533719
1
0.99999997027
0.999995961634
0.823274413826
0.113705518725
-8.38793312607e-23
1.0000002569
1.0000000472
0.999999642239
0.999999142801
0.999998809638
0.999998885457
0.999999486962
1.00000104385
1.0000040749
1.00000668379
1.00001000783
1.00000858538
1.00000868656
1.00000672539
1
0.999999945442
0.999996162642
0.816803191519
0.110395979459
-2.78269012411e-22
1.00000023636
0.999999997147
0.999999526897
0.999999093995
0.999998736689
0.999998552565
0.999998380225
1.00000050561
1.00000417625
1.00000654447
1.00001195941
1.00001091079
1.00001113316
1.00000908738
1
0.99999998674
0.999997342632
0.816723474582
0.110161471488
-2.05945763067e-22
1.00000043949
1.00000009184
0.999999621011
0.999999117212
0.999997825535
0.9999970814
0.999997975376
0.999999909649
1.0000024368
1.0000069539
1.00001149749
1.00001217338
1.0000122133
1.00001065671
1
0.999999997292
0.999998473198
0.816938588975
0.106229416067
-2.52341423148e-23
1.00000068446
1.00000033852
0.999999794962
0.999997739816
0.99999741029
0.999996543814
0.999996551932
0.999996840661
1.00000249076
1.00000684432
1.00001224086
1.00001527309
1.00001689051
1.00001471457
1.00000044457
1.00000003157
0.999999522532
0.814693929096
0.0994958928817
-1.40370331149e-23
1.00000096487
1.00000047616
0.999999174125
0.99999882492
0.999996998959
0.999994779909
0.999995791293
0.999998826534
1.00000102749
1.00000358083
1.00000647666
1.0000086747
1.0000098491
1.00000888087
1.00000010411
1.00000001151
0.999999409295
0.811141122865
0.0945909517596
-5.37661756242e-22
1.0000010922
1.00000059096
1.00000012285
0.999998519772
0.999996948484
0.999997493334
0.999998074638
0.999999138133
1.00000050743
1.00000248424
1.00000466799
1.00000650637
1.00000757596
1.00000734363
1.0000027797
1
0.9999995605
0.808506021041
0.0922169872809
-6.96445281363e-22
1.0000008337
1.00000058672
0.999999790685
0.999998752901
0.999998530846
0.999998488089
0.999998514503
0.999999127933
1.00000022566
1.00000181267
1.00000362231
1.00000522845
1.0000062534
1.00000642859
1.00000438575
1
0.999999772296
0.806923596081
0.0909804486352
-5.38624757582e-12
1.00000067898
1.00000050496
1.00000009752
0.999999603316
0.999999139398
0.999998731925
0.999998590316
0.999999115681
1.00000001833
1.0000012649
1.00000276587
1.00000420022
1.00000521803
1.00000550527
1.00000480969
1
0.999999994256
0.805134756224
0.0909902454638
1.17549435082e-39
1.00000060422
1.00000045842
1.00000016763
0.999999772561
0.999999370283
0.999999069153
0.999998966358
0.999999172842
0.999999921717
1.00000083701
1.00000203694
1.00000324217
1.00000414999
1.00000432816
1.00000433303
1
0.999999991482
0.802062386119
0.0906109131793
-9.91741749997e-65
1.00000068433
1.00000056662
1.00000035139
1.00000004478
0.99999979729
0.999999583333
0.999999475931
0.999999521846
0.999999888291
1.00000055435
1.00000135445
1.00000223763
1.00000298737
1.0000031808
1.00000347636
1.00000182019
1
0.797323760028
0.0886283697369
3.80338521311e-68
1.00000085671
1.00000079839
1.00000066313
1.00000046215
1.00000023454
1.00000002793
0.999999921259
0.999999858079
0.999999920362
1.00000015567
1.00000076768
1.00000154617
1.00000227274
1.00000255923
1.0000029406
1.00000266953
1
0.791708546058
0.0852046114673
-4.2372326878e-23
1.00000103671
1.00000104387
1.00000097796
1.00000085669
1.0000006858
1.00000048534
1.00000025279
1.00000008799
1.00000002317
0.99999984634
1.00000008103
1.00000058902
1.0000012456
1.0000015793
1.00000225192
1.00000240761
1.0000012762
0.78308167018
0.0824117747868
6.61744490042e-22
1.00000123451
1.00000128794
1.00000123872
1.00000110881
1.00000090619
1.00000063736
1.00000036362
1.00000009216
0.999999849964
0.99999970837
0.999999959815
1.0000005499
1.00000147765
1.0000023384
1.00000309254
1.00000332837
1.00000290375
0.768396219405
0.0799829059536
1.82866639346e-05
1.00000102175
1.00000110885
1.000001126
1.00000109156
1.00000099993
1.00000085646
1.00000067166
1.00000043276
1.00000024007
0.999999826953
1.00000000268
1.00000014629
1.00000059318
1.00000072519
1.00000088383
1.0000011352
1.00000118167
0.75628473857
0.0750158289157
5.48599918039e-05
1.00000103038
1.00000113584
1.00000117771
1.00000117387
1.00000110886
1.00000096919
1.00000076898
1.0000004739
1.00000013251
0.999999576833
0.999999484575
0.999999944732
1.00000032078
1.00000028122
1
1.00000028525
1.00000066997
0.749663156429
0.0684929739058
4.23880471419e-05
1.00000106107
1.00000118113
1.00000124072
1.00000125667
1.00000120484
1.0000010409
1.00000079818
1.00000048113
1.000000079
0.999999712133
0.999999145882
0.999999517902
0.999999922495
0.999999511494
0.999999186233
0.999999970835
1.0000003784
0.742561742046
0.0620787086342
1.20506916037e-05
1.00000109361
1.00000122506
1.00000129395
1.00000131892
1.00000127118
1.0000010956
1.00000083249
1.00000046963
0.999999955449
0.999999609481
0.99999894133
0.999999000089
0.999999254127
0.999998757968
0.999998886646
0.999999636609
1.00000005052
0.7313499775
0.0561556309302
0
1.00000111147
1.00000124232
1.0000013161
1.00000134523
1.00000129854
1.00000114035
1.00000086777
1.00000043888
0.999999832496
0.999999332631
0.999998467354
0.999998727016
0.999998742249
0.999998450996
0.999998700598
0.999999385409
1
0.713563515061
0.0509886075438
2.24028895155e-05
1.00000109952
1.00000122765
1.00000130941
1.00000134064
1.00000129464
1.00000115018
1.00000084858
1.00000036889
0.999999670148
0.999999041015
0.999998161419
0.999998477649
0.99999844685
0.999998268441
0.999998440417
0.999999225198
0.99999999962
0.685639777435
0.0404986923628
-2.89476143712e-23
1.00000107303
1.00000119686
1.00000128264
1.00000130762
1.0000012522
1.00000106076
1.00000076831
1.00000028032
0.99999946874
0.999998784177
0.999998173949
0.999998257238
0.999998141436
0.999997522719
0.999998407783
0.999999250343
0.999999997718
0.64776486828
0.0300091915888
-8.36961272339e-23
1.00000103323
1.00000114215
1.00000122291
1.00000122796
1.00000111088
1.00000089899
1.00000071672
1.0000001887
0.999999250749
0.99999847938
0.999997603727
0.999998113523
0.999997346299
0.999997346355
0.99999862082
0.99999923377
0.999999618051
0.604301914732
0.01942249016
-1.7284855116e-19
1.00000097517
1.0000010725
1.00000110613
1.00000107283
1.00000096
1.00000086458
1.00000075464
1.00000011548
0.999999080386
0.999998220848
0.999997079295
0.999997515976
0.999997346144
0.999997346946
0.999998688938
0.999999052391
0.999980977094
0.555275980364
0.0118960464247
-5.78860253606e-17
1.00000087365
1.00000098718
1.00000096081
1.00000097908
1.00000099155
1.00000099398
1.00000081631
1.00000008107
0.999999039721
0.999998141234
0.999997078609
0.999997637854
0.999997634266
0.999997853809
0.999997899308
0.999998622267
0.999430396525
0.50690431286
0.00697855102527
-6.26994789735e-15
1.00000071669
1.0000008496
1.00000092512
1.00000101943
1.00000111933
1.00000116816
1.00000084241
1.00000008412
0.999999097303
0.999998321398
0.999997184942
0.999998007616
0.999998007616
0.999997655083
0.999997620115
0.999999098718
0.993530860787
0.466175164813
0.00202900608396
2.0264988037e-12
1.00000069723
1.00000081778
1.00000101029
1.00000116656
1.00000130367
1.0000012337
1.00000080631
1.00000003226
0.999998961749
0.999998086224
0.999997010029
0.999998007569
0.999997729456
0.99999716623
0.999997361494
0.999999483162
0.982093723576
0.424761316099
2.07657885697e-08
2.75045181675e-12
1.00000078757
1.000000956
1.00000118587
1.00000140619
1.00000145826
1.0000012531
1.0000006938
0.999999868875
0.999998311388
0.999997059731
0.999995380517
0.999997285977
0.999996680257
0.999996496151
0.999997537348
0.999999647279
0.975390254917
0.381377629198
-8.5528470723e-50
-1.54906863848e-13
1.00000107428
1.00000126615
1.00000155354
1.00000170941
1.00000163622
1.00000122735
1.00000056991
0.999999438205
0.999997789793
0.99999510911
0.999992127887
0.999994228356
0.999992768208
0.999994537911
0.999997528284
0.999999767428
0.970119465188
0.33719359057
3.17375427222e-15
2.47790677816e-26
1.00000126856
1.00000156294
1.00000180507
1.0000020867
1.00000174302
1.00000137047
1.00000011333
0.999999414825
0.999997185394
0.999993772312
0.999991127358
0.99999112736
0.999991127357
0.999991129652
0.999999312761
0.999999884917
0.963773686811
0.292095996908
2.04523990605e-13
2.08126615278e-22
1.00000125113
1.00000157473
1.0000022457
1.00000204734
1.00000221912
1.00000100307
1.00000019744
0.999999424076
0.999996988551
0.999994651514
0.999993187333
0.999991198419
0.999991129652
0.999991767812
0.99999959233
0.999999957465
0.953344782945
0.248835036127
0
1.65154761787e-10
1.00000140925
1.00000194623
1.00000218352
1.000002601
1.00000200542
1.00000192048
1
0.99999916425
0.999997969559
0.999997552078
0.999997748175
0.999997751452
0.999997710794
0.999998534892
0.999999288121
0.999999986444
0.939957160057
0.211288338441
-5.34695569751e-12
-9.85975671218e-14
1.00000089576
1.00000109616
1.00000117563
1.00000094391
1.00000147689
1.00000002032
0.999999529698
0.999998924443
0.999998293824
0.999997794131
0.999998552907
0.999999592725
1.00000016162
1.00000044863
0.999999458937
0.999999996135
0.923144147497
0.183936730241
-2.69821409322e-09
-6.66069143413e-08
1.00000099617
1.00000113018
1.00000110016
1.00000079617
1.00000032259
0.999999884505
0.999999391046
0.999998861262
0.999998156583
0.999997448668
0.999997355376
0.999998145067
1.00000049911
1.00000134515
0.999999773587
1
0.913355212683
0.170621532084
-6.39752057939e-06
-8.37055291567e-06
1.00000090749
1.00000093495
1.00000082628
1.00000063771
1.00000030153
0.999999912707
0.99999943948
0.999998930445
0.999998428878
0.999998869953
0.99999927182
0.999999087945
1.00000146171
1.00000279062
1.00000066733
1.00000008929
0.907266102322
0.177612361967
-1.72654073532e-05
-3.94677265211e-06
1.00000065624
1.00000058629
1.00000044369
1.00000029278
1.00000006705
0.999999787219
0.999999445309
0.999999045763
0.999999380908
1.00000056522
1.00000182752
1.00000427424
1.00000534113
1.00000505035
1.00000300497
1.00000028976
0.903565462578
0.196570924014
0.000157627149951
-4.7867375465e-05
1.00000046722
1.00000034409
1.00000017077
1.00000000709
0.999999883347
0.99999965941
0.999999321704
0.999999367616
1.00000021083
1.0000010433
1.00000300999
1.00000433479
1.00000991348
1.00000679751
1.00000478119
1.00000060675
0.897628279289
0.21555563038
-9.7609818154e-10
-1.37101794564e-05
1.00000020414
1.00000009303
0.99999995848
0.999999829143
0.999999743148
0.999999605248
0.999999517143
0.999999731292
1.00001695569
1.00001282331
1.00000723321
1.00000083466
0.890190261629
0.223624852594
0.000538278430557
0.000115024062881
0.999999883652
0.999999822898
0.999999707849
0.999999621058
0.999999603449
0.999999555182
0.999999595346
0.999999950567
1.00001173058
1.00000592784
1.0000004935
1.0000001541
0.881485815379
0.230507840289
0.00205442458438
0.000578493767939
0.999999624011
0.999999609407
0.999999537435
0.999999535439
0.999999581392
0.999999649667
0.999999859121
1.00000015581
1.00001276888
1.00000552357
1.00000026726
1.00000011118
0.881480728711
0.230514152263
0.00205516052818
0.000579459241698
0.999999544745
0.999999612886
0.999999603952
0.999999630023
0.999999763663
0.999999805668
1.00000001947
0.999999987057
1.0000124146
1.00000665364
1.00000412226
1.00000042518
0.890175881644
0.223631408869
0.000539472700324
0.000114534752086
0.999999616338
0.999999783251
0.999999793776
0.999999863055
1.00000000904
0.999999977828
1.00000001016
1.00000027603
1.00000070748
1.00000159259
1.00000456771
1.00000818078
1.00001643799
1.00001167818
1.00000627035
1.00000060759
0.897616499536
0.215585138017
-1.01950547998e-08
-1.36829992487e-05
1.00000049208
1.00000075662
1.00000073504
1.0000006603
1.00000067605
1.00000069183
1.0000006861
1.00000030474
1.00000007238
1.00000133343
1.00000269757
1.00000355839
1.00000474832
1.00000240876
1.00000183032
1.00000010304
0.903560145555
0.196600593336
0.000157749494737
-4.76325622301e-05
1.00000118856
1.00000142074
1.00000133515
1.00000119619
1.00000111966
1.00000096527
1.0000006331
0.999999800865
0.999999243684
0.999999758391
1.00000046729
1.00000076558
1.00000072407
1
0.999999168351
1
0.907258535702
0.177626230179
-1.79504147762e-05
-3.92443019357e-06
1.0000017255
1.00000186205
1.00000158844
1.00000125122
1.00000103988
1.00000063981
1.00000007763
0.999999049071
0.999998274843
0.999998158481
0.999998206077
0.9999972379
0.999996403509
0.999995923899
0.999998691991
0.999999997375
0.913343413513
0.170611490833
-6.45747489289e-06
-8.41176671798e-06
1.00000175611
1.00000187264
1.000001723
1.00000133724
1.00000054204
0.99999999549
0.999999453066
0.999998829974
0.999997670602
0.999996662869
0.999996152558
0.99999372791
0.99999021561
0.999990117833
0.999999615548
0.999999970879
0.923125167267
0.183914536809
-2.75179235577e-09
-6.66812928938e-08
1.00000235804
1.00000250877
1.00000228904
1.00000176047
1.00000108228
1.00000032412
0.999999546101
0.999998504959
0.999996888724
0.999995222432
0.999994466045
0.999992380566
0.99998732159
0.999984054416
0.999993894293
0.999999899027
0.939935891249
0.211268739399
-5.48814599177e-12
-1.48443820114e-13
1.00000281278
1.00000290143
1.00000268737
1.00000224532
1.00000157526
1.00000071161
0.999999576927
0.99999806333
0.999996300045
0.999994255855
0.999992796885
0.999991077246
0.999986955549
0.999984053088
0.999991001462
0.999999781761
0.953327291653
0.248812715142
-1.91754866881e-17
-2.56339768089e-15
1.00000282265
1.00000279571
1.00000259096
1.00000220986
1.00000157062
1.00000072518
0.999999493925
0.999997828066
0.99999594888
0.999994129896
0.999993044742
0.999989783284
0.999984961913
0.999985026478
0.999992044195
0.999999591762
0.96376226197
0.292067669514
-7.24605355678e-22
-1.10322890975e-24
1.00000239222
1.00000233836
1.00000221585
1.00000192464
1.00000144378
1.00000074822
0.999999761983
0.999998352063
0.99999650465
0.999995357352
0.999994032329
0.999990424169
0.999986334268
0.999990081817
0.99999316678
0.999999356835
0.970115100021
0.337165706274
1.05606802531e-22
-1.25833887658e-23
1.00000177166
1.00000182163
1.00000187502
1.00000174604
1.00000150353
1.00000112921
1.00000050256
0.999999397596
0.999998173143
0.999997043374
0.999995501577
0.999992934602
0.999991973562
0.999991385637
0.999993543274
0.999999113087
0.975399209034
0.381349893215
-9.33808523275e-27
-1.77342807173e-13
1.00000121002
1.0000013734
1.00000161214
1.00000175912
1.00000177976
1.00000164792
1.00000124834
1.00000039904
1
0.99999897477
0.999997796717
0.999996141806
0.999994634597
0.999993771163
0.99999353778
0.999998496682
0.982088296731
0.424747008652
1.20930784473e-08
1.85921053493e-12
1.00000124653
1.00000152685
1.00000197896
1.00000242586
1.00000265671
1.00000272586
1.00000211435
1.00000099997
1.0000003752
0.999999030002
0.99999782
0.999997546096
0.999997092112
0.999995967803
0.999993909031
0.999997098439
0.993514372808
0.46617606369
0.00204814930746
1.28134472082e-12
1.00000054819
1.00000076811
1.00000107909
1.00000140362
1.0000015991
1.00000160978
1.00000124074
1.0000006157
0.999999543364
0.999997125581
0.999996185022
0.999995629267
0.999994420341
0.999995404549
0.999995062069
0.999996393639
0.999437502223
0.506906648914
0.00699091024922
-7.07545418657e-15
1.00000040791
1.00000055376
1.0000008079
1.00000109889
1.00000131839
1.00000124952
1.00000119468
1.00000091228
0.999999776313
0.999998825968
0.999996920907
0.999993639639
0.999992509164
0.999992507945
0.999996066278
0.999997751366
0.999980731507
0.555322239416
0.0119127031858
-8.19687004198e-17
1.000000207
1.00000031514
1.00000053805
1.00000083361
1.00000103751
1.00000107198
1.000001146
1.00000100072
1.0000005637
1.00000001562
0.999998953496
0.999996566005
0.999993996902
0.999992507177
0.999993918597
0.999998330269
0.99999846729
0.60441383371
0.0194286691582
-2.03302304902e-19
1.00000013062
1.00000024622
1.0000004116
1.00000060522
1.00000076685
1.0000009991
1.00000103861
1.0000008982
1.0000005992
1.00000014211
0.999999504969
0.999998349894
0.999996479308
0.999993435774
0.99999465926
0.999998425799
0.999999999652
0.648080486644
0.0300516874436
-1.29350887384e-22
1.00000013726
1.00000025504
1.00000039233
1.00000055234
1.00000072387
1.00000095823
1.00000089297
1.00000066407
1.00000034591
0.999999944864
0.999999420038
0.999998660011
0.999997759431
0.999996387973
0.999996122819
0.999998566961
0.999999999929
0.685813162615
0.0413251849593
1.06093249411e-07
1.00000017725
1.00000033614
1.00000049371
1.00000062444
1.00000073798
1.00000079175
1.00000070185
1.00000040912
1.00000002646
0.999999529142
0.999999054373
0.999998393693
0.99999748087
0.999997275277
0.999996146252
0.999999238447
1
0.713509213836
0.0532753229259
4.12297357566e-06
1.00000033142
1.00000042613
1.00000050191
1.00000056605
1.00000060778
1.00000053815
1.00000045596
1.00000025297
0.999999969022
0.999999579045
0.999999302091
0.999998743011
0.99999820714
0.99999762151
0.999997302776
0.999999906201
1.00000065644
0.731296430757
0.0568482946965
5.89727077385e-05
1.00000030408
1.00000032028
1.00000035358
1.00000038488
1.00000037372
1.00000027173
1.00000024268
1.00000019991
1.00000009531
1.00000002529
0.999999979395
0.999999800293
0.999999969757
0.999999673684
0.999999086483
1.00000107616
1.0000017576
0.741553335464
0.0607335453384
0.000174876169288
1.00000006266
1.00000006131
1.00000007407
1.00000008389
1.00000005309
1.00000001513
1.00000008828
1.00000024006
1.00000039814
1.00000063335
1.00000093703
1.00000129409
1.00000180586
1.00000184119
1.00000124278
1.00000369491
1.00000475843
0.749056332703
0.0648444204821
0.000234650197615
0.99999977131
0.999999759721
0.999999764366
0.9999997615
0.99999977552
0.999999853653
1.00000004179
1.00000042056
1.00000088655
1.0000015359
1.00000229286
1.00000326659
1.00000394701
1.00000428541
1.00000381958
1.00000400917
1.0000060534
0.757626110276
0.0725178038753
0.000124923894284
0.999999507576
0.99999946231
0.999999479968
0.999999522167
0.999999603724
0.999999770078
1.00000009627
1.00000061103
1.00000126396
1.00000207513
1.00000294572
1.00000392603
1.00000468135
1.00000448175
1.00000528564
1.00000481299
1.00000616353
0.7705767201
0.0815219132102
2.80242963634e-05
0.999999248626
0.999999248626
0.999999248671
0.99999931574
0.999999494995
0.999999822562
1.00000016613
1.00000079533
1.00000165245
1.00000266445
1.00000369373
1.00000452579
1.00000499861
1.00000548342
1.00000595387
1.00000555699
1.00000333155
0.782711165829
0.0848324545069
0
0.999999552551
0.999999562418
0.999999635363
0.999999754291
0.999999895297
1.00000005227
1.00000032883
1.00000066009
1.00000111867
1.00000159673
1.0000020577
1.00000242435
1.00000250093
1.00000170807
1.00000176675
1.00000197236
1
0.792265826382
0.0857366653023
0
0.999999626136
0.99999967793
0.999999739368
0.999999824617
0.999999950689
1.00000010949
1.00000033453
1.00000064163
1.00000100849
1.00000141528
1.0000018257
1.00000216207
1.0000022924
1.00000137456
1.00000130069
1.00000027288
1
0.798937283057
0.0899645041818
-9.10937924348e-30
0.999999784732
0.999999866022
0.999999927368
0.999999999314
1.00000007712
1.00000020287
1.00000036266
1.00000058324
1.00000082104
1.00000108084
1.00000132376
1.00000150053
1.00000145542
1.00000067643
1.00000056873
1
0.999999963239
0.804656687474
0.0930445956727
-3.30872318665e-22
0.999999997236
1.00000006965
1.00000012474
1.00000018559
1.00000024529
1.00000032153
1.00000040115
1.00000051612
1.00000061809
1.00000072677
1.00000081728
1.00000085318
1.00000065684
0.999999717856
0.999999851214
0.999999970075
0.999999762566
0.808707693083
0.0935689679602
-7.17775405751e-28
1.00000021409
1.00000029441
1.00000034946
1.00000047935
1.00000052197
1.00000055064
1.00000052431
1.0000005074
1.00000043407
1.00000035365
1.0000003296
1.00000033144
1.00000001227
0.99999878573
0.999998586735
0.999999762566
0.999998906813
0.810638218147
0.0925879675458
-1.30635993285e-39
1.00000041487
1.00000058781
1.00000094832
1.00000085754
1.00000092672
1.00000079651
1.00000073706
1.0000004555
1.00000029722
0.999999946648
1.00000025036
0.999999775135
0.999999288338
0.999997309356
0.999996765852
0.999998556896
0.999996872533
0.81081319628
0.0921266161218
-1.00870559375e-25
1.00000089717
1.0000012896
1.0000010197
1.00000143238
1.00000120319
1.00000116802
1.00000082579
1.00000061912
1.00000011332
1.00000028371
0.99999940505
0.999999661526
0.999998469148
0.999996162478
0.999995357716
0.999996449904
0.999994340732
0.810146809305
0.093374144098
0
1.00000124442
1.00000136645
1.00000164985
1.00000191931
1.00000173916
1.00000147841
1.0000012603
1.00000073766
1.00000047317
0.999999663095
1.00000042852
0.999998230628
0.999997517742
0.999995469434
0.999995375529
0.999996103561
0.999993541611
0.809853027796
0.0959150443434
-3.96477959e-25
1.00000186247
1.00000271264
1.00000196479
1.00000174797
1.00000162432
1.00000144903
1.00000122979
1.0000009046
1.00000074752
1.00000072945
1.00000069296
1.00000042638
0.99999870004
0.999997690223
0.999997577341
0.999997919822
0.999995160416
0.810604932163
0.101228721948
0
1.0000027334
1.00000341984
1.00000209508
1.00000188177
1.00000173193
1.00000154861
1.00000133115
1.00000111176
1.00000107601
1.00000162715
1.00000173526
1.00000158988
1.00000016379
0.999999033402
0.99999832518
0.999998632285
0.999995924993
0.81067616237
0.108418765816
-4.34768660875e-21
1.00000308744
1.00000395128
1.0000023083
1.00000206997
1.00000188646
1.00000166426
1.00000146601
1.00000135353
1.0000016096
1.00000243438
1.00000321073
1.00000296402
1.00000064064
0.999999631091
0.999998770992
0.999999051615
0.999995774797
0.813931580218
0.111767660361
-2.4987546793e-22
1.00000406313
1.00000274496
1.00000241635
1.00000220902
1.00000198215
1.00000174763
1.00000157412
1.00000161637
1.00000231685
1.00000461621
1.00000380623
1.00000433498
1.00000125243
0.999999966012
0.999999128966
0.999999397174
0.999995685351
0.82245326278
0.11336774855
-3.82954594811e-21
1.00000268944
1.00000259738
1.000002447
1.00000223545
1.00000198883
1.0000017504
1.00000165216
1.00000200887
1.00000495466
1.00000460193
1.0000054484
1.00000476019
1.0000016473
1
0.999999647409
0.999999814627
0.999996228986
0.834126299937
0.115535501848
-1.71014052103e-23
1.0000024703
1.00000249613
1.00000237065
1.00000215019
1.000001894
1.00000168672
1.00000174
1.00000365715
1.0000044898
1.00000652833
1.00000765253
1.00000337937
1.00000186388
1.00000000792
1
0.999999988036
0.999997000028
0.841682339192
0.118785464271
7.85965879961e-45
1.00000231052
1.00000232471
1.00000218542
1.00000195815
1.00000171597
1.0000015695
1.00000210399
1.00000365438
1.00000527749
1.0000088113
1.00000467267
1.00000344796
1.00000208676
1.00000044878
1
1
0.999997886737
0.846139777995
0.12132775623
0
1.00000208499
1.00000205394
1.00000189584
1.00000167398
1.00000146512
1.00000139489
1.00000215559
1.00000308983
1.00000550438
1.00000685135
1.00000517213
1.00000367132
1.00000236857
1.0000009584
1
1.00000000032
0.999998549692
0.845853049764
0.120339248135
-1.04611352667e-28
1.00000176599
1.000001687
1.0000015188
1.00000131632
1.00000115838
1.00000114193
1.00000160261
1.00000302535
1.00000476324
1.00000814528
1.00000714418
1.00000385829
1.00000266312
1.00000151362
1
0.999999999308
0.999998983658
0.840765433116
0.114581744143
-2.17929633896e-26
1.00000136386
1.00000124673
1.00000108044
1.00000090799
1.0000008036
1.00000083711
1.00000119053
1.00000249529
1.00000402499
1.00000510239
1.00000658593
1.00000384581
1.00000298483
1.00000210908
1
0.999999994838
0.999999314508
0.834166442763
0.106428500801
0
1.00000090933
1.00000076778
1.00000061272
1.00000047438
1.00000041378
1.00000049383
1.00000082324
1.00000195606
1.00000344737
1.00000459951
1.00000590096
1.0000037965
1.00000327299
1.0000026826
1
0.999999994363
0.999999705882
0.826398669265
0.0988830029499
0
1.0000004461
1.00000029494
1.00000015841
1.00000005327
1.00000002574
1.00000013367
1.00000046787
1.00000153158
1.00000353388
1.00000348947
1.00000568434
1.00000382185
1.00000356176
1.00000310898
1
0.99999999426
0.999999726108
0.817038200871
0.0933690485922
-5.20206523421e-22
1.00000002244
0.999999878647
0.999999765905
0.999999693812
0.999999695439
0.999999832527
1.00000018512
1.00000174418
1.0000021182
1.00000364032
1.00000445231
1.00000374749
1.00000372432
1.00000336753
1
0.999999995314
0.999999728253
0.807390287163
0.0908201511114
1.32646683029e-21
0.999999623523
0.999999531135
0.999999458175
0.999999418676
0.999999454332
0.999999633921
1.0000001448
1.00000105341
1.0000023864
1.00000396436
1.00000331357
1.00000364751
1.00000384898
1.00000341244
0.999999952807
0.999999958291
0.999999794972
0.798067002589
0.090791757482
6.35471120409e-06
0.999999385814
0.99999934061
0.999999300331
0.999999300341
0.999999354039
0.999999570836
1.00000010542
1.00000123296
1.00000158765
1.00000300216
1.00000325634
1.00000368277
1.00000384034
1.00000338591
0.999999950679
0.99999997188
0.99999996167
0.790960233701
0.0915446706933
2.17197776522e-20
0.999999678472
0.999999660955
0.999999649608
0.999999665596
0.999999731626
0.999999881429
1.00000051994
1.00000057839
1.00000129322
1.00000172493
1.00000190374
1.00000199377
1.00000198752
1.00000161197
0.999999976582
0.99999997691
0.999999975024
0.789364680226
0.0910045368812
2.30245366519e-24
)
;

boundaryField
{
    back
    {
        type            zeroGradient;
    }
    sides
    {
        type            zeroGradient;
    }
    bottom
    {
        type            zeroGradient;
    }
    front
    {
        type            zeroGradient;
    }
    atmosphere
    {
        type            inletOutlet;
        inletValue      uniform 0;
        value           nonuniform List<scalar> 
100
(
0
1.07771707648e-20
6.17840134975e-06
-1.36782586092e-21
0
0
0
0
0
0
0
0
0
0
0
0
0
0
0
0
0
0
0
0
0
1.82866639346e-05
5.48599918039e-05
4.23880471419e-05
1.20506916037e-05
0
0
0
0
0
0
0
2.0264988037e-12
2.75045181675e-12
0
0
0
0
0
0
0
0
0
0
0.000115024062881
0.000578493767939
0.000579459241698