/*--------------------------------*- C++ -*----------------------------------*\
| =========                 |                                                 |
| \\      /  F ield         | OpenFOAM: The Open Source CFD Toolbox           |
|  \\    /   O peration     | Version:  v2012                                 |
|   \\  /    A nd           | Website:  www.openfoam.com                      |
|    \\/     M anipulation  |                                                 |
\*---------------------------------------------------------------------------*/
FoamFile
{
    version     2.0;
    format      ascii;
    class       volScalarField;
    location    "2.9";
    object      p;
}
// * * * * * * * * * * * * * * * * * * * * * * * * * * * * * * * * * * * * * //

dimensions      [1 -1 -2 0 0 0 0];


internalField   nonuniform List<scalar> 
1984
(
8496.44410735
8006.98336092
7517.68960334
7028.55621096
6539.572944
6050.72662999
5562.00047478
5073.37241968
4584.81384625
4096.28833097
3607.74627127
3119.12524965
2630.38470829
2141.42620597
1652.08985394
1162.34681282
671.815093272
229.729137875
13.0867043316
-9.57509794953
8496.28589925
8006.82763733
7517.54109847
7028.41765891
6539.44710884
6050.61761615
5561.91327732
5073.31392114
4584.7932595
4096.31768415
3607.84380495
3119.31593609
2630.63685017
2141.78430802
1652.60390387
1163.02173533
672.611058997
230.753242803
13.3187577575
-9.55129946134
8495.95331911
8006.49806989
7517.22272268
7028.11755597
6539.17254267
6050.37691298
5561.71700139
5073.17490849
4584.72834281
4096.34841094
3607.99689475
3119.62497321
2631.1617693
2142.49919507
1653.5998551
1164.30557357
674.116791762
231.878073158
13.160843589
-9.55415102732
8495.43965564
8005.99064604
7516.73072169
7027.6509119
6538.74166678
6049.99399835
5561.39670116
5072.93541447
4584.59216523
4096.34485326
3608.16239423
3120.00460788
2631.81709092
2143.48265209
1655.04341998
1166.27469913
676.80379703
233.641365874
13.157374511
-9.53013198744
8494.73804833
8005.29831031
7516.05818386
7027.009822
6538.14505259
6049.45679447
5560.93696397
5072.57538296
4584.35974014
4096.27429636
3608.30021831
3120.41268558
2632.58157709
2144.76429995
1656.82922846
1168.7980919
680.410493412
236.496008097
13.6367183924
-9.5422189336
8493.83917114
8004.41063285
7515.19347613
7026.18153022
6537.3676403
6048.74730318
5560.31554774
5072.06655969
4583.99386422
4096.09076606
3608.34953268
3120.76241891
2633.31728136
2145.99103404
1658.72286876
1171.60583019
684.50570172
240.367477731
14.7662455474
-9.56465621559
8492.73165886
8003.31529586
7514.12348799
7025.15085714
6536.39198496
6047.84451626
5559.50651915
5071.37656119
4583.45411933
4095.74086893
3608.24073547
3120.96079358
2633.91611566
2147.12065875
1660.62819885
1174.35878613
688.59506855
244.607311352
16.30390843
-9.58762130595
8491.40231858
8001.99889892
7512.83340713
7023.90160489
6535.19944784
6046.72646695
5558.48348788
5070.47277473
4582.69901568
4095.1704919
3607.9014441
3120.91356404
2634.24332046
2147.93931041
1662.08669777
1176.68055424
692.219707078
248.668232625
17.9447165157
-9.605253814
8489.83777251
8000.44732317
7511.30831054
7022.41748009
6533.77162156
6045.37176369
5557.22093937
5069.32419805
4581.68986809
4094.33120747
3607.26889113
3120.53469061
2634.18013287
2148.27511925
1662.95336533
1178.31827249
694.91804319
252.24158833
19.5339455117
-9.61956005175
8488.02437526
7998.64654323
7509.53365342
7020.6824078
6532.0906913
6043.76046787
5555.69597684
5067.90401995
4580.39460587
4093.18312835
3606.29288735
3119.758775
2633.63646631
2148.0047136
1663.00713477
1178.75771538
696.117677513
254.553379552
20.8217900305
-9.63186407199
8485.94885025
7996.58336747
7507.4951621
7018.68138639
6530.14036041
6041.87470716
5553.88902912
5066.19048649
4578.78910848
4091.69932783
3604.94268524
3118.55033288
2632.56999417
2147.07082645
1662.16850056
1177.91257438
695.220370641
254.264514118
21.0661153872
-9.62735648073
8483.59861981
7994.24484028
7505.17966419
7016.40073127
6527.90640887
6039.69943299
5551.78444175
5064.1677292
4576.85764611
4089.86589884
3603.20807728
3116.90574438
2630.98842346
2145.49558009
1660.4730022
1175.8109832
692.208371068
251.042268307
19.7907949612
-9.61032593446
8480.96207367
7991.61895712
7502.57508175
7013.82812524
6525.37647372
6037.2225192
5549.3703247
5061.82509458
4574.59256277
4087.6801888
3601.09610575
3114.84914655
2628.94649906
2143.38970134
1658.13969242
1172.93374833
688.048978516
246.869412774
18.6126129712
-9.60806911133
8478.02798281
7988.69476826
7499.6706481
7010.95280369
6522.5398267
6034.43383782
5546.63802133
5059.15611072
4571.99154585
4085.14714866
3598.62411472
3112.41996947
2626.52434041
2140.91391435
1655.51168093
1170.02359077
684.60202537
244.08751492
17.8350267267
-9.60610103878
8474.78676704
7985.4631062
7496.4565475
7007.76514784
6519.3872395
6031.32484957
5543.58054767
5056.15667889
4569.05455719
4082.27394344
3595.81036693
3109.65390196
2623.78425223
2138.16832123
1652.73771685
1167.29103404
682.16931494
242.87172506
17.6281833717
-9.62298943266
8471.23032403
7981.91522166
7492.92463837
7004.25683333
6515.91085372
6027.88832806
5540.19155324
5052.82241902
4565.78109047
4079.06524593
3592.66765268
3106.57476741
2620.76251877
2135.19809348
1649.83638389
1164.51406927
679.647945698
240.873505597
16.6894456557
-9.61813715227
8467.35118449
7978.04347988
7489.06714142
7000.42074288
6512.10318408
6024.11696817
5536.46466902
5049.14850738
4562.16807228
4075.52104409
3589.20002509
3103.19056133
2617.46817962
2131.99963319
1646.75151718
1161.54442043
676.659547254
237.935219276
15.189086789
-9.59190167366
8463.14249848
7973.84168697
7484.87746986
6996.24905853
6507.95688811
6020.00389243
5532.3927692
5045.12704738
4558.20817548
4071.63500628
3585.40148235
3099.49515035
2613.89379885
2128.56260568
1643.46942729
1158.44053438
673.574967285
235.153115535
14.0324894826
-9.58025335373
8458.59942595
7969.30417949
7480.34954006
6991.73593553
6503.46511891
6015.54018856
5527.96677492
5040.74963017
4553.89234443
4067.39642237
3581.25934188
3095.47308828
2610.02099047
2124.87359208
1640.00500458
1155.29927377
670.758466024
233.236377115
13.4230884321
-9.58375018352
8453.71706482
7964.42601485
7475.47879328
6986.87596465
6498.62064807
6010.71887224
5523.17786585
5036.0050941
4549.2071142
4062.7889936
3576.75349233
3091.09895693
2605.81808134
2120.8942243
1636.32076989
1152.07447925
668.175256585
232.00163939
13.1121908599
-9.58568587769
8448.49402463
7959.20645075
7470.26203598
6981.6644962
6493.41850218
6005.53232048
5518.0157917
5030.87973049
4544.1348909
4057.79104369
3571.85640905
3086.33716633
2601.23627895
2116.55241177
1632.2989942
1148.53419326
665.368197283
231.134701311
13.0999157624
-9.58454105719
8442.93079139
7953.64371745
7464.69817406
6976.09904376
6487.8537624
5999.97295698
5512.46971237
5025.35880334
4538.65577364
4052.37622674
3566.53495446
3081.1456768
2596.22045991
2111.76969687
1627.80822048
1144.39194612
661.210765102
229.832277756
13.0251990119
-9.58213114987
8437.02646933
7947.74050986
7458.78763139
6970.1782642
6481.92265325
5994.03397409
5506.5291416
5019.42709715
4532.74900266
4046.51711823
3560.75383617
3075.48080667
2590.71848881
2106.48332804
1622.78695509
1139.65746655
656.89048848
227.496916432
12.5497835237
-9.58026406367
8430.78584516
7941.50090684
7452.53312736
6963.90250859
6475.62310625
5987.71033935
5500.18446001
5013.06972526
4526.39371707
4040.18558376
3554.47613502
3069.29649583
2584.67989353
2100.65187023
1617.24572763
1134.5261432
652.669761689
224.339826263
11.7165329943
-9.58683068681
8424.21509509
7934.93420004
7445.94001912
6957.27537128
6468.95599332
5980.9987983
5493.42806334
5006.27351119
4519.56951999
4033.35281191
3547.66345725
3062.54396179
2578.03784315
2094.18522544
1611.02614549
1128.61987006
647.162536838
220.849468799
11.0159535594
-9.62702533406
8417.3452189
7928.03627843
7439.01472541
6950.30453023
6461.92640133
5973.90086738
5486.25655229
4999.02833225
4512.25702453
4025.98955389
3540.27554497
3055.17026941
2570.73088686
2087.01234035
1604.0542809
1121.87747063
640.548766263
216.545049476
10.2955499127
-9.7623645646
8410.1744059
7920.83702955
7431.77441903
6943.00320929
6454.5445161
5966.42308756
5478.67126992
4991.32878728
4504.44317332
4018.07050315
3532.27254768
3047.12082551
2562.69270381
2079.06569892
1596.30343617
1114.4249087
633.42520453
211.603694568
8.97559341909
-9.92284683838
8402.72511718
7913.35813395
7424.24112616
6935.38971247
6446.82573205
5958.57661991
5470.67785702
4983.17367561
4496.11771866
4009.57457494
3523.61919822
3038.34109278
2553.84493328
2070.24814748
1587.67780257
1106.25820934
626.14083091
206.770561501
7.40771123822
-9.80246045587
8395.02598113
7905.62444417
7416.44038844
6927.48884879
6438.79251187
5950.38060171
5462.2909816
4974.57131737
4487.2802087
4000.48903955
3514.28506833
3028.77522037
2544.09277153
2060.40285158
1577.91713352
1096.92563515
617.82687193
201.731202147
5.96953258784
-9.67148134266
8387.11151957
7897.66953233
7408.40506297
6919.33259643
6430.47527397
5941.86309894
5453.53512106
4965.54086748
4477.94187322
3990.81426347
3504.25335908
3018.37875838
2533.34498698
2049.35579014
1566.69876021
1085.82426133
607.50080095
195.915047431
4.73578095066
-9.64091936182
8379.02324727
7889.53451854
7400.17572984
6910.96100438
6421.91323905
5933.06199694
5444.446189
4956.11517683
4468.13086408
3980.570579
3493.53184009
3007.13771829
2521.54848522
2036.97601493
1553.72655576
1072.33357285
593.978457846
188.316005892
3.27243409612
-9.60584213114
8370.80844745
7881.26661669
7391.79999038
6902.42210966
6413.15471592
5924.02595242
5435.07287024
4946.34262806
4457.89458328
3969.80353495
3482.16402087
2995.09126545
2508.73147615
2023.26655263
1538.92467077
1056.12027316
575.774042731
176.983174994
0.705821167721
-9.58174455138
8362.52050369
7872.91970824
7383.33275432
6893.77180263
6404.25702719
5914.81411026
5425.47648117
4936.2871124
4447.30028272
3958.58405336
3470.22475264
2982.32542785
2495.01331243
2008.42124549
1522.61206602
1037.87039914
554.527934015
163.120025815
-1.84422765044
-9.56781783773
8354.21904831
7864.55396249
7374.83532834
6885.0737693
6395.28679622
5905.49624954
5415.73054825
4926.02688736
4436.43205571
3947.00480071
3457.81893261
2968.96451195
2480.55901823
1992.751587
1505.26537184
1018.9913308
533.962628916
148.040886193
-4.35439996412
-9.56133777089
8345.96928903
7856.23551517
7366.37574895
6876.39873847
6386.31841278
5896.15167973
5405.92062285
4915.65476133
4425.39157375
3935.17822474
3445.07344473
2955.14686125
2465.48416947
1976.17299307
1487.22995393
998.955337624
511.380113828
132.851590132
-6.1353634173
-9.55523719786
8337.84114008
7848.03525799
7358.027417
6867.82355734
6377.43346051
5886.86803685
5396.14218815
4905.27601615
4414.29574168
3923.23484803
3432.13662918
2941.05223418
2450.04421654
1959.18610217
1468.51038482
978.192723912
488.388381631
118.822083006
-7.38516427489
-9.56382719988
8329.90764749
7840.02784882
7349.86781049
6859.43001202
6368.71962881
5877.74058155
5386.49930396
4895.0052752
4403.27176996
3911.31785939
3419.17016309
2926.86194894
2434.43780058
1941.9599698
1449.40983761
957.055038971
466.247141427
106.580706609
-8.53394274635
-9.56653597885
8322.24396234
7832.29016419
7341.97715185
6851.30345541
6360.26900708
5868.8701007
5377.10315732
4884.96564137
4392.45724339
3899.58082567
3406.3448735
2912.7627868
2418.85683908
1924.65457576
1430.16526243
936.037987411
444.557262912
95.3420585322
-9.01355797634
-9.55439388666
8314.92601249
7824.89976958
7334.43675884
6843.53094023
6352.17638825
5860.36069729
5368.0693155
4875.28660933
4381.99750879
3888.18807604
3393.84733572
2898.96619707
2403.54332265
1907.59299013
1411.16595649
914.560312868
422.615553891
84.5662560042
-9.07796436385
-9.55215616989
8308.02786535
7817.93288236
7327.32659856
6836.19907428
6344.53697163
5852.31810904
5359.51587452
4866.10041091
4372.04087579
3877.30586865
3381.86521564
2885.68292257
2388.72739691
1890.97704383
1392.47266579
893.46616389
400.236050247
73.701337432
-9.08515655468
-9.54961740817
8301.61957737
7811.46174772
7320.72440951
6829.39240602
6337.44454412
5844.84763311
5351.56113659
4857.53932796
4362.73472777
3867.10046596
3370.58481748
2873.12690629
2374.64881973
1875.06095323
1374.29701984
872.445770691
376.783377288
62.7295605683
-9.07227011985
-9.54215293737
8295.7664443
7805.55374676
7314.70242175
6823.19127556
6330.98968803
5838.05247476
5344.32226844
4849.73486794
4354.22629715
3857.73383805
3360.19232002
2861.51730138
2361.58273834
1860.20329033
1357.11716803
851.993979646
354.483888931
52.150525427
-9.05206833368
-9.53152507657
8290.52481791
7800.26815055
7309.32583205
6817.66924038
6325.25853878
5832.03269834
5337.91546327
4842.81840506
4346.65676431
3849.36381579
3350.87334661
2851.0931083
2349.85522331
1846.8737396
1341.65432763
833.375209897
334.818828609
43.0324013031
-9.01548752922
-9.52051725452
8285.94043752
7795.65422856
7304.64947962
6812.89210059
6320.32986429
5826.88666542
5332.45736908
4836.92138835
4340.16190435
3842.1291041
3342.78042669
2842.03859093
2339.72682272
1835.56059696
1328.8121118
818.204989608
320.466728719
36.5297652067
-8.95452346415
-9.5118264243
8282.04297391
7791.7438179
7300.71150417
6808.9076247
6316.27034167
5822.70390621
5328.068693
4832.18513394
4334.86690785
3836.1418422
3336.0188975
2834.44304061
2331.25468289
1826.53402008
1319.36265083
808.61537732
312.653109171
33.7052966506
-8.85082602579
-9.51239655147
8278.84687666
7788.55274177
7297.53172775
6805.7450947
6313.12611339
5819.56554537
5324.88915865
4828.79927941
4330.89061072
3831.47618139
3330.61580653
2828.13366486
2323.97715036
1819.51286163
1313.2695214
804.774395171
313.543013671
35.7169061086
-8.77816251309
-9.53389980116
8276.34830141
7786.07638741
7295.10536921
6803.40363602
6310.90995866
5817.5222551
5323.08242622
4827.10006853
4328.35070125
3828.3199355
3326.91346847
2823.59479849
2317.15062444
1813.70387335
1309.44262507
804.507998257
320.038061008
40.4429614619
-8.87669046902
-9.95031045782
8274.52649036
7784.29092489
7293.40268571
6801.84924037
6309.58513669
5816.49408482
5322.39653233
4826.57991699
4326.83105244
3826.73296777
3324.78320669
2820.39802989
2313.29593755
1809.05906269
1306.86231791
804.963025268
326.439446052
45.7017636054
-8.57153814546
-10.3946560299
8273.34402105
7783.1470456
7292.35358674
6801.00272146
6309.19327862
5817.08857802
5324.93457125
4832.98430587
2294.7699906
1801.51139111
1304.14852418
804.549607068
329.133319214
48.0169642464
-8.17749343125
-10.2239141363
8272.76102447
7782.58744952
7291.84863995
6800.5997166
6308.94489987
5817.01696249
5325.15772781
4833.99460466
2297.89309234
1799.88271621
1303.29758257
804.209656795
329.796911423
48.833487425
-8.88767840265
-11.2063753963
8272.74993628
7782.57589403
7291.83624154
6800.58623052
6308.93013817
5817.00053893
5325.14209499
4833.97667667
2297.87860533
1799.87346736
1303.29129131
804.205878206
329.795804494
48.8336629103
-8.8891230748
-11.207881394
8273.31013941
7783.11193565
7292.31621193
6800.96251051
6309.14980976
5817.04099737
5324.87792549
4832.93006305
2294.74381241
1801.48612641
1304.12978774
804.538456337
329.132042408
48.0182690234
-8.17918262879
-10.2225497323
8274.4682613
7784.23091879
7293.33966268
6801.78245259
6309.51407503
5816.41844175
5322.31665979
4826.49269907
4326.72800389
3826.63011639
3324.69144757
2820.32494002
2313.25208781
1809.02577728
1306.84084799
804.951269074
326.443856226
45.705502845
-8.57203357532
-10.3948789317
8276.26511052
7785.99144183
7295.01759663
6803.31246753
6310.8150268
5817.42334811
5322.97934133
4826.99153906
4328.23868245
3828.21118946
3326.81586067
2823.51473026
2317.08724717
1813.65824598
1309.41498775
804.494547587
320.045496799
40.4525151386
-8.87457138765
-9.9500588085
8278.73771139
7788.44221967
7297.41921958
6805.63034352
6313.00899338
5819.44592999
5324.76727777
4828.67592305
4330.76830034
3831.35944464
3330.50994464
2828.04332368
2323.9041134
1819.45869484
1313.23488206
804.7552595
313.54361895
35.7209346162
-8.77730231483
-9.53365410897
8281.90896637
7791.6091209
7300.57607478
6808.77161781
6316.1339258
5822.5669499
5327.93173046
4832.0495659
4334.73510417
3836.01706362
3335.90494544
2834.34383995
2331.17347521
1826.47277898
1319.32128944
808.588761985
312.643476496
33.7035356465
-8.85043684764
-9.51229496323
8285.78506089
7795.49896976
7304.4948478
6812.73870896
6320.17855742
5826.73648965
5332.30901973
4836.77633341
4340.02218104
3841.99727041
3342.65937421
2841.93187291
2339.63806776
1835.4925512
1328.76405258
818.172712233
320.458846196
36.5238460936
-8.95468844588
-9.51188823686
8290.35331701
7800.09744329
7309.15679895
6817.50318228
6325.09574953
5831.87349005
5337.75928172
4842.66681283
4346.51134752
3849.22682107
3350.74710413
2850.98066141
2349.75978735
1846.79834841
1341.59891158
833.333666619
334.800653338
43.0270947861
-9.01583400292
-9.52063738559
8295.58345928
7805.37172002
7314.52298404
6823.01542434
6330.81855741
5837.88602603
5344.16077118
4849.57928699
4354.07737841
3857.59354986
3360.06230418
2861.40080585
2361.48246624
1860.121866
1357.05534033
851.947345409
354.46146588
52.1444004018
-9.05246221512
-9.53167515849
8301.43040671
7811.27372521
7320.53919237
6829.21152624
6337.26897696
5844.67796274
5351.39768232
4857.38258153
4362.58587543
3866.96015662
3370.45487932
2873.01084292
2374.54999971
1874.98051985
1374.2355746
872.398306089
376.760720532
62.7219388373
-9.07266296684
-9.54229203228
8307.83699321
7817.74331167
7327.14008599
6836.01711607
6344.36075991
5852.14845706
5359.35315911
4865.94494703
4371.89325693
3877.16757885
3381.73692794
2885.56950901
2388.6318713
1890.90042935
1392.41420684
893.419889831
400.215971479
73.693931891
-9.08545376762
-9.54974421933
8314.73710211
7824.71222166
7334.25222032
6843.35091717
6352.002154
5860.19315317
5367.90892906
4875.13358357
4381.85227422
3888.05184744
3393.72193869
2898.85595427
2403.45139705
1907.52102507
1411.11474189
914.515568192
422.596587739
84.5590898962
-9.07804906624
-9.55227254638
8322.05945835
7832.10700778
7341.79679233
6851.12726036
6360.09819066
5868.70556878
5376.94542238
4884.81490574
4392.31385048
3899.44600727
3406.22090425
2912.65376171
2418.7660853
1924.58522148
1430.12433281
935.996420919
444.540402951
95.3388985561
-9.01283035646
-9.55439679864
8329.72872695
7839.85018041
7349.69263769
6859.25847832
6368.5527857
5877.57925074
5386.34397328
4894.85617188
4403.12920071
3911.18314498
3419.0456684
2926.75184015
2434.34523249
1941.8856791
1449.36787756
957.02673733
466.239444995
106.58817885
-8.53005123797
-9.56650274959
8337.6692805
7847.86459793
7357.85890308
6867.65804395
6377.27168642
5886.71056159
5395.98939324
4905.12813175
4414.15334555
3923.09936972
3432.01073141
2940.94005764
2449.95037476
1959.11458174
1468.46657478
978.172856468
488.390093046
118.829369761
-7.38129862477
-9.56371327499
8345.80424562
7856.07155422
7366.21357258
6876.23895675
6386.16147532
5895.99793268
5405.77031205
4915.50810669
4425.24927029
3935.04185635
3444.94559697
2955.03239545
2465.38887713
1976.10203539
1487.18937842
998.946162826
511.39910767
132.869561964
-6.13103125106
-9.55509349289
8354.06030324
7864.39618376
7374.6790113
6884.91932007
6395.13445124
5905.34616133
5415.58291238
4925.88196724
4436.29043857
3946.86818908
3457.68985887
2968.84807566
2480.46104904
1992.6793787
1505.22878158
1018.99807932
534.012504012
148.069484075
-4.35393739336
-9.56441533437
8362.36749401
7872.76756122
7383.18176187
6893.62227084
6404.10905472
5914.66775237
5425.33182239
4936.14436323
4447.16015574
3958.44799648
3470.09502346
2982.2062265
2494.90978498
2008.34146411
1522.57119456
1037.89320007
554.643337792
163.224170429
-1.84417587089
-9.5840334392
8370.66067084
7881.11960037
7391.65391001
6902.27713408
6413.0109483
5923.88344352
5434.93171154
4946.20303459
4457.75714131
3969.66928128
3482.03416186
2994.96788021
2508.61680584
2023.16551679
1538.8529981
1056.11910712
575.952485575
177.303874576
0.799335534752
-9.63690552847
8378.88029018
7889.39221833
7400.0341925
6910.82037079
6421.77367486
5932.92370332
5444.30941962
4955.9802174
4467.99808945
3980.4403733
3493.4036619
3007.01017124
2521.41726177
2036.83505713
1553.57714853
1072.20484884
594.005870536
188.822899366
3.52629872311
-9.78833606283
8386.97311425
7897.5316689
7408.26782692
6919.19618436
6430.34002929
5941.72953761
5453.40386823
4965.41247341
4477.8166712
3990.69196697
3504.13159421
3018.25182458
2533.1994688
2049.16747804
1566.43234218
1085.43313734
606.980829866
195.41265185
4.13423083323
-10.2608368001
8394.89201154
7905.4909109
7416.30734835
6927.35660492
6438.66169882
5950.25224142
5462.1663449
4974.451579
4487.16610548
4000.38009011
3514.177977
3028.66136265
2543.95157928
2060.19398201
1577.5644272
1096.27702041
616.593161298
199.824045762
4.46107612548
-11.0068984099
8402.59567648
7913.22896788
7424.11224437
6935.26155391
6446.6992997
5958.45361203
5470.56047651
4983.06422823
4496.01816078
4009.48494544
3523.53741762
3038.2592428
2553.74337278
2070.08624802
1587.37347013
1105.63182857
624.766333235
204.040524774
5.21147450751
-11.2854047472
8410.049365
7920.71206151
7431.64950494
6942.8789309
6454.42227917
5966.30538013
5478.56137468
4991.23050816
4504.36024168
4018.0048548
3532.22544232
3047.08936117
2562.66715159
2079.02621835
1596.21545137
1114.23065852
633.006814707
210.204979247
7.62192978588
-10.6697101122
8417.22424947
7927.91515099
7438.89359565
6950.18414644
6461.80847149
5973.78859791
5486.15433552
4998.94139668
4512.19109551
4025.94910737
3540.2660298
3055.19606737
2570.79585384
2087.12387124
1604.23590433
1122.20511139
641.260098427
217.274515915
10.441681524
-9.93632965317
8424.09853444
7934.81768397
7445.8232792
6957.15910783
6468.84224313
5980.89116345
5493.3318118
5006.19496992
4519.51710043
4033.33363118
3547.68714247
3062.62118733
2578.18239924
2094.41999177
1611.39588336
1129.22354393
648.227928245
221.99744038
11.5845477433
-9.63731173217
8430.67292022
7941.38810264
7452.42034216
6963.79062322
6475.51435231
5987.60852842
5500.0950692
5012.99977066
4526.35166714
4040.18089892
3554.52045324
3069.40487183
2584.8707992
2100.95310185
1617.6934146
1135.15701508
653.468942483
224.803152873
11.894806565
-9.60600163127
8436.91748633
7947.63150373
7458.67858537
6970.0700395
6481.81746583
5993.93558581
5506.44275689
5019.3596509
4532.70905822
4046.51499195
3560.80235726
3075.59660818
2590.92389318
2106.80871143
1623.26690841
1140.30368707
657.692228554
228.270599247
12.8704708095
-9.59514407064
8442.82584299
7953.53856496
7464.59258058
6975.99371747
6487.75056449
5999.87509853
5512.38185541
5025.28707425
4538.6079301
4052.36202431
3566.56695463
3081.24093084
2596.40359935
2112.07632578
1628.28527778
1145.08529039
662.302826735
231.234835524
13.625814695
-9.59546834959
8448.39319663
7959.10509548
7470.15962696
6981.56126211
6493.31572788
6005.43232401
5517.92205193
5030.79691676
4544.06897599
4057.74959237
3571.84971728
3086.38044434
2601.35327268
2116.78360127
1632.71455131
1149.26254376
666.703953003
232.833063177
13.7107508025
-9.59415882784
8453.6206872
7964.3286956
7475.37943857
6986.7743943
6498.5171779
6010.61463636
5523.07469979
5035.90548433
4549.1143217
4062.70716891
3576.68827268
3091.05914777
2605.81916197
2120.96693072
1636.52686737
1152.5317295
669.188361049
233.278280274
13.4817169611
-9.59033926399
8458.50832656
7969.211867
7480.25449294
6991.63691131
6503.36074227
6015.43067198
5527.85210793
5040.62981999
4553.76737075
4067.265622
3581.12185929
3095.32680222
2609.86585629
2124.71423342
1639.861826
1155.20457959
670.868729444
233.496417655
13.3920728703
-9.58703794649
8463.05925533
7973.75656089
7484.7881534
6996.15384957
6507.85324171
6019.88982709
5532.26683835
5044.98705888
4558.05048724
4071.45413237
3585.18772436
3099.2356061
2613.56729591
2128.13949418
1642.90692855
1157.65488215
672.511323826
234.175526381
13.6995424788
-9.58464566099
8467.2767823
7977.96656744
7488.98509197
7000.33089084
6512.0021529
6024.00174601
5536.33172357
5048.99271529
4561.98323852
4075.29666352
3588.92116572
3102.83160688
2616.9907064
2131.34471329
1645.82364766
1160.15541018
674.474124566
235.534820041
14.3404432362
-9.58608645134
8471.16593317
7981.8481293
7492.85099826
7004.17376538
6515.81498093
6027.77570983
5540.0572226
5052.65958489
4565.5805533
4078.81318041
3592.34377535
3106.14761291
2620.18266603
2134.39429418
1648.69991025
1162.84758987
677.014618513
237.905950558
15.5685647239
-9.60402940737
8474.7335255
7985.40647792
7496.39302515
7007.69198908
6519.30088032
6031.22069429
5543.45267969
5055.99734776
4568.8532501
4082.0152443
3595.47116526
3109.20094895
2623.16851143
2137.32323968
1651.5745267
1165.71869777
679.960728016
240.967466484
17.2051027909
-9.62361581031
8477.98837215
7988.6512822
7499.62063276
7010.89362352
6522.4678928
6034.34455305
5546.52545114
5059.01234172
4571.80609004
4084.90473424
3598.30264074
3111.98816854
2625.93913688
2140.12418886
1654.46788387
1168.76049444
683.223325816
243.639772586
18.1034211421
-9.61383697499
8480.93859591
7991.5917826
7502.54225181
7013.78716744
6525.32414591
6037.15469823
5549.28165979
5061.70863586
4574.43898767
4087.47591116
3600.82136383
3114.47863422
2628.44578604
2142.72177173
1657.27482003
1171.90302392
686.970009018
246.335232937
18.5536985369
-9.60271629327
8483.59379592
7994.23707119
7505.16729443
7016.38176279
6527.87828692
6039.65889406
5551.72732425
5064.08867494
4576.7493823
4089.71665727
3603.0040065
3116.62726808
2630.61082674
2144.98831064
1659.79022403
1174.88212955
690.879819877
249.460149556
19.0394511019
-9.60546626962
8485.96508947
7996.59737415
7507.50582527
7018.68736333
6530.1399641
6041.86582075
5553.86903518
5066.15593746
4578.73444456
4091.61770711
3604.8246305
3118.38479335
2632.34528526
2146.7704942
1661.75528411
1177.26309821
694.059302567
252.239107866
19.730644584
-9.6281055334
8488.06321797
7998.68393981
7509.56904518
7020.71523114
6532.12020479
6043.78578813
5555.71603644
5067.91717183
4580.39816069
4093.17388483
3606.26632082
3119.71463324
2633.57630445
2147.93566164
1662.9345015
1178.6524156
695.899415747
253.961625368
20.3135607098
-9.63591504937
8489.8998892
8000.50875775
7511.36919131
7022.47794496
6533.83183486
6045.43197786
5557.28148534
5069.38511083
4581.75125602
4094.39262564
3607.33188762
3120.60598285
2634.27288308
2148.41557194
1663.19037479
1178.74920736
695.686449396
253.363365247
20.08543468
-9.63046161818
8491.48756091
8002.08422576
7512.9195551
7023.98939989
6535.28984862
6046.82064991
5558.58297093
5070.57929607
4582.81443311
4095.29771205
3608.04453193
3121.08350999
2634.46065992
2148.23528029
1662.51780086
1177.31693036
693.391746109
250.313701047
18.7683540233
-9.61141998653
8492.83907157
8003.42353655
7514.23381423
7025.2646672
6536.51090139
6047.97048306
5559.64195606
5071.52435012
4583.61731952
4095.92385513
3608.45011014
3121.20827844
2634.22278081
2147.51470888
1661.13979189
1175.13796061
689.763398644
245.949748476
16.8739594052
-9.58739930977
8493.96707623
8004.5400407
7515.3260763
7026.31917976
6537.51248705
6048.90186706
5560.48285323
5072.25013235
4584.19754948
4096.31957845
3608.61039923
3121.0662516
2633.68348719
2146.44824081
1659.32553474
1172.37767573
685.51163179
241.323982301
15.1208072395
-9.56369112926
8494.88408388
8005.4464453
7516.21043352
7027.16838581
6538.31244751
6049.63593409
5561.13125025
5072.78871477
4584.59616512
4096.53841894
3608.59845214
3120.75381767
2632.97636815
2145.21250112
1657.40520615
1169.49684181
681.232592713
237.174996966
13.8680149836
-9.53916947327
8495.6008782
8006.15444494
7516.8993532
7027.82682426
6538.92762206
6050.19315561
5561.61268172
5073.17205362
4584.85330307
4096.63452619
3608.48590773
3120.37067723
2632.23962862
2143.98320416
1655.59496753
1166.89494552
677.480390378
234.153947817
13.3218068176
-9.52637229707
8496.12627009
8006.6739373
7517.4039302
7028.30673598
6539.37261243
6050.5911544
5561.94894045
5073.42824165
4585.00646292
4096.6545734
3608.33537438
3119.9995781
2631.56791535
2142.96767572
1654.11192417
1164.85672652
674.692199728
232.276013112
13.2755088592
-9.55340950353
8496.46665568
8007.01151922
7517.73064857
7028.61562748
6539.65650898
6050.84175655
5562.15560261
5073.57772286
4585.08168049
4096.63395534
3608.19160995
3119.70087383
2631.06202272
2142.23736739
1653.08084216
1163.51637416
673.117759758
231.041203887
13.3953846394
-9.55052937466
8496.62850235
8007.1709229
7517.88297947
7028.75824877
6539.78674502
6050.95549278
5562.24773508
5073.64121849
4585.10737215
4096.60867208
3608.09622287
3119.50604662
2630.80289156
2141.8672269
1652.54159725
1162.78944489
672.222691914
229.988404248
13.1406179819
-9.57406903753
)
;

boundaryField
{
    back
    {
        type            calculated;
        value           nonuniform List<scalar> 
1984
(
8496.44410735
8006.98336092
7517.68960334
7028.55621096
6539.572944
6050.72662999
5562.00047478
5073.37241968
4584.81384625
4096.28833097
3607.74627127
3119.12524965
2630.38470829
2141.42620597
1652.08985394
1162.34681282
671.815093272
229.729137875
13.0867043316
-9.57509794953
8496.28589925
8006.82763733
7517.54109847
7028.41765891
6539.44710884
6050.61761615
5561.91327732
5073.31392114
4584.7932595
4096.31768415
3607.84380495
3119.31593609
2630.63685017
2141.78430802
1652.60390387
1163.02173533
672.611058997
230.753242803
13.3187577575
-9.55129946134
8495.95331911
8006.49806989
7517.22272268
7028.11755597
6539.17254267
6050.37691298
5561.71700139
5073.17490849
4584.72834281
4096.34841094
3607.99689475
3119.62497321
2631.1617693
2142.49919507
1653.5998551
1164.30557357
674.116791762
231.878073158
13.160843589
-9.55415102732
8495.43965564
8005.99064604
7516.73072169
7027.6509119
6538.74166678
6049.99399835
5561.39670116
5072.93541447
4584.59216523
4096.34485326
3608.16239423
3120.00460788
2631.81709092
2143.48265209
1655.04341998
1166.27469913
676.80379703
233.641365874
13.157374511
-9.53013198744
8494.73804833
8005.29831031
7516.05818386
7027.009822
6538.14505259
6049.45679447
5560.93696397
5072.57538296
4584.35974014
4096.27429636
3608.30021831
3120.41268558
2632.58157709
2144.76429995
1656.82922846
1168.7980919