/*--------------------------------*- C++ -*----------------------------------*\
| =========                 |                                                 |
| \\      /  F ield         | OpenFOAM: The Open Source CFD Toolbox           |
|  \\    /   O peration     | Version:  v2012                                 |
|   \\  /    A nd           | Website:  www.openfoam.com                      |
|    \\/     M anipulation  |                                                 |
\*---------------------------------------------------------------------------*/
FoamFile
{
    version     2.0;
    format      ascii;
    class       surfaceVectorField;
    location    "5.1";
    object      ddtCorrDdt0(Uf);
}
// * * * * * * * * * * * * * * * * * * * * * * * * * * * * * * * * * * * * * //

dimensions      [0 1 -2 0 0 0 0];


internalField   nonuniform List<vector> 
306
(
(0.00402264241607 -0.0452333488358 -2.95535927348e-22)
(0.0063596531202 -0.0419939744707 1.0023139959e-22)
(0.00444376118316 -0.0522211292235 -4.00769253571e-22)
(0.00696413869824 -0.0486897842214 -3.88142706107e-22)
(0.00490505232978 -0.0598804335413 -3.05869532018e-22)
(0.00763975959331 -0.0560206876078 -2.6292861362e-22)
(0.00533176368887 -0.0680488501466 -6.48762832074e-22)
(0.00815422450285 -0.064141968616 -4.43489371679e-22)
(0.00538611683862 -0.0763081756604 -9.73575801289e-22)
(0.00825257602415 -0.0730008014861 -1.06271282679e-21)
(0.00414714910259 -0.0834813268281 -1.30932059023e-22)
(0.00717424107431 -0.0798044556118 -1.64946076384e-21)
(-0.00311742270031 -0.0871706957085 1.51086823508e-20)
(0.00369549258725 -0.0885753364019 -1.04967182997e-21)
(-0.0186856865992 -0.0764687718033 6.53067027794e-20)
(-0.0106966625724 -0.111705116332 1.26965578423e-20)
(-0.0131527968568 -0.0340661894699 6.09662541896e-20)
(-0.0424006467298 -0.0881737365823 4.45210814998e-20)
(0.16702059593 0.0113025448231 1.06015728661e-19)
(-0.0453675391761 -0.127149719199 -3.432096315e-20)
(0.288734242 -0.20684898376 -7.90595843691e-20)
(0.217895255076 -0.224377936362 1.55187248469e-19)
(0.201384594576 -0.0567837317153 -3.75101124162e-20)
(0.00995118512822 -0.0454351180626 7.62462083132e-24)
(0.012768506848 -0.0414736530176 1.15701332167e-22)
(0.0109015465384 -0.0525408742437 -2.50302066156e-22)
(0.0140372103469 -0.0481075911301 -1.19503006106e-22)
(0.0118515600089 -0.0604082547413 -4.00548453281e-22)
(0.0154839918704 -0.0554568502991 -1.6117325785e-22)
(0.012541502731 -0.069215603805 -8.5743936639e-22)
(0.0169464385882 -0.0638254618811 -5.39486087311e-22)
(0.0124497327767 -0.0790476038411 -1.73859778934e-21)
(0.0180770135324 -0.0736087189808 -1.12023181606e-21)
(0.0112163509713 -0.090088035255 -2.56820053478e-21)
(0.0182139860706 -0.0829036655798 -1.55853745672e-21)
(0.00471294665837 -0.103998401432 -3.46179633851e-21)
(0.0176086613124 -0.0966298800773 -6.52922420072e-21)
(-0.0160858421106 -0.123084991399 -8.08906343733e-21)
(0.00839141619992 -0.135415041387 -4.27055764031e-21)
(-0.0387962806647 -0.149976756569 -5.07661358398e-20)
(-0.0155105690585 -0.133663391339 -1.88924714383e-20)
(0.0130206881181 -0.18653904339 1.48505566575e-20)
(-0.00881096934621 -0.214476503006 -1.36756981246e-19)
(0.0775070739216 -0.0543022838294 1.96736720421e-19)
(0.0858847213381 -0.315786399152 1.25442689055e-19)
(0.0306061067816 0.0707108571674 3.47841355532e-19)
(0.0166625778623 -0.0441344894628 -1.14262947706e-23)
(0.0184502319967 -0.0510511364352 -3.03741978004e-23)
(0.0209200307301 -0.0463415424056 -9.08826310983e-23)
(0.0205047658834 -0.058862093221 -3.0011089188e-22)
(0.0232660375414 -0.053436033854 8.51267282378e-24)
(0.0226770501858 -0.0679552751942 -8.02278536984e-22)
(0.0260194743438 -0.0616864889032 -5.34147925776e-22)
(0.0246607743026 -0.0789987683033 -9.40171483441e-22)
(0.0291081008112 -0.0717040925869 -6.41890925357e-22)
(0.0267363109315 -0.093226258667 -5.51956112265e-21)
(0.0324350220819 -0.0824747807459 -6.27356589492e-22)
(0.0254350875556 -0.113033101761 -7.33798550251e-21)
(0.0374124275759 -0.0986137906608 -6.67048405434e-21)
(0.0119127252438 -0.141391564167 -1.50739656413e-20)
(0.0367464493954 -0.140520170621 -1.01253801297e-20)
(0.00569569814715 -0.17408918777 -1.04883316845e-19)
(0.0171832620416 -0.143845707571 -2.74633456501e-20)
(0.0204450964156 -0.205274638588 -2.61648488484e-20)
(0.0223686616604 -0.218915731872 -1.39174395425e-19)
(0.0317499154826 -0.0232243463058 2.76547324166e-19)
(-0.0959705328199 -0.305178568224 -1.12780137923e-20)
(0.0256832920326 -0.0122937297419 1.77673215272e-19)
(0.0256387532401 -0.0486732548025 -5.19957604741e-23)
(0.0288204710064 -0.0560895967735 -2.25524361073e-22)
(0.0306468017337 -0.0503038056307 -5.75051817342e-24)
(0.0327043049812 -0.0648833374262 -3.7376031415e-22)
(0.034786818303 -0.0578663433368 -4.8548609876e-22)
(0.0374188759475 -0.0758715055389 -3.29076031408e-22)
(0.0400770331958 -0.0670850136296 -4.73841909098e-22)
(0.044187961981 -0.0904608920059 -1.77827952118e-21)
(0.0470106658811 -0.0775175224732 -1.55647038674e-22)
(0.0508236414405 -0.110883206793 -9.4578786815e-21)
(0.057824369041 -0.0924387665334 -1.55879803637e-21)
(0.0457744067683 -0.139499481116 -2.25147601384e-20)
(0.0653542722081 -0.128875863187 -5.61112740091e-21)
(0.0442091533469 -0.174117146709 -6.1754424231e-20)
(0.05179558581 -0.135689783953 -1.46421592394e-20)
(-0.0325960046116 -0.214756833807 -1.24287560369e-19)
(0.0630054846634 -0.192661202188 -5.75095224099e-20)
(-0.0686897912669 -0.187801705473 -1.10152122686e-19)
(-0.123049028007 -0.270434837422 -1.22087493941e-19)
(0.00141019515842 -0.249357353204 -3.86594157954e-20)
(0.0364005270669 -0.051873126147 -2.6571225586e-22)
(0.0371169099319 -0.0460700846302 -7.53638992078e-23)
(0.0419361231915 -0.0595050172831 -5.85567693708e-22)
(0.0423866468703 -0.0523231887506 -3.55339691223e-22)
(0.0493463399769 -0.0688649008477 -3.00412916365e-22)
(0.0494113315288 -0.0597054760767 -8.62241025366e-22)
(0.0602831140475 -0.0811390650547 6.38344461359e-23)
(0.0592641951788 -0.0680497849043 -1.46272820656e-22)
(0.072930237726 -0.0972673882186 2.28795324423e-21)
(0.0739362371292 -0.0786002523765 -6.03475922158e-22)
(0.0745986598808 -0.119476544498 2.26147349817e-21)
(0.0875509735117 -0.103658731697 1.06933396019e-20)
(0.080826561532 -0.152288570939 -1.03972574182e-20)
(0.0846009692737 -0.114196524922 2.54399851344e-20)
(0.0196888070871 -0.208272238969 -5.53094559814e-20)
(0.118986590157 -0.153601535071 -1.02490016594e-20)
(-0.0389490961286 -0.370246279686 -5.059478705e-20)
(0.0387678578843 -0.231321249986 -1.65454125559e-19)
(-0.0493598205233 -0.326668004437 -1.15443732772e-19)
(0.042638119549 -0.0464128040045 -1.6499133457e-22)
(0.0422732468932 -0.0411058154534 -8.44568019737e-23)
(0.0492313629191 -0.0521625557145 -6.32013022881e-22)
(0.048102150903 -0.0456801573192 -3.01695227992e-22)
(0.0583550825901 -0.0587402908397 -7.08100929657e-22)
(0.0559600023977 -0.0505403228104 -1.00474563175e-21)
(0.0716009474759 -0.0663489197464 -8.1358318895e-22)
(0.0668482850597 -0.0555183965919 -8.74981132078e-22)
(0.0882499832621 -0.0754882142054 7.80191043549e-21)
(0.0830556069544 -0.0603049359803 -4.76812270396e-21)
(0.0996579853733 -0.0901069522065 3.38718512381e-20)
(0.102155114871 -0.0715626377671 1.41923401573e-20)
(0.121586790665 -0.122423926186 2.55882408932e-20)
(0.116910570353 -0.0794728498158 4.09941861413e-20)
(0.10822335229 -0.171381077021 -1.20393671237e-19)
(0.167940604537 -0.105642231025 2.91038102911e-20)
(0.0242086447062 -0.253791696436 -2.30303071281e-19)
(0.121236848808 -0.160654301277 -1.81681261538e-19)
(-0.0279259444995 -0.225961587521 -1.85005728527e-19)
(0.0471467647326 -0.0404352690427 -2.21160695396e-22)
(0.0459576922461 -0.0359699146367 -1.116490495e-22)
(0.053912574263 -0.0440222087421 -6.74427836864e-22)
(0.0516559366497 -0.03885689052 -2.40727357439e-22)
(0.0630809708979 -0.0472938693062 -1.17162583417e-21)
(0.059202592751 -0.0412397641728 -8.3960516465e-22)
(0.0762544589507 -0.049779799828 -4.82952064709e-21)
(0.0693092184289 -0.0425266408349 -9.01226769284e-22)
(0.0941922130676 -0.0511349030715 1.62230701781e-21)
(0.0843903600714 -0.0420675148503 -8.1261774808e-21)
(0.115696584726 -0.0544989158418 2.13146750605e-20)
(0.105504848107 -0.0418217609945 2.37772342802e-21)
(0.15606955743 -0.069514680634 4.45097555393e-20)
(0.131919865582 -0.0348541415753 2.6988637066e-20)
(0.168263962299 -0.100908260685 -3.21837800105e-20)
(0.199332500895 -0.0481092153806 4.45977226683e-20)
(0.0682693164764 -0.138847208304 -1.36383918785e-19)
(0.159136045932 -0.058337381597 -2.8615768492e-20)
(0.0119745173573 -0.0931604872209 -4.66949337572e-20)
(0.0499322218094 -0.0346584077274 -1.31215711543e-22)
(0.0483079188252 -0.0311739613579 -1.38186121903e-22)
(0.0561161546542 -0.0363651070851 -4.05904685226e-22)
(0.0533351409904 -0.0326379677821 -1.80528436242e-22)
(0.0641341635969 -0.036945532486 -5.6920609976e-22)
(0.0597582803234 -0.0331109058827 -5.77384399639e-22)
(0.0753325668793 -0.0356015846344 -4.197883603e-21)
(0.0679437124999 -0.0316567424473 -5.78651161933e-22)
(0.0914151327565 -0.0307575339903 -7.37076107059e-21)
(0.0795289729569 -0.0274346761043 -4.53337956713e-21)
(0.113927428917 -0.0214637649965 8.05168543352e-21)
(0.0961996847816 -0.0218605619794 -9.37865875586e-21)
(0.1651318906 -0.00655795854328 2.7076604195e-20)
(0.117009308579 -0.000238462245688 1.29688836211e-20)
(0.193843513491 0.00218735836497 4.81657341868e-20)
(0.190586850718 -0.00668988448775 1.48253846852e-20)
(0.10513023559 0.00227933142956 6.10732165355e-20)
(0.158991711376 0.0335059515903 5.10384884586e-20)
(0.0352233451392 0.0301608857063 2.45619668074e-20)
(0.051325262168 -0.0296053919935 -1.87498846601e-22)
(0.0496098679323 -0.0270667462225 -1.17067335733e-22)
(0.0564297034855 -0.0299480694217 -3.52008150655e-22)
(0.0536584118522 -0.0275170576371 -1.52519057981e-22)
(0.0627649176628 -0.028804535283 -5.86829461812e-22)
(0.0585969722111 -0.0267063280376 -3.83848731718e-22)
(0.0710729623359 -0.0254397370361 -9.14147126061e-22)
(0.0645635754627 -0.0237690842687 -5.8823464831e-22)
(0.0824812080762 -0.0184410959521 -6.5412772524e-21)
(0.0725185195323 -0.0175098312323 -9.62432740591e-22)
(0.096358717504 -0.00340033714698 -4.46146056824e-21)
(0.0811517045034 -0.0103074625063 -8.50027921902e-21)
(0.141101223182 0.0225714080384 7.17664111336e-22)
(0.0910349304042 0.016193994483 4.20917349579e-21)
(0.168499975563 0.0541829446336 1.7698138957e-20)
(0.158975850753 0.00986018596792 -2.77874752185e-21)
(0.0956951877953 0.0653092727691 1.45272387305e-20)
(0.147784533129 0.0855151740397 5.20911093503e-20)
(0.0109093691506 0.148114285005 3.18314976145e-20)
(0.0517470640261 -0.0255302215872 -8.20875471135e-23)
(0.0502068267623 -0.0238534543179 -7.50690270427e-23)
(0.0555541901048 -0.0250250266145 -1.84359639044e-22)
(0.0531443975404 -0.0237120028601 -9.42417432892e-23)
(0.0600158799918 -0.0228824043073 -3.85253918216e-22)
(0.0564458467895 -0.0222247402311 -2.7413534433e-22)
(0.0654422362135 -0.0184431220819 -6.3652026284e-22)
(0.0601170002671 -0.0186997918794 -5.74499511705e-22)
(0.0708047233887 -0.0103929125455 -2.92143470721e-21)
(0.0644631768057 -0.011686165447 5.28506826707e-22)
(0.0752605033183 0.00523602064602 1.70354845012e-22)
(0.065520290039 -0.00397690931749 -4.88534523525e-21)
(0.106204084293 0.0332251286386 7.12761862605e-22)
(0.0630454093752 0.0223431564913 3.7816833348e-22)
(0.124558686291 0.0800016991989 3.16142228715e-20)
(0.11219977202 0.0106193422123 -3.62014077906e-21)
(0.0536383293668 0.161217308191 6.93953682344e-20)
(0.0665260453238 0.104003269444 4.23834435214e-20)
(-0.0529500603258 0.279634880834 3.30040755381e-20)
(0.0516126853134 -0.0226011089861 -8.72232232184e-23)
(0.0504377768364 -0.0216012826215 -9.95977227561e-23)
(0.0540679699563 -0.0217199204105 -1.84017448575e-22)
(0.0522641260296 -0.0212700617905 -5.98146838169e-23)
(0.0566256720293 -0.0192567667499 -4.63380937819e-22)
(0.0539828849011 -0.0197043672847 -2.7033546389e-22)
(0.0592523867841 -0.0145627212839 5.90527577842e-22)
(0.0554233750409 -0.0164456340529 -7.08947193109e-22)
(0.0593854666569 -0.00644608884036 -1.43540370133e-21)
(0.0563476807353 -0.00992473552902 9.89317838367e-23)
(0.0542826088078 0.00809251242387 -4.67753174678e-21)
(0.0509835821221 -0.00373807604196 -1.63288742643e-22)
(0.0683236683638 0.0326338984814 -3.95473430818e-21)
(0.0385053206821 0.0173723951994 -1.15987053938e-21)
(0.0289629776583 0.0788014259719 7.14907987092e-21)
(0.0660322373982 0.00242715855194 -1.41044497324e-21)
(-0.0502482976516 0.252828467589 5.99215082519e-21)
(-0.107440418066 0.092586887123 1.67256644082e-20)
(-0.102118621912 0.332341152761 1.21122948686e-20)
(0.051287890817 -0.0207667877533 -7.21891833545e-23)
(0.0505988814128 -0.0202305813656 -7.75119503138e-23)
(0.0525156118368 -0.0199620378927 -1.46132699131e-22)
(0.0514701103811 -0.0200611117001 4.49344565132e-23)
(0.0533674334897 -0.0178670163523 -5.1590171918e-22)
(0.0518962800576 -0.0189226152326 -1.96424087798e-22)
(0.0536118985941 -0.0140082298427 -1.20054298711e-21)
(0.0515717739755 -0.0165819813131 -5.27840223389e-22)
(0.0500354551453 -0.00777916533834 1.37104674252e-21)
(0.050124756304 -0.0118212894837 -1.81922517694e-21)
(0.0385424507979 0.00140028586198 3.35437246476e-21)
(0.0418093152922 -0.00832530338414 9.20851640389e-22)
(0.0389006096512 0.0160594036554 1.38441879557e-21)
(0.0238484545188 0.00315794390164 -1.35243349837e-22)
(-0.081418807124 0.0508096382894 8.16613956401e-21)
(0.0312819459469 -0.00846366455612 -9.49804759049e-22)
(-0.167972276862 0.243378147888 2.28458084516e-20)
(-0.299916825809 0.0525090140713 5.36647437811e-21)
(-0.136687440071 0.236952426597 1.66739010295e-20)
(0.0511250460276 -0.0198855203667 3.96116895539e-23)
(0.0509661341988 -0.0195958621353 -7.41871894835e-23)
(0.0513725766332 -0.0195042191759 -5.35693215391e-24)
(0.0511063446337 -0.0198331058366 5.30709160386e-23)
(0.0509381576294 -0.018208854896 -2.08362592008e-22)
(0.0506148846666 -0.0194172291773 -2.15357975642e-22)
(0.0495183582064 -0.0157935372658 -1.14652241322e-21)
(0.0491678521934 -0.0183275858705 -5.29050081477e-22)
(0.0444694962429 -0.0121110021382 -2.26942027908e-21)
(0.0464512881591 -0.0158929559028 -9.01335848642e-22)
(0.0317491219382 -0.00851434084532 -2.56876417421e-21)
(0.0382192758894 -0.0151438206283 -4.92241933161e-21)
(0.0241520934095 -0.00661661263942 -2.46946690446e-21)
(0.0219530374292 -0.0101577534718 -3.13981282675e-21)
(-0.162421928256 0.00421212549442 -3.74946994495e-21)
(0.0204536010966 -0.0171941577783 -5.33620838059e-21)
(-0.258414830808 0.100697872497 -8.05433043944e-22)
(-0.396363113153 0.00407856627671 -7.5532399309e-21)
(-0.175492103125 0.0613243500106 -1.99967173646e-21)
(0.051366184692 -0.0197270767587 -6.07279629988e-23)
(0.051693641715 -0.0195148290952 -1.18901753314e-22)
(0.0509491764733 -0.019972437847 -1.56930127449e-22)
(0.0513808046559 -0.0202885510527 1.63617946314e-23)
(0.0497178635717 -0.0196919231763 -5.36045465111e-22)
(0.0503558482195 -0.0207068290103 -2.50996434068e-22)
(0.04740379192 -0.0188884039973 -2.838635169e-22)
(0.0483844146043 -0.0209019986416 -4.42924521548e-22)
(0.0422453730716 -0.0176636657084 -3.55433490117e-21)
(0.0452403580411 -0.0206541001676 3.26458813856e-22)
(0.0318651599217 -0.017761581915 -5.49346798414e-21)
(0.0383303107458 -0.022072192645 -5.02831227256e-21)
(0.0247026203939 -0.0229516200712 -6.00655430289e-21)
(0.0271474947714 -0.0190757612929 -3.79151633738e-21)
(-0.187912724909 -0.0309096238075 -9.13997836654e-21)
(0.0284126482829 -0.0201101639901 -4.1231301347e-21)
(-0.297854316091 -0.0267050852962 -8.74747862341e-21)
(-0.400561812303 -0.0275558562189 -2.01980063629e-20)
(-0.197415004111 -0.0698310806237 -1.67823455624e-20)
(0.0521299493562 -0.0201038160013 -4.18119956837e-23)
(0.0529079111524 -0.0197813735508 -8.33264003622e-23)
(0.0513644767052 -0.0210249035326 -7.77045119873e-23)
(0.0523370905003 -0.0211093230317 3.4079441775e-25)
(0.0497930523452 -0.0217505005632 -1.57875490505e-22)
(0.0511190116356 -0.0223483969344 -1.3195420937e-22)
(0.0472400338687 -0.0223932554497 1.67397809208e-22)
(0.049050429237 -0.0236818487822 8.52153247555e-23)
(0.0426288358553 -0.0231710053429 -1.14751855753e-21)
(0.0460481587265 -0.0250763669976 1.50143419604e-21)
(0.0349731662087 -0.0254424031242 -3.32636062579e-21)
(0.0406150082603 -0.0279154899133 -1.13192942712e-22)
(0.0322927878331 -0.0313561813157 -1.9080921692e-21)
(0.0330685911102 -0.0253800122337 -1.03833752048e-21)
(-0.174287226068 -0.0419552679619 -1.51811581311e-20)
(0.039012976341 -0.0212395979023 2.3532401399e-21)
(-0.295424747848 -0.0888460337155 -2.82328733019e-20)
(-0.353633376236 -0.0399508402478 -1.97603673236e-20)
(-0.19843837994 -0.138880200053 -6.96367510761e-21)
(0.0534721735606 -0.0206955276392 -4.11736102607e-23)
(0.0525998676877 -0.0222600847909 -5.39089029645e-23)
(0.0510134534998 -0.0238891703808 1.11136605891e-22)
(0.0485896091951 -0.0256815640988 1.41925171159e-21)
(0.0446671143627 -0.0278233076384 2.53575981086e-21)
(0.038592734779 -0.0310220505393 2.1748301626e-21)
(0.0383557520738 -0.0347012724491 3.22299478862e-21)
(-0.1412678653 -0.0387318964449 -2.22596905266e-21)
(-0.237950919151 -0.0980312845718 1.50883087068e-21)
)
;

boundaryField
{
    back
    {
        type            calculated;
        value           uniform (0 0 0);
    }
    sides
    {
        type            calculated;
        value           uniform (0 0 0);
    }
    bottom
    {
        type            calculated;
        value           nonuniform List<vector> 0();
    }
    front
    {
        type            calculated;
        value           uniform (0 0 0);
    }
    atmosphere
    {
        type            calculated;
        value           nonuniform List<vector> 
16
(
(0.141841107884 -0.407992948992 -1.50365981311e-19)
(0.0479992376822 0.116293231041 -2.71281183376e-19)
(-7.72587651008e-12 -0.0184836784609 -6.8880609498e-31)
(-6.43792127172e-05 -0.163417105348 5.0614281017e-24)
(0.00225287487595 -0.319328881412 7.17180793578e-22)
(-0.00098293665646 -0.275276950778 1.37668949321e-21)
(0.00689286108029 -0.178713298024 -7.23631966755e-21)
(0.00206688761401 -0.0209203824046 4.49833409027e-23)
(-0.000274458596047 0.0896989234711 -1.93481905182e-24)
(-3.00747983506e-05 0.225116987291 -7.76153429697e-23)
(-0.000173872569484 0.301942025263 -3.59234726616e-24)
(-7.51464198616e-05 0.277862803835 -1.16216545442e-23)
(-1.66958799971e-05 0.139465518504 2.78498061225e-24)
(2.11484628534e-05 -0.00478376082423 -2.71181999313e-25)
(5.59043726483e-07 -0.0878470028039 -3.30791656175e-26)
(2.38472752301e-07 -0.10836791571 -9.24630522968e-27)
)
;
    }
    floatingObject
    {
        type            calculated;
        value           nonuniform List<vector> 0();
    }
    procBoundary1to0
    {
        type            processor;
        value           nonuniform List<vector> 10((0.0545433238268 -0.020185283386 -4.29789902905e-23) (0.0539504472593 -0.0220431399258 -3.06613199889e-24) (0.0527829661155 -0.0240138410282 -9.04023529154e-23) (0.0508870982876 -0.0263235510649 8.02764040246e-23) (0.0482187285803 -0.0289718573002 1.38054376504e-21) (0.0438434601291 -0.0331879457568 2.96648629972e-21) (0.0367617944619 -0.0313619200491 5.20215290565e-21) (0.0430466492337 -0.0250124289937 6.76159855147e-21) (-0.294296840462 -0.040010558872 -4.6493885451e-21) (-0.188124513128 -0.18747769542 3.2846693137e-20));
    }
    procBoundary1to2
    {
        type            processor;
        value           nonuniform List<vector> 
18
(
(0.00365616525835 -0.0388350663569 6.70926297117e-23)
(0.00910535017244 -0.0389879602064 1.85199133351e-22)
(0.0151685294536 -0.0379020031263 -7.02246719357e-23)
(0.018940189504 -0.0400037228566 -6.69916050854e-24)
(0.0230551308033 -0.0421686905507 -8.61554968363e-23)
(0.0273485852052 -0.0437884143048 -1.2428685332e-22)
(0.0321660511711 -0.0453303490549 -7.80416110188e-23)
(0.0377099093138 -0.0411901047941 -5.00654960706e-23)
(0.0420419821429 -0.0366887073265 -4.53751935206e-23)
(0.045156216859 -0.0322602426652 -6.40157180825e-23)
(0.0472329074966 -0.0282681752288 -8.4695204497e-23)
(0.0485247023806 -0.0249197208238 -4.02618173022e-23)
(0.0493194633989 -0.0223705790443 -2.80120857777e-23)
(0.0498810179948 -0.0206272853382 -3.32831880294e-23)
(0.0504600004227 -0.0195479219117 1.73354131476e-23)
(0.0512394772872 -0.0190505784772 -5.45058264981e-23)
(0.0523342809923 -0.0189639121533 -7.38113367124e-23)
(0.0538138202122 -0.0191302263001 -1.10711883497e-24)
)
;
    }
}


// ************************************************************************* //
