/*--------------------------------*- C++ -*----------------------------------*\
| =========                 |                                                 |
| \\      /  F ield         | OpenFOAM: The Open Source CFD Toolbox           |
|  \\    /   O peration     | Version:  v2012                                 |
|   \\  /    A nd           | Website:  www.openfoam.com                      |
|    \\/     M anipulation  |                                                 |
\*---------------------------------------------------------------------------*/
FoamFile
{
    version     2.0;
    format      ascii;
    class       volScalarField;
    location    "5.1";
    object      nut;
}
// * * * * * * * * * * * * * * * * * * * * * * * * * * * * * * * * * * * * * //

dimensions      [0 2 -1 0 0 0 0];


internalField   nonuniform List<scalar> 
167
(
0.000305804451157
0.000307266971678
0.000309274346059
0.00031260857202
0.000319390075891
0.000336039658604
0.000382405200523
0.000511624003214
0.000805002720934
0.00127252726727
0.001833046497
0.00236096632208
0.000453542329918
0.00045531692653
0.000457976232289
0.000462802849558
0.000473285183709
0.000499198581328
0.000568274777144
0.000753819906551
0.00117296153275
0.00181096411376
0.00248847573654
0.00317670072172
0.000468500548953
0.000470312626126
0.000473080771247
0.000478184507415
0.000489236717119
0.000516057532541
0.000585647471042
0.000769447123637
0.00118613089213
0.00182232796406
0.00249150562035
0.00316900972396
0.000476254005936
0.000479042027887
0.000484191408478
0.000495285502279
0.000521937676848
0.000589811612879
0.000764601647477
0.00115504382042
0.00176342558686
0.00244873414355
0.0031618759748
0.000481545915124
0.000486585823331
0.000497403709708
0.00052316459699
0.00058735054942
0.000747087076738
0.00110242791715
0.00168859079115
0.00241654653469
0.00315981901625
0.000482709127737
0.000487558211857
0.000497902542456
0.000522255318401
0.000581210148735
0.000723126368402
0.00104791850544
0.00163963107338
0.00241099358611
0.00315975750905
0.00048337643462
0.000488012915342
0.000497881104312
0.000521037284449
0.000576506443713
0.000707915535294
0.00101253548317
0.00159603543706
0.00237614085254
0.00314831397768
0.000483878235789
0.00048830838422
0.000497776761536
0.000520325678451
0.000575710838325
0.000708846689584
0.0010067894527
0.00154701037325
0.00228846629221
0.0031186692347
0.000484335851639
0.000488560807969
0.000497620124217
0.000519485348149
0.000574532367933
0.000709200371589
0.00100205801393
0.00150154399161
0.00218737187458
0.00308373027979
0.000484788478753
0.00048880704249
0.0004974097729
0.000518217681375
0.000570968349954
0.000700901077971
0.000984830336811
0.00146417818522
0.00210951753196
0.00305710090164
0.000485245850908
0.000489061103417
0.000497200141551
0.000516811130671
0.000566283337678
0.000687564013179
0.000957505392048
0.00143529110105
0.00209020293104
0.00305189400652
0.000485702437865
0.000489317844867
0.000496990960357
0.000515326042167
0.000560988661361
0.000671755354506
0.000925644414997
0.00140910446267
0.00209798296085
0.00305745910725
0.000486152102857
0.00048956618853
0.000496771306049
0.000513874230966
0.000556108240832
0.000657663356609
0.000895435075959
0.00137664762978
0.00209482939574
0.00306211427087
0.00048659100808
0.000489804346503
0.000496541216912
0.000512485779065
0.000551924434765
0.000646594028567
0.000869297866148
0.0013393873527
0.0020820076012
0.00306469463626
0.000487017781007
0.000490039206399
0.000496328321492
0.000511187191544
0.000548208666157
0.000637697200762
0.000848236768892
0.00129939383301
0.00204705841895
0.00306192313516
0.000487428563231
0.000490278339103
0.000496172511802
0.000510076600611
0.000544923811428
0.000629635643989
0.000829533791369
0.00126131661216
0.00198719243046
0.00303723462704
)
;

boundaryField
{
    back
    {
        type            nutkWallFunction;
        blending        stepwise;
        Cmu             0.09;
        kappa           0.41;
        E               9.8;
        value           nonuniform List<scalar> 
167
(
4.40253990153e-05
4.42017636352e-05
4.44378963203e-05
4.48163404384e-05
4.55460188122e-05
4.72182868529e-05
5.15457054244e-05
6.28507103706e-05
8.87496472897e-05
0.000136101225269
0.000206647611318
0.000349790938462
4.85588589873e-05
4.87204394406e-05
4.89553559069e-05
4.9364371568e-05
5.02080884238e-05
5.21783579112e-05
5.70835384745e-05
6.92544971038e-05
9.65945165619e-05
0.000145122041421
0.000214532160474
0.00035277779411
4.99964233227e-05
5.0159467712e-05
5.04016087412e-05
5.08319376768e-05
5.17225704207e-05
5.37777985385e-05
5.87744653536e-05
7.0912926972e-05
9.81233324144e-05
0.000146879330275
0.000216827257766
0.00035386864304
5.07204963386e-05
5.0963385494e-05
5.13975165319e-05
5.22954654822e-05
5.43587812976e-05
5.93234706048e-05
7.12048720814e-05
9.7515761783e-05
0.000144627836429
0.000213456830276
0.000353008833641
5.11980811252e-05
5.16245505165e-05
5.25074154312e-05
5.4533642166e-05
5.93703171706e-05
7.07089281377e-05
9.55411413751e-05
0.000140888565102
0.000209386143317
0.000352023257285
5.13089212973e-05
5.17222166274e-05
5.25766953359e-05
5.45341754164e-05
5.9145885899e-05
6.96879333814e-05
9.28931215041e-05
0.000138218802501
0.000209485734573
0.00035203386894
5.13751230151e-05
5.17736164771e-05
5.25987999957e-05
5.44946527775e-05
5.89581332661e-05
6.90847555166e-05
9.14969355941e-05
0.000136731573929
0.000208940893713
0.000351487436323
5.14267744244e-05
5.18107113406e-05
5.2610163152e-05
5.44739453023e-05
5.89749261233e-05
6.94594150885e-05
9.24984306183e-05
0.00013654509262
0.000205931550457
0.000349811361437
5.14746922758e-05
5.1843948451e-05
5.26161786721e-05
5.44380713465e-05
5.89363662013e-05
6.96618379531e-05
9.30357092132e-05
0.000135714782845
0.00020186109815
0.000347602676307
5.15222075963e-05
5.18766114526e-05
5.26183401641e-05
5.43737084472e-05
5.87370643939e-05
6.9204952503e-05
9.21359513035e-05
0.00013388974051
0.000198556044539
0.000345968420951
5.15700688397e-05
5.19097094814e-05
5.26204516609e-05
5.43015448421e-05
5.84745770848e-05
6.8444122093e-05
9.04131358899e-05
0.000131707194219
0.000197763569434
0.000345730385802
5.16176559804e-05
5.19425510741e-05
5.26215920697e-05
5.42212702784e-05
5.81591405104e-05
6.74640777045e-05
8.82312925322e-05
0.000129499009157
0.000198045272683
0.000346064575253
5.16643930897e-05
5.19739493674e-05
5.2619446056e-05
5.41359638985e-05
5.78559443819e-05
6.66018885865e-05
8.63577734371e-05
0.000127448693341
0.000197208479891
0.0003460294812
5.17098742617e-05
5.20037341637e-05
5.26139968115e-05
5.40470577584e-05
5.7581400578e-05
6.59264143203e-05
8.48512717081e-05
0.00012518025218
0.000195282268622
0.000345674410577
5.17539572371e-05
5.20325727752e-05
5.26083877312e-05
5.39601795979e-05
5.73236441516e-05
6.53539924376e-05
8.36505004393e-05
0.000122785359833
0.000191783741709
0.000344938302861
5.1796179803e-05
5.20611770653e-05
5.26066408263e-05
5.3887582339e-05
5.70958401641e-05
6.48102275013e-05
8.24749263003e-05
0.000120624877094
0.000187787974533
0.000342896388196
)
;
    }
    sides
    {
        type            nutkWallFunction;
        blending        stepwise;
        Cmu             0.09;
        kappa           0.41;
        E               9.8;
        value           nonuniform List<scalar> 
12
(
2.33469582209e-05
2.34413764602e-05
2.35677878513e-05
2.37703744302e-05
2.41609477936e-05
2.50558944058e-05
2.7370789941e-05
3.34122460432e-05
4.72275422049e-05
7.24258397533e-05
0.000109934916665
0.000183638306384
)
;
    }
    bottom
    {
        type            nutkWallFunction;
        blending        stepwise;
        Cmu             0.09;
        kappa           0.41;
        E               9.8;
        value           nonuniform List<scalar> 0();
    }
    front
    {
        type            nutkWallFunction;
        blending        stepwise;
        Cmu             0.09;
        kappa           0.41;
        E               9.8;
        value           nonuniform List<scalar> 
167
(
4.40253990153e-05
4.42017636352e-05
4.44378963203e-05
4.48163404384e-05
4.55460188122e-05
4.72182868529e-05
5.15457054244e-05
6.28507103706e-05
8.87496472897e-05
0.000136101225269
0.000206647611318
0.000349790938462
4.85588589873e-05
4.87204394406e-05
4.89553559069e-05
4.9364371568e-05
5.02080884238e-05
5.21783579112e-05
5.70835384745e-05
6.92544971038e-05
9.65945165619e-05
0.000145122041421
0.000214532160474
0.00035277779411
4.99964233227e-05
5.0159467712e-05
5.04016087412e-05
5.08319376768e-05
5.17225704207e-05
5.37777985385e-05
5.87744653536e-05
7.0912926972e-05
9.81233324144e-05
0.000146879330275
0.000216827257766
0.00035386864304
5.07204963386e-05
5.0963385494e-05
5.13975165319e-05
5.22954654822e-05
5.43587812976e-05
5.93234706048e-05
7.12048720814e-05
9.7515761783e-05
0.000144627836429
0.000213456830276
0.000353008833641
5.11980811252e-05
5.16245505165e-05
5.25074154312e-05
5.4533642166e-05
5.93703171706e-05
7.07089281377e-05
9.55411413751e-05
0.000140888565102
0.000209386143317
0.000352023257285
5.13089212973e-05
5.17222166274e-05
5.25766953359e-05
5.45341754164e-05
5.9145885899e-05
6.96879333814e-05
9.28931215041e-05
0.000138218802501
0.000209485734573
0.00035203386894
5.13751230151e-05
5.17736164771e-05
5.25987999957e-05
5.44946527775e-05
5.89581332661e-05
6.90847555166e-05
9.14969355941e-05
0.000136731573929
0.000208940893713
0.000351487436323
5.14267744244e-05
5.18107113406e-05
5.2610163152e-05
5.44739453023e-05
5.89749261233e-05
6.94594150885e-05
9.24984306183e-05
0.00013654509262
0.000205931550457
0.000349811361437
5.14746922758e-05
5.1843948451e-05
5.26161786721e-05
5.44380713465e-05
5.89363662013e-05
6.96618379531e-05
9.30357092132e-05
0.000135714782845
0.00020186109815
0.000347602676307
5.15222075963e-05
5.18766114526e-05
5.26183401641e-05
5.43737084472e-05
5.87370643939e-05
6.9204952503e-05
9.21359513035e-05
0.00013388974051
0.000198556044539
0.000345968420951
5.15700688397e-05
5.19097094814e-05
5.26204516609e-05
5.43015448421e-05
5.84745770848e-05
6.8444122093e-05
9.04131358899e-05
0.000131707194219
0.000197763569434
0.000345730385802
5.16176559804e-05
5.19425510741e-05
5.26215920697e-05
5.42212702784e-05
5.81591405104e-05
6.74640777045e-05
8.82312925322e-05
0.000129499009157
0.000198045272683
0.000346064575253
5.16643930897e-05
5.19739493674e-05
5.2619446056e-05
5.41359638985e-05
5.78559443819e-05
6.66018885865e-05
8.63577734371e-05
0.000127448693341
0.000197208479891
0.0003460294812
5.17098742617e-05
5.20037341637e-05
5.26139968115e-05
5.40470577584e-05
5.7581400578e-05
6.59264143203e-05
8.48512717081e-05
0.00012518025218
0.000195282268622
0.000345674410577
5.17539572371e-05
5.20325727752e-05
5.26083877312e-05
5.39601795979e-05
5.73236441516e-05
6.53539924376e-05
8.36505004393e-05
0.000122785359833
0.000191783741709
0.000344938302861
5.1796179803e-05
5.20611770653e-05
5.26066408263e-05
5.3887582339e-05
5.70958401641e-05
6.48102275013e-05
8.24749263003e-05
0.000120624877094
0.000187787974533
0.000342896388196
)
;
    }
    atmosphere
    {
        type            calculated;
        value           uniform 0.009;
    }
    floatingObject
    {
        type            nutkWallFunction;
        blending        stepwise;
        Cmu             0.09;
        kappa           0.41;
        E               9.8;
        value           nonuniform List<scalar> 0();
    }
    procBoundary1to0
    {
        type            processor;
        value           nonuniform List<scalar> 10(0.000487816413469 0.000490511962719 0.000496060327438 0.000509129703668 0.000541997497109 0.000622089022298 0.000812814155443 0.00122924422039 0.00188219425794 0.00301554689803);
    }
    procBoundary1to2
    {
        type            processor;
        value           nonuniform List<scalar> 
18
(
0.000304569259265
0.000452115960953
0.000467073055051
0.000474437039148
0.000474437039148
0.000478805381855
0.000478805381855
0.000480056304804
0.000480832770694
0.00048144872748
0.000482019027029
0.000482581944489
0.000483145064327
0.000483704847346
0.00048425509028
0.000484791094222
0.00048530753136
0.000485799869147
)
;
    }
}


// ************************************************************************* //
