/*--------------------------------*- C++ -*----------------------------------*\
| =========                 |                                                 |
| \\      /  F ield         | OpenFOAM: The Open Source CFD Toolbox           |
|  \\    /   O peration     | Version:  v2012                                 |
|   \\  /    A nd           | Website:  www.openfoam.com                      |
|    \\/     M anipulation  |                                                 |
\*---------------------------------------------------------------------------*/
FoamFile
{
    version     2.0;
    format      ascii;
    class       volVectorField;
    location    "5.1";
    object      U_0;
}
// * * * * * * * * * * * * * * * * * * * * * * * * * * * * * * * * * * * * * //

dimensions      [0 1 -1 0 0 0 0];


internalField   nonuniform List<vector> 
167
(
(0.0027825693895 -0.0378266735348 4.16986903563e-22)
(0.00305766156228 -0.0437643588617 3.09581670745e-22)
(0.00340097598563 -0.0502813619313 1.95779015926e-22)
(0.0038095509126 -0.0575331506761 -9.5585723943e-23)
(0.00433361123976 -0.0657110690254 -2.65839773324e-22)
(0.00497417804046 -0.074804929588 -1.35095634076e-21)
(0.00604597659945 -0.0850950929097 -2.08266804149e-21)
(0.00760503162026 -0.0999910788386 -7.53558105426e-22)
(0.00724423639212 -0.113184311479 1.20242201209e-20)
(0.00863152133869 -0.112183702566 4.72189118566e-20)
(0.0166884674693 -0.14188105083 1.45476791409e-19)
(0.0547357765023 -0.185026825862 6.63556801514e-20)
(0.0084958911477 -0.0377775915757 5.528726609e-23)
(0.00928193825479 -0.0436443929157 2.18925118571e-22)
(0.0102467881667 -0.050081298661 -5.36035189973e-23)
(0.0114241809352 -0.0572117208529 -9.51655694377e-23)
(0.0128574194789 -0.0652146421102 -3.55136398048e-22)
(0.0146750368137 -0.0741446900959 -1.46148115473e-21)
(0.0172237561335 -0.0841991992624 -3.54733805065e-21)
(0.0211591827444 -0.0991127581502 -8.1399636984e-21)
(0.0232232027913 -0.113718583341 -8.81001529927e-21)
(0.0260510507382 -0.106446578001 -1.65169926705e-20)
(0.0313615883266 -0.141698058109 -1.23480498388e-19)
(0.0164899552421 -0.158105563152 -9.62158558756e-20)
(0.0140046933844 -0.0372528289712 -5.59708789042e-24)
(0.0152734716665 -0.0429517866245 -9.02499638578e-24)
(0.0168184315539 -0.0491614160967 -1.27828166943e-22)
(0.0187420169166 -0.0559905265012 -1.98157695956e-22)
(0.0211363434242 -0.0636269714353 -5.14069921235e-22)
(0.024084819426 -0.0721673634644 -1.69647096396e-21)
(0.028050653227 -0.0818189140315 -1.89399224839e-21)
(0.0337878250841 -0.096149018448 -8.38080488819e-21)
(0.0373924832764 -0.110459097594 -7.1396024571e-21)
(0.0381605621862 -0.100028422026 -5.44181492526e-20)
(0.0492660001972 -0.136455035272 -2.61724404319e-19)
(0.0306503143023 -0.157594264227 -2.03792184184e-19)
(0.0210353129386 -0.0415310928027 -4.2286107231e-23)
(0.0231070617656 -0.0473751384708 -7.32108064481e-23)
(0.0256531079768 -0.0537510246805 -1.5714616504e-22)
(0.0288339474751 -0.0608121838658 -3.78875574102e-22)
(0.0327994804232 -0.0686141482916 -9.08110745974e-22)
(0.0380505684094 -0.0772707999755 -8.65260541631e-22)
(0.0455956204926 -0.0897329806521 -1.82169948994e-21)
(0.0511654849136 -0.102226198321 -8.251264154e-21)
(0.0501612112066 -0.0917534804838 -2.06814319466e-20)
(0.0655720199837 -0.118515916906 -6.80882097821e-20)
(0.0403787643643 -0.136855007439 -5.72426325461e-20)
(0.028935686445 -0.0449005134828 -4.85916388007e-23)
(0.0319860081662 -0.050664947918 -1.45857131249e-22)
(0.035759941398 -0.0569040276141 -5.85678872217e-22)
(0.0405132694882 -0.0636350779508 -1.52630711478e-21)
(0.0467254773643 -0.070738093413 -1.64689102318e-21)
(0.0552903099705 -0.0797425609852 -2.50620564308e-21)
(0.0614770249847 -0.08879921851 -1.08133217525e-21)
(0.0567860891475 -0.0791305949859 -9.4929099263e-21)
(0.0717623572944 -0.100157766764 -2.31060290309e-20)
(0.0504323978055 -0.124743599845 -1.73506389912e-20)
(0.034197906028 -0.0419660861653 -5.06839932312e-23)
(0.0375911140433 -0.0470483202046 -1.48577922472e-22)
(0.0416882801258 -0.0523288146417 -7.81307802034e-22)
(0.0467101583387 -0.0577517627343 -2.07446843356e-21)
(0.0530856958239 -0.0628938997044 -3.04964617598e-21)
(0.0612568310617 -0.0673843983177 -5.43614179682e-21)
(0.0674292874771 -0.0713267040353 7.79227263477e-22)
(0.064265492309 -0.0639169933204 1.38469813664e-20)
(0.0925810599212 -0.0870447084117 4.95660956713e-20)
(0.0650698005401 -0.1320445242 4.06060134555e-20)
(0.0388680930952 -0.038748938433 -7.18238560966e-23)
(0.0424438727294 -0.0431892391082 -2.56952753011e-22)
(0.0466234870499 -0.0476569472676 -8.43773859715e-22)
(0.0514315249615 -0.0519638966433 -2.11601825688e-21)
(0.0570023375964 -0.055770845738 -4.28974918343e-21)
(0.063818031962 -0.0582921413863 -1.34125568442e-20)
(0.0698001463052 -0.0603036067748 -5.75336552206e-21)
(0.0741710854398 -0.0547046645498 9.08910584256e-21)
(0.124628511139 -0.076663573706 4.61485654108e-20)
(0.0795050035542 -0.120775126333 3.98405067133e-20)
(0.0429778803563 -0.0353953673266 -8.95187930016e-23)
(0.0466277958387 -0.0392653362546 -2.97999107117e-22)
(0.0507925646383 -0.0431465016439 -7.61195400612e-22)
(0.0553785494355 -0.0469413851469 -1.4511140168e-21)
(0.0602846425578 -0.0503645929615 -1.59900043596e-21)
(0.0660918029996 -0.0537692925091 -9.42173380333e-21)
(0.0713340118415 -0.0582166157612 -4.1463561818e-21)
(0.0817789578071 -0.0514941644059 -1.0540289316e-20)
(0.152902076979 -0.0661633633893 1.02603160854e-21)
(0.0915933527705 -0.0824655124975 1.75454441093e-21)
(0.0465755675159 -0.0319797481771 -6.39593857644e-23)
(0.0502637205338 -0.035343283746 -2.50933353208e-22)
(0.0544174348445 -0.0387158425211 -5.38404561868e-22)
(0.0589743172014 -0.0421023471897 -9.65373462348e-22)
(0.063892109021 -0.0453636520863 -1.29985080379e-21)
(0.0695221856546 -0.0492762447869 -2.49039621999e-21)
(0.0737735996172 -0.0550285768447 -7.40999725859e-21)
(0.081772680728 -0.0477503091079 -1.1951408631e-20)
(0.155112028349 -0.0542522038562 -1.34710368297e-20)
(0.0965164461209 -0.041654814459 -1.04656181248e-20)
(0.0496926990776 -0.0285396680769 -6.94166283081e-23)
(0.053399186663 -0.0314131958365 -2.35100115353e-22)
(0.0575555412876 -0.0342777561531 -4.61344267511e-22)
(0.0621750141453 -0.0371707344669 -8.60866456953e-22)
(0.067336525667 -0.040001635734 -1.32971613346e-21)
(0.0731489200816 -0.0434167916031 -2.720797748e-21)
(0.0762049038452 -0.0491490064608 -5.85850119197e-21)
(0.0782432394992 -0.0426977247347 -1.6338953113e-20)
(0.140798746094 -0.0464106124943 -2.77263290347e-20)
(0.0943833328069 -0.0172707898594 -2.16112852783e-20)
(0.0523382437405 -0.0251200572593 -7.568917063e-23)
(0.0560274476984 -0.0275030823557 -2.41954569157e-22)
(0.0601596252342 -0.0298249074568 -4.66114810414e-22)
(0.064813251806 -0.0321158692135 -7.88315851723e-22)
(0.0701472571359 -0.0343805964909 -1.81814595034e-21)
(0.0760067450351 -0.036606483841 4.32912749655e-22)
(0.0780984030901 -0.0415802835545 -5.5403024164e-21)
(0.0752745354523 -0.0355625807884 -1.16800961785e-20)
(0.124663437366 -0.0407991483418 -1.97970357166e-20)
(0.0913192951712 -0.0221083076267 -1.66563297883e-20)
(0.0545215620947 -0.021727980534 -7.846463846e-23)
(0.0581430508541 -0.0236253356622 -1.90871467709e-22)
(0.0621981794989 -0.0254084262803 -3.35631623984e-22)
(0.0667650483831 -0.027065913258 -6.78213588555e-22)
(0.0719912626188 -0.0285878810316 -1.92702547962e-21)
(0.0776494407954 -0.0292662858769 -2.88499507754e-21)
(0.0795315721901 -0.0329070579607 -8.15936450025e-21)
(0.0749386632341 -0.0275871039964 -1.24511705192e-20)
(0.12092210736 -0.0360000346061 -1.74560646493e-20)
(0.0891624112079 -0.0323283599854 -1.2362516355e-20)
(0.0562605235062 -0.0184050228654 -6.93640887635e-23)
(0.0597727553781 -0.0198530317488 -1.4047535404e-22)
(0.0636732957106 -0.0211335583819 -3.02733199987e-22)
(0.0679988698297 -0.0221937856148 -5.67556756217e-22)
(0.0728209646323 -0.0229784783273 -1.12383193311e-21)
(0.077950426297 -0.0224302286007 -6.99535618551e-21)
(0.0801250535062 -0.0245894734072 -4.26763818154e-21)
(0.07668953706 -0.0202292376573 -1.02054990007e-20)
(0.125372757164 -0.0290288354021 -1.20258853076e-20)
(0.0936123072707 -0.0332863461505 -8.936882646e-21)
(0.0575904207977 -0.0152065466665 -7.69043546711e-23)
(0.0609510242963 -0.016247542951 -1.29645637469e-22)
(0.0646464081181 -0.017097615088 -3.32604016855e-22)
(0.068637497044 -0.0176592918358 -4.61091161862e-22)
(0.0729047136586 -0.0178544046501 -1.85203344436e-21)
(0.0772803431974 -0.0165883248977 1.03901508823e-21)
(0.0795818810654 -0.0179315959389 -2.31978082718e-21)
(0.0785019027137 -0.0141664363346 -3.51563523364e-21)
(0.133935300328 -0.0208691882221 -5.59891684937e-21)
(0.0942344839766 -0.0321372984965 -3.65534276182e-21)
(0.0585750991077 -0.0121593443585 -5.99974546692e-23)
(0.06173560388 -0.0128404956594 -5.99566091451e-23)
(0.0651809652906 -0.0133206650991 -1.42854456246e-22)
(0.0688048334448 -0.013489858176 -5.47656813109e-23)
(0.072524813465 -0.013302701975 2.32818312391e-22)
(0.0761556211266 -0.0116456274796 4.53293097216e-21)
(0.0782663857367 -0.012538541276 -1.40734116109e-22)
(0.0792229453125 -0.00919524410694 -2.16158258803e-21)
(0.144069207187 -0.0125810950068 -9.60990233128e-22)
(0.104138829265 -0.026197991915 -1.29888422729e-22)
(0.0592277577282 -0.00925262636833 -4.75675505175e-23)
(0.0621865718253 -0.00964289492246 -7.85744467266e-23)
(0.0653615967476 -0.00981319756791 -2.16907015548e-22)
(0.0686197102039 -0.009680139836 -3.07620914523e-22)
(0.0718431614041 -0.00930974226164 -8.24183811555e-22)
(0.0747868348418 -0.00730613899767 3.50173446493e-21)
(0.0765998378234 -0.00719857032165 1.37137041576e-23)
(0.0784819589953 -0.00429933137751 -3.7289091919e-21)
(0.149430573598 -0.00460576764401 -3.84542755957e-21)
(0.106956415861 -0.0143761774628 -2.46669786495e-21)
)
;

boundaryField
{
    back
    {
        type            noSlip;
    }
    sides
    {
        type            noSlip;
    }
    bottom
    {
        type            noSlip;
    }
    front
    {
        type            noSlip;
    }
    atmosphere
    {
        type            pressureInletOutletVelocity;
        value           nonuniform List<vector> 
16
(
(0 -0.185026825862 0)
(0 -0.158105563152 0)
(0 -0.157594264227 0)
(0 -0.136855007439 0)
(0 -0.124743599845 0)
(0 -0.1320445242 0)
(0 -0.120775126333 0)
(0 -0.0824655124975 0)
(0 -0.041654814459 0)
(0 -0.0172707898594 0)
(0 -0.0221083076267 0)
(0 -0.0323283599854 0)
(0 -0.0332863461505 0)
(0 -0.0321372984965 0)
(0 -0.026197991915 0)
(0 -0.0143761774628 0)
)
;
    }
    floatingObject
    {
        type            movingWallVelocity;
        value           nonuniform List<vector> 0();
    }
    procBoundary1to0
    {
        type            processor;
        value           nonuniform List<vector> 10((0.0595767892348 -0.00647781852798 -1.40970154206e-23) (0.0623526114466 -0.00661083947989 -5.59261487719e-23) (0.0652808714055 -0.00652948558092 -1.71338923108e-22) (0.0681778346895 -0.00613343911057 -6.44441646974e-22) (0.0709425431725 -0.00569965176018 -2.36879340819e-21) (0.0731548409094 -0.00335781301515 -3.62285089888e-22) (0.0747090775419 -0.00198043413122 -4.9585411105e-21) (0.0767923800103 0.000454025676437 -7.25154534335e-21) (0.147299830915 0.00140857036122 -5.74333795792e-21) (0.130441932978 0.00316033286416 -6.85835091273e-21));
    }
    procBoundary1to2
    {
        type            processor;
        value           nonuniform List<vector> 
18
(
(0.00256490039291 -0.0323713369043 -4.70697070914e-23)
(0.00785460511431 -0.0323774619639 -1.15633693726e-22)
(0.0129606012493 -0.0319867150332 -1.17760641316e-22)
(0.0193290730982 -0.036132628875 2.17030371536e-24)
(0.0193290730982 -0.036132628875 2.17030371536e-24)
(0.0264289717726 -0.039535023685 -3.25658382022e-24)
(0.0264289717726 -0.039535023685 -3.25658382022e-24)
(0.0313740049042 -0.0371282932131 -6.46494612075e-25)
(0.0358416175721 -0.0344441264875 -1.6367057165e-23)
(0.0398339141487 -0.0315954229699 -2.26821889182e-23)
(0.0433625122194 -0.0286561219677 -1.84881272753e-23)
(0.046443507873 -0.0256753653636 -1.35207930257e-23)
(0.0490950647901 -0.0226988908149 -1.41310370629e-23)
(0.0513291464949 -0.019747008637 -1.86936766171e-23)
(0.0531572009093 -0.0168370434903 -2.29126942254e-23)
(0.0546060502207 -0.0140210996307 -1.1664380707e-23)
(0.0557161981535 -0.0113074176961 1.84328628854e-23)
(0.0565203157998 -0.00867989365172 4.03065772688e-23)
)
;
    }
}


// ************************************************************************* //
