/*--------------------------------*- C++ -*----------------------------------*\
| =========                 |                                                 |
| \\      /  F ield         | OpenFOAM: The Open Source CFD Toolbox           |
|  \\    /   O peration     | Version:  v2012                                 |
|   \\  /    A nd           | Website:  www.openfoam.com                      |
|    \\/     M anipulation  |                                                 |
\*---------------------------------------------------------------------------*/
FoamFile
{
    version     2.0;
    format      ascii;
    class       volScalarField;
    location    "1.7";
    object      p;
}
// * * * * * * * * * * * * * * * * * * * * * * * * * * * * * * * * * * * * * //

dimensions      [1 -1 -2 0 0 0 0];


internalField   nonuniform List<scalar> 
164
(
8597.89023347
8109.04698487
7620.51882261
7132.73074284
6645.6000122
6159.26908485
5673.79282476
5189.42183643
4707.4917728
4227.00467326
3747.43029863
3269.47283343
2794.94452758
2314.52186123
8596.23240692
8107.43037176
7619.00105218
7131.37413675
6644.46821142
6158.35786573
5672.99248099
5189.07745094
4707.0184792
4225.72593068
3745.44656643
3266.41544523
2789.14078434
2310.21348014
8593.90665588
8105.13578649
7616.77250691
7129.24371488
6642.4707506
6156.51003237
5671.44050515
5187.50522626
4704.88884219
4223.35318276
3742.79423669
3263.2134962
2784.49519223
2305.52928808
8590.89584082
8102.14273162
7613.82055547
7126.35172819
6639.66086344
6153.79928004
5668.84397932
5184.91818983
4702.04406345
4220.12442024
3739.12561562
3258.97504931
2779.50122926
2300.26285314
8587.17852385
8098.43174428
7610.12514402
7122.67576722
6636.00458629
6150.15129478
5665.16929587
5181.12107097
4698.01701562
4215.82284634
3734.48901945
3253.93833317
2774.02813525
2294.53321484
8582.74791594
8093.99762018
7605.68260209
7118.2185697
6631.52033629
6145.61837883
5660.55163519
5176.35958073
4693.05248813
4210.61607349
3729.01415424
3248.17938433
2767.99221268
2288.29085035
8577.60743001
8088.84824426
7600.50195471
7112.99548981
6626.23433187
6140.24322555
5655.05365797
5170.69672541
4687.18891273
4204.53280668
3722.71486209
3241.69366935
2761.36817575
2281.52850065
8571.76826456
8083.00279539
7594.59999754
7107.02868554
6620.17543996
6134.06193841
5648.71688645
5164.17075112
4680.44940806
4197.57514582
3715.56722461
3234.43878187
2754.17580533
2274.64637053
8565.24670554
8076.49307474
7587.99766817
7100.34585152
6613.37516367
6127.10859569
5641.57509578
5156.8077676
4672.84196952
4189.71918865
3707.49385082
3226.2539309
2746.15527589
2267.82319729
8558.06947636
8069.35539686
7580.71577043
7092.98266408
6605.86963308
6119.4190673
5633.66144955
5148.63238848
4664.37331832
4180.9383209
3698.39765959
3216.88111895
2736.43354977
2258.0861531
8550.38834964
8061.44260752
7572.8374434
7084.99285121
6597.70059995
6111.03375844
5625.01412497
5139.67685702
4655.06523436
4171.24089006
3688.28890113
3206.33638303
2725.48627283
2246.01184106
4644.95115174
4160.64546893
3677.15688621
3194.61622612
2713.19364981
2233.17941631
3181.6839652
2699.37133331
2218.48252768
2201.06014041
)
;

boundaryField
{
    back
    {
        type            calculated;
        value           nonuniform List<scalar> 
164
(
8597.89023347
8109.04698487
7620.51882261
7132.73074284
6645.6000122
6159.26908485
5673.79282476
5189.42183643
4707.4917728
4227.00467326
3747.43029863
3269.47283343
2794.94452758
2314.52186123
8596.23240692
8107.43037176
7619.00105218
7131.37413675
6644.46821142
6158.35786573
5672.99248099
5189.07745094
4707.0184792
4225.72593068
3745.44656643
3266.41544523
2789.14078434
2310.21348014
8593.90665588
8105.13578649
7616.77250691
7129.24371488
6642.4707506
6156.51003237
5671.44050515
5187.50522626
4704.88884219
4223.35318276
3742.79423669
3263.2134962
2784.49519223
2305.52928808
8590.89584082
8102.14273162
7613.82055547
7126.35172819
6639.66086344
6153.79928004
5668.84397932
5184.91818983
4702.04406345
4220.12442024
3739.12561562
3258.97504931
2779.50122926
2300.26285314
8587.17852385
8098.43174428
7610.12514402
7122.67576722
6636.00458629
6150.15129478
5665.16929587
5181.12107097
4698.01701562
4215.82284634
3734.48901945
3253.93833317
2774.02813525
2294.53321484
8582.74791594
8093.99762018
7605.68260209
7118.2185697
6631.52033629
6145.61837883
5660.55163519
5176.35958073
4693.05248813
4210.61607349
3729.01415424
3248.17938433
2767.99221268
2288.29085035
8577.60743001
8088.84824426
7600.50195471
7112.99548981
6626.23433187
6140.24322555
5655.05365797
5170.69672541
4687.18891273
4204.53280668
3722.71486209
3241.69366935
2761.36817575
2281.52850065
8571.76826456
8083.00279539
7594.59999754
7107.02868554
6620.17543996
6134.06193841
5648.71688645
5164.17075112
4680.44940806
4197.57514582
3715.56722461
3234.43878187
2754.17580533
2274.64637053
8565.24670554
8076.49307474
7587.99766817
7100.34585152
6613.37516367
6127.10859569
5641.57509578
5156.8077676
4672.84196952
4189.71918865
3707.49385082
3226.2539309
2746.15527589
2267.82319729
8558.06947636
8069.35539686
7580.71577043
7092.98266408
6605.86963308
6119.4190673
5633.66144955
5148.63238848
4664.37331832
4180.9383209
3698.39765959
3216.88111895
2736.43354977
2258.0861531
8550.38834964
8061.44260752
7572.8374434
7084.99285121
6597.70059995
6111.03375844
5625.01412497
5139.67685702
4655.06523436
4171.24089006
3688.28890113
3206.33638303
2725.48627283
2246.01184106
4644.95115174
4160.64546893
3677.15688621
3194.61622612
2713.19364981
2233.17941631
3181.6839652
2699.37133331
2218.48252768
2201.06014041
)
;
    }
    sides
    {
        type            calculated;
        value           nonuniform List<scalar> 0();
    }
    bottom
    {
        type            calculated;
        value           nonuniform List<scalar> 
11
(
8842.69882416
8841.0409342
8838.71516325
8835.70427999
8831.98678984
8827.55632672
8822.41595287
8816.57683319
8810.05526821
8802.87803432
8795.19689915
)
;
    }
    front
    {
        type            calculated;
        value           nonuniform List<scalar> 
164
(
8597.89023347
8109.04698487
7620.51882261
7132.73074284
6645.6000122
6159.26908485
5673.79282476
5189.42183643
4707.4917728
4227.00467326
3747.43029863
3269.47283343
2794.94452758
2314.52186123
8596.23240692
8107.43037176
7619.00105218
7131.37413675
6644.46821142
6158.35786573
5672.99248099
5189.07745094
4707.0184792
4225.72593068
3745.44656643
3266.41544523
2789.14078434
2310.21348014
8593.90665588
8105.13578649
7616.77250691
7129.24371488
6642.4707506
6156.51003237
5671.44050515
5187.50522626
4704.88884219
4223.35318276
3742.79423669
3263.2134962
2784.49519223
2305.52928808
8590.89584082
8102.14273162
7613.82055547
7126.35172819
6639.66086344
6153.79928004
5668.84397932
5184.91818983
4702.04406345
4220.12442024
3739.12561562
3258.97504931
2779.50122926
2300.26285314
8587.17852385
8098.43174428
7610.12514402
7122.67576722
6636.00458629
6150.15129478
5665.16929587
5181.12107097
4698.01701562
4215.82284634
3734.48901945
3253.93833317
2774.02813525
2294.53321484
8582.74791594
8093.99762018
7605.68260209
7118.2185697
6631.52033629
6145.61837883
5660.55163519
5176.35958073
4693.05248813
4210.61607349
3729.01415424
3248.17938433
2767.99221268
2288.29085035
8577.60743001
8088.84824426
7600.50195471
7112.99548981
6626.23433187
6140.24322555
5655.05365797
5170.69672541
4687.18891273
4204.53280668
3722.71486209
3241.69366935
2761.36817575
2281.52850065
8571.76826456
8083.00279539
7594.59999754
7107.02868554
6620.17543996
6134.06193841
5648.71688645
5164.17075112
4680.44940806
4197.57514582
3715.56722461
3234.43878187
2754.17580533
2274.64637053
8565.24670554
8076.49307474
7587.99766817
7100.34585152
6613.37516367
6127.10859569
5641.57509578
5156.8077676
4672.84196952
4189.71918865
3707.49385082
3226.2539309
2746.15527589
2267.82319729
8558.06947636
8069.35539686
7580.71577043
7092.98266408
6605.86963308
6119.4190673
5633.66144955
5148.63238848
4664.37331832
4180.9383209
3698.39765959
3216.88111895
2736.43354977
2258.0861531
8550.38834964
8061.44260752
7572.8374434
7084.99285121
6597.70059995
6111.03375844
5625.01412497
5139.67685702
4655.06523436
4171.24089006
3688.28890113
3206.33638303
2725.48627283
2246.01184106
4644.95115174
4160.64546893
3677.15688621
3194.61622612
2713.19364981
2233.17941631
3181.6839652
2699.37133331
2218.48252768
2201.06014041
)
;
    }
    atmosphere
    {
        type            calculated;
        value           nonuniform List<scalar> 0();
    }
    floatingObject
    {
        type            calculated;
        value           nonuniform List<scalar> 4(4707.4917728 4227.00467326 3747.43029863 3269.47283343);
    }
    procBoundary8to3
    {
        type            processor;
        value           nonuniform List<scalar> 8(8598.93562419 8110.06827457 7621.42214922 7133.41628233 6645.76889098 6158.75715933 5670.38958438 5183.26133083);
    }
    procBoundary8to6
    {
        type            processor;
        value           nonuniform List<scalar> 
16
(
2803.20898356
2318.86155817
1835.23646292
1831.08012259
1826.52052945
1821.15855166
1815.31189202
1808.89838466
1801.49105306
1792.12152291
1782.95967348
1775.59282375
1766.84726811
1754.67747538
1739.79794506
1718.99411874
)
;
    }
    procBoundary8to7
    {
        type            processor;
        value           nonuniform List<scalar> 
17
(
8542.07660866
8053.01055209
7564.40534149
7076.38515636
6588.90686825
6101.99700158
5615.67839815
5129.98241768
5129.98241768
4634.09227871
4149.20592057
3665.03182374
3665.03182374
3167.63675383
2683.96130195
2683.96130195
2182.82523852
)
;
    }
}


// ************************************************************************* //
