/*--------------------------------*- C++ -*----------------------------------*\
| =========                 |                                                 |
| \\      /  F ield         | OpenFOAM: The Open Source CFD Toolbox           |
|  \\    /   O peration     | Version:  v2012                                 |
|   \\  /    A nd           | Website:  www.openfoam.com                      |
|    \\/     M anipulation  |                                                 |
\*---------------------------------------------------------------------------*/
FoamFile
{
    version     2.0;
    format      ascii;
    class       volScalarField;
    location    "0.6";
    object      p;
}
// * * * * * * * * * * * * * * * * * * * * * * * * * * * * * * * * * * * * * //

dimensions      [1 -1 -2 0 0 0 0];


internalField   nonuniform List<scalar> 
166
(
9025.60018017
8535.54463177
8045.43116847
7555.09260685
7064.50589361
6573.67146652
6082.5879244
5591.25394746
5099.67080932
4607.84406499
4115.78562854
3623.51616173
3131.06925123
2638.50033879
2145.8747914
1653.22906613
1160.75273741
669.029758405
218.080988461
1.15932523935
9034.7180083
8544.71996675
8054.73767673
7564.60363298
7074.29500147
6583.81633432
6093.17176229
5602.36662508
5111.40996398
4620.31616227
4129.10689976
3637.81332265
3146.47969771
2655.17197866
2163.96744843
1672.9087756
1182.16332119
692.328215546
235.966417939
6.42516627903
9043.9626876
8554.0227274
8064.16930913
7574.23523801
7084.1978496
6594.06505479
6103.84549959
5613.54989131
5123.19340693
4632.79722153
4142.39027092
3652.01114699
3161.71117042
2671.56235961
2181.64856175
1692.01398626
1202.79783703
714.574149874
253.665998438
12.2417129504
9053.2635068
8563.38126199
8073.65287139
7583.91199145
7094.13604329
6604.33559244
6114.52285242
5624.71270525
5134.92498235
4645.18584319
4155.52930103
3665.99882152
3176.64980603
2687.55682187
2198.80615901
1710.44061241
1222.57462223
735.756814
271.051002422
18.4562842573
9062.5524466
8572.72675849
8083.11833371
7593.562119
7104.0355143
6614.55110429
6125.12381661
5635.77164394
5146.51777543
4657.39180364
4168.43099928
3679.68160492
3191.20075116
2703.06286549
2215.35346522
1728.10984177
1241.42393435
755.87068945
287.979695765
24.9343950537
9071.76481846
8581.99388531
8092.49944552
7603.11807807
7113.82703334
6624.64036715
6135.57497531
5646.65104231
5157.89401046
4669.33562193
4181.01494052
3692.97936162
3205.2859878
2718.00728708
2231.22586063
1744.97307379
1259.31881267
774.868040207
304.405548202
31.571788284
9080.8397182
8591.1212452
8101.73416756
7612.51684937
7123.4464191
6634.53788131
6145.80949853
5657.28279915
5168.9846386
4680.94780895
4193.21217722
3705.82468065
3218.84159332
2732.33232745
2246.37575673
1760.99889553
1276.24861596
792.758743813
320.25232141
38.2741939935
9089.72031574
8600.05157145
8110.76458759
7621.70009763
7132.83463126
6644.18395492
6155.76698919
5667.60614598
5179.72875697
4692.16814478
4204.96335114
3718.16122463
3231.81532675
2745.99226484
2260.76671536
1776.16406513
1292.21102933
809.579069306
335.528314669
44.9820411598
9098.35367664
8608.73162988
8119.53754933
9106.69139072
9114.68938637
9122.3085309
)
;

boundaryField
{
    back
    {
        type            calculated;
        value           nonuniform List<scalar> 
166
(
9025.60018017
8535.54463177
8045.43116847
7555.09260685
7064.50589361
6573.67146652
6082.5879244
5591.25394746
5099.67080932
4607.84406499
4115.78562854
3623.51616173
3131.06925123
2638.50033879
2145.8747914
1653.22906613
1160.75273741
669.029758405
218.080988461
1.15932523935
9034.7180083
8544.71996675
8054.73767673
7564.60363298
7074.29500147
6583.81633432
6093.17176229
5602.36662508
5111.40996398
4620.31616227
4129.10689976
3637.81332265
3146.47969771
2655.17197866
2163.96744843
1672.9087756
1182.16332119
692.328215546
235.966417939
6.42516627903
9043.9626876
8554.0227274
8064.16930913
7574.23523801
7084.1978496
6594.06505479
6103.84549959
5613.54989131
5123.19340693
4632.79722153
4142.39027092
3652.01114699
3161.71117042
2671.56235961
2181.64856175
1692.01398626
1202.79783703
714.574149874
253.665998438
12.2417129504
9053.2635068
8563.38126199
8073.65287139
7583.91199145
7094.13604329
6604.33559244
6114.52285242
5624.71270525
5134.92498235
4645.18584319
4155.52930103
3665.99882152
3176.64980603
2687.55682187
2198.80615901
1710.44061241
1222.57462223
735.756814
271.051002422
18.4562842573
9062.5524466
8572.72675849
8083.11833371
7593.562119
7104.0355143
6614.55110429
6125.12381661
5635.77164394
5146.51777543
4657.39180364
4168.43099928
3679.68160492
3191.20075116
2703.06286549
2215.35346522
1728.10984177
1241.42393435
755.87068945
287.979695765
24.9343950537
9071.76481846
8581.99388531
8092.49944552
7603.11807807
7113.82703334
6624.64036715
6135.57497531
5646.65104231
5157.89401046
4669.33562193
4181.01494052
3692.97936162
3205.2859878
2718.00728708
2231.22586063
1744.97307379
1259.31881267
774.868040207
304.405548202
31.571788284
9080.8397182
8591.1212452
8101.73416756
7612.51684937
7123.4464191
6634.53788131
6145.80949853
5657.28279915
5168.9846386
4680.94780895
4193.21217722
3705.82468065
3218.84159332
2732.33232745
2246.37575673
1760.99889553
1276.24861596
792.758743813
320.25232141
38.2741939935
9089.72031574
8600.05157145
8110.76458759
7621.70009763
7132.83463126
6644.18395492
6155.76698919
5667.60614598
5179.72875697
4692.16814478
4204.96335114
3718.16122463
3231.81532675
2745.99226484
2260.76671536
1776.16406513
1292.21102933
809.579069306
335.528314669
44.9820411598
9098.35367664
8608.73162988
8119.53754933
9106.69139072
9114.68938637
9122.3085309
)
;
    }
    sides
    {
        type            calculated;
        value           nonuniform List<scalar> 0();
    }
    bottom
    {
        type            calculated;
        value           nonuniform List<scalar> 
12
(
9270.40874374
9279.52656632
9288.77124524
9298.07206477
9307.3610053
9316.57337821
9325.64828013
9334.52888383
9343.16224789
9351.49996401
9359.49795899
9367.11710374
)
;
    }
    front
    {
        type            calculated;
        value           nonuniform List<scalar> 
166
(
9025.60018017
8535.54463177
8045.43116847
7555.09260685
7064.50589361
6573.67146652
6082.5879244
5591.25394746
5099.67080932
4607.84406499
4115.78562854
3623.51616173
3131.06925123
2638.50033879
2145.8747914
1653.22906613
1160.75273741
669.029758405
218.080988461
1.15932523935
9034.7180083
8544.71996675
8054.73767673
7564.60363298
7074.29500147
6583.81633432
6093.17176229
5602.36662508
5111.40996398
4620.31616227
4129.10689976
3637.81332265
3146.47969771
2655.17197866
2163.96744843
1672.9087756
1182.16332119
692.328215546
235.966417939
6.42516627903
9043.9626876
8554.0227274
8064.16930913
7574.23523801
7084.1978496
6594.06505479
6103.84549959
5613.54989131
5123.19340693
4632.79722153
4142.39027092
3652.01114699
3161.71117042
2671.56235961
2181.64856175
1692.01398626
1202.79783703
714.574149874
253.665998438
12.2417129504
9053.2635068
8563.38126199
8073.65287139
7583.91199145
7094.13604329
6604.33559244
6114.52285242
5624.71270525
5134.92498235
4645.18584319
4155.52930103
3665.99882152
3176.64980603
2687.55682187
2198.80615901
1710.44061241
1222.57462223
735.756814
271.051002422
18.4562842573
9062.5524466
8572.72675849
8083.11833371
7593.562119
7104.0355143
6614.55110429
6125.12381661
5635.77164394
5146.51777543
4657.39180364
4168.43099928
3679.68160492
3191.20075116
2703.06286549
2215.35346522
1728.10984177
1241.42393435
755.87068945
287.979695765
24.9343950537
9071.76481846
8581.99388531
8092.49944552
7603.11807807
7113.82703334
6624.64036715
6135.57497531
5646.65104231
5157.89401046
4669.33562193
4181.01494052
3692.97936162
3205.2859878
2718.00728708
2231.22586063
1744.97307379
1259.31881267
774.868040207
304.405548202
31.571788284
9080.8397182
8591.1212452
8101.73416756
7612.51684937
7123.4464191
6634.53788131
6145.80949853
5657.28279915
5168.9846386
4680.94780895
4193.21217722
3705.82468065
3218.84159332
2732.33232745
2246.37575673
1760.99889553
1276.24861596
792.758743813
320.25232141
38.2741939935
9089.72031574
8600.05157145
8110.76458759
7621.70009763
7132.83463126
6644.18395492
6155.76698919
5667.60614598
5179.72875697
4692.16814478
4204.96335114
3718.16122463
3231.81532675
2745.99226484
2260.76671536
1776.16406513
1292.21102933
809.579069306
335.528314669
44.9820411598
9098.35367664
8608.73162988
8119.53754933
9106.69139072
9114.68938637
9122.3085309
)
;
    }
    atmosphere
    {
        type            calculated;
        value           nonuniform List<scalar> 8(-9.82442023915 -9.82368455779 -9.82286246768 -9.82205655898 -9.82129616116 -9.82057731988 -9.81993510668 -9.81935320624);
    }
    floatingObject
    {
        type            calculated;
        value           nonuniform List<scalar> 0();
    }
    procBoundary9to6
    {
        type            processor;
        value           nonuniform List<scalar> 4(1138.69299253 644.772719386 200.232876337 -3.36218880564);
    }
    procBoundary9to7
    {
        type            processor;
        value           nonuniform List<scalar> 
16
(
9016.68159571
8526.57020803
8036.32519924
7545.78036842
7054.91242931
6563.71691177
6072.18582869
5580.30986194
5088.08079747
4595.49317456
4102.54638636
3609.24719765
3115.61431694
2621.68739248
2127.51389932
1633.1184201
)
;
    }
    procBoundary9to10
    {
        type            processor;
        value           nonuniform List<scalar> 
15
(
7630.61435544
7141.93797592
6653.52458793
6165.39349023
5677.56718065
5190.07317788
4702.94410266
4216.21901818
8617.11317601
7630.61435544
8128.00429064
8617.11317601
8625.15146008
8632.80748583
9129.51290115
)
;
    }
    procBoundary9to11
    {
        type            processor;
        value           nonuniform List<scalar> 9(3729.9417763 3244.16481259 2758.95052019 2274.36996688 1790.44808234 1307.19757094 825.299330012 350.408029851 51.7095422771);
    }
}


// ************************************************************************* //
