/*--------------------------------*- C++ -*----------------------------------*\
| =========                 |                                                 |
| \\      /  F ield         | OpenFOAM: The Open Source CFD Toolbox           |
|  \\    /   O peration     | Version:  v2012                                 |
|   \\  /    A nd           | Website:  www.openfoam.com                      |
|    \\/     M anipulation  |                                                 |
\*---------------------------------------------------------------------------*/
FoamFile
{
    version     2.0;
    format      ascii;
    class       surfaceScalarField;
    location    "0.3";
    object      alphaPhi0.water;
}
// * * * * * * * * * * * * * * * * * * * * * * * * * * * * * * * * * * * * * //

dimensions      [0 3 -1 0 0 0 0];
oriented        oriented;


internalField   nonuniform List<scalar> 
302
(
-0.000133875505649
0.000216132021661
-0.000150411668179
0.000211226563778
-0.000166754466551
0.000205469388373
-0.000182826961164
0.000198796719883
-0.000198538012256
0.00019114897564
-0.000213782983788
0.000182474284298
-0.000228444955048
0.000172732155371
-0.000242396843291
0.000161897226386
-0.000255504160678
0.00014996268495
-0.000267628879928
0.000136937960123
-0.000278637642248
0.000122798935842
-0.000288185430433
0.00010523150008
5.12497619182e-05
-0.000103870432061
0.000241104362222
-0.00012134268494
0.000237722779149
-0.00013879532541
0.000233584672357
-0.000156180976752
0.000228612196394
-0.000173435828496
0.000222724200058
-0.00019047875376
0.000215839579256
-0.000207211001316
0.000207881143037
-0.000223516664074
0.000198779859301
-0.000239263962683
0.000188479374791
-0.000254307536417
0.000176940738247
-0.000268491580677
0.000164146688934
-0.000281654475705
0.000150100802121
-0.000293641213222
0.000134785651325
-0.000304067987931
0.000115658656414
5.56382119577e-05
-1.74328787657e-05
0.000261425173331
0.000265697249589
-8.91260379136e-05
0.000261853463239
-0.000107272139518
0.000259250470242
-0.00012550138909
0.000255952041088
-0.000143787546217
0.000251870831855
-0.00016208643986
0.000246911075984
-0.000180334125688
0.000240971851726
-0.00019844554984
0.000233950946883
-0.000216313866275
0.000225749385304
-0.000233810622127
0.000216276530545
-0.000250786957622
0.000205455626018
-0.000267076034003
0.000193229742816
-0.000282496474228
0.000179567134865
-0.000296858057157
0.000164462389649
-0.000309979599492
0.000147907194655
-0.000321431385291
0.000127110957751
6.03062501002e-05
-1.78847277445e-05
0.000279309862419
-3.61610698936e-05
0.000283973554975
-5.45559186472e-05
0.000283630890416
-7.30777040821e-05
0.000282358235066
-9.17527298012e-05
0.000280528488345
-0.000110596626239
0.00027809437569
-0.00012960968364
0.000274965109529
-0.000148773850996
0.000271035004962
-0.000168049945015
0.000266187160019
-0.00018737517455
0.000260297051945
-0.000206661190226
0.00025323691096
-0.000225792845083
0.00024488096938
-0.000244627933946
0.000235111535125
-0.00026299815042
0.000223825754548
-0.00028071155208
0.000210943066007
-0.000297556293803
0.000196411876394
-0.000313307368235
0.000180213463045
-0.000327751618345
0.000162351447262
-0.000340405342613
0.000139765328459
6.52827478081e-05
-1.82927402158e-05
0.00029760257362
-3.70070945686e-05
0.000302687882459
-5.58784496823e-05
0.000302502224671
-7.49337775558e-05
0.000301413555612
-9.42168629164e-05
0.000299811578338
-0.000113759233606
0.000297636759903
-0.000133574911644
0.000294780803313
-0.000153656766262
0.000291116870012
-0.000173972983589
0.000286503373791
-0.000194463811227
0.00028078785579
-0.000215038770719
0.000273811825649
-0.000235574630393
0.000265416763927
-0.000255914452251
0.000255451276743
-0.000275868073663
0.000243779289186
-0.000295214423982
0.000230289337905
-0.000313705408625
0.000214902861792
-0.000331073834991
0.000197581890322
-0.000347067563587
0.000178345181213
-0.000361139441927
0.000153838010307
7.05983810605e-05
-1.86379663912e-05
0.000316240514156
-3.77297060135e-05
0.000321779598333
-5.70234235294e-05
0.00032179592659
-7.6568334601e-05
0.00032095846284
-9.64293149644e-05
0.000319672567336
-0.000116657373776
0.000317864836336
-0.000137283831323
0.000315407281607
-0.000158315912534
0.00031214896752
-0.000179732333314
0.000307919798456
-0.000201479053073
0.000302534560363
-0.000223465396315
0.000295798133415
-0.000245560915281
0.000287512227116
-0.000267593407522
0.00027748369736
-0.00028934857675
0.000265534378747
-0.000310571897814
0.000251512587513
-0.000330972396473
0.000235303360088
-0.000350231846969
0.000216841340674
-0.000368050546363
0.000196163889679
-0.000383807458851
0.000169595931261
7.62849220911e-05
-1.88981682768e-05
0.000335138647222
-3.82842401499e-05
0.000341165639463
-5.79243522282e-05
0.000341436018767
-7.789417724e-05
0.000340928282547
-9.82837634405e-05
0.00034006216402
-0.000119167776233
0.000338748872589
-0.000140599149793
0.000336838685261
-0.00016260376917
0.00033415361544
-0.00018517504023
0.000330491088049
-0.000208268349932
0.000325627870403
-0.000231795810941
0.000319325570693
-0.000255621604292
0.000311337975453
-0.000279558506174
0.0003014205357
-0.000303366228929
0.000289342027769
-0.000326752359518
0.000274898653169
-0.000349375600814
0.000257926601334
-0.000370856315086
0.000238322054944
-0.000390836955334
0.00021614454362
-0.000408611605504
0.000187371847661
8.23738429428e-05
-1.90474628536e-05
0.000354186059426
-3.86186326915e-05
0.000360736766065
-5.85034846207e-05
0.000361320843142
-7.88088140013e-05
0.000361233604963
-9.96544236979e-05
0.00036090778975
-0.000121143526421
0.000360238010873
-0.000143355752826
0.00035905095878
-0.000166340984741
0.000357138900989
-0.000190112715342
0.0003542628579
-0.000214640851811
0.00035015602427
-0.000239844719008
0.000344529425007
-0.000265586387987
0.000337079605093
-0.000291665101647
0.000327499187578
-0.000317813591766
0.000315490444247
-0.00034369737267
0.000300782372039
-0.000368916762382
0.000283145991046
-0.000393018766213
0.000262424058808
-0.000415575867046
0.000238701665056
-0.000435787599226
0.000207585174171
8.88938192886e-05
-1.90560759713e-05
-3.8672842194e-05
-5.86708245085e-05
-7.91930054491e-05
-0.000100393998347
-0.000122411080914
-0.000145356694207
-0.000169311254905
-0.000194315055968
-0.000220359530864
-0.000247377537957
-0.000275234311033
-0.00030371894768
-0.000332537750544
-0.000361310813975
-0.000389571781951
-0.000416780912898
-0.000442426763396
-0.000465611675521
)
;

boundaryField
{
    back
    {
        type            calculated;
        value           uniform 0;
    }
    sides
    {
        type            calculated;
        value           nonuniform List<scalar> 0();
    }
    bottom
    {
        type            calculated;
        value           uniform 0;
    }
    front
    {
        type            calculated;
        value           uniform 0;
    }
    atmosphere
    {
        type            calculated;
        value           uniform 0;
    }
    floatingObject
    {
        type            calculated;
        value           nonuniform List<scalar> 0();
    }
    procBoundary0to1
    {
        type            processor;
        value           nonuniform List<scalar> 10(-0.000182724348927 -0.000175438057741 -0.000167229452656 -0.0001580702954 -0.000147945413083 -0.000136855389194 -0.000124813236718 -0.000111790184708 -9.56833588117e-05 -4.71141335313e-05);
    }
    procBoundary0to2
    {
        type            processor;
        value           nonuniform List<scalar> 
14
(
-0.000199465345544
-0.000194690439904
-0.000189126663702
-0.000223644802609
0.000117208847396
-0.000220250509515
-0.000243992373049
-0.000247900632125
8.64108707356e-05
-0.00024380104333
-3.52295666425e-05
-0.000265236092829
7.10735962198e-05
-0.000263836473947
)
;
    }
    procBoundary0to4
    {
        type            processor;
        value           nonuniform List<scalar> 8(0.000373242076476 0.000380353481831 0.000381318793558 0.000381755778937 0.000382108803392 0.000382255139317 0.000381996643424 0.000381093534611);
    }
    procBoundary0to5
    {
        type            processor;
        value           nonuniform List<scalar> 
12
(
0.000379266731347
0.000376200529668
0.000371547425589
0.000364936342842
0.000355983764774
0.00034430917482
0.000329555378729
0.000311406959023
0.000289633189782
0.00026434749889
0.000230772093285
9.58662339344e-05
)
;
    }
}


// ************************************************************************* //
