/*--------------------------------*- C++ -*----------------------------------*\
| =========                 |                                                 |
| \\      /  F ield         | OpenFOAM: The Open Source CFD Toolbox           |
|  \\    /   O peration     | Version:  v2012                                 |
|   \\  /    A nd           | Website:  www.openfoam.com                      |
|    \\/     M anipulation  |                                                 |
\*---------------------------------------------------------------------------*/
FoamFile
{
    version     2.0;
    format      ascii;
    class       volVectorField;
    location    "0.3";
    object      ddt0(rho,U);
}
// * * * * * * * * * * * * * * * * * * * * * * * * * * * * * * * * * * * * * //

dimensions      [1 -2 -2 0 0 0 0];


internalField   nonuniform List<vector> 
166
(
(142.865251944 -66.0660456017 -6.21847039377e-21)
(143.21631663 -75.8504142365 2.68030171423e-21)
(143.395502467 -85.9439391399 2.14586499816e-21)
(143.328037912 -96.3537840538 3.98872832312e-21)
(142.932722245 -107.075257646 1.00296723317e-20)
(142.123415797 -118.090165128 -2.02839598938e-21)
(140.811375299 -129.36508798 -4.26220907258e-21)
(138.908359844 -140.847718873 -5.11995603447e-20)
(136.324595183 -152.487619105 -1.86346672917e-20)
(132.961180236 -164.381159579 -5.73091318639e-20)
(128.642698139 -175.766298459 4.38753281952e-20)
(118.633553626 -178.667609569 1.99144561829e-18)
(53.6167434742 -99.4333463939 9.86897333655e-19)
(151.00459012 -46.7331198272 -1.35560385114e-20)
(151.782693291 -55.9625635395 -6.06827048466e-21)
(152.548688912 -65.5171931335 -1.59245686719e-20)
(153.235694441 -75.4312800448 -2.02118228103e-21)
(153.767060657 -85.7305693234 -3.73151697148e-22)
(154.056661184 -96.4299877582 7.2860528797e-21)
(154.010097312 -107.531384853 1.09618024702e-20)
(153.525928039 -119.021158299 5.52625637456e-21)
(152.498409361 -130.867752367 4.92433964921e-20)
(150.820685192 -143.016862705 2.23951203795e-20)
(148.382852869 -155.415614248 4.725989425e-20)
(145.067272867 -168.177840572 1.89537706222e-19)
(140.688043917 -180.416269004 3.43141281213e-19)
(130.061245312 -183.366887779 -4.89423368539e-18)
(57.530168269 -95.1037484834 -7.881751032e-19)
(153.130794799 -4.9350297517 9.0482403038e-20)
(156.465246179 -11.5317406304 9.95921314036e-19)
(159.038003836 -36.9850234874 -1.86933341365e-20)
(160.057231825 -45.8352762857 -1.00342317643e-21)
(161.169769388 -55.0280351428 1.09105326965e-21)
(162.313046152 -64.6112978044 3.01726858001e-21)
(163.412607995 -74.6300280037 -7.21787612396e-21)
(164.381989815 -85.1206905222 2.42383270119e-21)
(165.122839576 -96.1082629737 5.86324749878e-21)
(165.525774833 -107.603395331 -2.71367979285e-21)
(165.471817214 -119.599286748 -3.64446559661e-20)
(164.834979873 -132.068249978 -2.03226089985e-20)
(163.486051848 -144.955151413 -2.96128980719e-20)
(161.28994675 -158.205837371 8.85738537312e-20)
(158.105745225 -171.957306544 7.13217076114e-19)
(153.738985184 -185.168611664 3.71448882115e-19)
(142.520587873 -188.184752588 -6.70016966043e-18)
(61.5257232591 -89.5523407302 3.79990539293e-18)
(160.840199712 -4.80618809726 -1.30528464629e-18)
(164.440126957 -11.1119663064 3.34620329765e-18)
(165.557216109 -19.2308559475 1.80387439367e-19)
(166.512115781 -27.5192411928 -8.2255054923e-20)
(167.663374547 -35.8971504384 -2.31136080566e-20)
(169.019354048 -44.6001256777 -2.46226526885e-20)
(170.528680293 -53.7051450538 -4.72345048488e-20)
(172.123533539 -63.2724806937 3.42731580462e-20)
(173.721941222 -73.3601825213 -2.09790776494e-20)
(175.227325855 -84.0179374063 -1.55369179921e-20)
(176.528267413 -95.2836028629 1.55496879632e-20)
(177.498912593 -107.1796645 1.14397465966e-21)
(178.000234727 -119.709201657 7.58132460813e-21)
(177.882551581 -132.851270507 8.74149133556e-21)
(176.989703794 -146.551884531 -6.57979403364e-20)
(175.155386209 -160.757749416 2.1557788155e-19)
(172.209411438 -175.636862005 7.12545370816e-20)
(167.951060783 -189.959316097 -6.1271875323e-18)
(156.18443878 -193.064335032 -4.35638364676e-18)
(65.5880365134 -82.5185375607 3.68329362816e-18)
(168.239456068 -4.6361681487 -2.78164112918e-18)
(172.115886461 -10.5824644763 -1.11651755233e-18)
(173.421551921 -18.3806305813 -8.54156253883e-19)
(174.616888573 -26.3686629707 -3.10640366261e-19)
(176.0836414 -34.4809522308 -1.10648491687e-20)
(177.831044576 -42.9686874186 1.53181906029e-20)
(179.805183534 -51.9221410357 -4.93007234578e-20)
(181.933548263 -61.4160315098 3.79555155426e-21)
(184.127206196 -71.5239425843 -3.4397758926e-20)
(186.279662818 -82.3117996931 -1.82285098764e-20)
(188.265966531 -93.8338699511 9.53213589602e-21)
(189.94249269 -106.128419129 -1.29653110928e-20)
(191.147700062 -119.212585437 -3.63915466447e-20)
(191.70442922 -133.076268262 -2.51321846114e-20)
(191.424245868 -147.669754478 -1.05682528809e-19)
(190.102251247 -162.944222686 7.10798386011e-20)
(187.531551162 -179.109575722 5.90440516042e-20)
(183.507880974 -194.703574879 -1.60389549525e-19)
(171.261540103 -197.930536703 -2.64191103997e-20)
(69.6917648121 -73.6884081773 -2.60306209102e-19)
(175.249793355 -4.41874250795 -2.31243359941e-18)
(179.412944993 -9.92794268273 -3.89392271504e-19)
(180.92820142 -17.3206511856 -1.2693256421e-19)
(182.396073007 -24.9233239582 -2.58001928031e-19)
(184.222588296 -32.6864166973 -4.89542123189e-20)
(186.419397676 -40.877317371 -3.73355850307e-20)
(188.931192408 -49.6009157602 -3.59016663417e-21)
(191.682098994 -58.9484035346 1.95379068777e-20)
(194.577433993 -69.0116770402 -5.19495373852e-20)
(197.501627926 -79.8764531652 -3.48335242579e-22)
(200.316359555 -91.6177360719 1.58763636054e-20)
(202.859380137 -104.294606547 -4.25882871235e-20)
(204.944412006 -117.943834493 -9.35153477885e-21)
(206.362861726 -132.57190278 -1.02184715701e-19)
(206.888011581 -148.138105054 -1.09787791306e-19)
(206.267502433 -164.603874511 3.53384082246e-20)
(204.248603315 -182.23631337 -2.70270986828e-19)
(200.626476374 -199.287979073 -6.38258865848e-18)
(188.007240138 -202.683039696 3.13551914267e-18)
(73.7976488212 -62.6819514939 -4.71875126154e-19)
(181.782510014 -4.14756612273 -1.32547648092e-18)
(186.241128066 -9.13329313078 -3.51590408301e-20)
(187.986432667 -16.0244161615 8.9031161684e-19)
(189.759163416 -23.1443908346 2.67454493691e-20)
(191.990725207 -30.4614034192 -5.95200362756e-20)
(194.696761054 -38.2589419084 -2.89949850119e-20)
(197.822484545 -46.6577888447 -5.14612905703e-20)
(201.290896105 -55.7677453572 -1.51512598095e-20)
(205.003649561 -65.7019546131 -3.06523831847e-20)
(208.837766285 -76.569998031 -1.29218070848e-20)
(212.642675745 -88.4728399078 4.54657048209e-21)
(216.237490184 -101.49669442 -2.22688679662e-20)
(219.409551301 -115.705266947 1.40623532624e-21)
(221.915020512 -131.129506369 5.84512218604e-20)
(223.48236167 -147.744638748 -7.50397596964e-20)
(223.801406508 -165.531327244 5.4946497227e-20)
(222.562653429 -184.83559225 2.88353415273e-19)
(219.563946347 -203.558730778 -3.53129743974e-20)
(206.736108261 -207.185288619 -6.54507903323e-18)
(77.8465704352 -49.037705683 -8.44486554052e-19)
(187.738815739 -3.81630307548 -7.35832467176e-19)
(192.499514262 -8.18383390613 1.89508417528e-19)
(194.494156501 -14.4658960195 1.33929278005e-19)
(196.60288401 -20.9931459279 -2.74892435518e-19)
(199.283896876 -27.7530551654 -4.28115521588e-20)
(202.55894323 -35.0446468374 -5.8833458874e-21)
(206.376437015 -43.0052890148 -3.42123784129e-21)
(210.66128433 -51.7652600625 -7.09849160517e-21)
(215.314632683 -61.4623208346 -7.19617907879e-20)
(220.209407932 -72.2344234737 -1.12298810195e-21)
(225.184996911 -84.2144945221 -2.32795037876e-20)
(230.043261046 -97.5236802482 -4.344184408e-20)
(234.544645426 -112.262018509 1.33354704613e-20)
(238.40690349 -128.4955415 2.14223798385e-20)
(241.306991827 -146.225235648 9.23969448204e-21)
(242.865288567 -165.464466522 1.16708898449e-19)
(242.702988301 -186.668899759 4.38923440113e-19)
(240.624588257 -207.305777892 6.28396178535e-18)
(227.837991037 -211.249159698 -1.79101024209e-18)
(81.750904324 -32.1923238357 4.79415594271e-18)
(193.010651314 -3.41889895053 -1.03311836664e-18)
(198.07705299 -7.06608560639 2.86446681421e-19)
(200.33795809 -12.6207737545 -4.5943515316e-19)
(202.810933643 -18.4328504378 2.41646703654e-20)
(205.982613052 -24.5102180343 -3.87120695646e-20)
(209.883626629 -31.1658994418 -8.04658599563e-21)
(214.469271355 -38.5542737801 2.25702631669e-20)
(219.670399009 -46.8277624706 4.21172845407e-20)
(225.392218351 -56.1513899864 -5.46337934987e-21)
(231.508294476 -66.6965377611 -1.00460437685e-19)
(237.852735703 -78.6352142561 8.2395982264e-20)
(244.213158327 -92.1325355297 -2.20944212449e-20)
(250.324576905 -107.33677641 3.53818415341e-20)
(255.864588689 -124.363081267 -1.66449226999e-20)
(260.452431983 -143.251760967 -6.10894576992e-20)
(263.626536668 -164.06854089 1.40410491419e-19)
(264.925144177 -187.421785269 2.172307501e-19)
(264.164834071 -210.239733811 -3.04174378899e-18)
(251.798404402 -214.611169525 -1.50149091168e-17)
(85.3812583282 -11.4547954757 3.19493152414e-18)
)
;

boundaryField
{
    back
    {
        type            calculated;
        value           uniform (0 0 0);
    }
    sides
    {
        type            calculated;
        value           nonuniform List<vector> 0();
    }
    bottom
    {
        type            calculated;
        value           uniform (0 0 0);
    }
    front
    {
        type            calculated;
        value           uniform (0 0 0);
    }
    atmosphere
    {
        type            calculated;
        value           nonuniform List<vector> 9((0 -0.203609760768 0) (0 -0.210894013047 0) (0 -0.218746645639 0) (0 -0.227212248727 0) (0 -0.23634916095 0) (0 -0.246236358867 0) (0 -0.256985843937 0) (0 -0.268762328977 0) (0 -0.281818309553 0));
    }
    floatingObject
    {
        type            calculated;
        value           nonuniform List<vector> 0();
    }
    procBoundary0to1
    {
        type            processor;
        value           nonuniform List<vector> 10((132.928093663 -95.9694498696 3.67259322657e-21) (132.269496763 -106.329044447 3.81730441101e-21) (131.222987284 -116.902040176 -3.06841409464e-20) (129.71430123 -127.654522096 -2.54210287232e-20) (127.670374341 -138.536789817 -4.30270122933e-20) (125.017801384 -149.501423607 2.20149211105e-20) (121.6724757 -160.631541692 -5.3958890866e-21) (117.471328025 -171.267289515 -2.44414468459e-18) (108.093807531 -174.13062325 -3.36340923373e-19) (49.7940811002 -102.75875504 3.44330379971e-19));
    }
    procBoundary0to2
    {
        type            processor;
        value           nonuniform List<vector> 
14
(
(133.287786196 -66.3253913165 1.40887760505e-21)
(133.370119158 -75.9634739617 -1.06422848172e-21)
(133.271835075 -85.8444151719 -8.3228862803e-21)
(141.909491094 -47.3481584665 -1.16611007177e-20)
(142.409886351 -56.5736825361 -1.44612856786e-20)
(142.409886351 -56.5736825361 -1.44612856786e-20)
(145.179320892 -5.02843726925 -7.34324789538e-19)
(148.259722598 -11.8558912792 1.14489020303e-18)
(150.271031806 -37.7918150631 -8.19255653992e-21)
(150.271031806 -37.7918150631 -8.19255653992e-21)
(157.414161133 -19.8974827493 1.52931746569e-19)
(157.414161133 -19.8974827493 1.52931746569e-19)
(158.159612468 -28.4125204463 -1.12331727972e-19)
(158.159612468 -28.4125204463 -1.12331727972e-19)
)
;
    }
    procBoundary0to4
    {
        type            processor;
        value           nonuniform List<vector> 8((197.481375277 -2.94996173315 -2.98813739932e-19) (202.853117318 -5.7688387425 -1.31330166304e-20) (205.393386024 -10.468141503 -2.63466112028e-19) (208.253862335 -15.4309376437 -2.69168790035e-19) (211.951451841 -20.6861385538 2.0282441704e-20) (216.529094757 -26.5581161659 8.25323549133e-20) (221.953533533 -33.2177953644 -6.24656880976e-21) (228.167151033 -40.8407487981 -1.32393621293e-21));
    }
    procBoundary0to5
    {
        type            processor;
        value           nonuniform List<vector> 
12
(
(235.085641296 -49.6219890506 -3.24996527788e-20)
(242.589669934 -59.7706387581 -1.68935647427e-21)
(250.515261358 -71.5054913196 2.70611818429e-21)
(258.642479236 -85.0467079187 3.21585595103e-21)
(266.684916423 -100.605019588 9.16017251345e-20)
(274.280982729 -118.362897275 -4.38369743307e-21)
(280.987555867 -138.418237598 -7.95349095191e-20)
(286.248643381 -160.917172049 3.02091954324e-19)
(289.505254147 -186.680167745 -1.66313283719e-19)
(290.593571479 -211.959899296 -9.68257658297e-18)
(279.218479287 -216.895780816 -6.04935388743e-18)
(88.5414030169 14.031113145 -1.56456877466e-18)
)
;
    }
}


// ************************************************************************* //
