/*--------------------------------*- C++ -*----------------------------------*\
| =========                 |                                                 |
| \\      /  F ield         | OpenFOAM: The Open Source CFD Toolbox           |
|  \\    /   O peration     | Version:  v2012                                 |
|   \\  /    A nd           | Website:  www.openfoam.com                      |
|    \\/     M anipulation  |                                                 |
\*---------------------------------------------------------------------------*/
FoamFile
{
    version     2.0;
    format      ascii;
    class       volVectorField;
    location    "0.3";
    object      U_0;
}
// * * * * * * * * * * * * * * * * * * * * * * * * * * * * * * * * * * * * * //

dimensions      [0 1 -1 0 0 0 0];


internalField   nonuniform List<vector> 
166
(
(0.0401078493605 -0.0245227955715 1.85927850441e-24)
(0.0391243659783 -0.0277535367957 1.59818511376e-24)
(0.0379776345981 -0.0309480179753 2.15871080636e-24)
(0.0366572818916 -0.0340920096539 7.97439880951e-25)
(0.0351538654964 -0.0371685478695 7.06749510221e-24)
(0.0334594839109 -0.0401580099425 -1.29743896139e-26)
(0.0315684243505 -0.0430383290741 1.15044224121e-24)
(0.0294777881193 -0.0457855226293 -9.37244668765e-24)
(0.0271881286859 -0.048374826744 -1.18280206562e-23)
(0.0247030217161 -0.0507834733825 -2.36526138249e-23)
(0.0220196531238 -0.0529588119325 -9.6052828004e-23)
(0.0187718360072 -0.0544066886806 -3.83803352242e-22)
(0.0116166098506 -0.0567347135879 -4.24823134017e-22)
(0.044968481115 -0.0186238385304 1.4514411937e-24)
(0.0442722608184 -0.0220354626909 1.74889690435e-24)
(0.043426627268 -0.0254426953933 2.66733402675e-24)
(0.0424183668902 -0.0288370761199 2.76201958367e-24)
(0.0412338742274 -0.0322070656697 2.50400712024e-24)
(0.0398597720293 -0.0355378175854 2.69613813067e-24)
(0.0382836130056 -0.0388110929 9.83575695701e-24)
(0.036494625632 -0.0420052949292 2.23507752768e-24)
(0.0344845097065 -0.0450956727079 7.13115233495e-24)
(0.0322482276935 -0.0480548906344 5.33005695595e-24)
(0.0297848142661 -0.0508543207454 4.91706805102e-24)
(0.0270971403789 -0.0534677843 4.95768189608e-23)
(0.0241837647712 -0.0558342969766 2.02152715375e-22)
(0.0206438589326 -0.0573928902596 7.0510126772e-22)
(0.0128562258246 -0.0599814026849 -3.160744592e-22)
(0.0491675772112 -0.00203049107988 1.46698511901e-23)
(0.0498463730571 -0.00506316447486 2.97618387017e-22)
(0.0489971397767 -0.0157079333672 2.92402389288e-25)
(0.0484465460652 -0.0192512177305 1.00611165673e-24)
(0.0477551459382 -0.0228089793368 9.154932518e-25)
(0.0469078165719 -0.0263764749255 1.55349402408e-24)
(0.0458881354722 -0.0299460485111 3.30204708876e-24)
(0.0446789988483 -0.0335063451531 2.31335034351e-24)
(0.0432633404586 -0.0370419857803 3.34068947021e-24)
(0.0416249618044 -0.0405334042329 6.58395834199e-24)
(0.0397494459663 -0.0439568224632 -2.11683313853e-24)
(0.0376251292927 -0.0472844259472 3.86527474578e-24)
(0.035244111625 -0.0504849515737 -1.00954612667e-23)
(0.0326032640008 -0.0535251553576 6.31889842283e-24)
(0.0297042762504 -0.0563748024662 7.58625890038e-23)
(0.0265475277321 -0.0589626667924 3.28759692617e-22)
(0.0226951457928 -0.0606495932927 8.89137252888e-22)
(0.0142348150298 -0.063545965793 -1.71999654564e-21)
(0.0526448969248 -0.00209070506229 -1.7869936488e-22)
(0.0533881578314 -0.00520234295532 4.64643510564e-22)
(0.0532813208868 -0.00888211034427 -5.31379430901e-23)
(0.0529970797807 -0.0125398991843 -3.08840379972e-23)
(0.0525947799183 -0.0161874337239 -1.36295173754e-24)
(0.0520657755778 -0.0198656431543 -4.329289844e-25)
(0.0513940645117 -0.023573982716 -8.38417389443e-25)
(0.0505611784829 -0.0273094677976 1.09847305328e-24)
(0.0495468756536 -0.0310656263577 2.96825640988e-24)
(0.048329835249 -0.0348315692541 3.22230519709e-24)
(0.0468884872278 -0.0385915461103 -2.66127348554e-24)
(0.0452019854327 -0.042324670381 8.4351915321e-24)
(0.0432513083942 -0.0460048007009 -8.37320581371e-24)
(0.0410204536191 -0.0496006600726 3.63987573904e-24)
(0.0384977159376 -0.053076410738 -1.6915520636e-23)
(0.0356769452203 -0.0563933096829 -5.27744214351e-24)
(0.0325579790079 -0.059516317302 1.40067371902e-22)
(0.0291435513791 -0.0623615381109 1.83185581491e-22)
(0.0249560653938 -0.0641982628741 5.91056757023e-22)
(0.0157795000936 -0.0674605558294 -1.84308099709e-21)
(0.056214104113 -0.00214671233956 -2.78098701043e-22)
(0.0570271252753 -0.00532965739053 -2.6661188628e-22)
(0.0569446084901 -0.00910947543291 -9.16607667462e-23)
(0.0566882159693 -0.0128736321608 -3.6654736889e-23)
(0.0563197489716 -0.0166392202067 -2.11276335459e-24)
(0.0558282251271 -0.0204517311564 1.45308102214e-24)
(0.0551943847385 -0.0243133487758 -7.56854140877e-25)
(0.0543958512741 -0.0282234054019 3.88436218434e-25)
(0.0534078751226 -0.0321771028819 2.32024074604e-24)
(0.0522040975486 -0.0361644174828 2.04739604597e-24)
(0.0507574874373 -0.040169497235 -2.49968756341e-24)
(0.0490414713563 -0.0441702294047 1.39675315699e-24)
(0.0470312460235 -0.0481379809048 -1.46685245765e-23)
(0.0447052403296 -0.0520376168315 -6.75773833783e-24)
(0.0420467249694 -0.0558280122607 -1.64062857207e-23)
(0.0390453810184 -0.0594639016484 -1.65370565801e-23)
(0.0356982614609 -0.0629045897337 2.66600876538e-23)
(0.0320110769587 -0.0660504123813 5.1033566673e-23)
(0.0274635266463 -0.06806334117 -5.5624589256e-23)
(0.0175244507253 -0.0717634535107 -5.62720155988e-22)
(0.0598655768362 -0.0021963482948 -2.66549936118e-22)
(0.0607541056465 -0.00543961873941 -4.89607962892e-23)
(0.0607039896723 -0.0093088549863 -1.0469772837e-23)
(0.0604875020234 -0.0131703198885 -3.06068700529e-23)
(0.0601686331461 -0.0170474112467 -3.18409150467e-24)
(0.0597337277371 -0.0209908040239 -3.86082385958e-24)
(0.0591597980418 -0.0250061236663 4.37049113427e-25)
(0.0584199704064 -0.0290957090575 2.25037998199e-24)
(0.057484232007 -0.033257075485 1.61662371238e-24)
(0.056320253872 -0.0374816178716 1.11406397071e-24)
(0.0548944305864 -0.0417538024168 -5.21405459403e-25)
(0.053173173824 -0.0460505168011 6.10597967616e-24)
(0.0511244594527 -0.0503406044772 -1.79626492019e-23)
(0.0487196034124 -0.0545847174002 3.35087443819e-26)
(0.0459352779428 -0.0587356849491 -2.45320245727e-23)
(0.0427554612628 -0.0627405543166 -2.14504774389e-23)
(0.0391731289098 -0.0665520373019 -9.4512466846e-24)
(0.0351976709916 -0.0700507341764 -1.85258907555e-22)
(0.030262799836 -0.072272653077 -3.46687923972e-22)
(0.0195133518811 -0.0765006615924 -1.37670226244e-22)
(0.0635856909547 -0.00223704928724 -2.23377364026e-22)
(0.0645559193119 -0.00552575230379 1.93206468042e-22)
(0.0645476535484 -0.00946934691042 1.33382380089e-22)
(0.0643852873689 -0.0134148401791 6.04921819797e-24)
(0.0641347089385 -0.0173929950224 -2.46196967188e-24)
(0.0637792484432 -0.0214603757494 -1.71668005399e-24)
(0.0632917412361 -0.0256268811679 -8.72527192493e-25)
(0.0626401779555 -0.0298987020245 -1.18975807279e-24)
(0.061788467786 -0.0342765044689 1.99736191655e-24)
(0.0606972893765 -0.0387538594026 1.94295511839e-24)
(0.0593251861299 -0.0433161756376 2.91901596602e-24)
(0.0576300340324 -0.0479397610329 9.69283843665e-24)
(0.0555708412945 -0.0525910635907 3.65781675543e-25)
(0.0531098820646 -0.0572262649434 1.67027682739e-23)
(0.0502152026889 -0.0617913825249 8.34557966929e-24)
(0.0468630340098 -0.0662244861473 3.18231988741e-24)
(0.0430404879833 -0.0704707168836 6.48850847191e-23)
(0.03876139696 -0.0743858355416 2.06029494562e-22)
(0.0334099147218 -0.0768578151907 5.74834450037e-22)
(0.0218029735654 -0.0817280818176 -3.60211669461e-22)
(0.0673561122972 -0.00226580192046 -1.60173896259e-22)
(0.068414647462 -0.0055804845587 2.96840293084e-23)
(0.0684591823652 -0.00957815704774 1.51033258765e-23)
(0.0683675460641 -0.0135893992701 -3.37143227045e-23)
(0.0682072023251 -0.0176534790907 -4.66139393233e-24)
(0.0679581639038 -0.0218336075868 -4.14110632257e-26)
(0.0675886613398 -0.0261449915491 6.08903875111e-25)
(0.0670609366246 -0.030598726844 1.58965655579e-24)
(0.0663319731977 -0.0351996490299 4.63784718349e-25)
(0.0653543089267 -0.0399445257062 3.10546025564e-24)
(0.0640772309864 -0.044820626974 5.73292458749e-24)
(0.0624483077518 -0.0498043757974 1.26852992416e-23)
(0.0604154779407 -0.0548602009545 6.02764571132e-25)
(0.0579295809146 -0.0599397435616 1.81555253981e-23)
(0.0549474383604 -0.0649815034344 -2.83493448514e-23)
(0.0514348204184 -0.0699132012678 -2.29427242461e-23)
(0.0473705236692 -0.0746714802157 4.80925677773e-24)
(0.0427736072174 -0.0790806820058 1.52582535946e-22)
(0.0369748633884 -0.081854607367 -1.47482973831e-22)
(0.0244684950447 -0.0875145695337 -2.42581469927e-21)
(0.0711530327486 -0.00227910457159 -2.46958637104e-22)
(0.0723068383817 -0.00559506291399 3.00028817914e-22)
(0.0724167194299 -0.00962043246628 -3.46611800093e-23)
(0.0724150058713 -0.0136732322141 -3.26465694932e-23)
(0.0723704038977 -0.0178024623528 -6.13310405922e-24)
(0.0722593633613 -0.0220788105438 -3.50882903011e-25)
(0.0720451370029 -0.0265239539415 -4.265645828e-24)
(0.0716836670932 -0.0311551697078 3.26654791318e-24)
(0.071124184809 -0.0359828382253 2.3075074871e-24)
(0.0703099183315 -0.0410082273697 2.03134662848e-24)
(0.0691792732049 -0.0462217218769 4.79266613626e-24)
(0.0676675336478 -0.0516009779659 8.06200279072e-24)
(0.0657090705926 -0.0571091536318 1.25490407031e-24)
(0.0632403440404 -0.0626935954152 2.59178331461e-23)
(0.0602036414559 -0.0682847511052 -2.49147589467e-23)
(0.0565506920327 -0.0737986258429 -4.95290072743e-24)
(0.0522486377094 -0.07916265287 9.20064303342e-23)
(0.0473225123796 -0.0841612659206 7.97534986939e-23)
(0.0410459169306 -0.0873032022 2.20873190454e-22)
(0.0276116995431 -0.0939464003497 -2.8562597389e-21)
)
;

boundaryField
{
    back
    {
        type            noSlip;
    }
    sides
    {
        type            noSlip;
    }
    bottom
    {
        type            noSlip;
    }
    front
    {
        type            noSlip;
    }
    atmosphere
    {
        type            pressureInletOutletVelocity;
        value           nonuniform List<vector> 9((0 -0.0567347135879 0) (0 -0.0599814026849 0) (0 -0.063545965793 0) (0 -0.0674605558294 0) (0 -0.0717634535107 0) (0 -0.0765006615924 0) (0 -0.0817280818176 0) (0 -0.0875145695337 0) (0 -0.0939464003497 0));
    }
    floatingObject
    {
        type            movingWallVelocity;
        value           nonuniform List<vector> 0();
    }
    procBoundary0to1
    {
        type            processor;
        value           nonuniform List<vector> 10((0.0336370076432 -0.0327143050977 -4.13579186083e-24) (0.0322140343966 -0.035613548479 -3.05268182508e-25) (0.0306197970039 -0.0384201040993 -7.24688183034e-24) (0.028850559791 -0.0411142357651 -3.06038915831e-24) (0.0269049969731 -0.0436748106005 -8.37604743859e-24) (0.0247847052825 -0.0460802901597 -8.66618535702e-24) (0.0224936148161 -0.048310761998 9.60846652667e-24) (0.0200279114384 -0.050320402764 2.47252125469e-23) (0.0170538884013 -0.0516721715074 4.67730725238e-23) (0.0104941678646 -0.0537787320314 -9.3595332966e-23));
    }
    procBoundary0to2
    {
        type            processor;
        value           nonuniform List<vector> 
14
(
(0.0369413620871 -0.0236284673385 9.17190591115e-25)
(0.0359931702168 -0.0267070958787 2.39104775963e-24)
(0.0348943702835 -0.0297402318947 2.88886088505e-24)
(0.0416277816527 -0.0179960957059 1.23939689878e-24)
(0.0409388105519 -0.0212673215053 1.96884798927e-24)
(0.0409388105519 -0.0212673215053 1.96884798927e-24)
(0.0457883758291 -0.00196786334427 -8.80720418438e-23)
(0.0464075466922 -0.00491670975684 1.51853310827e-22)
(0.0455275613548 -0.0152138939676 1.63318808677e-24)
(0.0455275613548 -0.0152138939676 1.63318808677e-24)
(0.049722060682 -0.00863596413795 2.18595442797e-23)
(0.049722060682 -0.00863596413795 2.18595442797e-23)
(0.0494200966542 -0.0121818221847 -2.31396129975e-23)
(0.0494200966542 -0.0121818221847 -2.31396129975e-23)
)
;
    }
    procBoundary0to4
    {
        type            processor;
        value           nonuniform List<vector> 8((0.0749463499684 -0.00227293733058 -4.81290766459e-23) (0.0762026456359 -0.0055594954419 -9.88635011441e-23) (0.0763920710288 -0.00957913913824 -9.60312269361e-23) (0.0765021868843 -0.0136424033223 -4.96320999354e-23) (0.0766026220341 -0.0178092982362 -4.46613559174e-24) (0.0766661323142 -0.0221588676279 3.72765530979e-24) (0.0766507507285 -0.0267206202544 -1.59930715681e-25) (0.0765056537639 -0.0315195174768 3.35367724484e-25));
    }
    procBoundary0to5
    {
        type            processor;
        value           nonuniform List<vector> 
12
(
(0.0761715569861 -0.0365731363393 -3.86889237373e-24)
(0.0755812532588 -0.0418890720165 8.03484984822e-25)
(0.0746605826192 -0.047462533267 8.91290821392e-25)
(0.0733302391112 -0.0532739813278 -2.71114190302e-24)
(0.0715081687349 -0.0592866525064 -1.49078235475e-23)
(0.0691128707312 -0.0654443448129 -6.17656505962e-24)
(0.0660679181387 -0.0716692580941 -3.4829664409e-23)
(0.0623063098721 -0.0778644764024 -2.46604953782e-23)
(0.0577790194041 -0.0839480050414 6.17171742761e-23)
(0.0525176710898 -0.0896534033449 -5.95859201178e-24)
(0.0457354345533 -0.0932480346843 3.69490916635e-23)
(0.0313739879019 -0.101133967822 -2.31798649901e-21)
)
;
    }
}


// ************************************************************************* //
