/*--------------------------------*- C++ -*----------------------------------*\
| =========                 |                                                 |
| \\      /  F ield         | OpenFOAM: The Open Source CFD Toolbox           |
|  \\    /   O peration     | Version:  v2012                                 |
|   \\  /    A nd           | Website:  www.openfoam.com                      |
|    \\/     M anipulation  |                                                 |
\*---------------------------------------------------------------------------*/
FoamFile
{
    version     2.0;
    format      ascii;
    class       volVectorField;
    location    "6";
    object      ddtCorrDdt0(U);
}
// * * * * * * * * * * * * * * * * * * * * * * * * * * * * * * * * * * * * * //

dimensions      [0 1 -2 0 0 0 0];


internalField   nonuniform List<vector> 
167
(
(0.0444853945459 0.0868360234855 6.52316474638e-23)
(0.0420575418988 0.100104886795 1.13050647763e-22)
(0.0391894094383 0.115924617883 6.13821964761e-22)
(0.0356663549713 0.134665365063 -4.8946998782e-22)
(0.0296272695041 0.157784182956 1.52809753217e-21)
(0.0288827771302 0.165599898691 -4.1843730389e-21)
(0.0284713641688 0.172739049196 8.27795366705e-21)
(0.0133507445078 0.234385772767 1.23366890628e-20)
(0.448208131767 0.214878638462 8.42493254178e-20)
(0.0279932370433 0.0962038981286 -5.15613887283e-24)
(0.0225708552006 0.110857674468 4.03966862397e-23)
(0.0155848559231 0.127672352204 -1.38981134358e-21)
(0.00571668088698 0.14829945067 6.77947914256e-21)
(0.00143998244035 0.158937338731 -1.26730286584e-20)
(-0.00856688119038 0.166730667767 -7.58012035964e-21)
(-0.127841315857 0.22797090178 1.02168935087e-20)
(0.126039307235 0.955632574093 -8.03164064669e-20)
(0.015083166591 0.0902779260219 -1.32115468909e-24)
(0.00762973312538 0.103266632938 2.20878789584e-22)
(-0.00176544744033 0.117763005511 -2.29721806648e-21)
(-0.0133792593633 0.135281294023 7.80082082145e-21)
(-0.0241518898036 0.14922864719 1.51821021365e-20)
(-0.0503127740908 0.156672063641 1.88189799692e-21)
(-0.242469053877 0.143848261977 5.428247061e-20)
(-0.171492263998 0.149435231356 -5.78138755792e-20)
(0.0109448206084 0.0728914559223 1.96925614525e-22)
(0.00373717757536 0.0827609093698 2.05587741429e-22)
(-0.00523529939247 0.0938544471165 2.35349502049e-22)
(-0.0162092503178 0.106275389962 4.40510774378e-22)
(-0.0294415009369 0.121357242926 1.14779900417e-20)
(-0.0465111537075 0.138319293 4.12002638734e-21)
(-0.088548433256 0.144580458036 -4.00469485226e-21)
(-0.3032682535 0.165659661565 6.54812903668e-24)
(-0.0913089860136 0.510060031554 1.70174532105e-20)
(0.002213364159 0.0658709386793 2.16006276835e-22)
(-0.00589043252811 0.0741271455202 5.00028837376e-22)
(-0.0158294272665 0.0831983011806 1.08524201143e-21)
(-0.027947526781 0.0928024495413 5.03078344614e-21)
(-0.0432626799883 0.104499229009 -2.79793970861e-21)
(-0.0624505299516 0.122961422725 -1.09845847389e-20)
(-0.104940484384 0.127462041837 -8.6015928942e-21)
(-0.388169776305 0.149334293663 1.68375812349e-20)
(-0.409455076787 0.0791877468434 4.24824962485e-21)
(-0.00500019211231 0.0581716831875 1.61212861529e-22)
(-0.0136168665726 0.0647733217316 6.93301257655e-22)
(-0.0240995856255 0.0717405963419 1.79711517644e-21)
(-0.0368653365195 0.0787154736742 -2.77506778367e-21)
(-0.0529155555469 0.0866824924034 -9.30347913079e-22)
(-0.0736856450481 0.107823433728 2.11690070514e-22)
(-0.10484869353 0.106135555104 4.10035244242e-21)
(-0.28445136087 0.138362073224 -3.26406343466e-19)
(0.122519745971 -0.604368971278 -3.78418401756e-19)
(-0.00336233939618 0.0452889183307 -8.19711391706e-23)
(-0.0107103612709 0.0501685412794 3.41098318207e-22)
(-0.019542942249 0.0550806046531 4.83376220477e-22)
(-0.0301073743608 0.0600374592549 1.4475317005e-21)
(-0.0428758456915 0.0648221761114 -2.27550793264e-21)
(-0.0586406596007 0.0684986766575 6.18996007697e-21)
(-0.0788983053754 0.0897089939557 -2.46223090103e-20)
(-0.107214333446 0.0751082452409 8.36120992355e-20)
(0.451397039142 0.00668573803473 -9.63362552426e-20)
(5.48711655967 -5.35901560173 1.30923909271e-18)
(-0.00144539247223 0.0349203107564 1.38164480471e-23)
(-0.00760267789184 0.0385326118963 4.8185242818e-23)
(-0.014985074039 0.0420383617592 2.27079796238e-22)
(-0.0237480452557 0.0454550446471 5.42561093376e-22)
(-0.034172708625 0.0485949991139 7.85296999282e-22)
(-0.0464240307296 0.0514763895672 2.3906191732e-21)
(-0.0610209393909 0.0525523503986 5.0841316179e-21)
(-0.0788485565808 0.0736353766406 -2.9885551392e-20)
(-0.114275646569 0.0585422705771 4.4042727175e-21)
(0.0810198144907 0.265843407083 2.05509985148e-18)
(1.27780645087 9.22534731498 -9.06480302168e-20)
(-0.0045937840347 0.0293628376866 7.73487166949e-23)
(-0.01061039607 0.0318374007107 2.33039907289e-23)
(-0.0177906324597 0.0340998235234 1.90303459374e-22)
(-0.0262979699102 0.0360464657024 4.86449953979e-22)
(-0.0363726826375 0.0375605876707 1.77807519079e-21)
(-0.0480753140816 0.038915642122 5.52966434276e-21)
(-0.0612404752276 0.0376431059532 9.08825135741e-21)
(-0.07678985388 0.0561049931046 -5.55103309709e-21)
(-0.11584834612 0.0418897832236 1.62167721744e-21)
(-0.630768093376 -0.0300816993932 -2.46558390941e-20)
(-4.54095634137 -1.69214123123 7.73683848269e-20)
(-0.0124392042071 0.0254458898259 3.82910870283e-23)
(-0.0192548677702 0.0265012179449 1.38056328293e-22)
(-0.0273564139575 0.0270943536914 3.78067917104e-22)
(-0.0368666487901 0.0270462984402 1.93701531629e-22)
(-0.0480619354182 0.0273235493937 4.26470906919e-21)
(-0.060653255791 0.0247773661513 4.67782171145e-22)
(-0.0748117967806 0.0427595123463 -2.16795996615e-20)
(-0.108534563052 0.0328301693915 1.35282932364e-20)
(-0.367180217211 0.0290890441521 -3.99423978881e-19)
(-1.88612343773 -0.862495080599 1.69040820112e-20)
(-0.013210471274 0.0194588543145 4.67781318201e-23)
(-0.0195277089642 0.0194032327662 1.85378176861e-22)
(-0.0269732587988 0.018708115864 3.86039279172e-22)
(-0.0358388160446 0.0171931090487 4.97962742103e-22)
(-0.0465051911457 0.0161362464966 5.57730351424e-23)
(-0.0597485492822 0.0117785545771 3.33144956386e-21)
(-0.074761712375 0.0294209898417 8.13401812935e-22)
(-0.105940516753 0.0217743643722 6.75416631022e-21)
(-0.24246275009 0.0306914275011 7.42499338328e-20)
(-1.31901679537 0.117577383115 4.72883804336e-19)
(-0.0130005996899 0.0140074690022 3.74354983521e-23)
(-0.0185987846121 0.0129599465644 1.30340325775e-22)
(-0.0252363078287 0.0110673816711 4.41977745786e-22)
(-0.0331971985466 0.0080317147891 -3.79049413521e-22)
(-0.0431532823524 0.00525787350331 1.13497374268e-22)
(-0.0566105741078 -0.00265195826492 -9.16445670784e-22)
(-0.0729207862505 0.0122146671627 -1.76312523199e-21)
(-0.100911347592 0.00214045606838 7.32748874855e-21)
(-0.38068747894 0.0891099441229 -1.44233053623e-19)
(-1.4334751754 0.715415462069 2.98009943679e-20)
(-0.0119162097998 0.0092663886008 4.55113450253e-23)
(-0.0166340977694 0.00732784763667 -2.82695878487e-23)
(-0.0222566605787 0.00434975692111 5.96089345636e-22)
(-0.0289062361408 -0.000141081477437 -3.79322999674e-22)
(-0.0373620364978 -0.00466393826216 4.64407655067e-22)
(-0.0491893410026 -0.0168897129602 -2.28325683185e-21)
(-0.0629955851398 -0.007776464086 9.84966219209e-21)
(-0.0838374692933 -0.0254642004624 9.62440936116e-21)
(0.0487743829536 0.109731887044 1.35730422684e-18)
(0.428657456831 -2.84264369372 6.61777484362e-20)
(-0.0100832123527 0.00533608595172 4.67571615993e-23)
(-0.0138315635161 0.00267760689963 1.07596606571e-22)
(-0.0182349006606 -0.00112480636496 5.43928749988e-22)
(-0.0233305930637 -0.00662139115788 2.46898667249e-21)
(-0.0297347531842 -0.0123719735707 5.99789540399e-21)
(-0.0382660349143 -0.02680118823 1.28410783139e-20)
(-0.0470786766217 -0.0193216527554 -2.63585568275e-21)
(-0.0612982415347 -0.0348587439298 -1.18505057243e-21)
(0.20353212338 -0.0785983748944 -6.65036137785e-20)
(0.919686464474 0.965080855286 9.50203879215e-20)
(-0.00535149539025 0.00453968619653 -1.05310677173e-23)
(-0.00768351892264 0.00228348037935 3.64964612827e-24)
(-0.0104009338113 -0.000920378043776 9.68245343381e-24)
(-0.013549055196 -0.00529313292742 4.36719274829e-22)
(-0.0170966208427 -0.0112934099413 3.07706784728e-22)
(-0.0212148870909 -0.0175506476974 5.40841240591e-21)
(-0.0252587242113 -0.0335803958068 1.12611933073e-20)
(-0.0294032531008 -0.0286085593668 7.91694469806e-21)
(-0.0370041476371 -0.04480386628 1.15361245952e-20)
(0.000472243655226 -0.0826809544658 9.23938231594e-21)
(0.326933809448 0.212077560599 -1.44429488816e-20)
(-0.00343047325197 0.00270386370459 -1.44344439978e-24)
(-0.00485369581587 0.000122689065681 -2.02886548579e-23)
(-0.0065080896802 -0.00342001235393 3.73460059721e-23)
(-0.00847157347674 -0.00817064898132 2.57374322107e-22)
(-0.010592220756 -0.014248422521 -1.31321227723e-21)
(-0.0124804654044 -0.0206873959592 8.4843099489e-22)
(-0.011477726639 -0.036473258395 -1.06522881811e-20)
(-0.0116458948475 -0.0304694119002 -7.47481930209e-21)
(-0.0168554401876 -0.0460617920119 -3.93500939242e-20)
(-0.0172938541149 -0.0540834737864 -6.59443552393e-20)
(-0.0491327042195 0.205823484004 -1.83482137036e-19)
(-0.000971014963946 0.00124742249164 -5.76081513592e-23)
(-0.00144605379583 -0.00152427236385 -3.04100521696e-23)
(-0.0020521861458 -0.00533378713168 -1.7925919295e-22)
(-0.00292107618079 -0.0104008579102 7.35861800037e-22)
(-0.00399947379188 -0.0164016958704 -5.15599941178e-21)
(-0.00566521222819 -0.0222490171508 7.20783708273e-22)
(-0.00551328069928 -0.0345122863702 -1.10774804961e-20)
(-0.00303180066217 -0.0231206073519 -4.45893937284e-20)
(0.00162854368816 -0.0341229447289 -1.94382419569e-19)
(-0.0749313220625 -0.0179871226067 -1.86811076146e-19)
(-0.233421819088 -0.255427520929 6.80123343068e-20)
)
;

boundaryField
{
    back
    {
        type            calculated;
        value           uniform (0 0 0);
    }
    sides
    {
        type            calculated;
        value           uniform (0 0 0);
    }
    bottom
    {
        type            calculated;
        value           nonuniform List<vector> 0();
    }
    front
    {
        type            calculated;
        value           uniform (0 0 0);
    }
    atmosphere
    {
        type            calculated;
        value           nonuniform List<vector> 
17
(
(0.476568454759 0.214878638462 4.17471171299e-20)
(0.111161107665 0.955632574093 -5.5640235141e-20)
(-0.162790755923 0.149435231356 -6.37313684042e-20)
(-0.0958195326014 0.510060031554 2.31246259551e-20)
(0.110584335587 0.0791877468434 -6.81122458153e-21)
(0.126431140927 -0.604368971278 -3.77680403558e-19)
(5.48470069192 -5.35901560173 1.30805592544e-18)
(-3.62290682107 9.22534731498 -3.1244113127e-19)
(-0.0202583156684 -1.69214123123 1.98686742196e-19)
(-1.9566127621 -0.862495080599 4.74888769975e-19)
(-0.0540714178333 0.117577383115 1.2960040349e-21)
(-1.43352407548 0.715415462069 2.98163573929e-20)
(0.428688368276 -2.84264369372 6.61553592329e-20)
(-4.44343116036 0.965080855286 2.39011666931e-21)
(-0.00326181269945 0.212077560599 1.9197708465e-22)
(0.0163850578461 0.205823484004 2.08076702866e-21)
(-0.23356790621 -0.255427520929 6.87234682973e-20)
)
;
    }
    floatingObject
    {
        type            calculated;
        value           nonuniform List<vector> 0();
    }
    procBoundary11to9
    {
        type            processor;
        value           nonuniform List<vector> 9((0.0570100703029 0.0881762826133 3.55354212448e-23) (0.0566035670041 0.101578993955 1.64909597395e-22) (0.0566134119876 0.1175721025 9.5979599667e-22) (0.0574282247805 0.137291267888 4.720661364e-21) (0.0582211047382 0.162301470212 -2.06677463019e-21) (0.0623333421932 0.168525300838 -6.86106802768e-22) (0.0627237948043 0.172470546951 2.845173105e-22) (0.0640839321036 0.288270296318 -2.05234016872e-21) (0.211392838087 0.254695686215 -6.31125946234e-21));
    }
    procBoundary11to10
    {
        type            processor;
        value           nonuniform List<vector> 
23
(
(0.0465304546631 0.0753698514227 1.67946021785e-23)
(0.0323258987009 0.0837048623623 1.06014541546e-22)
(0.0323258987009 0.0837048623623 1.06014541546e-22)
(0.0210467324575 0.0789525399064 1.35022356356e-23)
(0.0210467324575 0.0789525399064 1.35022356356e-23)
(0.0168167975717 0.0640085225208 -3.87465414211e-24)
(0.00886476313069 0.0582568111665 3.71064250983e-23)
(0.00212814816399 0.0519331720063 7.48672378239e-23)
(0.00212814816399 0.0519331720063 7.48672378239e-23)
(0.00275559540353 0.040528028968 5.11097083866e-23)
(0.00275559540353 0.040528028968 5.11097083866e-23)
(0.00366013632542 0.0312717804261 6.47668311682e-23)
(0.000401043874212 0.026665244238 4.25457611324e-23)
(-0.0067310213362 0.0239881277849 2.45519704459e-23)
(-0.0067310213362 0.0239881277849 2.45519704459e-23)
(-0.00795366079357 0.0189543296858 2.0199217678e-23)
(-0.00831956139615 0.0143906751321 4.63347868367e-24)
(-0.00792277875096 0.0104120064602 -5.32460402677e-24)
(-0.00688954370821 0.00709640420268 -2.49399086411e-23)
(-0.00688954370821 0.00709640420268 -2.49399086411e-23)
(-0.00337280579311 0.00594524618074 -3.18843535998e-23)
(-0.00221851316484 0.00442046024728 -4.80947927092e-23)
(-0.00056223359345 0.00318213707344 -8.77135271803e-23)
)
;
    }
}


// ************************************************************************* //
