/*--------------------------------*- C++ -*----------------------------------*\
| =========                 |                                                 |
| \\      /  F ield         | OpenFOAM: The Open Source CFD Toolbox           |
|  \\    /   O peration     | Version:  v2012                                 |
|   \\  /    A nd           | Website:  www.openfoam.com                      |
|    \\/     M anipulation  |                                                 |
\*---------------------------------------------------------------------------*/
FoamFile
{
    version     2.0;
    format      ascii;
    class       surfaceScalarField;
    location    "6";
    object      phi;
}
// * * * * * * * * * * * * * * * * * * * * * * * * * * * * * * * * * * * * * //

dimensions      [0 3 -1 0 0 0 0];
oriented        oriented;


internalField   nonuniform List<scalar> 
304
(
8.3914559937e-05
9.3399654749e-05
0.000225647192049
0.00010411428046
0.00024269598712
0.000116401218332
0.000264541824478
0.000130789216027
0.00029157858759
0.000146966181055
0.000313129403844
0.000159233222268
0.000335782930969
0.000171763057652
0.000270782699366
0.000182072650642
0.000108352770855
0.000213793675731
0.000121887830467
0.00022917792487
0.000137630085391
0.000248809657606
0.00015613516521
0.000273076829704
0.000177310572945
0.000291953687137
0.000195351076976
0.0003177315536
0.00022705883661
0.000239022390547
0.000129460193885
0.000122002911732
0.000199790776904
0.000137983205413
0.000213198377155
0.000156435498046
0.000230354464477
0.000178306710441
0.000251201139386
0.000202978879617
0.000267279016931
0.000227666421168
0.000293036838553
0.000268683324968
0.000197903012867
0.000139464469967
0.000118221980535
0.000174972469591
0.000134022541533
0.000183978259462
0.000152243872876
0.000194963384277
0.000173665492476
0.000208918484772
0.000197556539707
0.000227299001209
0.000225512719044
0.000239318364342
0.000254268318211
0.000264273586828
0.000297033672405
0.000155122078726
0.000223967869349
0.000126778364832
0.000159952210981
0.000144009316891
0.000166721022083
0.000163725035688
0.000175221757007
0.000186686296998
0.000185933709888
0.000212604035858
0.000201364940479
0.000241008726971
0.000210907838235
0.000270464891571
0.000234804995901
0.000247409065837
0.000178168314105
0.000491595860435
0.000133567693038
0.000144076732643
0.000151232071151
0.00014902061791
0.000171846364856
0.000154573060484
0.00019591092205
0.000161839251096
0.000222710533482
0.000174545696567
0.000250888068263
0.000182723552114
0.000284990017268
0.000200700693592
0.000287790862561
0.000175360904535
0.000658142298719
0.000122228592337
0.000125069917082
0.000138119631193
0.000128144428647
0.000156017314741
0.000131082018707
0.000176337593177
0.000134213854365
0.000199987897847
0.000138156063826
0.000225579231974
0.000148933597322
0.000252926981804
0.000155369105488
0.000290025054339
0.00016360053149
0.000292087255391
0.000173116552584
0.000319044459692
0.000110782894083
0.000108854570532
0.000125175051899
0.000110636557071
0.000141197850521
0.000112079916245
0.000158343164816
0.000113894784077
0.000177861746914
0.000114655789636
0.000199224057758
0.000116761363372
0.000224302359228
0.000123835416373
0.00025144117895
0.000128224021812
0.000286571951945
0.000128467193057
0.000488832246089
-2.91475733771e-05
-0.000672057417051
0.000112789709829
0.000127106722944
9.62777114398e-05
0.000142474745913
9.66715078267e-05
0.000159437074492
9.68926768374e-05
0.00017753959776
9.651687161e-05
0.000197828357451
9.64435153934e-05
0.000221046683189
0.000100599900514
0.000245335803501
0.000103929812031
0.000269610045401
0.000104186357569
0.000219367042131
2.10962436089e-05
-0.00030391006729
0.000127973156143
8.22726914997e-05
0.000142842189855
8.17661601058e-05
0.000158919153787
8.07811077175e-05
0.000176498844333
7.89065249418e-05
0.000195683613505
7.72352638995e-05
0.000215833069921
8.04372139585e-05
0.000237851437693
8.19077596527e-05
0.000258150665755
8.38850419612e-05
0.000260578187935
1.86563525819e-05
6.62552626463e-05
0.000127645319249
6.88951071024e-05
0.000141881968437
6.74994670771e-05
0.000156930280105
6.57052390977e-05
0.000173330162302
6.24835594319e-05
0.000190816363212
5.97324647417e-05
0.000208139363802
6.31056319519e-05
0.0002278001405
6.22448711856e-05
0.000248205887877
6.34782545235e-05
0.000251893970445
1.49643631582e-05
0.000459730884225
0.000126910078727
5.60163794536e-05
0.000139958235221
5.44284758096e-05
0.000153596320067
5.20476494598e-05
0.000167874619558
4.81903457573e-05
0.000182859870573
4.47378842401e-05
0.000197636502886
4.83250333463e-05
0.000213616807147
4.62639065675e-05
0.000237570301354
3.95285280773e-05
0.00025497697406
-2.46341903478e-06
0.000881115823467
0.000125672619124
4.39260580641e-05
0.000137576028826
4.25092009253e-05
0.000149667015718
3.99449292783e-05
0.000161848256374
3.60021226695e-05
0.000174179118997
3.24043075002e-05
0.00018706443866
3.54400144168e-05
0.000200724428642
3.26045829219e-05
0.000221734738124
1.85159533439e-05
0.000316492405654
-9.70570861083e-05
-0.00088552408692
0.000124815710079
3.25848768023e-05
0.000135911432597
3.14040105969e-05
0.000146295087587
2.95565778591e-05
0.000155955709354
2.63411670567e-05
0.000165984601787
2.23784070571e-05
0.000180279998867
2.11482697187e-05
0.000195429416521
1.74569420136e-05
0.000205632251184
8.31481614088e-06
0.000164185886245
-5.56190244209e-05
-0.000312385909199
0.000114373189536
2.23495612401e-05
0.000125043974162
2.1905249718e-05
0.000135394900519
2.1049058368e-05
0.00014501285425
1.99394496917e-05
0.000153578207957
1.77807753283e-05
0.000162444619316
1.35189294304e-05
0.000175891972753
7.70659540034e-06
0.000187235155758
6.11593777054e-06
0.000185290368664
1.02582390685e-05
0.000113999983189
1.56706291868e-05
0.000190307849474
0.000115876845607
1.12777969793e-05
0.000126640278318
1.11362311396e-05
0.000137164820061
1.05239214985e-05
0.00014725529141
9.85321431341e-06
0.000156095620856
8.94787178664e-06
0.000164779728087
4.84301017167e-06
0.000174179191926
-1.68726303971e-06
0.000179415541246
8.81433255052e-07
0.000170795680431
1.88779690433e-05
9.99537649813e-05
8.65086219783e-05
0.00099527224412
0.000118005491578
0.000129140672112
0.000139666088679
0.000149522666722
0.000158474795219
0.000163321464184
0.000161635906143
0.000162517399423
0.000181392112863
0.000268039526826
)
;

boundaryField
{
    back
    {
        type            calculated;
        value           uniform 0;
    }
    sides
    {
        type            calculated;
        value           uniform 0;
    }
    bottom
    {
        type            calculated;
        value           nonuniform List<scalar> 0();
    }
    front
    {
        type            calculated;
        value           uniform 0;
    }
    atmosphere
    {
        type            calculated;
        value           nonuniform List<scalar> 
17
(
9.29386221234e-05
0.000279650087666
0.000258802238231
0.000212475371613
-2.02281145575e-05
0.00012112721908
0.000631553741562
0.00147981809316
-0.000148783902347
-0.00010958199809
-0.000141573485781
-0.000166305271291
0.00208281104262
-0.000408861891128
-0.000388672726136
-0.000704907176588
0.00126307768417
)
;
    }
    floatingObject
    {
        type            calculated;
        value           nonuniform List<scalar> 0();
    }
    procBoundary11to9
    {
        type            processor;
        value           nonuniform List<scalar> 9(-0.000220698011829 -0.000235060095767 -0.000253349458674 -0.000276781692034 -0.000305939771822 -0.000329298074343 -0.000348080171002 -0.000283408954664 -0.000103362490862);
    }
    procBoundary11to10
    {
        type            processor;
        value           nonuniform List<scalar> 
23
(
-7.51400924143e-05
0.000212017363654
-9.64576126576e-05
-0.000107989126396
-0.000188889389079
-0.000104313454964
-0.000111802098967
-0.000117749012777
-0.000139609361903
-0.000107768818545
-0.000122227518115
-9.74854328236e-05
-9.95564835852e-05
9.55705171317e-05
-0.000114024649329
-0.000114315345166
-0.000114069321766
-0.000113614065823
-0.000113496896689
-3.35662043595e-05
-0.000103184340654
-0.000104821409269
-0.000106736425253
)
;
    }
}


// ************************************************************************* //
