/*--------------------------------*- C++ -*----------------------------------*\
| =========                 |                                                 |
| \\      /  F ield         | OpenFOAM: The Open Source CFD Toolbox           |
|  \\    /   O peration     | Version:  v2012                                 |
|   \\  /    A nd           | Website:  www.openfoam.com                      |
|    \\/     M anipulation  |                                                 |
\*---------------------------------------------------------------------------*/
FoamFile
{
    version     2.0;
    format      ascii;
    class       volScalarField;
    location    "6";
    object      rAU;
}
// * * * * * * * * * * * * * * * * * * * * * * * * * * * * * * * * * * * * * //

dimensions      [-1 3 1 0 0 0 0];


internalField   nonuniform List<scalar> 
167
(
2.18921639943e-05
2.18799741283e-05
2.18562235315e-05
2.18000528679e-05
2.1671166271e-05
2.1577996967e-05
4.64581887362e-05
0.00541396943548
0.0191318823375
2.18817234979e-05
2.18593396451e-05
2.17998389624e-05
2.16348039271e-05
2.14727548805e-05
4.60672464664e-05
0.00493305412233
0.0199892261152
2.18834634034e-05
2.18616719691e-05
2.17933039636e-05
2.1555803256e-05
2.13154749601e-05
4.53276086486e-05
0.00448790192003
0.0198436732837
2.18972791811e-05
2.18855345096e-05
2.18629654312e-05
2.17814859642e-05
2.14964598985e-05
2.12197084543e-05
4.44158432076e-05
0.00405272311214
0.0190561175111
2.18992481779e-05
2.18876910579e-05
2.18646719471e-05
2.1775607863e-05
2.14779019872e-05
2.11846360376e-05
4.34428553333e-05
0.00362440114105
0.0158910952694
2.19025599968e-05
2.18911222129e-05
2.1867913836e-05
2.17735575178e-05
2.14613163643e-05
2.1165980362e-05
4.25922567572e-05
0.00345213707906
0.0176964376547
2.19110224086e-05
2.19058710687e-05
2.18956941899e-05
2.18764832307e-05
2.17714793346e-05
2.14463650383e-05
2.11438607803e-05
4.17128346923e-05
0.00286545605062
0.0177178618746
2.19169982677e-05
2.19128590689e-05
2.19074642101e-05
2.18973704986e-05
2.18818700772e-05
2.17700013614e-05
2.14381456892e-05
2.11319941276e-05
4.10120826677e-05
0.00249952621211
0.0171440048982
2.19187688414e-05
2.19147446369e-05
2.1908207875e-05
2.18971446564e-05
2.1882509592e-05
2.17654879816e-05
2.14356347525e-05
2.11388884482e-05
4.04378283378e-05
0.0023407781199
0.0152998812599
2.19169463268e-05
2.19111834047e-05
2.18970333467e-05
2.18830606523e-05
2.17608908401e-05
2.14330778022e-05
2.11498367806e-05
3.98904082663e-05
0.00219141336782
0.0157745393859
2.1919949726e-05
2.191426636e-05
2.18977932964e-05
2.18839870577e-05
2.17553687372e-05
2.14270989622e-05
2.1160732959e-05
3.93575154684e-05
0.00203065972046
0.0157873378346
2.19228350301e-05
2.19173405793e-05
2.18999421744e-05
2.18896819872e-05
2.17490084622e-05
2.14178595846e-05
2.1177973169e-05
3.88627365886e-05
0.00180742315411
0.0187885452543
2.19259379791e-05
2.1922122348e-05
2.19032237817e-05
2.19026253393e-05
2.17418337093e-05
2.14045351552e-05
2.1193234401e-05
3.84091713855e-05
0.00160177172635
0.0175020855911
2.19299078883e-05
2.19270705777e-05
2.19066844578e-05
2.19117190468e-05
2.17336945437e-05
2.13909264322e-05
2.11969192898e-05
3.80754877156e-05
0.00160197715705
0.0188431289965
2.1935691368e-05
2.19348855089e-05
2.19316911678e-05
2.19130366835e-05
2.1908699889e-05
2.17157214728e-05
2.13841854557e-05
2.12075702725e-05
3.78332573748e-05
0.0015227970602
0.0154801946582
2.19561748532e-05
2.19551837228e-05
2.19506159577e-05
2.19308944807e-05
2.18984950209e-05
2.17280893503e-05
2.14361376351e-05
2.12520422664e-05
3.78330766693e-05
0.00152016533257
0.0191085223491
2.20769737558e-05
2.20764555685e-05
2.20746459387e-05
2.20662733641e-05
2.20868695197e-05
2.19251921593e-05
2.16524667927e-05
2.15421759087e-05
3.85978512792e-05
0.00162974181185
0.0186203569432
)
;

boundaryField
{
    back
    {
        type            calculated;
        value           nonuniform List<scalar> 
167
(
2.18921639943e-05
2.18799741283e-05
2.18562235315e-05
2.18000528679e-05
2.1671166271e-05
2.1577996967e-05
4.64581887362e-05
0.00541396943548
0.0191318823375
2.18817234979e-05
2.18593396451e-05
2.17998389624e-05
2.16348039271e-05
2.14727548805e-05
4.60672464664e-05
0.00493305412233
0.0199892261152
2.18834634034e-05
2.18616719691e-05
2.17933039636e-05
2.1555803256e-05
2.13154749601e-05
4.53276086486e-05
0.00448790192003
0.0198436732837
2.18972791811e-05
2.18855345096e-05
2.18629654312e-05
2.17814859642e-05
2.14964598985e-05
2.12197084543e-05
4.44158432076e-05
0.00405272311214
0.0190561175111
2.18992481779e-05
2.18876910579e-05
2.18646719471e-05
2.1775607863e-05
2.14779019872e-05
2.11846360376e-05
4.34428553333e-05
0.00362440114105
0.0158910952694
2.19025599968e-05
2.18911222129e-05
2.1867913836e-05
2.17735575178e-05
2.14613163643e-05
2.1165980362e-05
4.25922567572e-05
0.00345213707906
0.0176964376547
2.19110224086e-05
2.19058710687e-05
2.18956941899e-05
2.18764832307e-05
2.17714793346e-05
2.14463650383e-05
2.11438607803e-05
4.17128346923e-05
0.00286545605062
0.0177178618746
2.19169982677e-05
2.19128590689e-05
2.19074642101e-05
2.18973704986e-05
2.18818700772e-05
2.17700013614e-05
2.14381456892e-05
2.11319941276e-05
4.10120826677e-05
0.00249952621211
0.0171440048982
2.19187688414e-05
2.19147446369e-05
2.1908207875e-05
2.18971446564e-05
2.1882509592e-05
2.17654879816e-05
2.14356347525e-05
2.11388884482e-05
4.04378283378e-05
0.0023407781199
0.0152998812599
2.19169463268e-05
2.19111834047e-05
2.18970333467e-05
2.18830606523e-05
2.17608908401e-05
2.14330778022e-05
2.11498367806e-05
3.98904082663e-05
0.00219141336782
0.0157745393859
2.1919949726e-05
2.191426636e-05
2.18977932964e-05
2.18839870577e-05
2.17553687372e-05
2.14270989622e-05
2.1160732959e-05
3.93575154684e-05
0.00203065972046
0.0157873378346
2.19228350301e-05
2.19173405793e-05
2.18999421744e-05
2.18896819872e-05
2.17490084622e-05
2.14178595846e-05
2.1177973169e-05
3.88627365886e-05
0.00180742315411
0.0187885452543
2.19259379791e-05
2.1922122348e-05
2.19032237817e-05
2.19026253393e-05
2.17418337093e-05
2.14045351552e-05
2.1193234401e-05
3.84091713855e-05
0.00160177172635
0.0175020855911
2.19299078883e-05
2.19270705777e-05
2.19066844578e-05
2.19117190468e-05
2.17336945437e-05
2.13909264322e-05
2.11969192898e-05
3.80754877156e-05
0.00160197715705
0.0188431289965
2.1935691368e-05
2.19348855089e-05
2.19316911678e-05
2.19130366835e-05
2.1908699889e-05
2.17157214728e-05
2.13841854557e-05
2.12075702725e-05
3.78332573748e-05
0.0015227970602
0.0154801946582
2.19561748532e-05
2.19551837228e-05
2.19506159577e-05
2.19308944807e-05
2.18984950209e-05
2.17280893503e-05
2.14361376351e-05
2.12520422664e-05
3.78330766693e-05
0.00152016533257
0.0191085223491
2.20769737558e-05
2.20764555685e-05
2.20746459387e-05
2.20662733641e-05
2.20868695197e-05
2.19251921593e-05
2.16524667927e-05
2.15421759087e-05
3.85978512792e-05
0.00162974181185
0.0186203569432
)
;
    }
    sides
    {
        type            calculated;
        value           nonuniform List<scalar> 
11
(
2.20769737558e-05
2.20764555685e-05
2.20746459387e-05
2.20662733641e-05
2.20868695197e-05
2.19251921593e-05
2.16524667927e-05
2.15421759087e-05
3.85978512792e-05
0.00162974181185
0.0186203569432
)
;
    }
    bottom
    {
        type            calculated;
        value           nonuniform List<scalar> 0();
    }
    front
    {
        type            calculated;
        value           nonuniform List<scalar> 
167
(
2.18921639943e-05
2.18799741283e-05
2.18562235315e-05
2.18000528679e-05
2.1671166271e-05
2.1577996967e-05
4.64581887362e-05
0.00541396943548
0.0191318823375
2.18817234979e-05
2.18593396451e-05
2.17998389624e-05
2.16348039271e-05
2.14727548805e-05
4.60672464664e-05
0.00493305412233
0.0199892261152
2.18834634034e-05
2.18616719691e-05
2.17933039636e-05
2.1555803256e-05
2.13154749601e-05
4.53276086486e-05
0.00448790192003
0.0198436732837
2.18972791811e-05
2.18855345096e-05
2.18629654312e-05
2.17814859642e-05
2.14964598985e-05
2.12197084543e-05
4.44158432076e-05
0.00405272311214
0.0190561175111
2.18992481779e-05
2.18876910579e-05
2.18646719471e-05
2.1775607863e-05
2.14779019872e-05
2.11846360376e-05
4.34428553333e-05
0.00362440114105
0.0158910952694
2.19025599968e-05
2.18911222129e-05
2.1867913836e-05
2.17735575178e-05
2.14613163643e-05
2.1165980362e-05
4.25922567572e-05
0.00345213707906
0.0176964376547
2.19110224086e-05
2.19058710687e-05
2.18956941899e-05
2.18764832307e-05
2.17714793346e-05
2.14463650383e-05
2.11438607803e-05
4.17128346923e-05
0.00286545605062
0.0177178618746
2.19169982677e-05
2.19128590689e-05
2.19074642101e-05
2.18973704986e-05
2.18818700772e-05
2.17700013614e-05
2.14381456892e-05
2.11319941276e-05
4.10120826677e-05
0.00249952621211
0.0171440048982
2.19187688414e-05
2.19147446369e-05
2.1908207875e-05
2.18971446564e-05
2.1882509592e-05
2.17654879816e-05
2.14356347525e-05
2.11388884482e-05
4.04378283378e-05
0.0023407781199
0.0152998812599
2.19169463268e-05
2.19111834047e-05
2.18970333467e-05
2.18830606523e-05
2.17608908401e-05
2.14330778022e-05
2.11498367806e-05
3.98904082663e-05
0.00219141336782
0.0157745393859
2.1919949726e-05
2.191426636e-05
2.18977932964e-05
2.18839870577e-05
2.17553687372e-05
2.14270989622e-05
2.1160732959e-05
3.93575154684e-05
0.00203065972046
0.0157873378346
2.19228350301e-05
2.19173405793e-05
2.18999421744e-05
2.18896819872e-05
2.17490084622e-05
2.14178595846e-05
2.1177973169e-05
3.88627365886e-05
0.00180742315411
0.0187885452543
2.19259379791e-05
2.1922122348e-05
2.19032237817e-05
2.19026253393e-05
2.17418337093e-05
2.14045351552e-05
2.1193234401e-05
3.84091713855e-05
0.00160177172635
0.0175020855911
2.19299078883e-05
2.19270705777e-05
2.19066844578e-05
2.19117190468e-05
2.17336945437e-05
2.13909264322e-05
2.11969192898e-05
3.80754877156e-05
0.00160197715705
0.0188431289965
2.1935691368e-05
2.19348855089e-05
2.19316911678e-05
2.19130366835e-05
2.1908699889e-05
2.17157214728e-05
2.13841854557e-05
2.12075702725e-05
3.78332573748e-05
0.0015227970602
0.0154801946582
2.19561748532e-05
2.19551837228e-05
2.19506159577e-05
2.19308944807e-05
2.18984950209e-05
2.17280893503e-05
2.14361376351e-05
2.12520422664e-05
3.78330766693e-05
0.00152016533257
0.0191085223491
2.20769737558e-05
2.20764555685e-05
2.20746459387e-05
2.20662733641e-05
2.20868695197e-05
2.19251921593e-05
2.16524667927e-05
2.15421759087e-05
3.85978512792e-05
0.00162974181185
0.0186203569432
)
;
    }
    atmosphere
    {
        type            calculated;
        value           nonuniform List<scalar> 
17
(
0.0191318823375
0.0199892261152
0.0198436732837
0.0190561175111
0.0158910952694
0.0176964376547
0.0177178618746
0.0171440048982
0.0152998812599
0.0157745393859
0.0157873378346
0.0187885452543
0.0175020855911
0.0188431289965
0.0154801946582
0.0191085223491
0.0186203569432
)
;
    }
    floatingObject
    {
        type            calculated;
        value           nonuniform List<scalar> 0();
    }
    procBoundary11to9
    {
        type            processor;
        value           nonuniform List<scalar> 9(2.18910612658e-05 2.18791834876e-05 2.18549296437e-05 2.18009134135e-05 2.16885610073e-05 2.16637473164e-05 4.629732586e-05 0.0057273298826 0.0205637896704);
    }
    procBoundary11to10
    {
        type            processor;
        value           nonuniform List<scalar> 
23
(
2.18985869275e-05
2.18931189488e-05
2.18931189488e-05
2.18948068167e-05
2.18948068167e-05
2.19029256966e-05
2.19053578148e-05
2.19079285162e-05
2.19079285162e-05
2.19140093157e-05
2.19140093157e-05
2.191824648e-05
2.19201765639e-05
2.19202797731e-05
2.19202797731e-05
2.19214224813e-05
2.19238335087e-05
2.19264972081e-05
2.1929668121e-05
2.1929668121e-05
2.1935788843e-05
2.19560447727e-05
2.20762139839e-05
)
;
    }
}


// ************************************************************************* //
