/*--------------------------------*- C++ -*----------------------------------*\
| =========                 |                                                 |
| \\      /  F ield         | OpenFOAM: The Open Source CFD Toolbox           |
|  \\    /   O peration     | Version:  v2012                                 |
|   \\  /    A nd           | Website:  www.openfoam.com                      |
|    \\/     M anipulation  |                                                 |
\*---------------------------------------------------------------------------*/
FoamFile
{
    version     2.0;
    format      ascii;
    class       surfaceVectorField;
    location    "6";
    object      Uf;
}
// * * * * * * * * * * * * * * * * * * * * * * * * * * * * * * * * * * * * * //

dimensions      [0 1 -1 0 0 0 0];


internalField   nonuniform List<vector> 
304
(
(0.044677382137 0.0167829119874 -4.17427301412e-22)
(0.0478451889967 0.0186799309498 -1.39426309461e-21)
(0.0451294384099 0.0191432662993 -6.22998043582e-22)
(0.0518792596177 0.0208228560921 -3.33483110333e-21)
(0.048539197424 0.0214086388645 -1.96346620202e-21)
(0.0569548161112 0.0232802436664 -4.34463872152e-21)
(0.0529083648956 0.0238503481831 -4.19295404752e-21)
(0.0620099459854 0.0261578432053 -5.55964497616e-21)
(0.0583157175181 0.0283882988319 -3.19435557027e-21)
(0.0663036222291 0.029393236211 -8.44698200231e-21)
(0.0626258807687 0.0258618654487 -9.02434392459e-21)
(0.0619333337347 0.0318466444537 -9.91159499863e-21)
(0.0671565861938 0.0270731731373 -1.73852603876e-20)
(0.0419500207221 0.0343526115303 -3.50288397624e-21)
(0.0541565398733 0.0376096693159 -1.70233316587e-20)
(0.0364145301283 0.0436429740225 -2.62511599675e-21)
(0.0455808394917 0.021670554171 -1.19220115099e-21)
(0.0427587351462 0.0217706021266 -5.48854048014e-22)
(0.0492732840163 0.0243775660933 -2.82158914621e-21)
(0.045835584974 0.0245380218877 -1.61192300506e-21)
(0.0539125085788 0.0275260170781 -3.04267089627e-21)
(0.0497619315213 0.0275343175705 -3.53415064464e-21)
(0.0585185323812 0.0312270330419 -6.6590545187e-21)
(0.0546153659409 0.0328759784301 -2.09136297529e-21)
(0.0630188939936 0.035462114589 -1.79626223099e-20)
(0.0583907374274 0.0303973922399 -9.60220128274e-21)
(0.0584123184646 0.0390702153951 -2.44969970477e-20)
(0.06354631072 0.0329119354975 -2.28138222842e-20)
(0.042084585975 0.0454117673221 -1.61455636793e-20)
(0.0478044781093 0.0429810527881 -2.22601666276e-20)
(0.0258920387769 0.0600977614039 -7.95366486357e-21)
(0.042821401669 0.0244005823464 -9.68575902081e-22)
(0.0399581553808 0.0241354556302 -4.89997001766e-22)
(0.0461022853687 0.0275966410826 -2.32448450348e-21)
(0.042639675431 0.0273385963506 -1.33951974585e-21)
(0.0502040225491 0.0312870996092 -2.58284272366e-21)
(0.0460708928955 0.0307619740316 -2.83943842068e-21)
(0.0542198632176 0.0356613420882 -5.03450973933e-21)
(0.0502402278773 0.0368779563055 -1.35616309813e-21)
(0.0586044654929 0.0405957759235 -1.4453401257e-20)
(0.0534558033863 0.0344547392429 -7.67720838932e-21)
(0.0525619775692 0.0455332842335 -2.05769918641e-20)
(0.0586073677105 0.0380566510084 -1.90743291303e-20)
(0.0343247868742 0.0537366649936 -1.40682678119e-20)
(0.0395806025733 0.0486820780181 -1.88216733066e-20)
(0.0278928939934 0.0573964243806 -3.52206424888e-22)
(0.0374068107197 0.0236443961069 -2.92161777743e-22)
(0.0349944939183 0.0230785966131 -1.62270618876e-22)
(0.0396324924192 0.0268045083065 -8.60940845536e-22)
(0.0367956518925 0.026164609427 -5.81659021128e-22)
(0.0424289224479 0.0304487745753 -1.85447366305e-21)
(0.0389926768555 0.0297162502 -1.53244840924e-21)
(0.0459559299057 0.0347330984951 -1.61275879515e-21)
(0.0417836969544 0.0335232068214 -3.00764593745e-21)
(0.0492998275859 0.0395113079413 -3.99886174812e-21)
(0.0454598002418 0.0403199948783 -5.33319216126e-21)
(0.0532146536846 0.0451025438089 -1.22981362625e-20)
(0.0478636728684 0.0378565672251 -8.971699355e-21)
(0.0456282965432 0.0508536636422 -1.73190105728e-20)
(0.0528547173657 0.0422636315603 -1.37601723555e-20)
(0.0361207507877 0.059406734481 -5.10561191954e-21)
(0.0310244157453 0.0550954599124 -1.49535422134e-20)
(0.0447935738697 0.0344524535236 3.20887579218e-21)
(0.0343281153578 0.0253556729665 -4.51767862261e-22)
(0.0319904421963 0.0245156568618 -2.95292942749e-22)
(0.0361035556903 0.0288018633782 -1.25316658483e-21)
(0.0333442044165 0.0277875546789 -9.28484343471e-22)
(0.0383165596415 0.0327450071376 -2.68562068364e-21)
(0.0350443514014 0.0315501943628 -2.299544027e-21)
(0.0412446802088 0.0373372593997 -6.72807930356e-21)
(0.0371867419775 0.0356405396591 -5.07056135001e-21)
(0.0439897645988 0.0425208071717 -1.03060297681e-20)
(0.0402729880959 0.0428807514137 -8.13281360037e-21)
(0.0474816563478 0.0482017453941 -1.0433735448e-20)
(0.0421815676471 0.0403795141571 -1.10603374658e-20)
(0.0417569427102 0.0540929783143 -1.13947039961e-20)
(0.0469609991802 0.0451040539783 -1.11218228454e-20)
(0.0424378336843 0.0494818131675 -6.63905450165e-21)
(0.035633662821 0.0576694954188 -1.69527820073e-20)
(0.0983191720871 0.0268084211546 4.78453440831e-21)
(0.0310358743046 0.0267135386077 -7.72009423959e-22)
(0.0288153465286 0.025604854083 -4.11778653322e-22)
(0.0323254209995 0.0302464142302 -1.97486178565e-21)
(0.0298041235821 0.0289663117204 -1.32284431029e-21)
(0.0338990480987 0.0343692729712 -4.68448469338e-21)
(0.0309146120967 0.0327758400372 -3.00865182298e-21)
(0.0362218318009 0.03918218441 -6.47529564683e-21)
(0.0323678502192 0.0368476918357 -7.02225616341e-21)
(0.0385524494188 0.0445421066963 -8.88712129805e-21)
(0.0349091393134 0.044233321114 -5.59056918025e-21)
(0.0416818918804 0.0501776136527 -1.17484248632e-20)
(0.0365447104229 0.0418931147982 -1.61624215866e-20)
(0.0396372543766 0.0569980034536 -1.66799008566e-20)
(0.0401401387184 0.0464987729734 -1.98783395882e-20)
(0.0924899131746 0.0575581725122 -5.52919309739e-21)
(0.035072180907 0.0525678211037 -1.52716113376e-20)
(0.131628459744 0.0703759785736 3.40897504135e-20)
(0.0268685651979 0.0244457184675 -2.99326915856e-22)
(0.0250139834164 0.0233111508792 -1.47582590183e-22)
(0.027663248816 0.0276239262387 -9.62613539652e-22)
(0.0256288857294 0.0263548336869 -4.20687953293e-22)
(0.028486901938 0.0312034629482 -2.35663434762e-21)
(0.0262164037414 0.0297127805188 -1.37904699302e-21)
(0.0294734147908 0.0352675186355 -5.346423293e-21)
(0.0268427708729 0.0334538275493 -3.25452389029e-21)
(0.0312347390152 0.0399975795693 -6.13752969683e-21)
(0.0276312127652 0.0372602153607 -7.3234310554e-21)
(0.0331876822673 0.0451158463948 -1.28658694688e-20)
(0.0297867194644 0.0444455715727 -8.6149355631e-21)
(0.0353356742825 0.0505853963608 -2.42923363115e-20)
(0.0310738210976 0.0423168882967 -2.28103506024e-20)
(0.0348027489502 0.0580050108678 -1.84700500691e-20)
(0.0327201062981 0.0471112869831 -2.68189748742e-20)
(0.0975880515958 0.0584174510782 2.43473321733e-20)
(0.0346233105168 0.0506573623821 -4.34024712249e-22)
(0.0638088919384 0.173124793732 2.48388460375e-20)
(0.0233621604254 0.0221565788165 -9.16406571854e-23)
(0.0217709141064 0.0210408437458 -2.43120877711e-23)
(0.023844288698 0.0250350103797 -2.6894362762e-22)
(0.0221273114141 0.0238022490941 -1.26198198205e-22)
(0.0243368027551 0.0282395701042 -8.37121406659e-22)
(0.0224159832489 0.0268140995518 -3.84492126612e-22)
(0.0247803622431 0.0316686329632 -2.27693653569e-21)
(0.0227789568154 0.0300968976561 -1.19147854662e-21)
(0.0252873667267 0.0355723493828 -5.23153165269e-21)
(0.0229311579273 0.0337124445286 -3.1574242543e-21)
(0.026467768709 0.0398448115516 -9.80083692167e-21)
(0.0233522726743 0.0372167170261 -7.79475067139e-21)
(0.0279184040206 0.0448604718457 -1.85594166967e-20)
(0.0247670832745 0.0440671776375 -1.77734515024e-20)
(0.0288384707398 0.0502882357899 -2.53369891651e-20)
(0.0256448043623 0.0419577699621 -2.23035430717e-20)
(0.0183932223898 0.0573143903891 -8.78294951728e-21)
(0.0256934386114 0.0471831631096 -2.11366004158e-20)
(-0.0309538582948 0.0977664492177 5.74891519962e-23)
(-0.00582951467543 0.054025590131 -4.14862085488e-21)
(-0.13441148341 0.117764641095 -1.04159277515e-20)
(0.0205953359039 0.0225579419658 -5.88696287904e-23)
(0.0208397154472 0.0254213445888 -2.41746697196e-22)
(0.019255542288 0.0240902430224 -9.91433408224e-23)
(0.0210484621806 0.0284949491826 -7.38849266569e-22)
(0.0193343015653 0.0270171454633 -3.32440414639e-22)
(0.0211923908608 0.0318874148984 -2.07196626523e-21)
(0.0193785353675 0.0301871666813 -1.0007527251e-21)
(0.0213362451814 0.035507919552 -5.720643273e-21)
(0.019303374322 0.033667252672 -2.68203433057e-21)
(0.0219701304633 0.0395656714902 -1.57673652521e-20)
(0.0192887030787 0.0368934010692 -7.05656843278e-21)
(0.0228922801246 0.0442093366379 -2.15175778774e-20)
(0.0201199801029 0.0434151583873 -2.14854133657e-20)
(0.0232476037207 0.0490671607001 -1.81031543224e-20)
(0.0207859624063 0.0411374342046 -2.09125349475e-20)
(0.0104411023645 0.0539220090803 -1.65022717534e-20)
(0.0208372715137 0.0465526727456 -1.95099012359e-20)
(-0.0608008589584 0.0438734084262 -1.46220377584e-20)
(0.00421924872177 0.0545975007252 -2.43740008725e-20)
(-0.060782013458 -0.00165745778372 -1.01349419706e-20)
(0.017881796273 0.0255946312286 -1.89837058265e-22)
(0.0164545382999 0.0241926557338 -7.63177566215e-23)
(0.017850063572 0.0285684379709 -5.94343873171e-22)
(0.0163532320212 0.0270049534033 -3.0849076476e-22)
(0.0177251176306 0.0317838307573 -1.61082079044e-21)
(0.0161562215435 0.0300097548485 -9.01541761382e-22)
(0.0175585486925 0.0352997688665 -4.01795949034e-21)
(0.0157813049884 0.0333211533335 -2.03348888447e-21)
(0.0178320774764 0.039136722701 -1.27746165463e-20)
(0.0154470527799 0.0362603245166 -4.58910621971e-21)
(0.0183999735888 0.0431666139841 -2.08803704357e-20)
(0.0160874427917 0.0423974866454 -1.28137993505e-20)
(0.0187293585099 0.0475702875385 -2.23192818609e-20)
(0.0163815519305 0.0399585529602 -1.7236294479e-20)
(0.0111486323789 0.051630133151 -2.73816303549e-20)
(0.0167770083922 0.0453653156879 -1.98805789744e-20)
(-0.00797654825398 0.0521156375871 -1.98869050846e-20)
(0.00373127051638 0.0532468279357 -2.64982521936e-20)
(0.0132510525293 0.00423382877446 7.49540576117e-21)
(0.0150566827662 0.0255290638499 -1.94971463116e-22)
(0.0137790214205 0.024151101462 -4.77931361093e-23)
(0.0148291118784 0.0283763936873 -6.1568865297e-22)
(0.0134998934154 0.0268075039449 -2.98876718934e-22)
(0.0144447243108 0.031386056021 -1.32420985541e-21)
(0.0131410478195 0.0295821686231 -9.12840217608e-22)
(0.0139813449695 0.0346660324604 -2.60463561384e-21)
(0.0124967118864 0.0326274198618 -1.94846268892e-21)
(0.0140801120255 0.0381632726425 -4.62828902393e-21)
(0.0119464929483 0.0351548908686 -3.34987793483e-21)
(0.0144628926564 0.0416278727604 -9.16972339376e-21)
(0.0126211263904 0.0408372193872 -6.22848169684e-21)
(0.0148017154955 0.0455600281 -1.47975915924e-20)
(0.0124489742371 0.0383639172936 -1.4570124902e-20)
(0.00929121533867 0.0496411775753 -1.8997200813e-20)
(0.0126956509047 0.0433435828185 -1.79464344032e-20)
(0.0252400820106 0.050378794089 8.8405865223e-22)
(0.00299287263163 0.0481238654654 -1.92301196867e-20)
(0.091946176845 0.0109868834998 8.03817955769e-21)
(0.0123713492844 0.0253820157454 -1.51698391927e-22)
(0.0112032758907 0.024018914749 8.34720301575e-25)
(0.0120099565394 0.0279916470442 -5.96028283572e-22)
(0.0108856951619 0.0264930617795 -2.87621674693e-22)
(0.0114318707214 0.0307192640133 -1.53709305111e-21)
(0.010409529892 0.0289968429095 -9.64856374006e-22)
(0.0107611725134 0.0335749239117 -2.69370500991e-21)
(0.00963806915146 0.0316992727934 -2.62879541887e-21)
(0.0108197231435 0.0365719741146 -4.95007060774e-21)
(0.00894757684801 0.0336312833028 -4.1658629071e-21)
(0.011123795843 0.0395273005772 -1.16288832051e-20)
(0.00966500666926 0.0388526386746 -8.43386528563e-21)
(0.0110232736969 0.0427233614293 -1.77189677129e-20)
(0.00925278131349 0.0365599293226 -1.98604256612e-20)
(0.00744259598283 0.0475140602709 -1.81793532769e-20)
(0.00790570561546 0.0412145519548 -2.04850190085e-20)
(0.0979650901247 0.0509953948119 -1.20759987812e-20)
(-0.000492683806955 0.0409551694504 3.4387495377e-21)
(0.176223164693 0.14197008026 -3.37535379442e-21)
(0.00985940671374 0.0251345238247 -1.35088562464e-22)
(0.00878521161281 0.0238891859604 9.23945745897e-23)
(0.00945474165403 0.0275152057652 -6.56449765127e-22)
(0.00850184018505 0.0261836824573 -1.9807137739e-22)
(0.00879837972471 0.0299334031437 -2.05655874177e-21)
(0.00798898585566 0.0284251360536 -9.45373308387e-22)
(0.00802931386856 0.0323696512748 -4.10095331606e-21)
(0.0072004245339 0.0307859540236 -3.06552722506e-21)
(0.0080472243559 0.0348358237993 -7.64965758499e-21)
(0.00648086150004 0.0321084814018 -7.33584846167e-21)
(0.00824831023527 0.037412887732 -1.66654077417e-20)
(0.00708800288336 0.0370442807868 -1.77253630628e-20)
(0.00697293644617 0.0401448857284 -2.26264769568e-20)
(0.00652091658438 0.0351242087224 -2.22124396215e-20)
(-0.00251778340418 0.0443469476248 1.13308380603e-21)
(0.00370319066877 0.0405730205709 -2.02353416956e-20)
(-0.0150739550217 0.0632984811309 1.21393945245e-20)
(-0.0194114172217 0.0397151504002 5.34310314206e-22)
(-0.177104817384 0.117692898239 -1.11070838964e-21)
(0.00753860136555 0.0249631420159 2.94117596635e-23)
(0.00651697536047 0.023882017962 2.37324960559e-22)
(0.00718383194307 0.0271822865194 -4.8699492065e-22)
(0.00628080211937 0.0260393771178 2.56793467751e-23)
(0.00658635773084 0.0292590175174 -1.95434179168e-21)
(0.00591131557181 0.0280888274581 -6.62750090927e-22)
(0.00582822435504 0.0311911418707 -6.30042237067e-21)
(0.00526823341134 0.0301979056585 -2.80701881094e-21)
(0.00559239591925 0.0331969203575 -1.74115539395e-20)
(0.00447568141142 0.0310402700849 -8.05298923167e-21)
(0.00542206611722 0.0360559997733 -2.32723949426e-20)
(0.00422965394374 0.0358785629263 -2.2728954914e-20)
(0.00376552908923 0.0390858833042 -1.98213043602e-20)
(0.00349138840273 0.0341307381428 -1.90902325563e-20)
(-0.00791214110366 0.0411264502368 -2.08341151874e-20)
(0.00166296322818 0.04041293754 -1.64966008475e-20)
(-0.0868600929967 0.0328371772489 -1.27157925999e-20)
(-0.0111238048842 0.0401391920978 -2.13398849662e-20)
(-0.0624771818398 -0.0350631528726 -3.16376674385e-21)
(0.00553713901091 0.0228746379071 3.37913982881e-22)
(0.00446991224802 0.0218991699528 4.37128409384e-22)
(0.00537098871742 0.0250087948325 2.3359254767e-22)
(0.00438104994361 0.0240882911841 4.09058207309e-22)
(0.00512868438577 0.0270789801038 -1.50075823502e-22)
(0.0042098116736 0.0261888722457 3.10313693372e-22)
(0.00472693220628 0.02900257085 -1.51542711018e-21)
(0.00398788993834 0.0281859284339 -2.70071589931e-22)
(0.00407399808095 0.0307156415915 -4.55958567194e-21)
(0.00355615506565 0.0302500345419 -1.70048864643e-21)
(0.00333926479747 0.0324889238631 -1.33703902062e-20)
(0.00270378588607 0.0309483028753 -2.39930148663e-21)
(0.00267388398109 0.0351783945505 -1.85467925277e-20)
(0.00154131908007 0.0356515623975 -3.82869702301e-21)
(0.00209253754552 0.0374470311517 -1.57655290436e-20)
(0.00122318755411 0.0332739238338 3.18209672103e-21)
(-0.000609845676983 0.0370580737328 -1.70023706263e-20)
(0.0020516478137 0.03935081817 1.44249401492e-20)
(-0.00258765796198 0.0227999966377 -1.17878591101e-20)
(0.00313412583736 0.0369423694995 1.19584833272e-20)
(0.0380615698947 -0.0567595505668 6.45309387809e-21)
(0.00339449892887 0.0231753691214 5.08272633811e-22)
(0.00225555939586 0.0222717913803 5.87626195204e-22)
(0.00330744038238 0.0253280556637 4.8577935301e-22)
(0.00222724622793 0.0244654937565 5.68839975868e-22)
(0.00317207196321 0.0274329640121 1.90317926943e-22)
(0.0021047842997 0.0265796059563 5.29134044884e-22)
(0.00294999677575 0.029451058282 -4.55133126175e-22)
(0.00197064286268 0.028603563493 -4.46033335809e-23)
(0.00224805723065 0.0312191241711 4.59795538884e-22)
(0.00178957435733 0.0306633862586 -1.86383064401e-21)
(0.000697711843486 0.0329559456175 7.14239169657e-21)
(0.000968602034334 0.0312541287781 5.03873984886e-21)
(-0.000236996082218 0.0348358383853 1.79001922257e-20)
(-0.000337452607942 0.0353262884315 1.78341725871e-20)
(0.00106265439673 0.0358831082493 3.33725659138e-20)
(0.00017628665101 0.0313047429904 4.43144631623e-20)
(0.00417058046649 0.0341591360862 4.33857941027e-20)
(0.00377559380865 0.0367378678823 8.76691539685e-20)
(0.0617056376106 0.0199907529963 3.01994363155e-20)
(0.0173017243957 0.0347618593041 9.18436640842e-20)
(0.199054448824 0.0467267846692 5.63457818486e-20)
(0.00117605307484 0.0236010983156 6.4819353726e-22)
(0.00113237063756 0.0258281344224 6.12194667741e-22)
(0.00108123682021 0.0279332177358 2.9421278436e-22)
(0.00107535750377 0.0299045333445 -1.45330085141e-21)
(0.000817487753621 0.0316949590437 2.71511366597e-21)
(4.19374896525e-05 0.0326642928368 1.57305207394e-20)
(-4.98180194556e-05 0.0323271812287 4.42484435237e-20)
(0.0024593778477 0.0325034798846 9.8611051217e-20)
(0.0156584036641 0.0362784225726 1.3612702395e-19)
(0.0819310632042 0.0536079053652 1.17990009617e-19)
)
;

boundaryField
{
    back
    {
        type            calculated;
        value           uniform (0 0 0);
    }
    sides
    {
        type            calculated;
        value           uniform (0 0 0);
    }
    bottom
    {
        type            calculated;
        value           nonuniform List<vector> 0();
    }
    front
    {
        type            calculated;
        value           uniform (0 0 0);
    }
    atmosphere
    {
        type            calculated;
        value           nonuniform List<vector> 
17
(
(0.0283833123337 0.0185877244247 2.89309786564e-21)
(0.0328271247005 0.0559300175331 -8.14332985914e-21)
(0.024759925309 0.0517604476461 -7.76399986801e-21)
(0.0367277512731 0.0424950743225 7.05958701823e-21)
(0 -0.00404562291151 0)
(0.149616760171 0.024225443816 1.02109042505e-20)
(0.162284392759 0.126310748312 5.79685965765e-20)
(-0.0695122260304 0.295963618633 -8.29090450144e-21)
(0 -0.0297567804694 0)
(0 -0.021916399618 0)
(0 -0.0283146971563 0)
(0 -0.0332610542583 0)
(-0.0192400289777 0.416562208523 -1.07322242285e-22)
(0 -0.0817723782256 0)
(0 -0.0777345452273 0)
(0 -0.140981435318 0)
(0.137097803142 0.252615536835 9.55719369904e-20)
)
;
    }
    floatingObject
    {
        type            calculated;
        value           nonuniform List<vector> 0();
    }
    procBoundary11to9
    {
        type            processor;
        value           nonuniform List<vector> 9((0.0441396023658 0.0147244651653 -1.64231980342e-22) (0.0470120191535 0.0163369513261 -6.17036724671e-22) (0.0506698917347 0.0180640533689 -1.94435914884e-21) (0.0553563384069 0.0198181525133 -3.63966596435e-21) (0.0611879543644 0.0234214917752 -4.79663347179e-21) (0.0658596148686 0.0207676196787 -6.72227631763e-21) (0.0696160342003 0.0206019543573 -9.37766066607e-21) (0.0566817909327 0.0308040877236 -9.36709186038e-21) (0.0206724981725 0.0265133319136 3.94951042815e-22));
    }
    procBoundary11to10
    {
        type            processor;
        value           nonuniform List<vector> 
23
(
(0.0421364835609 0.0150280184829 -1.08224062373e-22)
(0.0424034727307 0.0170955395444 -1.75912715019e-22)
(0.0426504685697 0.0192915225315 -3.8148345719e-22)
(0.040208390368 0.0215978252792 -3.32714081546e-22)
(0.0377778778159 0.0213321940059 -1.34878857523e-22)
(0.0355698603144 0.0208626909929 -7.69084657201e-23)
(0.0328235042502 0.0223604197933 -1.31540836895e-22)
(0.0298940219887 0.0235498025553 -2.35794042539e-22)
(0.0279218723807 0.0225885022671 -1.23342305073e-22)
(0.0261422234011 0.0215537637091 -7.63579872229e-23)
(0.0244455036231 0.0205422177946 -2.04160542253e-23)
(0.0229056129183 0.0194970865647 -1.54661454615e-23)
(0.0203184141439 0.019911296717 5.1668001732e-24)
(0.0191141034263 0.0213674809851 -9.18571627294e-24)
(0.0178516374846 0.0228049298657 -4.9459428305e-23)
(0.0151692648953 0.0228630690333 -2.8183691261e-23)
(0.012581063872 0.0228138643532 5.17651302265e-24)
(0.010116698471 0.0227228131647 6.38308473176e-23)
(0.00777746560556 0.0226993793378 1.78243622681e-22)
(0.00671324087191 0.0216438763238 2.78832645004e-22)
(0.00566352185987 0.0206368681307 3.70348414523e-22)
(0.00344405493398 0.0209642818537 5.5022159729e-22)
(0.001186611517 0.0213472850507 7.1462812379e-22)
)
;
    }
}


// ************************************************************************* //
