/*--------------------------------*- C++ -*----------------------------------*\
| =========                 |                                                 |
| \\      /  F ield         | OpenFOAM: The Open Source CFD Toolbox           |
|  \\    /   O peration     | Version:  v2012                                 |
|   \\  /    A nd           | Website:  www.openfoam.com                      |
|    \\/     M anipulation  |                                                 |
\*---------------------------------------------------------------------------*/
FoamFile
{
    version     2.0;
    format      ascii;
    class       volScalarField;
    location    "1.5";
    object      k;
}
// * * * * * * * * * * * * * * * * * * * * * * * * * * * * * * * * * * * * * //

dimensions      [0 2 -2 0 0 0 0];


internalField   nonuniform List<scalar> 
166
(
0.0124532706068
0.0124766601337
0.0125037521425
0.0125387213056
0.0125984432457
0.012739911069
0.0131229392847
0.014107584459
0.0163106754713
0.0204780406434
0.0272048061584
0.0369907545233
0.0501069991145
0.0124394610364
0.0124576154187
0.0124775462156
0.0125001349624
0.0125262261061
0.0125594801945
0.0126148388821
0.0127435305675
0.013091659366
0.0139953042034
0.016047230836
0.0200134310985
0.0266886395108
0.0380361012238
0.0539804973065
0.00951559325993
0.0116696137629
0.0124440664733
0.0124643448893
0.0124819611187
0.0125012855082
0.0125231866033
0.012548400978
0.0125801090783
0.0126314491988
0.0127481748312
0.0130630501764
0.0138877560662
0.0157866989894
0.0195318676016
0.0262852699199
0.0403141754282
0.0740666090354
0.00953191638905
0.0116900712628
0.0122653773833
0.012423759298
0.012468389025
0.0124883917101
0.0125055852692
0.0125244205576
0.0125457535708
0.0125702256482
0.0126005730365
0.0126482695407
0.0127539490363
0.0130376954359
0.0137875210101
0.0155391809197
0.019056435866
0.0256194988174
0.0400297056253
0.0750272955974
0.00954667498403
0.0117091271276
0.0122872700441
0.0124468455758
0.0124916909347
0.0125115262505
0.0125284100785
0.0125468733109
0.0125677658878
0.0125916412843
0.0126208297271
0.012665282727
0.0127609028822
0.0130158852495
0.0136956378135
0.0153078881874
0.0186044292166
0.0249077251409
0.0391891841198
0.0749349171992
0.00955976725378
0.0117266965612
0.012307825687
0.0124687190808
0.012513889342
0.012533661413
0.0125503498063
0.0125685648582
0.0125891550314
0.0126125930551
0.0126408413413
0.0126824703816
0.0127690461905
0.0129977120197
0.0136124450732
0.0150937266773
0.0181802380723
0.0242320797338
0.0384099689432
0.0749215372396
0.0095710701546
0.0117426647845
0.0123269415937
0.0124892837435
0.0125348874242
0.0125547034477
0.0125713167579
0.0125894179906
0.0126098570463
0.0126330333699
0.0126605791386
0.0126998196122
0.0127783701605
0.0129831665957
0.0135380407622
0.0148976700901
0.0177887697226
0.0236217890254
0.0378163449334
0.075010462036
0.00958044948061
0.0117568971312
0.0123444947626
0.0125084284948
0.0125545802099
0.0125745548098
0.0125912224687
0.0126093569924
0.0126298120322
0.0126529208108
0.0126800227175
0.012717325091
0.0127888616955
0.0129721963628
0.0134723150724
0.014719883376
0.0174326157295
0.0230930711262
0.0374808314453
0.0751989032044
0.00958776778554
0.0117692292246
0.0123603411573
0.0125260288685
0.012572853577
0.0125931114622
0.012609974221
0.0126283040893
0.0126489606786
0.0126722148043
0.0126991546042
0.0127349842515
0.0128004996313
0.0129647107437
0.0134151267739
0.0145600902979
0.0171153913837
0.0226613071104
0.0374066625377
0.0754167849596
)
;

boundaryField
{
    back
    {
        type            kqRWallFunction;
        value           nonuniform List<scalar> 
166
(
0.0124532706068
0.0124766601337
0.0125037521425
0.0125387213056
0.0125984432457
0.012739911069
0.0131229392847
0.014107584459
0.0163106754713
0.0204780406434
0.0272048061584
0.0369907545233
0.0501069991145
0.0124394610364
0.0124576154187
0.0124775462156
0.0125001349624
0.0125262261061
0.0125594801945
0.0126148388821
0.0127435305675
0.013091659366
0.0139953042034
0.016047230836
0.0200134310985
0.0266886395108
0.0380361012238
0.0539804973065
0.00951559325993
0.0116696137629
0.0124440664733
0.0124643448893
0.0124819611187
0.0125012855082
0.0125231866033
0.012548400978
0.0125801090783
0.0126314491988
0.0127481748312
0.0130630501764
0.0138877560662
0.0157866989894
0.0195318676016
0.0262852699199
0.0403141754282
0.0740666090354
0.00953191638905
0.0116900712628
0.0122653773833
0.012423759298
0.012468389025
0.0124883917101
0.0125055852692
0.0125244205576
0.0125457535708
0.0125702256482
0.0126005730365
0.0126482695407
0.0127539490363
0.0130376954359
0.0137875210101
0.0155391809197
0.019056435866
0.0256194988174
0.0400297056253
0.0750272955974
0.00954667498403
0.0117091271276
0.0122872700441
0.0124468455758
0.0124916909347
0.0125115262505
0.0125284100785
0.0125468733109
0.0125677658878
0.0125916412843
0.0126208297271
0.012665282727
0.0127609028822
0.0130158852495
0.0136956378135
0.0153078881874
0.0186044292166
0.0249077251409
0.0391891841198
0.0749349171992
0.00955976725378
0.0117266965612
0.012307825687
0.0124687190808
0.012513889342
0.012533661413
0.0125503498063
0.0125685648582
0.0125891550314
0.0126125930551
0.0126408413413
0.0126824703816
0.0127690461905
0.0129977120197
0.0136124450732
0.0150937266773
0.0181802380723
0.0242320797338
0.0384099689432
0.0749215372396
0.0095710701546
0.0117426647845
0.0123269415937
0.0124892837435
0.0125348874242
0.0125547034477
0.0125713167579
0.0125894179906
0.0126098570463
0.0126330333699
0.0126605791386
0.0126998196122
0.0127783701605
0.0129831665957
0.0135380407622
0.0148976700901
0.0177887697226
0.0236217890254
0.0378163449334
0.075010462036
0.00958044948061
0.0117568971312
0.0123444947626
0.0125084284948
0.0125545802099
0.0125745548098
0.0125912224687
0.0126093569924
0.0126298120322
0.0126529208108
0.0126800227175
0.012717325091
0.0127888616955
0.0129721963628
0.0134723150724
0.014719883376
0.0174326157295
0.0230930711262
0.0374808314453
0.0751989032044
0.00958776778554
0.0117692292246
0.0123603411573
0.0125260288685
0.012572853577
0.0125931114622
0.012609974221
0.0126283040893
0.0126489606786
0.0126722148043
0.0126991546042
0.0127349842515
0.0128004996313
0.0129647107437
0.0134151267739
0.0145600902979
0.0171153913837
0.0226613071104
0.0374066625377
0.0754167849596
)
;
    }
    sides
    {
        type            kqRWallFunction;
        value           nonuniform List<scalar> 0();
    }
    bottom
    {
        type            kqRWallFunction;
        value           nonuniform List<scalar> 7(0.00951559325993 0.00953191638905 0.00954667498403 0.00955976725378 0.0095710701546 0.00958044948061 0.00958776778554);
    }
    front
    {
        type            kqRWallFunction;
        value           nonuniform List<scalar> 
166
(
0.0124532706068
0.0124766601337
0.0125037521425
0.0125387213056
0.0125984432457
0.012739911069
0.0131229392847
0.014107584459
0.0163106754713
0.0204780406434
0.0272048061584
0.0369907545233
0.0501069991145
0.0124394610364
0.0124576154187
0.0124775462156
0.0125001349624
0.0125262261061
0.0125594801945
0.0126148388821
0.0127435305675
0.013091659366
0.0139953042034
0.016047230836
0.0200134310985
0.0266886395108
0.0380361012238
0.0539804973065
0.00951559325993
0.0116696137629
0.0124440664733
0.0124643448893
0.0124819611187
0.0125012855082
0.0125231866033
0.012548400978
0.0125801090783
0.0126314491988
0.0127481748312
0.0130630501764
0.0138877560662
0.0157866989894
0.0195318676016
0.0262852699199
0.0403141754282
0.0740666090354
0.00953191638905
0.0116900712628
0.0122653773833
0.012423759298
0.012468389025
0.0124883917101
0.0125055852692
0.0125244205576
0.0125457535708
0.0125702256482
0.0126005730365
0.0126482695407
0.0127539490363
0.0130376954359
0.0137875210101
0.0155391809197
0.019056435866
0.0256194988174
0.0400297056253
0.0750272955974
0.00954667498403
0.0117091271276
0.0122872700441
0.0124468455758
0.0124916909347
0.0125115262505
0.0125284100785
0.0125468733109
0.0125677658878
0.0125916412843
0.0126208297271
0.012665282727
0.0127609028822
0.0130158852495
0.0136956378135
0.0153078881874
0.0186044292166
0.0249077251409
0.0391891841198
0.0749349171992
0.00955976725378
0.0117266965612
0.012307825687
0.0124687190808
0.012513889342
0.012533661413
0.0125503498063
0.0125685648582
0.0125891550314
0.0126125930551
0.0126408413413
0.0126824703816
0.0127690461905
0.0129977120197
0.0136124450732
0.0150937266773
0.0181802380723
0.0242320797338
0.0384099689432
0.0749215372396
0.0095710701546
0.0117426647845
0.0123269415937
0.0124892837435
0.0125348874242
0.0125547034477
0.0125713167579
0.0125894179906
0.0126098570463
0.0126330333699
0.0126605791386
0.0126998196122
0.0127783701605
0.0129831665957
0.0135380407622
0.0148976700901
0.0177887697226
0.0236217890254
0.0378163449334
0.075010462036
0.00958044948061
0.0117568971312
0.0123444947626
0.0125084284948
0.0125545802099
0.0125745548098
0.0125912224687
0.0126093569924
0.0126298120322
0.0126529208108
0.0126800227175
0.012717325091
0.0127888616955
0.0129721963628
0.0134723150724
0.014719883376
0.0174326157295
0.0230930711262
0.0374808314453
0.0751989032044
0.00958776778554
0.0117692292246
0.0123603411573
0.0125260288685
0.012572853577
0.0125931114622
0.012609974221
0.0126283040893
0.0126489606786
0.0126722148043
0.0126991546042
0.0127349842515
0.0128004996313
0.0129647107437
0.0134151267739
0.0145600902979
0.0171153913837
0.0226613071104
0.0374066625377
0.0754167849596
)
;
    }
    atmosphere
    {
        type            inletOutlet;
        inletValue      uniform 0.1;
        value           nonuniform List<scalar> 9(0.0501069991145 0.0539804973065 0.1 0.1 0.1 0.1 0.1 0.1 0.1);
    }
    floatingObject
    {
        type            kqRWallFunction;
        value           nonuniform List<scalar> 0();
    }
    procBoundary0to1
    {
        type            processor;
        value           nonuniform List<scalar> 10(0.0125178601695 0.0125822691733 0.0127372040353 0.0131562582976 0.0142221320925 0.0165708750235 0.0209425688424 0.0279710545411 0.0382958116388 0.0533294421722);
    }
    procBoundary0to2
    {
        type            processor;
        value           nonuniform List<scalar> 
14
(
0.0124284803304
0.0124527985817
0.0124810015379
0.0124137679065
0.0124325729569
0.0124325729569
0.00949779151028
0.0116478468878
0.0124187577019
0.0124187577019
0.0122421995325
0.0122421995325
0.0123995084878
0.0123995084878
)
;
    }
    procBoundary0to4
    {
        type            processor;
        value           nonuniform List<scalar> 8(0.00959287211735 0.0117794005534 0.0123742847561 0.0125419296573 0.0125895723315 0.012610252092 0.0126274632545 0.0126461664954);
    }
    procBoundary0to5
    {
        type            processor;
        value           nonuniform List<scalar> 
12
(
0.0126672300358
0.0126908606806
0.0127179415551
0.0127527774894
0.0128132342836
0.0129605823991
0.01336673057
0.0144200208322
0.0168409888362
0.0222758209234
0.0371833708085
0.0753800767941
)
;
    }
}


// ************************************************************************* //
