/*--------------------------------*- C++ -*----------------------------------*\
| =========                 |                                                 |
| \\      /  F ield         | OpenFOAM: The Open Source CFD Toolbox           |
|  \\    /   O peration     | Version:  v2012                                 |
|   \\  /    A nd           | Website:  www.openfoam.com                      |
|    \\/     M anipulation  |                                                 |
\*---------------------------------------------------------------------------*/
FoamFile
{
    version     2.0;
    format      ascii;
    class       volScalarField;
    location    "1.5";
    object      k_0;
}
// * * * * * * * * * * * * * * * * * * * * * * * * * * * * * * * * * * * * * //

dimensions      [0 2 -2 0 0 0 0];


internalField   nonuniform List<scalar> 
166
(
0.0125906784263
0.0126143578261
0.0126417608469
0.0126770157649
0.0127369103196
0.0128784564266
0.0132624154423
0.0142531173357
0.0164792124005
0.0207109905804
0.0275823552399
0.0376120887639
0.0514100958823
0.0125767070784
0.0125950702782
0.0126152522065
0.0126381301314
0.0126645350373
0.0126980868117
0.0127536444654
0.0128824366402
0.0132313888669
0.0141404465046
0.0162131181356
0.0202363951536
0.0270436155908
0.0385377789129
0.0553457903184
0.00962625337444
0.0118013222122
0.0125814444751
0.0126018807762
0.0126197029521
0.0126392766967
0.012661466018
0.0126869963128
0.0127190119269
0.0127705720606
0.0128874086262
0.0132029846819
0.0140325179637
0.0159505608605
0.0197464857036
0.0265863993411
0.040575383836
0.0741887079136
0.00964274681036
0.0118220001767
0.0124019789964
0.0125612281636
0.0126060427996
0.0126262015616
0.0126435985586
0.01266268115
0.0126843009484
0.0127090900416
0.0127397522749
0.0127876839495
0.012893469403
0.0131777455455
0.0139316468443
0.0157002923343
0.0192625907207
0.0258867794663
0.0401881265526
0.0750154103107
0.00965764637576
0.0118412543074
0.0124241132693
0.0125845705576
0.0126296024127
0.0126495921519
0.0126666768376
0.0126853847709
0.0127065618061
0.0127307536401
0.0127602610261
0.0128049577387
0.0129006626897
0.013155950914
0.0138388256909
0.0154652362414
0.0187998711435
0.0251450013058
0.0392613628568
0.0748750752395
0.00967084971121
0.011858999301
0.0124448895171
0.0126066801153
0.0126520388128
0.0126719635195
0.0126888499266
0.0127073063811
0.0127281774648
0.0127519291648
0.0127804966296
0.0128223711144
0.0129089972161
0.0131377083058
0.0137544742572
0.0152466144648
0.0183629289295
0.0244360531267
0.0383983956308
0.0748149340621
0.00968223318333
0.0118751195129
0.0124642039497
0.0126274594256
0.0126732536137
0.0126932203559
0.0127100285277
0.012728367132
0.0127490821877
0.0127725670048
0.0128004281061
0.0128399094841
0.0129184672855
0.0131230341199
0.013678797195
0.0150457645792
0.017957480377
0.0237880697559
0.0377151565105
0.0748584624629
0.00969166211825
0.0118894795336
0.0124819324816
0.0126467962243
0.0126931406644
0.0127132640326
0.012730123169
0.012748490414
0.0127692153001
0.0127926251147
0.0128200347773
0.0128575685982
0.0129290666479
0.0131119057743
0.0136117917699
0.0148631622434
0.0175867682463
0.0232160352128
0.037273153898
0.0750013057021
0.00969899888373
0.0119019143945
0.0124979303149
0.0126645652709
0.0127115850923
0.0127319898975
0.0127490407203
0.0127675983446
0.0127885178415
0.0128120637967
0.0128393010053
0.0128753498529
0.0129407844911
0.0131042649121
0.0135534149852
0.0146987149763
0.0172544294629
0.0227346046613
0.0370862737724
0.0751667701232
)
;

boundaryField
{
    back
    {
        type            kqRWallFunction;
        value           nonuniform List<scalar> 
166
(
0.0125906784263
0.0126143578261
0.0126417608469
0.0126770157649
0.0127369103196
0.0128784564266
0.0132624154423
0.0142531173357
0.0164792124005
0.0207109905804
0.0275823552399
0.0376120887639
0.0514100958823
0.0125767070784
0.0125950702782
0.0126152522065
0.0126381301314
0.0126645350373
0.0126980868117
0.0127536444654
0.0128824366402
0.0132313888669
0.0141404465046
0.0162131181356
0.0202363951536
0.0270436155908
0.0385377789129
0.0553457903184
0.00962625337444
0.0118013222122
0.0125814444751
0.0126018807762
0.0126197029521
0.0126392766967
0.012661466018
0.0126869963128
0.0127190119269
0.0127705720606
0.0128874086262
0.0132029846819
0.0140325179637
0.0159505608605
0.0197464857036
0.0265863993411
0.040575383836
0.0741887079136
0.00964274681036
0.0118220001767
0.0124019789964
0.0125612281636
0.0126060427996
0.0126262015616
0.0126435985586
0.01266268115
0.0126843009484
0.0127090900416
0.0127397522749
0.0127876839495
0.012893469403
0.0131777455455
0.0139316468443
0.0157002923343
0.0192625907207
0.0258867794663
0.0401881265526
0.0750154103107
0.00965764637576
0.0118412543074
0.0124241132693
0.0125845705576
0.0126296024127
0.0126495921519
0.0126666768376
0.0126853847709
0.0127065618061
0.0127307536401
0.0127602610261
0.0128049577387
0.0129006626897
0.013155950914
0.0138388256909
0.0154652362414
0.0187998711435
0.0251450013058
0.0392613628568
0.0748750752395
0.00967084971121
0.011858999301
0.0124448895171
0.0126066801153
0.0126520388128
0.0126719635195
0.0126888499266
0.0127073063811
0.0127281774648
0.0127519291648
0.0127804966296
0.0128223711144
0.0129089972161
0.0131377083058
0.0137544742572
0.0152466144648
0.0183629289295
0.0244360531267
0.0383983956308
0.0748149340621
0.00968223318333
0.0118751195129
0.0124642039497
0.0126274594256
0.0126732536137
0.0126932203559
0.0127100285277
0.012728367132
0.0127490821877
0.0127725670048
0.0128004281061
0.0128399094841
0.0129184672855
0.0131230341199
0.013678797195
0.0150457645792
0.017957480377
0.0237880697559
0.0377151565105
0.0748584624629
0.00969166211825
0.0118894795336
0.0124819324816
0.0126467962243
0.0126931406644
0.0127132640326
0.012730123169
0.012748490414
0.0127692153001
0.0127926251147
0.0128200347773
0.0128575685982
0.0129290666479
0.0131119057743
0.0136117917699
0.0148631622434
0.0175867682463
0.0232160352128
0.037273153898
0.0750013057021
0.00969899888373
0.0119019143945
0.0124979303149
0.0126645652709
0.0127115850923
0.0127319898975
0.0127490407203
0.0127675983446
0.0127885178415
0.0128120637967
0.0128393010053
0.0128753498529
0.0129407844911
0.0131042649121
0.0135534149852
0.0146987149763
0.0172544294629
0.0227346046613
0.0370862737724
0.0751667701232
)
;
    }
    sides
    {
        type            kqRWallFunction;
        value           nonuniform List<scalar> 0();
    }
    bottom
    {
        type            kqRWallFunction;
        value           nonuniform List<scalar> 7(0.00962625337444 0.00964274681036 0.00965764637576 0.00967084971121 0.00968223318333 0.00969166211825 0.00969899888373);
    }
    front
    {
        type            kqRWallFunction;
        value           nonuniform List<scalar> 
166
(
0.0125906784263
0.0126143578261
0.0126417608469
0.0126770157649
0.0127369103196
0.0128784564266
0.0132624154423
0.0142531173357
0.0164792124005
0.0207109905804
0.0275823552399
0.0376120887639
0.0514100958823
0.0125767070784
0.0125950702782
0.0126152522065
0.0126381301314
0.0126645350373
0.0126980868117
0.0127536444654
0.0128824366402
0.0132313888669
0.0141404465046
0.0162131181356
0.0202363951536
0.0270436155908
0.0385377789129
0.0553457903184
0.00962625337444
0.0118013222122
0.0125814444751
0.0126018807762
0.0126197029521
0.0126392766967
0.012661466018
0.0126869963128
0.0127190119269
0.0127705720606
0.0128874086262
0.0132029846819
0.0140325179637
0.0159505608605
0.0197464857036
0.0265863993411
0.040575383836
0.0741887079136
0.00964274681036
0.0118220001767
0.0124019789964
0.0125612281636
0.0126060427996
0.0126262015616
0.0126435985586
0.01266268115
0.0126843009484
0.0127090900416
0.0127397522749
0.0127876839495
0.012893469403
0.0131777455455
0.0139316468443
0.0157002923343
0.0192625907207
0.0258867794663
0.0401881265526
0.0750154103107
0.00965764637576
0.0118412543074
0.0124241132693
0.0125845705576
0.0126296024127
0.0126495921519
0.0126666768376
0.0126853847709
0.0127065618061
0.0127307536401
0.0127602610261
0.0128049577387
0.0129006626897
0.013155950914
0.0138388256909
0.0154652362414
0.0187998711435
0.0251450013058
0.0392613628568
0.0748750752395
0.00967084971121
0.011858999301
0.0124448895171
0.0126066801153
0.0126520388128
0.0126719635195
0.0126888499266
0.0127073063811
0.0127281774648
0.0127519291648
0.0127804966296
0.0128223711144
0.0129089972161
0.0131377083058
0.0137544742572
0.0152466144648
0.0183629289295
0.0244360531267
0.0383983956308
0.0748149340621
0.00968223318333
0.0118751195129
0.0124642039497
0.0126274594256
0.0126732536137
0.0126932203559
0.0127100285277
0.012728367132
0.0127490821877
0.0127725670048
0.0128004281061
0.0128399094841
0.0129184672855
0.0131230341199
0.013678797195
0.0150457645792
0.017957480377
0.0237880697559
0.0377151565105
0.0748584624629
0.00969166211825
0.0118894795336
0.0124819324816
0.0126467962243
0.0126931406644
0.0127132640326
0.012730123169
0.012748490414
0.0127692153001
0.0127926251147
0.0128200347773
0.0128575685982
0.0129290666479
0.0131119057743
0.0136117917699
0.0148631622434
0.0175867682463
0.0232160352128
0.037273153898
0.0750013057021
0.00969899888373
0.0119019143945
0.0124979303149
0.0126645652709
0.0127115850923
0.0127319898975
0.0127490407203
0.0127675983446
0.0127885178415
0.0128120637967
0.0128393010053
0.0128753498529
0.0129407844911
0.0131042649121
0.0135534149852
0.0146987149763
0.0172544294629
0.0227346046613
0.0370862737724
0.0751667701232
)
;
    }
    atmosphere
    {
        type            inletOutlet;
        inletValue      uniform 0.1;
        value           nonuniform List<scalar> 9(0.0514100958823 0.0553457903184 0.1 0.1 0.1 0.1 0.1 0.1 0.1);
    }
    floatingObject
    {
        type            kqRWallFunction;
        value           nonuniform List<scalar> 0();
    }
    procBoundary0to1
    {
        type            processor;
        value           nonuniform List<scalar> 10(0.0126558267743 0.0127203762137 0.0128753543825 0.0132954337567 0.0143680709723 0.0167422491545 0.0211826485744 0.0283481649348 0.0388809800464 0.0542925537809);
    }
    procBoundary0to2
    {
        type            processor;
        value           nonuniform List<scalar> 
14
(
0.0125655763016
0.012590185736
0.0126186958964
0.0125507082866
0.0125697253248
0.0125697253248
0.00960825256789
0.0117793136939
0.0125558419003
0.0125558419003
0.0123785384431
0.0123785384431
0.0125367012247
0.0125367012247
)
;
    }
    procBoundary0to4
    {
        type            processor;
        value           nonuniform List<scalar> 8(0.00970409191873 0.0119121625227 0.0125120010112 0.0126806110538 0.0127284513519 0.0127492764594 0.0127666725695 0.0127855988386);
    }
    procBoundary0to5
    {
        type            processor;
        value           nonuniform List<scalar> 
12
(
0.0128069183214
0.0128308307938
0.0128581973391
0.0128932399247
0.0129535828032
0.0131000088196
0.013503993777
0.0145543696439
0.0169658264314
0.0222996079663
0.0367353523998
0.0750229181115
)
;
    }
}


// ************************************************************************* //
