/*--------------------------------*- C++ -*----------------------------------*\
| =========                 |                                                 |
| \\      /  F ield         | OpenFOAM: The Open Source CFD Toolbox           |
|  \\    /   O peration     | Version:  v2012                                 |
|   \\  /    A nd           | Website:  www.openfoam.com                      |
|    \\/     M anipulation  |                                                 |
\*---------------------------------------------------------------------------*/
FoamFile
{
    version     2.0;
    format      ascii;
    class       volVectorField;
    location    "3.6";
    object      ddt0(rho,U);
}
// * * * * * * * * * * * * * * * * * * * * * * * * * * * * * * * * * * * * * //

dimensions      [1 -2 -2 0 0 0 0];


internalField   nonuniform List<vector> 
164
(
(153.46530883 -3.43647198601 5.88316220027e-20)
(155.206092232 -10.4930234684 -2.82224979926e-19)
(157.95242907 -17.4450090237 9.28294073882e-21)
(162.002036936 -24.6303835144 2.70151660811e-20)
(167.501831685 -32.0764018835 -2.44662619877e-20)
(174.606563699 -39.8647692858 -1.31230049097e-20)
(183.424644079 -48.1176058419 2.34524706382e-20)
(194.101492783 -56.987358757 3.58508998307e-20)
(159.748374362 -2.71788284878 7.30011622382e-21)
(161.516955446 -8.41014701068 -1.7946977112e-19)
(164.361504202 -13.9663848846 -6.57699192895e-21)
(168.550588988 -19.6817780842 1.84859369992e-20)
(174.240374797 -25.571579665 3.50556323607e-20)
(181.592276035 -31.6883444005 2.19453419476e-20)
(190.748462658 -38.1159510399 2.68420192703e-20)
(201.879006789 -44.9413426288 2.44644470304e-20)
(215.223599921 -52.3635490342 1.5665940388e-19)
(231.09494279 -60.5742990468 7.59051251104e-20)
(249.911421956 -69.800100321 -1.12831420031e-19)
(164.587514446 -1.99280248317 2.88556389419e-19)
(166.354287669 -6.2832385469 -1.19154508345e-20)
(169.248467956 -10.4033836619 -2.40259208771e-20)
(173.510553609 -14.6062357934 2.51197850219e-20)
(179.309408926 -18.8933463461 1.24925373291e-20)
(186.810889916 -23.2759666889 -1.19679204106e-20)
(196.172174471 -27.7953337268 3.06621462663e-20)
(207.580408437 -32.5033214727 -7.65207836698e-21)
(221.283432369 -37.4798202959 4.34037609423e-22)
(237.691692248 -42.8024116418 1.15090675044e-19)
(257.273898767 -48.5640494172 7.26242793896e-20)
(280.698639758 -54.9861721323 4.1551971771e-19)
(309.040426086 -62.2286645029 -3.37660604744e-21)
(167.977756196 -1.2647785429 -4.01654874616e-20)
(169.714414508 -4.14198929206 -2.23011093861e-19)
(172.607923491 -6.8117060679 -2.51473747885e-20)
(176.868296011 -9.48493529827 3.92939866184e-20)
(182.671362735 -12.1437393014 -6.36161933936e-21)
(190.190068337 -14.7586313949 8.02891615379e-20)
(199.58395507 -17.3204719977 3.48976127321e-20)
(211.05433139 -19.8259815935 1.24673449411e-19)
(224.879187268 -22.2621815481 1.88645004209e-20)
(241.440112301 -24.6165659118 2.47974821102e-19)
(261.183466109 -26.8715167623 1.05762237694e-20)
(284.703679181 -28.9721895646 4.3197632607e-19)
(312.911137815 -30.6239492463 9.96255029815e-19)
(347.183706366 -31.3611608706 1.41594709436e-18)
(169.926749878 -0.546249764651 4.51793705074e-21)
(171.602045597 -2.02555345888 -1.27527570779e-19)
(174.445462945 -3.25620986504 1.33069528947e-20)
(178.623131529 -4.41000237578 4.30486974923e-20)
(184.318541405 -5.44638880251 6.77713252534e-20)
(191.708925497 -6.29729057414 -6.99649773806e-22)
(200.9495444 -6.90350890923 6.60905336881e-20)
(212.239185662 -7.19815936756 1.19759650974e-20)
(225.853909004 -7.09457490945 7.65745845581e-20)
(242.141331872 -6.50929162231 -1.54774151991e-20)
(261.522363026 -5.330783082 -3.82892921685e-20)
(284.503252215 -3.35825149324 3.08389497243e-19)
(311.700821934 -0.243142879512 -4.09797910332e-20)
(343.857215811 4.50440262102 1.48836162976e-18)
(170.464327751 0.148422594701 8.29659608685e-20)
(172.053430336 0.0268292156996 -6.79532434691e-20)
(174.796941503 0.195320002797 -3.70419679759e-20)
(178.811254197 0.517426385301 4.21005249828e-20)
(184.285865267 1.06400896019 -3.67902251777e-22)
(191.394652951 1.93671492328 1.77849188158e-20)
(200.286480932 3.23728090404 3.96497272214e-20)
(211.143940956 5.09143212747 1.55579333893e-19)
(224.22921567 7.64397700196 1.46420490155e-19)
(239.841931542 11.0493259458 1.5407794442e-19)
(258.387553759 15.4864370707 1.38880368963e-19)
(280.302981567 21.1958372794 1.47227883535e-19)
(306.057502033 28.4378034568 3.13029931525e-19)
(336.170035563 37.4280310257 1.76096124659e-19)
(169.651292803 0.794440108747 3.42682349032e-19)
(171.138621676 1.97384028346 2.90471991293e-20)
(173.726209493 3.47804663191 1.26573248131e-19)
(177.500110701 5.20520715297 7.74785682215e-20)
(182.64757301 7.25729103573 6.06893056885e-21)
(189.327570429 9.76487077572 1.96588136605e-20)
(197.671949424 12.871628384 3.39032081074e-20)
(207.853258728 16.7571802827 -1.0319375302e-19)
(220.096545716 21.6126637027 3.32328848499e-20)
(234.684231142 27.6568822415 9.71283198981e-20)
(251.972714159 35.1303680909 -2.10432801827e-19)
(272.375298374 44.2909156396 2.7613647346e-19)
(296.362295631 55.3894607779 -1.14659529751e-19)
(324.55326866 68.5060247889 2.13362223253e-19)
(167.601933541 1.39745656785 1.19199369438e-19)
(168.952930636 3.784989127 2.65569398745e-20)
(171.33327114 6.53134246251 3.84410284975e-20)
(174.799550508 9.56336225437 1.8725515328e-20)
(179.515347876 13.0068773987 1.83112966487e-20)
(185.626694017 17.0192051121 -4.78823082177e-20)
(193.244797688 21.7884404636 1.38170071532e-21)
(202.521411451 27.5279447352 -3.22106429837e-22)
(213.634068184 34.4799959405 3.73944873954e-20)
(226.842797498 42.9260172538 -4.27186714059e-21)
(242.452666486 53.1701176394 -5.41727387612e-20)
(260.874440775 65.5566458076 1.04916290234e-19)
(282.627599 80.4254915822 -1.45405207699e-19)
(308.448905275 98.0075275662 2.7060457324e-19)
(164.414877784 1.94900204977 1.01887338101e-19)
(165.61695165 5.42664476245 -5.77877912246e-20)
(167.755987207 9.29684638719 5.74460461234e-20)
(170.846763835 13.5048942531 7.59041878777e-21)
(175.036465244 18.1940346146 2.30690079922e-20)
(180.456034813 23.5491185363 1.52065605182e-19)
(187.190505043 29.7869787115 -1.61366148697e-22)
(195.346699577 37.1530711369 -2.33883853423e-20)
(205.069911177 45.9330196927 1.76010007267e-19)
(216.555906821 56.468409467 1.28531284353e-21)
(230.065245812 69.1487813918 -1.72796466896e-19)
(245.96332815 84.4454378317 3.20079823899e-19)
(264.761166205 102.8738905 -1.63581009084e-19)
(287.234592475 125.03081489 1.87497523941e-19)
(160.248081585 2.42212994844 8.16281027326e-20)
(161.281501474 6.86572642991 -2.16779803417e-20)
(163.144003449 11.7240107396 -7.62512568443e-20)
(165.802959768 16.9542718401 4.0138182706e-21)
(169.392267234 22.7194745378 9.16812889745e-21)
(174.017541082 29.2214782827 7.70990014894e-20)
(179.730900841 36.6951418418 -5.57012775716e-22)
(186.595824681 45.4098713913 6.50473975937e-21)
(194.700803359 55.6861901079 -5.59238747347e-20)
(204.170020721 67.9143777586 -1.17632302396e-19)
(215.177992562 82.5674706076 -6.6453858932e-22)
(227.994089602 100.245832552 1.55191585563e-19)
(243.023046373 121.666921933 8.04586567711e-21)
(260.960037369 147.721867606 1.98976106091e-19)
(282.625880962 179.173855867 1.35548378547e-18)
(309.708273914 217.853309771 -2.70044734816e-18)
(155.250399599 2.81682845805 7.48001304811e-20)
(156.105276493 8.08350480031 -2.8215368246e-20)
(157.662431463 13.7747280948 3.97642438996e-22)
(159.852041382 19.8562830705 6.71436201616e-20)
(162.785738825 26.5049692282 4.64184758846e-20)
(166.541171406 33.9309913133 1.24695263268e-21)
(171.133042626 42.3772559619 -1.62491558064e-21)
(176.575930488 52.1233574613 1.20855432629e-21)
(182.89427459 63.5041358755 5.38927767009e-20)
(190.120023507 76.9416631646 -1.19704460171e-20)
(198.315573195 92.9702856398 6.17166148785e-20)
(207.592498203 112.298150185 2.47522893224e-19)
(218.151268193 135.857937877 -1.2410964581e-19)
(230.465985024 164.873417533 -1.15197042251e-20)
(245.231401686 199.964451198 -2.12560063115e-18)
(262.781147248 243.617877117 1.32137311939e-18)
(149.571053067 3.13861467952 4.12982903998e-20)
(150.24314471 9.06947293052 -1.14911395689e-22)
(151.482688399 15.4257669043 7.65006976e-20)
(153.18232902 22.175384696 6.91533483595e-20)
(155.430680651 29.5000107843 1.84517491208e-20)
(158.275436269 37.609326949 9.52641599445e-20)
(161.693924062 46.741438643 7.94542820462e-20)
(165.647966263 57.1726571232 -7.25823062503e-20)
(170.09626665 69.2305556678 8.80116116441e-20)
(174.977622166 83.3369875902 1.19185702194e-19)
(180.214273565 100.043110549 -5.04497478067e-20)
(185.717758179 120.102253328 3.73803856432e-20)
(191.37901911 144.599123294 -3.22629758155e-19)
(197.067424292 175.052663866 -1.62402559522e-18)
(203.148671602 211.864170628 -5.03317401983e-18)
(208.49523707 260.265541531 4.15025515943e-19)
)
;

boundaryField
{
    back
    {
        type            calculated;
        value           uniform (0 0 0);
    }
    sides
    {
        type            calculated;
        value           nonuniform List<vector> 0();
    }
    bottom
    {
        type            calculated;
        value           uniform (0 0 0);
    }
    front
    {
        type            calculated;
        value           uniform (0 0 0);
    }
    atmosphere
    {
        type            calculated;
        value           nonuniform List<vector> 0();
    }
    floatingObject
    {
        type            calculated;
        value           nonuniform List<vector> 0();
    }
    procBoundary7to6
    {
        type            processor;
        value           nonuniform List<vector> 
11
(
(389.346985508 -28.4086431202 5.10216006471e-18)
(382.002525832 12.757602817 1.69266055953e-18)
(371.262529724 48.6962658314 3.08907039134e-18)
(357.697512307 83.6217678054 -2.87308938244e-18)
(339.399780555 118.36445741 1.27689450118e-18)
(314.415260814 151.107111678 1.54391739785e-18)
(314.415260814 151.107111678 1.54391739785e-18)
(348.515999206 181.887583092 6.60667349815e-18)
(351.515296665 255.023716835 -2.52957455545e-17)
(275.75060156 281.053166838 -1.30533987368e-17)
(200.775020993 287.73992811 -6.1755346747e-17)
)
;
    }
    procBoundary7to8
    {
        type            processor;
        value           nonuniform List<vector> 
17
(
(145.817014097 -4.11945558678 -1.92279007872e-19)
(147.500260593 -12.4819329048 2.26913907322e-19)
(150.100692127 -20.7706463379 6.58311202053e-21)
(153.944571163 -29.3684603689 1.73824876337e-20)
(159.169593476 -38.3076545071 -6.80416872797e-20)
(165.91810789 -47.6817629599 -7.42040280789e-21)
(174.270994254 -57.6357435875 1.1121587674e-20)
(184.318824817 -68.3337669083 3.26877014395e-20)
(206.817035061 -66.6870653174 4.2527301753e-20)
(206.817035061 -66.6870653174 4.2527301753e-20)
(221.73612398 -77.4688901523 -2.402211372e-20)
(239.158626473 -89.7389776525 -1.40639489868e-19)
(272.286700756 -80.5609716577 -5.34340812672e-21)
(272.286700756 -80.5609716577 -5.34340812672e-21)
(299.18265901 -93.463414849 1.41200858264e-19)
(344.03245155 -70.2866169706 3.47915349744e-19)
(344.03245155 -70.2866169706 3.47915349744e-19)
)
;
    }
    procBoundary7to9
    {
        type            processor;
        value           nonuniform List<vector> 
16
(
(143.34861122 3.37998176227 7.28272821516e-20)
(143.845233994 9.81318797146 9.27772181321e-21)
(144.7673096 16.6619001228 3.52672936583e-20)
(145.976359112 23.8916821477 -5.66750427146e-20)
(147.53705365 31.682088749 2.88569761452e-20)
(149.46923021 40.2315344545 -2.36863025564e-20)
(151.71629573 49.7617502829 -1.68785346304e-21)
(154.190863122 60.5308354219 6.28057289521e-21)
(156.790478857 72.8408772159 2.71009725709e-20)
(159.369321509 87.072532109 -1.06909307691e-20)
(161.716932925 103.728937319 -3.0014277976e-20)
(163.533989065 123.492946336 -5.22247590447e-20)
(164.347330092 147.30839144 -1.62157019109e-19)
(163.35302221 176.903602611 -2.5874926003e-19)
(159.16236258 211.651027842 -2.44327683161e-18)
(150.822677004 259.051064954 7.59494922228e-18)
)
;
    }
}


// ************************************************************************* //
