/*--------------------------------*- C++ -*----------------------------------*\
| =========                 |                                                 |
| \\      /  F ield         | OpenFOAM: The Open Source CFD Toolbox           |
|  \\    /   O peration     | Version:  v2012                                 |
|   \\  /    A nd           | Website:  www.openfoam.com                      |
|    \\/     M anipulation  |                                                 |
\*---------------------------------------------------------------------------*/
FoamFile
{
    version     2.0;
    format      ascii;
    class       surfaceVectorField;
    location    "3.6";
    object      ddtCorrDdt0(Uf);
}
// * * * * * * * * * * * * * * * * * * * * * * * * * * * * * * * * * * * * * //

dimensions      [0 1 -2 0 0 0 0];


internalField   nonuniform List<vector> 
300
(
(0.154613739248 -0.00693100175943 -1.11895421758e-22)
(0.157213659935 -0.00308272511494 3.31264230181e-23)
(0.156861226164 -0.0139038197297 -1.36714739933e-22)
(0.158962038595 -0.00946861929017 -2.31261661887e-22)
(0.160265153836 -0.0210123522793 1.81820126641e-23)
(0.161767304331 -0.0157339916899 1.35599821769e-24)
(0.165048286628 -0.0283203872998 1.27576819588e-24)
(0.165903707637 -0.0221959784132 2.27910509324e-23)
(0.17136177413 -0.0359146634473 -1.88293623003e-23)
(0.171523092433 -0.0288758735459 5.30335321941e-24)
(0.179337513044 -0.0439115077601 5.17408391824e-24)
(0.178769512279 -0.0358409261843 4.41877389018e-24)
(0.189102720543 -0.0524339518851 2.970644333e-23)
(0.187786350102 -0.0431943392964 2.51928190233e-23)
(0.198737666876 -0.051056020077 3.0213188538e-23)
(0.160922196755 -0.00555453957486 -8.62398171106e-23)
(0.162787302347 -0.00235958862504 1.48195078422e-22)
(0.163232834846 -0.0111352841968 -9.31909237366e-23)
(0.164550022018 -0.00735993360148 -9.58649413822e-23)
(0.166755878412 -0.0168057243925 5.96503648593e-24)
(0.167432616566 -0.0122068396806 -1.53290235002e-23)
(0.171704103056 -0.0226060945796 2.68186359559e-23)
(0.171679602422 -0.0171748904291 2.18419459312e-23)
(0.178236618807 -0.028594011757 2.85514894099e-23)
(0.177456098068 -0.0222725046152 2.38165992846e-23)
(0.186505517092 -0.0348455054643 2.44375089952e-23)
(0.184918590645 -0.0275316456002 4.99751243825e-24)
(0.196667220551 -0.0414473797834 2.56995642314e-23)
(0.194226347035 -0.0330149832433 2.88037923105e-23)
(0.208927007822 -0.0484990594429 9.07259815761e-23)
(0.205547547368 -0.0387920475607 8.42142512846e-24)
(0.223561680483 -0.0563042528662 1.16493303141e-22)
(0.219116947374 -0.0450024949577 7.86890617847e-23)
(0.24093763447 -0.0649141896478 -1.84975386795e-23)
(0.235350888732 -0.0517813198182 9.56708285702e-23)
(0.254728082726 -0.0592885273911 -2.01423357892e-23)
(0.165769182859 -0.00414965999782 1.3856995415e-22)
(0.166915887449 -0.00163172515503 1.24419481669e-22)
(0.168103786081 -0.00830220270265 -1.80030411458e-23)
(0.168665293454 -0.00522200457228 -1.17675073515e-22)
(0.171688272836 -0.0124944237261 5.47885945094e-25)
(0.171574226977 -0.00862304982435 -2.46309653456e-23)
(0.176727714044 -0.0167404780723 1.88399092599e-23)
(0.175859113446 -0.0120672827436 3.2264886398e-23)
(0.183389802906 -0.0210648901833 2.6262231292e-25)
(0.181693501297 -0.0155464974432 3.07087036304e-24)
(0.191836354177 -0.0255057622534 9.36379575355e-24)
(0.189248633996 -0.0190515624816 3.42219859799e-23)
(0.202239853342 -0.0300990818372 1.15256532076e-23)
(0.198683509904 -0.0225985536187 3.28386612622e-23)
(0.214818260177 -0.0349114872455 -3.61549466291e-24)
(0.210198811302 -0.0262118121148 5.86158021623e-23)
(0.22990126326 -0.0400369574624 5.78665872138e-23)
(0.224059873689 -0.0299248598933 9.66660975399e-24)
(0.247929141418 -0.0455305522232 9.40260314605e-23)
(0.240667218137 -0.033770288733 1.81859955683e-22)
(0.269472167944 -0.0515331670755 2.44508022774e-22)
(0.260503202564 -0.0377857918117 4.16746570401e-23)
(0.295403921614 -0.0582999591951 2.06383188582e-22)
(0.284183660347 -0.0420547975339 4.24510336097e-22)
(0.31279969198 -0.0465100450108 4.97287174354e-22)
(0.169150458697 -0.00273754907896 -1.31825545996e-22)
(0.169591497374 -0.000907142934822 -1.78563749913e-23)
(0.171469647625 -0.00544881957746 -1.24302997715e-22)
(0.171296098322 -0.00308931958852 -1.75585761298e-22)
(0.175052957049 -0.00814770895455 7.08603510732e-24)
(0.174179439627 -0.00504301581765 -5.9311420612e-24)
(0.180093672693 -0.0108183374066 1.64958475012e-23)
(0.178424053043 -0.00695997452787 4.12455355954e-23)
(0.186766513215 -0.0134522809103 3.703023403e-23)
(0.184211579131 -0.00881090596724 3.07601649747e-23)
(0.195238031867 -0.0160391624868 5.76968514885e-23)
(0.191715026366 -0.0105469416713 3.98662781221e-23)
(0.205689000261 -0.0185630097319 7.99288102169e-23)
(0.201091577836 -0.01213385283 5.05846594188e-23)
(0.218359528098 -0.0210220996756 7.18979065792e-23)
(0.212557970422 -0.0135364949514 6.8447357076e-23)
(0.233580003042 -0.02340765313 1.33659978224e-22)
(0.226377988102 -0.0147049567795 4.78053273242e-23)
(0.251765099124 -0.0256952321796 1.29508581263e-22)
(0.24293275808 -0.0155911660651 1.16457682849e-22)
(0.273436119074 -0.0278508648952 2.21676970364e-22)
(0.262658272158 -0.0161304264656 -1.38810464835e-23)
(0.2993472083 -0.0297837486109 7.15414321869e-22)
(0.286103478359 -0.016194717775 3.70854717999e-22)
(0.330645563902 -0.0309886536078 1.20827106636e-21)
(0.314013411006 -0.0154620557789 4.785218043e-22)
(0.347367485418 -0.0134531907112 1.4548125211e-21)
(0.171072206083 -0.00133617318634 -6.16165902937e-23)
(0.170828603409 -0.000199266650433 4.38193395268e-23)
(0.173335573613 -0.00262090105435 -5.72139056446e-23)
(0.172463227243 -0.00100114799351 -9.79176210753e-23)
(0.176852387201 -0.00384415390421 2.82283584268e-23)
(0.175273192973 -0.00153318126385 -1.18895209486e-23)
(0.181797778942 -0.00495334737558 5.55098530689e-23)
(0.179396034393 -0.00194977413256 4.26512940405e-23)
(0.188352437556 -0.00589686658111 3.35962090668e-23)
(0.185016943218 -0.00219512821834 3.37624529656e-23)
(0.196682933968 -0.00662549893406 3.27540860523e-23)
(0.192317096397 -0.00218423050734 8.55793648521e-24)
(0.20696664106 -0.00708011751079 3.91032062779e-23)
(0.201447254807 -0.00183647096444 5.29650439821e-23)
(0.219441411973 -0.00717942433707 4.4354777821e-23)
(0.212606351795 -0.00105537223699 8.39282680791e-23)
(0.234419646636 -0.00684223215646 3.06030319498e-23)
(0.2260560876 0.000275011615809 1.11697990884e-22)
(0.252286271398 -0.0059394588094 -2.69319448974e-23)
(0.242123033356 0.00227383502474 6.94237922066e-23)
(0.273505713931 -0.00435232585115 1.35296701152e-22)
(0.261224713615 0.00508659018399 5.03858418028e-23)
(0.298640651047 -0.00187907321429 1.3396220043e-22)
(0.283828515781 0.00893429057647 2.28221957031e-22)
(0.328371846002 0.00195847298576 7.25063259038e-22)
(0.310458844169 0.0141218403169 1.36288024088e-22)
(0.341600037352 0.021002861487 8.33812259611e-22)
(0.171567540344 2.36752198451e-05 7.51830874516e-24)
(0.170677958457 0.000472288032741 2.13205775635e-22)
(0.173737696512 0.00012391415589 -5.25932363794e-23)
(0.172219519938 0.00100215676557 -1.9489524464e-23)
(0.177122657915 0.000340027136529 2.53341466503e-24)
(0.174903708957 0.0018400205917 4.48455332347e-23)
(0.181875648438 0.000757526311862 2.09038939372e-23)
(0.178821250184 0.00286650060421 5.98972969044e-23)
(0.188178687555 0.00145663957834 8.72418038399e-24)
(0.184166691862 0.00416816394012 2.85567403505e-24)
(0.196193462196 0.00253530238072 2.8768894415e-23)
(0.191110020147 0.0058613269694 1.87555654853e-23)
(0.206086022667 0.00410520519321 9.77901057833e-23)
(0.199792375681 0.00806891840585 3.68425252753e-23)
(0.218079153826 0.00630899631955 1.51271481142e-22)
(0.210383900695 0.0109438846878 2.62397209734e-23)
(0.232454252168 0.00928103552204 1.5051875114e-22)
(0.2231523153 0.0146545006399 8.99879696375e-23)
(0.249564509491 0.0132001121642 1.46741578907e-22)
(0.238366312057 0.01938771219 1.25828345604e-22)
(0.269831954276 0.0182349072599 1.43311097682e-22)
(0.256430495497 0.0253536376824 -3.584200669e-23)
(0.293710526703 0.0246575200577 2.30547780689e-22)
(0.277737978134 0.0328018238307 2.12063238571e-22)
(0.321694835091 0.0328348492795 2.45037024661e-22)
(0.302740166946 0.0419882743784 9.93705900321e-23)
(0.331977893668 0.0530613823744 1.95124185965e-22)
(0.170702021681 0.0013134356267 1.86197942426e-22)
(0.169223506762 0.00109793113535 2.31355059569e-22)
(0.172743106136 0.00273081770018 7.79492451501e-23)
(0.170648193136 0.00288462449809 2.78507866385e-23)
(0.175929557922 0.00432855272726 1.02209415474e-22)
(0.173144291702 0.00501374295987 8.26551856981e-23)
(0.18039827854 0.00619981326488 4.18490770023e-23)
(0.176787071167 0.0073976224853 4.81888328229e-23)
(0.186322700545 0.0084586351381 1.28870591364e-23)
(0.181755116156 0.0101503646219 1.22121219312e-23)
(0.193848507088 0.01124752313 2.68291963456e-23)
(0.188196296896 0.0134161724634 -1.41371913505e-23)
(0.203128183321 0.014729760503 -3.47078595346e-23)
(0.196235175702 0.0173612324431 1.76741834668e-23)
(0.214360891805 0.0190671087317 -3.50437905307e-23)
(0.206044044532 0.0221823900493 -5.18512674294e-23)
(0.227800814475 0.0244992286473 6.52975641016e-23)
(0.217809144872 0.0280967459048 3.53770821328e-23)
(0.243767931996 0.0312226492313 -5.67552399925e-23)
(0.231827980806 0.0353548614257 4.65115613667e-23)
(0.262647894841 0.0395018419459 3.29101341997e-23)
(0.248417039567 0.0442295583578 -1.32542034874e-22)
(0.284883194183 0.0496271431946 8.08860479147e-23)
(0.267992865019 0.0550223505472 1.90869364346e-22)
(0.311019509317 0.061835112012 4.94577513357e-23)
(0.291053173059 0.0680291682016 -1.30263472227e-22)
(0.31827648925 0.0834060101076 2.42447519085e-22)
(0.168580660321 0.00250801545782 7.30079037823e-23)
(0.166576683847 0.00167625202575 1.10740497159e-22)
(0.170449664219 0.00515438821875 3.25567271865e-23)
(0.167854637908 0.00461413676112 -1.56443576939e-23)
(0.173378234387 0.00801883764072 2.8634603047e-23)
(0.170126884445 0.00792838439782 4.80295843617e-23)
(0.177476661275 0.0112248777115 1.85518777518e-23)
(0.173428108877 0.0115549440796 1.31817712175e-23)
(0.182900040301 0.0149277516821 -1.48121285557e-23)
(0.177910243452 0.0156285944343 2.07274727801e-23)
(0.189777222614 0.0192929353699 -2.32922042293e-23)
(0.183716392038 0.0203207283512 5.21855611637e-23)
(0.198239927656 0.0245144876101 5.30775572043e-25)
(0.190945954032 0.0258341744367 6.1127857156e-25)
(0.208453103218 0.0308280004825 1.85696052341e-23)
(0.199729412196 0.0323987592194 -1.18765743328e-23)
(0.220635921363 0.0384834936092 1.6591079398e-23)
(0.210234029176 0.0402789153638 1.06894687432e-22)
(0.235071382081 0.0477874587586 -2.92752335148e-23)
(0.222688273621 0.0497867052662 -1.49602371043e-24)
(0.252118074025 0.0590541066521 2.54171952725e-23)
(0.237384913767 0.0612695801361 -1.13689518439e-22)
(0.27224200104 0.072671319233 -2.02801557954e-23)
(0.254722565072 0.0751360160466 2.12881040066e-22)
(0.296072382629 0.0889581548022 6.27262955221e-23)
(0.275242162338 0.0918145396692 -1.54770954899e-22)
(0.299735432082 0.111719792015 2.29480700416e-22)
(0.165313287591 0.00359685902847 2.20882356828e-23)
(0.162859470758 0.00218951075646 9.19211776643e-23)
(0.166986843679 0.00734751750671 -1.7150051875e-25)
(0.163980360512 0.00615727786249 -3.98049572148e-23)
(0.169606465045 0.0113545961074 3.25767525322e-23)
(0.165992194971 0.0105293921748 -9.41974729322e-24)
(0.173253285495 0.0157710997513 1.53573662458e-23)
(0.16888398902 0.015257053277 5.81259284764e-24)
(0.178066626254 0.0207634726766 8.77251624995e-23)
(0.172799025114 0.0204936425765 1.6147619211e-23)
(0.184154661407 0.0265267676312 7.60890439646e-23)
(0.177855817941 0.0264328650586 1.14788866382e-22)
(0.191613486951 0.0332868621401 -1.17960713333e-23)
(0.184125033437 0.0333009759806 -3.598264162e-25)
(0.200569397316 0.0413140139147 7.6448507865e-23)
(0.191691804759 0.0413558772825 -8.45701704143e-24)
(0.211193219706 0.0509188755698 8.88075843234e-23)
(0.200678477113 0.0509011985356 6.01513998848e-23)
(0.223713504014 0.062464438458 -8.59103086346e-23)
(0.211251637763 0.0623035314913 -5.82783478979e-23)
(0.238443829521 0.0763719243661 7.37743263547e-23)
(0.223635343329 0.0759949368307 -8.68869543748e-23)
(0.255823176371 0.093175404821 7.83902409623e-23)
(0.238166907819 0.0925121735802 2.38064350679e-22)
(0.276496188586 0.113407191501 1.1983449995e-23)
(0.255313643852 0.112472853203 -7.79070098319e-23)
(0.275833066524 0.136622268349 1.93588836402e-22)
(0.161054576389 0.00455142602556 3.00279847667e-23)
(0.158231103691 0.00262420453948 7.83541577558e-23)
(0.16250514195 0.0092723844168 -4.90532039893e-23)
(0.159180931961 0.00748809730405 -2.49918691661e-23)
(0.164769949663 0.0142836925683 -3.61839069778e-23)
(0.160898760276 0.0127723602958 -3.79951894073e-23)
(0.167899729754 0.0197465244646 6.60284581283e-24)
(0.163337104327 0.0184384615132 3.56428418786e-23)
(0.172014445455 0.0258459671379 4.3211323093e-23)
(0.166618447075 0.0246565896044 2.78434105969e-23)
(0.177193092234 0.0327952624873 3.83399960008e-23)
(0.170835110283 0.0316331517428 3.92436110597e-23)
(0.183493566083 0.0408429946008 2.97922787564e-24)
(0.176022331246 0.0396074686141 -1.09293313659e-24)
(0.190991991063 0.0502803630433 -2.47541250216e-23)
(0.182220557046 0.0488545458186 3.86358751748e-24)
(0.199794888191 0.0614615246818 -8.69345323365e-23)
(0.189485304133 0.0597026709539 -1.01745454783e-24)
(0.210051863625 0.074816323653 -5.92549936381e-23)
(0.197902099384 0.0725587550292 -6.49182583649e-23)
(0.221985269864 0.090868915286 7.74030699497e-23)
(0.207597473985 0.0879273865966 3.05812172435e-23)
(0.235932819632 0.110294673258 8.17670998849e-23)
(0.218774194274 0.106463962039 2.01720937097e-22)
(0.252445622558 0.133902686292 1.03698376575e-22)
(0.231781172711 0.128995020054 -5.81290177952e-23)
(0.272283270907 0.162634409077 7.78635186682e-22)
(0.247238771933 0.156579976919 9.3905413562e-23)
(0.296701683619 0.197638275185 -6.73671196939e-22)
(0.265992661067 0.18991157495 -3.85762851021e-22)
(0.288867384575 0.231151690775 -6.9075492531e-22)
(0.155958588936 0.00536071085407 2.33343038231e-23)
(0.152849966157 0.00298309178915 5.81545224531e-23)
(0.15716676864 0.0109016554666 -1.39338545841e-23)
(0.15361944203 0.0085919541785 -1.41902130252e-23)
(0.159043517054 0.0167530741023 3.38315594491e-23)
(0.155022082507 0.0146265709635 3.85189771165e-23)
(0.161609779203 0.0230830382225 5.68834066626e-23)
(0.156975359445 0.0210537169759 6.82711995086e-23)
(0.164960347081 0.0300845993906 2.38756985636e-23)
(0.159577904915 0.0280529584928 3.24935579283e-23)
(0.169141465348 0.0379786428662 -1.89318077679e-25)
(0.16289321298 0.0358346265619 4.83425696594e-23)
(0.174167785687 0.0470223144288 -2.08573494747e-25)
(0.166917373646 0.0446396724131 3.89847894163e-23)
(0.180058845313 0.0575247425224 2.76002579912e-23)
(0.171635890934 0.0547465631593 -3.57511632172e-23)
(0.186842885543 0.0698515494117 2.09988194238e-23)
(0.1770457912 0.0664871204735 7.1079893857e-23)
(0.194567168508 0.0844740588249 2.49179525167e-23)
(0.183128783638 0.0802840727766 5.3703663084e-23)
(0.203318862951 0.101996512575 1.54899084391e-22)
(0.189886244012 0.0966811352425 5.64431273559e-24)
(0.213254361408 0.123224454786 6.18248194169e-23)
(0.197338428626 0.116410314858 1.42710248129e-22)
(0.224711809511 0.149263996927 -6.79219808084e-23)
(0.205555875562 0.140482089569 -2.23757052954e-22)
(0.238276658834 0.181516843651 -1.07049262414e-21)
(0.214860552569 0.17027040251 -8.19219157207e-22)
(0.254464158653 0.221443299244 -4.02846579392e-22)
(0.225988899077 0.206286609471 -3.58586003377e-21)
(0.238887844576 0.252396068468 8.69766670525e-22)
(0.150177576344 0.0060201413572 2.06300056049e-23)
(0.151135127513 0.0122207644212 3.82626186754e-23)
(0.152607356548 0.0187368361654 7.2958617176e-23)
(0.154584853285 0.0257388834936 4.38813507742e-23)
(0.157135905868 0.0334198922793 5.69604290241e-23)
(0.160273052567 0.0419997059302 8.75166771534e-23)
(0.163965779962 0.0517301764711 3.4421996939e-24)
(0.168174261424 0.062907016825 7.72847264858e-24)
(0.172847160044 0.0759046038647 1.03784737517e-22)
(0.17791489683 0.0911869308262 3.4430023303e-23)
(0.183294266008 0.109391682037 -6.54452352649e-24)
(0.188886439682 0.131386942419 -1.42871624243e-22)
(0.194571509926 0.158451092437 -9.75054229353e-22)
(0.200467258787 0.192573179117 -3.33458656683e-21)
(0.20619261374 0.236573447326 -2.31324678385e-21)
)
;

boundaryField
{
    back
    {
        type            calculated;
        value           uniform (0 0 0);
    }
    sides
    {
        type            calculated;
        value           nonuniform List<vector> 0();
    }
    bottom
    {
        type            calculated;
        value           uniform (0 0 0);
    }
    front
    {
        type            calculated;
        value           uniform (0 0 0);
    }
    atmosphere
    {
        type            calculated;
        value           nonuniform List<vector> 0();
    }
    floatingObject
    {
        type            calculated;
        value           nonuniform List<vector> 0();
    }
    procBoundary7to6
    {
        type            processor;
        value           nonuniform List<vector> 
11
(
(0.368934064696 -0.0306371199603 3.26495140159e-21)
(0.363586959356 0.00802231861342 1.59360932263e-21)
(0.354356497938 0.0429467150199 1.63564544099e-21)
(0.34174289065 0.076093317993 -1.33215750394e-21)
(0.324510147485 0.108005781482 7.75206316218e-22)
(0.301368425423 0.137680173411 8.67302052418e-22)
(0.300620090991 0.165438243015 1.4523484027e-21)
(0.332193057678 0.200230819191 1.95667915731e-21)
(0.32975614601 0.241206888902 -1.40966769788e-20)
(0.273587668214 0.271372479557 -5.90229404335e-21)
(0.208588312214 0.294928142915 -3.10340207703e-20)
)
;
    }
    procBoundary7to8
    {
        type            processor;
        value           nonuniform List<vector> 
17
(
(0.150185581188 -0.00378477286727 -6.68424454306e-23)
(0.151897675205 -0.0115081746226 -2.7702362998e-23)
(0.154579919932 -0.0191422384412 7.94879386262e-24)
(0.15854688139 -0.0270480202888 2.22383156177e-23)
(0.163938974699 -0.0352553450752 -4.63385512257e-23)
(0.170901876507 -0.0438519920665 -1.02906802713e-23)
(0.179525910388 -0.0529717661035 1.73189437893e-23)
(0.189932593334 -0.06277328727 3.43329664973e-23)
(0.20082028808 -0.0616667078161 3.92624341369e-23)
(0.211861781326 -0.0596323086685 9.9775227175e-23)
(0.227375761659 -0.0691457346482 2.59929337436e-23)
(0.245628812133 -0.0799131854006 -1.26960808373e-22)
(0.261572249758 -0.074736475242 -5.92028083281e-23)
(0.277955549984 -0.0678955903532 2.05447550235e-22)
(0.30606555338 -0.0779861936683 6.89480445358e-23)
(0.327129433996 -0.0658461527431 1.72465018437e-22)
(0.348056224206 -0.050915392551 8.83448910442e-22)
)
;
    }
    procBoundary7to9
    {
        type            processor;
        value           nonuniform List<vector> 
16
(
(0.146854847278 0.00326517552085 5.71679139483e-23)
(0.147446209545 0.00945835284205 4.59097402868e-24)
(0.148528347277 0.0160727554888 5.59857230909e-23)
(0.149985375991 0.0230750456599 6.25014291802e-24)
(0.151893210512 0.0306461716203 2.36969051308e-23)
(0.154285058502 0.0389905634501 3.58534504363e-23)
(0.157120977251 0.0483385680259 3.89532695942e-23)
(0.160339063527 0.0589578896149 -3.32105580218e-23)
(0.163859351902 0.0711639467951 5.76598456797e-23)
(0.167581910597 0.085358725502 5.43449020519e-23)
(0.171351617171 0.102070308991 -4.03033507592e-23)
(0.174980208901 0.122018032806 -7.43509813351e-24)
(0.178143340743 0.14621794659 -2.42823457727e-22)
(0.180452269824 0.176296710484 -9.43076059421e-22)
(0.181770484489 0.212140626641 -3.74500409511e-21)
(0.180410771348 0.260126652768 4.01220821512e-21)
)
;
    }
}


// ************************************************************************* //
