/*--------------------------------*- C++ -*----------------------------------*\
| =========                 |                                                 |
| \\      /  F ield         | OpenFOAM: The Open Source CFD Toolbox           |
|  \\    /   O peration     | Version:  v2012                                 |
|   \\  /    A nd           | Website:  www.openfoam.com                      |
|    \\/     M anipulation  |                                                 |
\*---------------------------------------------------------------------------*/
FoamFile
{
    version     2.0;
    format      ascii;
    class       volScalarField;
    location    "3.6";
    object      epsilon;
}
// * * * * * * * * * * * * * * * * * * * * * * * * * * * * * * * * * * * * * //

dimensions      [0 2 -3 0 0 0 0];


internalField   nonuniform List<scalar> 
164
(
0.00136138917178
0.00141722920189
0.0015578228687
0.00161320582088
0.00163671277906
0.00164936670957
0.00165909357062
0.00166874525043
0.00136708295107
0.0014236548129
0.00156421883178
0.00161891629024
0.00164163239704
0.00165356506294
0.00166263736094
0.00167164584221
0.00168156344729
0.00169291599302
0.00170684036486
0.00137182906744
0.00142914143993
0.00156961799028
0.00162365097941
0.00164563319633
0.0016569122035
0.00166539237152
0.00167381694075
0.00168311766028
0.00169378962202
0.00170686337616
0.00172636370066
0.00176759161531
0.00137567694737
0.00143372756073
0.00157405015902
0.00162744018284
0.00164874449006
0.00165943721175
0.00166739014063
0.0016752907562
0.00168403358831
0.00169406990584
0.00170629435266
0.0017241338209
0.0017605127983
0.00185727772452
0.00137867312391
0.00143746375828
0.00157756429848
0.00163033101785
0.00165101201834
0.00166118164539
0.00166867131048
0.00167611067811
0.00168436045499
0.00169383550455
0.00170533130962
0.00172174432156
0.00175372254444
0.00183618491422
0.00138087489278
0.00144036593213
0.00158019080183
0.00163237038559
0.00165248691078
0.00166219162249
0.00166927542903
0.00167631342072
0.0016841352728
0.00169313466335
0.00170406665285
0.00171953294057
0.00174875822413
0.00182218618415
0.00138241919996
0.00144245760187
0.00158195200356
0.00163358985406
0.00165320941651
0.00166251282404
0.0016692452719
0.00167593678134
0.00168338380808
0.00169198391804
0.00170249696683
0.00171748956499
0.00174574753503
0.00181609695057
0.00138353956752
0.00144377258326
0.00158286549141
0.00163400954683
0.00165321181949
0.00166218227739
0.00166861708824
0.00167500792865
0.00168212975134
0.00169039389776
0.00170060893541
0.00171547804567
0.00174401208272
0.00181511912056
0.00138422521958
0.00144434190436
0.00158298413382
0.00163369581758
0.00165255236157
0.00166124624793
0.00166742994234
0.00167355985687
0.00168040341042
0.00168838481014
0.00169839707363
0.00171337192219
0.00174283468408
0.00181638489294
0.00138436316612
0.0014442136889
0.00158239335371
0.00163271901055
0.00165128437716
0.00165974838086
0.001665719876
0.00167162772789
0.00167823406113
0.00168598519989
0.00169587467242
0.00171110992108
0.0017418185456
0.00181848416038
0.00203327817928
0.00271094351531
0.00138398706923
0.00144349017051
0.00158116850947
0.00163113644328
0.00164945484149
0.00165772928976
0.00166352418634
0.00166924474311
0.00167565338982
0.00168322699599
0.0016930723431
0.00170869723104
0.00174087172469
0.00182138457803
0.00204768865802
0.00278111165399
0.00138307902555
0.00144223025708
0.0015793710201
0.00162899943049
0.0016471065822
0.00165522618594
0.00166087757905
0.00166644533093
0.00167269592012
0.00168014575119
0.00169002693684
0.0017061702357
0.00174002720865
0.00182504269917
0.00206649276625
0.00287194607126
)
;

boundaryField
{
    back
    {
        lowReCorrection 0;
        blending        stepwise;
        n               2;
        type            epsilonWallFunction;
        value           nonuniform List<scalar> 
164
(
0.00136138917178
0.00141722920189
0.0015578228687
0.00161320582088
0.00163671277906
0.00164936670957
0.00165909357062
0.00166874525043
0.00136708295107
0.0014236548129
0.00156421883178
0.00161891629024
0.00164163239704
0.00165356506294
0.00166263736094
0.00167164584221
0.00168156344729
0.00169291599302
0.00170684036486
0.00137182906744
0.00142914143993
0.00156961799028
0.00162365097941
0.00164563319633
0.0016569122035
0.00166539237152
0.00167381694075
0.00168311766028
0.00169378962202
0.00170686337616
0.00172636370066
0.00176759161531
0.00137567694737
0.00143372756073
0.00157405015902
0.00162744018284
0.00164874449006
0.00165943721175
0.00166739014063
0.0016752907562
0.00168403358831
0.00169406990584
0.00170629435266
0.0017241338209
0.0017605127983
0.00185727772452
0.00137867312391
0.00143746375828
0.00157756429848
0.00163033101785
0.00165101201834
0.00166118164539
0.00166867131048
0.00167611067811
0.00168436045499
0.00169383550455
0.00170533130962
0.00172174432156
0.00175372254444
0.00183618491422
0.00138087489278
0.00144036593213
0.00158019080183
0.00163237038559
0.00165248691078
0.00166219162249
0.00166927542903
0.00167631342072
0.0016841352728
0.00169313466335
0.00170406665285
0.00171953294057
0.00174875822413
0.00182218618415
0.00138241919996
0.00144245760187
0.00158195200356
0.00163358985406
0.00165320941651
0.00166251282404
0.0016692452719
0.00167593678134
0.00168338380808
0.00169198391804
0.00170249696683
0.00171748956499
0.00174574753503
0.00181609695057
0.00138353956752
0.00144377258326
0.00158286549141
0.00163400954683
0.00165321181949
0.00166218227739
0.00166861708824
0.00167500792865
0.00168212975134
0.00169039389776
0.00170060893541
0.00171547804567
0.00174401208272
0.00181511912056
0.00138422521958
0.00144434190436
0.00158298413382
0.00163369581758
0.00165255236157
0.00166124624793
0.00166742994234
0.00167355985687
0.00168040341042
0.00168838481014
0.00169839707363
0.00171337192219
0.00174283468408
0.00181638489294
0.00138436316612
0.0014442136889
0.00158239335371
0.00163271901055
0.00165128437716
0.00165974838086
0.001665719876
0.00167162772789
0.00167823406113
0.00168598519989
0.00169587467242
0.00171110992108
0.0017418185456
0.00181848416038
0.00203327817928
0.00271094351531
0.00138398706923
0.00144349017051
0.00158116850947
0.00163113644328
0.00164945484149
0.00165772928976
0.00166352418634
0.00166924474311
0.00167565338982
0.00168322699599
0.0016930723431
0.00170869723104
0.00174087172469
0.00182138457803
0.00204768865802
0.00278111165399
0.00138307902555
0.00144223025708
0.0015793710201
0.00162899943049
0.0016471065822
0.00165522618594
0.00166087757905
0.00166644533093
0.00167269592012
0.00168014575119
0.00169002693684
0.0017061702357
0.00174002720865
0.00182504269917
0.00206649276625
0.00287194607126
)
;
    }
    sides
    {
        lowReCorrection 0;
        blending        stepwise;
        n               2;
        type            epsilonWallFunction;
        value           nonuniform List<scalar> 0();
    }
    bottom
    {
        lowReCorrection 0;
        blending        stepwise;
        n               2;
        type            epsilonWallFunction;
        value           nonuniform List<scalar> 
12
(
0.00136138917178
0.00136708295107
0.00137182906744
0.00137567694737
0.00137867312391
0.00138087489278
0.00138241919996
0.00138353956752
0.00138422521958
0.00138436316612
0.00138398706923
0.00138307902555
)
;
    }
    front
    {
        lowReCorrection 0;
        blending        stepwise;
        n               2;
        type            epsilonWallFunction;
        value           nonuniform List<scalar> 
164
(
0.00136138917178
0.00141722920189
0.0015578228687
0.00161320582088
0.00163671277906
0.00164936670957
0.00165909357062
0.00166874525043
0.00136708295107
0.0014236548129
0.00156421883178
0.00161891629024
0.00164163239704
0.00165356506294
0.00166263736094
0.00167164584221
0.00168156344729
0.00169291599302
0.00170684036486
0.00137182906744
0.00142914143993
0.00156961799028
0.00162365097941
0.00164563319633
0.0016569122035
0.00166539237152
0.00167381694075
0.00168311766028
0.00169378962202
0.00170686337616
0.00172636370066
0.00176759161531
0.00137567694737
0.00143372756073
0.00157405015902
0.00162744018284
0.00164874449006
0.00165943721175
0.00166739014063
0.0016752907562
0.00168403358831
0.00169406990584
0.00170629435266
0.0017241338209
0.0017605127983
0.00185727772452
0.00137867312391
0.00143746375828
0.00157756429848
0.00163033101785
0.00165101201834
0.00166118164539
0.00166867131048
0.00167611067811
0.00168436045499
0.00169383550455
0.00170533130962
0.00172174432156
0.00175372254444
0.00183618491422
0.00138087489278
0.00144036593213
0.00158019080183
0.00163237038559
0.00165248691078
0.00166219162249
0.00166927542903
0.00167631342072
0.0016841352728
0.00169313466335
0.00170406665285
0.00171953294057
0.00174875822413
0.00182218618415
0.00138241919996
0.00144245760187
0.00158195200356
0.00163358985406
0.00165320941651
0.00166251282404
0.0016692452719
0.00167593678134
0.00168338380808
0.00169198391804
0.00170249696683
0.00171748956499
0.00174574753503
0.00181609695057
0.00138353956752
0.00144377258326
0.00158286549141
0.00163400954683
0.00165321181949
0.00166218227739
0.00166861708824
0.00167500792865
0.00168212975134
0.00169039389776
0.00170060893541
0.00171547804567
0.00174401208272
0.00181511912056
0.00138422521958
0.00144434190436
0.00158298413382
0.00163369581758
0.00165255236157
0.00166124624793
0.00166742994234
0.00167355985687
0.00168040341042
0.00168838481014
0.00169839707363
0.00171337192219
0.00174283468408
0.00181638489294
0.00138436316612
0.0014442136889
0.00158239335371
0.00163271901055
0.00165128437716
0.00165974838086
0.001665719876
0.00167162772789
0.00167823406113
0.00168598519989
0.00169587467242
0.00171110992108
0.0017418185456
0.00181848416038
0.00203327817928
0.00271094351531
0.00138398706923
0.00144349017051
0.00158116850947
0.00163113644328
0.00164945484149
0.00165772928976
0.00166352418634
0.00166924474311
0.00167565338982
0.00168322699599
0.0016930723431
0.00170869723104
0.00174087172469
0.00182138457803
0.00204768865802
0.00278111165399
0.00138307902555
0.00144223025708
0.0015793710201
0.00162899943049
0.0016471065822
0.00165522618594
0.00166087757905
0.00166644533093
0.00167269592012
0.00168014575119
0.00169002693684
0.0017061702357
0.00174002720865
0.00182504269917
0.00206649276625
0.00287194607126
)
;
    }
    atmosphere
    {
        type            inletOutlet;
        inletValue      nonuniform List<scalar> 0();
        value           nonuniform List<scalar> 0();
    }
    floatingObject
    {
        lowReCorrection 0;
        blending        stepwise;
        n               2;
        type            epsilonWallFunction;
        value           nonuniform List<scalar> 0();
    }
    procBoundary7to6
    {
        type            processor;
        value           nonuniform List<scalar> 
11
(
0.00212084283394
0.00206698598519
0.00203274806329
0.00201996641567
0.00201984777136
0.00202471712087
0.00202471712087
0.0026753819962
0.00532479942077
0.00568767671245
0.00607701493666
)
;
    }
    procBoundary7to8
    {
        type            processor;
        value           nonuniform List<scalar> 
17
(
0.00135471361958
0.00140985861604
0.00155038814948
0.00160645618251
0.00163079840626
0.00164423678686
0.0016546947511
0.00166507357593
0.00167934869278
0.00167934869278
0.00169142556425
0.00170614004638
0.00172778621829
0.00172778621829
0.00177247210115
0.00187931959937
0.00187931959937
)
;
    }
    procBoundary7to9
    {
        type            processor;
        value           nonuniform List<scalar> 
16
(
0.00138162762665
0.00144044300894
0.00157703493899
0.00162635107361
0.00164428082491
0.00165227643399
0.00165781354034
0.00166325987908
0.00166938714074
0.00167675855852
0.00168674279349
0.00170351155486
0.0017392235309
0.00182893746258
0.00208522908725
0.00295343786566
)
;
    }
}


// ************************************************************************* //
