/*--------------------------------*- C++ -*----------------------------------*\
| =========                 |                                                 |
| \\      /  F ield         | OpenFOAM: The Open Source CFD Toolbox           |
|  \\    /   O peration     | Version:  v2012                                 |
|   \\  /    A nd           | Website:  www.openfoam.com                      |
|    \\/     M anipulation  |                                                 |
\*---------------------------------------------------------------------------*/
FoamFile
{
    version     2.0;
    format      ascii;
    class       volVectorField;
    location    "5.3";
    object      ddt0(rho,U);
}
// * * * * * * * * * * * * * * * * * * * * * * * * * * * * * * * * * * * * * //

dimensions      [1 -2 -2 0 0 0 0];


internalField   nonuniform List<vector> 
167
(
(57.4376584497 -6.96414285154 -2.65731657035e-20)
(59.1062360783 -9.3437160264 -1.13465790317e-21)
(61.1456195682 -12.0464527978 6.50782336363e-21)
(63.53476076 -15.1422283351 -1.4180912085e-22)
(66.2326793329 -18.7299864919 1.52060261412e-20)
(69.1655018211 -22.9186242045 -3.97944948062e-21)
(72.2385388294 -27.8339380356 -2.50438683085e-20)
(75.3394943456 -33.6122094538 -6.19066641771e-20)
(56.9193653639 -2.11903433607 8.47925207696e-20)
(58.0165806882 -3.66372248325 1.75220252156e-20)
(59.5304053147 -5.38672251599 1.50746541033e-20)
(61.4723328138 -7.3449076701 1.43076401832e-20)
(63.8719178744 -9.63531725919 6.73898938169e-21)
(66.7226327286 -12.3529690058 -1.12778042965e-20)
(69.994355298 -15.6111505409 7.98294631439e-21)
(73.6428463397 -19.5514865296 -3.87112238619e-21)
(77.5885856912 -24.3133779801 -3.32928838921e-20)
(81.7556773365 -30.0695571359 -8.30737997939e-20)
(85.9961024509 -37.0316334386 -8.63227451604e-20)
(58.1911764394 -1.34448741495 6.397472227e-20)
(59.402447533 -2.37339343379 6.995355145e-20)
(61.1106853192 -3.57856311752 2.74523344235e-20)
(63.3435466437 -5.01892775101 2.24814151067e-20)
(66.1290889594 -6.79834537566 7.33623650123e-21)
(69.4747362874 -9.022873118 3.3312633276e-21)
(73.3678388355 -11.8198094698 1.78837522092e-20)
(77.7873895021 -15.3390071204 -6.18561723679e-21)
(82.6995068222 -19.7410984647 -2.03808030839e-20)
(88.0330351836 -25.247078993 -2.7651989066e-20)
(93.7080970817 -32.100209143 -4.801138268e-20)
(58.861303942 -0.457920868847 1.21131235601e-19)
(60.2073805293 -0.914183195536 6.46390358844e-20)
(62.1232874464 -1.51786224296 8.69995323052e-21)
(64.6483887762 -2.3483527127 1.56449434533e-20)
(67.8240750123 -3.51140987474 1.98890649831e-20)
(71.67438345 -5.12093435386 4.67957749086e-21)
(76.2131173222 -7.30485237783 1.34713426652e-20)
(81.4479710844 -10.2202854746 5.9557996258e-21)
(87.3676550252 -14.0639928668 3.32201877432e-21)
(93.9498525905 -19.063790058 9.9408335318e-22)
(58.7203606286 -0.0249133961844 8.22885216446e-20)
(58.9060647857 0.51329144611 2.27753950108e-20)
(60.3799046911 0.72327562982 2.42040658e-20)
(62.4911817753 0.791631742487 4.0771720546e-21)
(65.2931624982 0.659049173086 5.64319428698e-21)
(68.8409859125 0.21925706848 4.59220879984e-21)
(73.1804091127 -0.638976058987 1.02459154055e-20)
(78.3536885109 -2.04491606979 2.97425754308e-20)
(84.397513062 -4.17334228296 -4.3507936973e-21)
(91.3368153116 -7.22349959956 2.41626607527e-20)
(99.2174857104 -11.4351944771 -6.44679770839e-20)
(58.0134247423 0.308764818469 -2.1447798116e-20)
(58.2927319202 1.58298064205 -7.10045338271e-21)
(59.8599652764 2.51039748529 3.96150229651e-20)
(62.1383703603 3.32598026419 -1.62172442628e-20)
(65.1815724082 3.97848472548 6.11675155983e-21)
(69.0612266475 4.36780576265 5.7258430968e-21)
(73.8438843444 4.39268088245 8.09140140444e-21)
(79.6030905066 3.92724147177 -4.44431184255e-21)
(86.4046533151 2.7874233085 6.89612054249e-20)
(94.3270994187 0.780041152885 -3.73706184973e-21)
(103.469256719 -2.35965931159 -1.48851558087e-19)
(56.6076958372 0.667171886572 -6.2301945494e-20)
(56.9523888818 2.72239705962 1.28485604156e-19)
(58.5877775275 4.42026437984 2.04401986478e-20)
(60.9922674593 6.04690830043 1.27315285347e-20)
(64.2235585166 7.55958184109 1.0801209873e-20)
(68.3673113845 8.87707395617 9.09759351134e-21)
(73.5144075828 9.91287364757 1.6136813818e-21)
(79.7686942171 10.5420603397 -1.56741776985e-20)
(87.2313814926 10.5918723957 -8.1992218835e-22)
(96.0451535673 9.8814584626 -4.74687112237e-20)
(54.448025074 1.03984515711 2.14810521007e-20)
(54.8353310957 3.90732310331 7.24355985717e-20)
(56.5149403072 6.41472378374 3.48829794196e-20)
(58.9915639105 8.89992307689 1.92803390039e-20)
(62.3399430775 11.3335866456 1.00643679972e-20)
(66.6572101646 13.6585195731 8.12395306036e-21)
(72.0552896365 15.8078102986 6.31588148456e-21)
(78.6644740406 17.6783427749 6.09285002563e-21)
(86.6428516816 19.1266472859 -1.85997523505e-20)
(51.50659442 1.4158536213 9.08209700998e-20)
(51.9231826455 5.10887282166 -6.56478864634e-20)
(53.605444953 8.45292355218 -7.9884557068e-21)
(56.092849947 11.8154590713 -2.96095052095e-21)
(59.472173272 15.2080697256 2.20172724118e-21)
(63.8506253321 18.5925520509 1.09559009738e-20)
(69.3555961124 21.9300527678 -2.47013112685e-21)
(76.1494398488 25.159362628 -4.46749217331e-21)
(84.4331075626 28.1745258336 -1.10887035997e-20)
(47.7768657506 1.79010020453 -1.46169217983e-19)
(48.2129781961 6.29624314254 4.69196138539e-20)
(49.8447990996 10.472766809 -9.04403201562e-20)
(52.2743410311 14.7158167534 -4.07281082393e-20)
(55.5894545847 19.0764677119 -1.17609839154e-20)
(59.9021137282 23.5416199486 -1.67634743498e-21)
(65.3516018732 28.1141667215 -2.67316193213e-21)
(72.1201839049 32.7755864647 -1.01582216115e-20)
(80.4355614809 37.4708318833 -2.91041806338e-21)
(90.5911043261 42.123072197 -3.5780387047e-20)
(43.2798283631 2.15078469351 -5.26671102351e-20)
(43.7121651454 7.43486878128 -1.66145427026e-19)
(45.247005794 12.41511242 -8.58294913903e-20)
(47.5455059432 17.5151156299 -6.45391650871e-20)
(50.6941979849 22.8231235783 -4.12582549779e-20)
(54.8059782783 28.3573229204 -1.15761798372e-20)
(60.0245000026 34.1604218467 5.10534409076e-21)
(66.5332146106 40.2584567566 1.01837556749e-20)
(74.5784849643 46.6715989947 -8.14933577032e-21)
(84.4802041988 53.4466441067 -2.69390301562e-20)
(38.0561780475 2.48893834812 -9.14019259803e-20)
(38.4588802123 8.49544517418 8.5576632126e-20)
(39.8504425968 14.2263692946 -8.34948121892e-20)
(41.9454862846 20.1310132202 -4.81613261868e-20)
(44.8245817593 26.334014097 -1.02208846323e-20)
(48.5975685074 32.8855935293 6.83730986576e-21)
(53.4022225976 39.8690277574 2.01830288636e-20)
(59.4156864363 47.3697225063 2.34205796564e-20)
(66.8839002982 55.4755557777 2.67673255948e-20)
(76.129727452 64.3196939361 -1.52600409599e-20)
(32.1681848424 2.79224715637 -4.13896507962e-20)
(32.516399909 9.44454042405 1.33015986206e-20)
(33.719943532 15.8500764887 -6.9026281163e-20)
(35.542776404 22.4788177302 -4.42440329592e-20)
(38.0550186342 29.4908589956 -1.49161215754e-20)
(41.3564210741 36.9693119864 9.84311160083e-21)
(45.5677578421 45.0373905158 2.64380925569e-20)
(50.855462309 53.8291736624 3.52350382191e-20)
(57.437130748 63.4988156552 5.64929199937e-20)
(65.6298651529 74.2780893434 -3.11602375074e-20)
(25.6968945395 3.05753397183 3.60999430569e-20)
(25.9758032451 10.2547011137 -3.14861180638e-21)
(26.9519925571 17.2336948465 -7.2434345003e-20)
(28.4418425382 24.4807229004 -5.97648380933e-20)
(30.5006090975 32.1862843351 5.69512532917e-21)
(33.2072566632 40.4607975907 1.26035700948e-21)
(36.6660957461 49.4641113901 3.03119168399e-20)
(41.0165294082 59.3733133333 1.46212730596e-20)
(46.4426680353 70.4109832798 2.26793439546e-20)
(53.2272927651 82.8641365152 3.84685718378e-20)
(18.7592274404 3.27094459655 -1.64508966553e-19)
(18.9664846401 10.8853213654 -2.89728905712e-20)
(19.693284191 18.3186608874 -1.34819761167e-19)
(20.8054275964 26.0551820159 -3.26853213564e-20)
(22.3377432735 34.3058959133 -1.04683600641e-20)
(24.3488820166 43.2105385907 -7.92070620595e-20)
(26.922730325 52.9580986528 2.81972589179e-20)
(30.1653620326 63.7697076774 -7.3903368303e-20)
(34.2289557069 75.8931369953 -1.91907515356e-20)
(11.4992782947 3.43940692894 -3.96556238093e-20)
(11.5385854462 11.3118038458 -1.04703808476e-19)
(12.0005984018 19.0493341771 -5.09842303134e-20)
(12.7003588309 27.1245829286 -8.87060482274e-20)
(13.6459362305 35.7524871319 4.2257350337e-21)
(14.8777948786 45.0946708128 2.99332129984e-19)
(16.445338958 55.3535823263 -2.33656830068e-19)
(18.4306226442 66.7687589976 1.67784396191e-20)
(20.9386642887 79.6322484199 2.38628094537e-19)
(3.66570064735 3.69233714304 1.39662947813e-20)
(3.5619319158 11.7000539622 -5.00597349332e-21)
(3.70819777606 19.5758920054 5.74648481999e-20)
(3.94134057656 27.8729972226 6.58041272261e-20)
(4.25141535984 36.7515481375 6.02068494707e-21)
(4.65846082354 46.3709932698 -1.72382627172e-20)
(5.17386477054 56.9396132461 4.18769276417e-20)
(5.82969438262 68.7229264332 1.77503671842e-19)
(6.66820375745 82.0351071035 -5.35637770316e-20)
)
;

boundaryField
{
    back
    {
        type            calculated;
        value           uniform (0 0 0);
    }
    sides
    {
        type            calculated;
        value           uniform (0 0 0);
    }
    bottom
    {
        type            calculated;
        value           uniform (0 0 0);
    }
    front
    {
        type            calculated;
        value           uniform (0 0 0);
    }
    atmosphere
    {
        type            calculated;
        value           nonuniform List<vector> 0();
    }
    floatingObject
    {
        type            calculated;
        value           nonuniform List<vector> 0();
    }
    procBoundary10to9
    {
        type            processor;
        value           nonuniform List<vector> 
15
(
(54.9353361931 -8.30410218962 -1.71610315267e-21)
(56.3511538353 -11.0415012526 1.77283656951e-20)
(58.0625306648 -14.0652665865 2.85033877881e-20)
(60.0385061854 -17.4389228391 9.43392704208e-21)
(62.2210779046 -21.231674657 1.88810973847e-20)
(64.5362325392 -25.5326955657 1.26694466544e-20)
(66.864015326 -30.4424142767 -1.26009429959e-20)
(69.0804961942 -36.0656053387 1.96570884444e-21)
(55.1474405158 -2.79885685785 5.89056317458e-21)
(56.1236437246 -4.80620767206 -1.32460887808e-20)
(56.1236437246 -4.80620767206 -1.32460887808e-20)
(56.9929914079 -0.837802212952 1.50377336592e-20)
(58.1650324076 -0.602992983693 1.33113012091e-19)
(58.7543070231 -0.319332189294 6.38444886241e-20)
(58.7543070231 -0.319332189294 6.38444886241e-20)
)
;
    }
    procBoundary10to11
    {
        type            processor;
        value           nonuniform List<vector> 
23
(
(78.3157792958 -40.439619662 -1.23595688485e-19)
(78.3157792958 -40.439619662 -1.23595688485e-19)
(90.1660016296 -45.4548394706 -2.92911820894e-19)
(99.5919283826 -40.5858961989 -2.50788001895e-19)
(101.167239275 -25.489475944 -5.17037354584e-20)
(101.167239275 -25.489475944 -5.17037354584e-20)
(108.032490372 -17.1382562872 -2.78302916425e-19)
(113.924740933 -6.95162656055 -4.89498299619e-19)
(106.359789941 8.16550785636 -1.88387682155e-19)
(106.359789941 8.16550785636 -1.88387682155e-19)
(96.1863328113 19.9609521912 -4.61266043955e-20)
(96.1863328113 19.9609521912 -4.61266043955e-20)
(94.4518410014 30.8147930332 -3.10530855422e-20)
(94.4518410014 30.8147930332 -3.10530855422e-20)
(102.985238234 46.6857131848 -9.06998162396e-20)
(96.685668607 60.5820324753 -1.04922018763e-19)
(87.6045907333 74.0258683722 -7.7290138692e-20)
(75.8260566786 86.3934732201 -1.08001616535e-19)
(61.6708417531 97.0375827686 -1.09200210734e-19)
(39.3117520931 89.6437253584 2.03399035139e-20)
(39.3117520931 89.6437253584 2.03399035139e-20)
(24.0704548891 94.3144853736 -3.3095692199e-19)
(7.72542876948 97.2703941797 1.17109068543e-19)
)
;
    }
}


// ************************************************************************* //
