/*--------------------------------*- C++ -*----------------------------------*\
| =========                 |                                                 |
| \\      /  F ield         | OpenFOAM: The Open Source CFD Toolbox           |
|  \\    /   O peration     | Version:  v2012                                 |
|   \\  /    A nd           | Website:  www.openfoam.com                      |
|    \\/     M anipulation  |                                                 |
\*---------------------------------------------------------------------------*/
FoamFile
{
    version     2.0;
    format      ascii;
    class       surfaceScalarField;
    location    "5.3";
    object      phi;
}
// * * * * * * * * * * * * * * * * * * * * * * * * * * * * * * * * * * * * * //

dimensions      [0 3 -1 0 0 0 0];
oriented        oriented;


internalField   nonuniform List<scalar> 
304
(
-2.33388502114e-05
-0.000216695414316
-2.94219736544e-05
-0.000221527065321
-3.55031286084e-05
-0.000226892001556
-4.15579755714e-05
-0.000233126873536
-4.75433873275e-05
-0.000240395977553
-5.35606140886e-05
-0.000248712865622
-5.94600575072e-05
-0.000258215841304
-0.00026872234907
-1.33583148984e-05
-0.000200362257133
-2.03308888726e-05
-0.000204953210419
-2.74090954409e-05
-0.000209617548509
-3.45435798381e-05
-0.000214392921725
-4.17066706053e-05
-0.000219729413384
-4.88681491695e-05
-0.000225966346263
-5.60308234864e-05
-0.000233234893238
-6.31590499894e-05
-0.00024158748719
-7.02761834787e-05
-0.000251103840962
-7.73159820457e-05
-0.000261693353999
-0.00027325286838
-1.5389910249e-05
-0.000192562192848
-2.33592505277e-05
-0.000196984320116
-3.14704372023e-05
-0.000201506788406
-3.96687860729e-05
-0.000206195097307
-4.79064995051e-05
-0.000211492491836
-5.61758627089e-05
-0.000217698275628
-6.44857776348e-05
-0.000224926951486
-7.27841721714e-05
-0.00023329198298
-8.109759341e-05
-0.000242798731425
-8.93534518518e-05
-0.000253447064452
-1.73826893911e-05
-0.000183758902722
-2.63697737995e-05
-0.000187997633684
-3.55022944824e-05
-0.000192374703744
-4.47490547872e-05
-0.000196948940128
-5.40766089324e-05
-0.000202165861035
-6.34864805891e-05
-0.000208289880047
-7.29286528387e-05
-0.000215486934689
-8.24001119591e-05
-0.000223824507229
-9.19208583107e-05
-0.000233285568464
-0.000244050655006
-9.5608787727e-06
-0.000170294671748
-1.93200351212e-05
-0.000174000061238
-2.93125280938e-05
-0.000178005463015
-3.94822512183e-05
-0.000182205372303
-4.97706463457e-05
-0.000186661111226
-6.01740546628e-05
-0.000191763356915
-7.06898330786e-05
-0.000197775509381
-8.13277465114e-05
-0.000204851089533
-9.20605119079e-05
-0.000213095726498
-0.000102743607963
-0.000222612576603
-0.000233398086887
-1.04972238171e-05
-0.000159797676215
-2.1221906203e-05
-0.000163275609649
-3.2186739265e-05
-0.000167040875791
-4.33572834808e-05
-0.000171035130535
-5.46812155232e-05
-0.000175337637782
-6.61697389095e-05
-0.000180275565607
-7.78179682338e-05
-0.000186128432949
-8.96032378404e-05
-0.000193067491428
-0.000101521159542
-0.00020118512962
-0.000113602856515
-0.000210537129224
-1.13967211213e-05
-0.000148401126248
-2.30692187064e-05
-0.000151603285598
-3.49817345493e-05
-0.000155128532263
-4.71085508187e-05
-0.000158908515841
-5.9440739422e-05
-0.000163005746633
-7.19740762356e-05
-0.000167742708167
-8.47248196219e-05
-0.000173378418984
-9.77334642973e-05
-0.000180062163022
-0.000111003572852
-0.000187918748366
-1.22696910745e-05
-0.000136131578842
-2.48624153246e-05
-0.000139010699103
-3.76628033272e-05
-0.000142328259287
-5.07088552038e-05
-0.000145862570492
-6.40051942628e-05
-0.000149709543754
-7.75544539239e-05
-0.000154193653423
-9.13928794784e-05
-0.000159540783901
-0.000105539354463
-0.00016591767879
-0.000173441151949
-1.31058120736e-05
-0.000123025902972
-2.64803257515e-05
-0.000125636307926
-4.01531021459e-05
-0.00012865556465
-5.41004941284e-05
-0.000131915219404
-6.83261244742e-05
-0.000135483926827
-8.28662216439e-05
-0.000139653553801
-9.77468670466e-05
-0.000144660676221
-0.000113032327274
-0.000150632695182
-0.000157710448215
-1.38802862537e-05
-0.000109145760489
-2.80352143737e-05
-0.000111481509027
-4.24915863106e-05
-0.000114199275724
-5.72532809343e-05
-0.000117153552434
-7.23400208077e-05
-0.000120397158918
-8.77926161494e-05
-0.000124200854862
-0.000103675950439
-0.000128777393267
-0.000120051679825
-0.000134257413869
-0.000136979123376
-0.000140782996745
-0.000148420194382
-1.45934478421e-05
-9.45524789783e-05
-2.94622250629e-05
-9.66128958415e-05
-4.46271710208e-05
-9.90344636463e-05
-6.01244418803e-05
-0.000101656373815
-7.59923346893e-05
-0.000104529313406
-9.22829811039e-05
-0.00010791016493
-0.000109091734815
-0.000111968533134
-0.00012648702672
-0.000116862162351
-0.000144574753138
-0.000122694988812
-0.00012958265454
-1.5246775524e-05
-7.93059124909e-05
-3.07333172204e-05
-8.11265898384e-05
-4.65121217105e-05
-8.32559052056e-05
-6.26457998271e-05
-8.55229491621e-05
-7.91912481733e-05
-8.79841230449e-05
-9.62339553677e-05
-9.08676879965e-05
-0.000113856925696
-9.43457049491e-05
-0.000132169088182
-9.85501190346e-05
-0.000151265166179
-0.000103598992887
-0.000109556668094
-1.58262785115e-05
-6.34799145993e-05
-3.18038091457e-05
-6.51494109373e-05
-4.80679947669e-05
-6.69921459924e-05
-6.47206816761e-05
-6.88707798213e-05
-8.18274795123e-05
-7.08779437834e-05
-9.94793101683e-05
-7.32165619195e-05
-0.000117785021682
-7.60407065292e-05
-0.00013684942522
-7.94865129681e-05
-0.000156844345042
-8.36072990125e-05
-8.84898134295e-05
-1.6266799245e-05
-4.72135030679e-05
-3.25650939214e-05
-4.88516302354e-05
-4.91513491375e-05
-5.04065636585e-05
-6.61595916134e-05
-5.18634136764e-05
-8.36843741523e-05
-5.33542775914e-05
-0.000101779655838
-5.51226323121e-05
-0.000120584825406
-5.72370328211e-05
-0.000140235813643
-5.98392986027e-05
-0.000160879943369
-6.29666916053e-05
-1.63700460676e-05
-3.08440210868e-05
-3.27706463818e-05
-3.2451752607e-05
-4.95050433129e-05
-3.36731347245e-05
-6.67210168903e-05
-3.46487399251e-05
-8.4471757685e-05
-3.56052244957e-05
-0.000102863697521
-3.67327622031e-05
-0.000121960579314
-3.81430705682e-05
-0.000141887224318
-3.99173328134e-05
-4.1986348693e-05
-1.58922046981e-05
-1.49525473931e-05
-3.22672171222e-05
-1.60776664057e-05
-4.90618835811e-05
-1.68797178321e-05
-6.63564425008e-05
-1.73558511754e-05
-8.4208471227e-05
-1.77553524356e-05
-0.00010267790565
-1.82659406251e-05
-0.000121822732429
-1.9002054488e-05
-0.000141856429108
-1.98907430652e-05
-2.09018981925e-05
-1.49529880883e-05
-3.10312403056e-05
-4.79117441479e-05
-6.52686299451e-05
-8.30252743297e-05
-0.000101292727864
-0.000120298300766
-0.000140192797217
)
;

boundaryField
{
    back
    {
        type            calculated;
        value           uniform 0;
    }
    sides
    {
        type            calculated;
        value           uniform 0;
    }
    bottom
    {
        type            calculated;
        value           uniform 0;
    }
    front
    {
        type            calculated;
        value           uniform 0;
    }
    atmosphere
    {
        type            calculated;
        value           nonuniform List<scalar> 0();
    }
    floatingObject
    {
        type            calculated;
        value           nonuniform List<scalar> 0();
    }
    procBoundary10to9
    {
        type            processor;
        value           nonuniform List<scalar> 
15
(
0.00022274554391
0.000227610271714
0.000232973243418
0.000239181190056
0.000246379928089
0.000254725971741
0.000264109922528
0.000274622146449
0.000207134611666
1.72883634554e-05
0.000211925093686
6.58459271508e-06
7.58885377213e-06
8.57876760894e-06
0.00017985501008
)
;
    }
    procBoundary10to11
    {
        type            processor;
        value           nonuniform List<scalar> 
23
(
-6.53729511915e-05
0.000280282780381
-8.4361348178e-05
-9.74436286676e-05
-0.000265174964778
-0.000101329121179
-0.000113405127467
-0.000125748410503
-0.000221262711599
-0.00012438984393
-0.000197158127899
-0.000120019592806
-0.000128765411152
0.000166034189795
-0.000154595700968
-0.000163412399429
-0.000171292193759
-0.000177912597427
-0.000182718233639
-6.66564222546e-05
-0.000162874244827
-0.000162948177674
-0.000161099269913
)
;
    }
}


// ************************************************************************* //
