/*--------------------------------*- C++ -*----------------------------------*\
| =========                 |                                                 |
| \\      /  F ield         | OpenFOAM: The Open Source CFD Toolbox           |
|  \\    /   O peration     | Version:  v2012                                 |
|   \\  /    A nd           | Website:  www.openfoam.com                      |
|    \\/     M anipulation  |                                                 |
\*---------------------------------------------------------------------------*/
FoamFile
{
    version     2.0;
    format      ascii;
    class       surfaceVectorField;
    location    "5.3";
    object      Uf;
}
// * * * * * * * * * * * * * * * * * * * * * * * * * * * * * * * * * * * * * //

dimensions      [0 1 -1 0 0 0 0];


internalField   nonuniform List<vector> 
304
(
(-0.04443862971 -0.00466777004228 2.22149031382e-23)
(-0.0433390828631 -0.00441017795343 3.6059062039e-23)
(-0.045461433523 -0.00588439473088 -3.219203257e-24)
(-0.0443054130641 -0.0057310309555 -3.79504158275e-24)
(-0.0466231380668 -0.00710062572168 -1.81093929329e-24)
(-0.0453784003112 -0.00705408375046 -2.42724540884e-24)
(-0.0479745855787 -0.00831159511429 1.78716184271e-23)
(-0.0466253747072 -0.00837614639052 -2.62871975264e-24)
(-0.0495359271125 -0.0095086774655 5.22050535713e-23)
(-0.0480791955107 -0.00969429754092 -5.86448772385e-24)
(-0.051312315169 -0.0107121228177 4.32161758733e-23)
(-0.0497425731243 -0.0110022907743 5.91380384123e-23)
(-0.0533077517315 -0.0118920115014 -7.10911983016e-24)
(-0.0516431682607 -0.0123087673705 6.2050335249e-24)
(-0.0537444698139 -0.0136094329864 -5.51302797852e-23)
(-0.041225350328 -0.00267166297967 7.26677043741e-23)
(-0.0400724514266 -0.00215521544741 1.2074133322e-22)
(-0.0421675428239 -0.00406617777451 5.24424902366e-23)
(-0.0409906420839 -0.00360349660052 9.54424282426e-23)
(-0.0431205008376 -0.00548181908818 1.00491173181e-23)
(-0.0419235097018 -0.0051197082646 4.6260002893e-23)
(-0.044136791108 -0.00690871596762 -3.00308373459e-24)
(-0.0428785843451 -0.00664857739424 1.79228951041e-25)
(-0.0452969873743 -0.00834133412105 -3.24502586819e-24)
(-0.0439458826768 -0.0081852494087 -2.65818650101e-24)
(-0.0466489213196 -0.0097736298339 -2.63648259036e-23)
(-0.0451932692525 -0.00972614427089 -6.77310284136e-24)
(-0.0482142791751 -0.0112061646973 1.06849711723e-24)
(-0.0466469786476 -0.0112694652398 -2.24467389233e-23)
(-0.0500023858678 -0.0126318099979 2.2126896064e-23)
(-0.0483174974381 -0.0128100879632 2.85881626631e-23)
(-0.0520116129498 -0.0140552366957 -4.18161264301e-23)
(-0.0502207681923 -0.0143519350701 -6.16189742792e-24)
(-0.0542252943627 -0.0154631964091 -9.7479602608e-23)
(-0.0523386707998 -0.0158859913143 -7.51154502953e-23)
(-0.0546505736759 -0.0174055294363 -1.11957496972e-22)
(-0.0397494770533 -0.00307798204979 1.43516057088e-22)
(-0.0385124385696 -0.00245696354142 2.28518709832e-22)
(-0.0406610426387 -0.00467185010554 8.9259940899e-23)
(-0.0393968640233 -0.00410356562793 1.57328782161e-22)
(-0.0415938728745 -0.00629408744046 3.6390114526e-23)
(-0.0403013576812 -0.00582547486366 8.93761684179e-23)
(-0.0425995324721 -0.00793375721458 5.24126184621e-25)
(-0.0412390194613 -0.00756282504102 2.01491200234e-23)
(-0.0437541549402 -0.00958129990103 -6.18626347418e-24)
(-0.0422984983672 -0.0093133589259 2.1979751552e-24)
(-0.0451014403793 -0.0112351725418 -2.85501586102e-24)
(-0.0435396551257 -0.0110729349318 -4.49183364526e-24)
(-0.046663057575 -0.012897155527 5.07292662262e-24)
(-0.0449853902972 -0.0128425997154 9.6535572426e-26)
(-0.0484515396914 -0.0145568344343 2.99369171214e-25)
(-0.046658396596 -0.0146174752337 1.10279944594e-23)
(-0.0504673036782 -0.016219518682 -3.94612212932e-23)
(-0.0485597462849 -0.0163951420929 -8.21245334457e-24)
(-0.052697554322 -0.0178706903704 -8.95933446591e-23)
(-0.0506894128904 -0.0181656772748 -4.66530706075e-23)
(-0.0380707991984 -0.00347653787823 2.42331434905e-22)
(-0.0367517805445 -0.00275327423082 3.59772079345e-22)
(-0.0389499911778 -0.00527395475989 1.5744500968e-22)
(-0.0375995267368 -0.00459732200672 2.48771746811e-22)
(-0.0398594764557 -0.00710045889648 7.31351739153e-23)
(-0.0384749407488 -0.00652284267556 1.29129979672e-22)
(-0.040849399682 -0.00894981095743 2.1822968994e-23)
(-0.0393897880256 -0.00846776016514 3.66607330837e-23)
(-0.0419916866115 -0.0108153217865 3.89240498411e-24)
(-0.0404331722069 -0.0104313232094 8.93098433573e-24)
(-0.0433300117783 -0.0126972961178 -1.54028221182e-24)
(-0.0416579760095 -0.01241127912 -1.95717631591e-24)
(-0.0448867896208 -0.0145857305677 6.05160340922e-24)
(-0.0430973869378 -0.0144096006445 8.01809572434e-24)
(-0.0466717364809 -0.0164800223918 2.51617194362e-24)
(-0.0447649014459 -0.0164180995945 1.14568734479e-24)
(-0.0486914015303 -0.0183841716621 -1.54043026589e-23)
(-0.0466571136928 -0.018436223785 -3.7575460654e-25)
(-0.0488101310011 -0.0204503198126 -2.84841046639e-23)
(-0.0353972490227 -0.00191217575454 4.52402658966e-22)
(-0.0340589343497 -0.00101308135855 4.93890767174e-22)
(-0.0361938202274 -0.00386400702424 3.6621239125e-22)
(-0.0348000122476 -0.00304388172549 4.55504536764e-22)
(-0.0370357852699 -0.00586250561876 2.20456716803e-22)
(-0.035601092603 -0.00508084003053 3.19210651193e-22)
(-0.037917390485 -0.00789645024367 9.26555388407e-23)
(-0.0364410744605 -0.00720688272248 1.51271892623e-22)
(-0.0388854333398 -0.00995412926915 2.37687484254e-23)
(-0.0373322222452 -0.0093564194483 4.35413770196e-23)
(-0.0400084223615 -0.0120348109326 3.08140303571e-24)
(-0.038352671383 -0.0115312351958 5.4568632882e-24)
(-0.0413297048575 -0.0141379666157 7.60120162026e-24)
(-0.0395551018762 -0.0137318541912 2.52073601984e-24)
(-0.042873106897 -0.0162655493023 3.11217965992e-24)
(-0.0409702179065 -0.0159596822712 1.15684634528e-23)
(-0.0446533790804 -0.0184121023816 -1.74623920537e-24)
(-0.0426191452996 -0.0182075321628 8.87918193168e-24)
(-0.046679772574 -0.0205487215925 -1.34555566115e-23)
(-0.0445225153205 -0.0204758471769 1.17516806462e-23)
(-0.0466796173774 -0.022746434894 -4.65798628778e-23)
(-0.0333708532606 -0.00209944476341 4.96992644972e-22)
(-0.031959535243 -0.00111183330301 5.07647137365e-22)
(-0.0341216873494 -0.00424438124059 4.08502796707e-22)
(-0.0326551219298 -0.00332597605508 4.81675866614e-22)
(-0.0349214494191 -0.006437347853 2.50025827013e-22)
(-0.0334081751581 -0.00554862607162 3.65452174555e-22)
(-0.0357698701013 -0.00867145669616 1.02157730802e-22)
(-0.0342070261069 -0.00787161860163 1.70648164933e-22)
(-0.036709368664 -0.0109362431046 2.52294918824e-23)
(-0.0350675275564 -0.0102213136999 5.07150126134e-23)
(-0.0378048731872 -0.0132339477819 4.89619627233e-24)
(-0.0360551131213 -0.0126042677568 6.91810439733e-24)
(-0.0390996227811 -0.0155635936468 6.48799785242e-24)
(-0.0372256865899 -0.0150230751169 4.83336848182e-24)
(-0.0406201743134 -0.0179206475681 1.73354657246e-23)
(-0.0386134982857 -0.0174805489635 6.60115749713e-26)
(-0.0423837513806 -0.0203042319085 2.23771017833e-23)
(-0.040237025924 -0.0199718097087 3.40967123483e-23)
(-0.0444032490168 -0.0227205713031 -2.13726256201e-23)
(-0.0421074258448 -0.0224986031679 1.41729707533e-23)
(-0.0311558989054 -0.00227934422426 4.92330359008e-22)
(-0.0296802252497 -0.00120599860481 5.47802074587e-22)
(-0.0318574028636 -0.00461384374129 4.38625244462e-22)
(-0.0303206571197 -0.00359616127286 5.66785915668e-22)
(-0.0326127676559 -0.00699634690986 2.86074512474e-22)
(-0.0310257064527 -0.00599868417259 4.33787404516e-22)
(-0.0334218166839 -0.00942171016374 1.19205446744e-22)
(-0.0317817031683 -0.00851117280155 2.20185969881e-22)
(-0.0343250338523 -0.0118881478844 3.24036251284e-23)
(-0.0326011493266 -0.0110544165083 7.06491497563e-23)
(-0.0353840169823 -0.0143948152471 6.85527660682e-24)
(-0.0335485416335 -0.0136396587531 1.53294342357e-23)
(-0.0366405614081 -0.0169449639244 -1.58861779563e-24)
(-0.0346756837969 -0.016271805387 6.60589662609e-24)
(-0.0381215692731 -0.0195466928595 1.68272581987e-23)
(-0.0360124326043 -0.0189557555005 5.18269124107e-25)
(-0.0398520737244 -0.0222007145703 2.58925813183e-23)
(-0.0375837496733 -0.0216917681104 2.34992400928e-23)
(-0.0287585070009 -0.00245393821489 6.22257631247e-22)
(-0.0272263157683 -0.00129298914746 6.84453692038e-22)
(-0.0294078234801 -0.00497248306491 5.61948075722e-22)
(-0.0278021398207 -0.0038513848141 7.24999750543e-22)
(-0.0301171245066 -0.00753256066543 3.67898861923e-22)
(-0.0284656518574 -0.00642914305861 5.62619324991e-22)
(-0.0308805290183 -0.0101417710408 1.71629672893e-22)
(-0.0291725140984 -0.00911880240934 2.96019628847e-22)
(-0.0317392461654 -0.0128010388526 5.35749588636e-23)
(-0.0299419087508 -0.0118472861365 9.94364436598e-23)
(-0.0327506580013 -0.0155108907848 1.5080054255e-23)
(-0.0308387306845 -0.0146265325253 2.9829597862e-23)
(-0.0339539891772 -0.0182785758957 8.71278354583e-24)
(-0.0319081567802 -0.0174648804127 1.41563447116e-23)
(-0.0353780010899 -0.0211078708926 7.19025101821e-24)
(-0.0331835357581 -0.0203704718842 1.15225266572e-23)
(-0.0346882303899 -0.0233496988317 7.53979879969e-24)
(-0.0261912064268 -0.00262116241472 7.87195811333e-22)
(-0.0246051805945 -0.0013753957231 8.05352904113e-22)
(-0.0267855390566 -0.0052960651503 7.25670999812e-22)
(-0.0251272615852 -0.00408955770926 8.02705744296e-22)
(-0.0274427161116 -0.00803062042918 4.90740091915e-22)
(-0.02573111293 -0.00683478294928 6.67655885895e-22)
(-0.0281537672434 -0.0108200988257 2.23826399614e-22)
(-0.0263830438807 -0.00968812312409 3.65011690305e-22)
(-0.0289585091753 -0.0136652248948 7.56910826582e-23)
(-0.0270967853653 -0.012590278688 1.36429680019e-22)
(-0.0299104676783 -0.0165732443288 2.89058883186e-23)
(-0.0279307107603 -0.0155534979899 4.63965274436e-23)
(-0.0310469491692 -0.0195493734093 1.6966087823e-23)
(-0.0289321352441 -0.0185890191847 2.04167010228e-23)
(-0.0323959063853 -0.0226064654547 1.18720744387e-23)
(-0.0301265390365 -0.0217085646242 1.32987297763e-23)
(-0.031542089643 -0.024921685665 7.22280755866e-24)
(-0.0234655533326 -0.00277605725074 8.20862837075e-22)
(-0.0218291520978 -0.00145582353433 7.47023797111e-22)
(-0.0240023714113 -0.00560704287475 7.44690630378e-22)
(-0.0222963018054 -0.00430975885067 8.17444112416e-22)
(-0.0246002779746 -0.00849831726212 5.41927484285e-22)
(-0.0228398551448 -0.00720873645932 6.88648277466e-22)
(-0.0252520982248 -0.0114506561869 2.7761497071e-22)
(-0.0234307104867 -0.0102125764305 4.00946135441e-22)
(-0.0259927912472 -0.0144680041615 1.07135124805e-22)
(-0.0240794317836 -0.0132735334052 1.67411575732e-22)
(-0.02687191098 -0.0175585232299 3.79073401478e-23)
(-0.0248401709725 -0.0164071135921 6.50789097008e-23)
(-0.0279248135957 -0.0207351900879 1.67493429761e-23)
(-0.0257554786534 -0.0196265043878 2.31067920827e-23)
(-0.0291778936026 -0.0240103359649 8.64946289626e-24)
(-0.0268514827739 -0.0229470864169 1.96866972854e-23)
(-0.030656157661 -0.0273958246753 -3.25958347563e-24)
(-0.028156599349 -0.0263831239881 1.11890553912e-23)
(-0.0296840388763 -0.0299525945636 -5.74637527944e-24)
(-0.0205915176286 -0.00291868956843 7.43605072452e-22)
(-0.0189104957957 -0.00153329905319 5.9256968754e-22)
(-0.0210698290392 -0.00589244501258 7.61401759504e-22)
(-0.0193225791683 -0.0045107764615 7.65118761776e-22)
(-0.0216052876664 -0.00892543420415 5.47666928623e-22)
(-0.0198068927293 -0.00754571197062 6.7517408202e-22)
(-0.022190643041 -0.0120248883761 2.90742740463e-22)
(-0.020331274763 -0.01068262918 4.11216466359e-22)
(-0.0228568297543 -0.0151984669379 1.25355360628e-22)
(-0.0209058626812 -0.0138843591807 1.94495146861e-22)
(-0.0236492312042 -0.0184565962208 5.02783616357e-23)
(-0.021582032986 -0.0171703220692 8.99967624565e-23)
(-0.0246007893215 -0.0218183469631 2.6044146392e-23)
(-0.0223937066267 -0.0205555750059 4.64425062296e-23)
(-0.0257381670662 -0.0252974053441 2.22262897803e-23)
(-0.0233724324703 -0.0240593614021 4.26334549967e-23)
(-0.0270853393253 -0.0289149506276 8.70226358741e-24)
(-0.0245389977624 -0.0276999320841 3.09524971156e-23)
(-0.0259165309081 -0.0314970548119 1.79913318758e-23)
(-0.0175818751888 -0.00304935510481 6.14083376864e-22)
(-0.0158611824982 -0.00160605999826 5.6009644442e-22)
(-0.0180034852662 -0.00614666344409 6.78891084292e-22)
(-0.0162253179677 -0.00468921917286 7.27394170925e-22)
(-0.018474979432 -0.00930242434211 5.38723619756e-22)
(-0.0166511810411 -0.00783711751763 6.71687916037e-22)
(-0.0189872487983 -0.0125291599654 3.14968872758e-22)
(-0.0171045898324 -0.0110842697345 4.20650781178e-22)
(-0.0195685275194 -0.0158382496347 1.5913654869e-22)
(-0.017596824609 -0.0144043602854 2.24705956302e-22)
(-0.0202602021557 -0.0192467910735 8.61609070503e-23)
(-0.0181735375993 -0.0178202028272 1.3076028038e-22)
(-0.0210934854954 -0.0227713851393 6.30318148343e-23)
(-0.0188691409898 -0.0213478003346 9.93625616863e-23)
(-0.0220944042804 -0.0264338176364 5.1359662332e-23)
(-0.0197100238069 -0.0250091520578 9.39322539856e-23)
(-0.0232834012425 -0.0302530332357 4.0241565404e-23)
(-0.0207197985774 -0.0288276883531 8.23663837844e-23)
(-0.0219113336189 -0.0328294556378 5.98760502864e-23)
(-0.0144523579439 -0.0031652557023 6.7340723848e-22)
(-0.0126959829199 -0.00166963455324 6.92244996945e-22)
(-0.014824680699 -0.00636076182915 7.2019100267e-22)
(-0.0130298821875 -0.0048321459251 8.1900452924e-22)
(-0.0152308324584 -0.00961359895338 5.53615077459e-22)
(-0.0133984291985 -0.00806189900619 7.03912542929e-22)
(-0.0156629745219 -0.0129441363352 3.30387864723e-22)
(-0.0137741559643 -0.0113912635177 4.34122092252e-22)
(-0.0161489068781 -0.0163654959025 1.96329687993e-22)
(-0.0141755887567 -0.0148027511971 2.49901826452e-22)
(-0.016726560611 -0.0198958620337 1.43961935016e-22)
(-0.0146433123839 -0.0183202564388 2.00009768589e-22)
(-0.0174258207999 -0.0235570043363 1.30263000838e-22)
(-0.0152081413058 -0.0219596884323 1.71765482339e-22)
(-0.0182687016747 -0.027369885044 1.24938975438e-22)
(-0.0158973025936 -0.0257463230949 1.86454832453e-22)
(-0.0192705739018 -0.0313688690083 1.02000868667e-22)
(-0.0167214598025 -0.0297080149426 1.83134158237e-22)
(-0.0176979626859 -0.0338744658874 1.24435992047e-22)
(-0.0112268948023 -0.003253359849 8.37842287704e-22)
(-0.00944270061358 -0.00170534303927 8.94133377497e-22)
(-0.0115621345933 -0.00651301878428 8.02726069499e-22)
(-0.00977032604708 -0.00490649617726 8.99181338909e-22)
(-0.0118998231397 -0.0098302698275 5.84419557722e-22)
(-0.0100813127317 -0.00817933614216 7.46014407654e-22)
(-0.0122424703469 -0.0132319183227 3.53636053982e-22)
(-0.0103726827353 -0.0115611602066 4.65449983381e-22)
(-0.012621414989 -0.0167368748305 2.53581907049e-22)
(-0.0106708555183 -0.0150340813175 3.18654433378e-22)
(-0.0130743643659 -0.0203559311677 2.27813315912e-22)
(-0.0110245264624 -0.0186208747463 2.91815531388e-22)
(-0.0136268811204 -0.0241169650811 2.27957313955e-22)
(-0.0114474065642 -0.0223363053006 2.94431625088e-22)
(-0.0142939712004 -0.0280471627286 2.44650015253e-22)
(-0.0119678597205 -0.0262044956118 3.07753582136e-22)
(-0.015086942399 -0.0321759886739 2.05569281617e-22)
(-0.0125933383211 -0.0302581427839 3.14040392546e-22)
(-0.00795164083624 -0.00327400921351 9.55472428702e-22)
(-0.00616880421736 -0.00167690423467 8.36570216339e-22)
(-0.0082518973566 -0.00655412927637 8.42469677064e-22)
(-0.0064903505214 -0.00487009827015 8.47642890657e-22)
(-0.00851438711608 -0.00990100866258 6.27044833313e-22)
(-0.00673462694489 -0.00815315648163 6.87501102699e-22)
(-0.00875738497176 -0.0133442033781 4.30468362777e-22)
(-0.00692974798503 -0.011564148646 4.8111749643e-22)
(-0.00902041597538 -0.016894351537 3.56888057717e-22)
(-0.00712104489914 -0.0150708068263 3.95415759072e-22)
(-0.00934159295766 -0.0205727395043 3.58433840564e-22)
(-0.00734655244061 -0.0186926984929 3.97560614769e-22)
(-0.0097396721543 -0.0243921158627 3.74227893269e-22)
(-0.00762861411363 -0.0224433817634 4.54041349498e-22)
(-0.0102188628996 -0.0283774448635 3.7714395943e-22)
(-0.00798346656267 -0.0263472070424 4.53878512876e-22)
(-0.00839726973861 -0.0304415057999 4.72893455898e-22)
(-0.00471857379564 -0.00317844093962 7.28740678294e-22)
(-0.00299050947862 -0.0015473498124 5.05844565889e-22)
(-0.00497206111098 -0.00645344342445 6.92674316291e-22)
(-0.00321553328114 -0.0046989009644 6.21491868536e-22)
(-0.00515247891033 -0.00981237671622 5.41573765815e-22)
(-0.00337594356643 -0.00798736689491 5.09614430686e-22)
(-0.00529481926089 -0.0132712885002 4.46064892725e-22)
(-0.00347117023508 -0.0114139337517 4.28551303716e-22)
(-0.00544446447784 -0.0168416942454 4.36088316124e-22)
(-0.00355107048713 -0.0149287447089 4.33772150246e-22)
(-0.00563265137464 -0.0205355811299 4.93168123702e-22)
(-0.00365318812502 -0.0185442199581 4.91458323422e-22)
(-0.00586886272234 -0.0243645464858 5.33691969105e-22)
(-0.00380041089759 -0.0222835337874 5.38349409497e-22)
(-0.00615081555917 -0.0283712858217 5.49628009345e-22)
(-0.00397814861303 -0.0261811655734 6.2284395136e-22)
(-0.0041803796385 -0.030269438686 6.75960852292e-22)
(-0.00155284287475 -0.00299059761766 3.9859575613e-22)
(-0.00171699106075 -0.00620624806111 4.38431982931e-22)
(-0.00180262489183 -0.00958234882959 3.96591968587e-22)
(-0.00184453849601 -0.013053725989 4.16258561238e-22)
(-0.00188377132757 -0.0166050548659 4.89142157545e-22)
(-0.00194008409515 -0.0202585455729 5.36639609218e-22)
(-0.00201603660997 -0.0240596601532 6.27501391753e-22)
(-0.0021131647758 -0.0280385594434 7.49176794307e-22)
)
;

boundaryField
{
    back
    {
        type            calculated;
        value           uniform (0 0 0);
    }
    sides
    {
        type            calculated;
        value           uniform (0 0 0);
    }
    bottom
    {
        type            calculated;
        value           uniform (0 0 0);
    }
    front
    {
        type            calculated;
        value           uniform (0 0 0);
    }
    atmosphere
    {
        type            calculated;
        value           nonuniform List<vector> 0();
    }
    floatingObject
    {
        type            calculated;
        value           nonuniform List<vector> 0();
    }
    procBoundary10to9
    {
        type            processor;
        value           nonuniform List<vector> 
15
(
(-0.0445491087819 -0.00369936680752 4.9810155395e-23)
(-0.0455220543427 -0.00481150287468 7.09182318141e-24)
(-0.0465946486837 -0.00592123250285 -2.9099055879e-24)
(-0.0478362380112 -0.00702535350103 2.77430140826e-24)
(-0.0492759856177 -0.00812238478491 2.13141912547e-23)
(-0.0509451943482 -0.00920630185082 6.11539453328e-23)
(-0.0528219845056 -0.0102800625724 2.08680747355e-23)
(-0.0549244292899 -0.0113450434573 -2.37962708428e-23)
(-0.0414269223333 -0.00185043765817 6.95572039755e-23)
(-0.0434693393589 -0.00345767269108 6.32069414652e-23)
(-0.0423850187372 -0.00309954135095 7.95903696628e-23)
(-0.0403098465538 -0.00131691854302 5.98226595133e-23)
(-0.0388720227105 -0.00151777075443 1.39939375501e-22)
(-0.0372324393434 -0.00171575352179 3.03845825722e-22)
(-0.0359710020159 -0.00091411834604 3.96476405344e-22)
)
;
    }
    procBoundary10to11
    {
        type            processor;
        value           nonuniform List<vector> 
23
(
(-0.0555116622747 -0.0130745902383 -6.92091434191e-23)
(-0.0560565560762 -0.0149008609536 -1.11558466242e-22)
(-0.0565999227701 -0.0168722696356 -2.64094551196e-22)
(-0.0551019498665 -0.0194887257335 -2.53795825705e-22)
(-0.0530349929557 -0.0199152002742 -8.34264969127e-23)
(-0.0509403561955 -0.0202658242359 -4.04862228612e-23)
(-0.0489490776539 -0.0226810254935 -9.20037106676e-23)
(-0.0466899519363 -0.0251496821007 -1.81940322775e-22)
(-0.0442525423199 -0.0250519844305 -8.92060691801e-23)
(-0.0418490908562 -0.024877968786 -5.36604728067e-23)
(-0.0394316255797 -0.0244864181652 -1.35673733438e-23)
(-0.0370533285666 -0.0240039185613 -1.59607145693e-23)
(-0.033984141357 -0.0257530822304 -8.33856287311e-25)
(-0.033206837959 -0.0282462661028 -1.13162473216e-23)
(-0.0323903401968 -0.0309191401935 -3.94819550463e-23)
(-0.0286673510691 -0.0326824798858 -2.92907462293e-23)
(-0.0246788413993 -0.0342584387518 1.19660093513e-23)
(-0.0204435573238 -0.0355825194853 6.69746975654e-23)
(-0.0160062305488 -0.0365436467278 1.71394359057e-22)
(-0.0133312844509 -0.0345365496481 2.71583492169e-22)
(-0.0107827975595 -0.0325748489654 3.80054603098e-22)
(-0.00647666526151 -0.0325896355349 5.63798023218e-22)
(-0.00223196607856 -0.0322198539826 7.10684287183e-22)
)
;
    }
}


// ************************************************************************* //
