/*--------------------------------*- C++ -*----------------------------------*\
| =========                 |                                                 |
| \\      /  F ield         | OpenFOAM: The Open Source CFD Toolbox           |
|  \\    /   O peration     | Version:  v2012                                 |
|   \\  /    A nd           | Website:  www.openfoam.com                      |
|    \\/     M anipulation  |                                                 |
\*---------------------------------------------------------------------------*/
FoamFile
{
    version     2.0;
    format      ascii;
    class       volScalarField;
    location    "5.7";
    object      alpha.water;
}
// * * * * * * * * * * * * * * * * * * * * * * * * * * * * * * * * * * * * * //

dimensions      [0 0 0 0 0 0 0];


internalField   nonuniform List<scalar> 
167
(
1.0000045032
1.00000528015
1.00000685609
1.00000544729
1.00000054291
0.999998324257
0.999998311197
0.99999852257
0.976936644178
0.345301407418
4.39927420175e-05
1.80235202743e-05
1.00000434563
1.00000582043
1.00000716363
1.00000450477
1.00000029645
0.999998375436
0.999998356863
0.999998522636
0.968100361307
0.345040119208
-5.17428867911e-10
2.02088670557e-06
1.00000279369
1.00000249084
1.00000505942
1.00000400489
0.99999956462
0.999998003566
0.999998404052
0.999998522636
0.967639944573
0.344074731678
-4.36421565841e-09
-9.176937708e-08
0.999997701682
0.999998211545
0.999999260468
0.999998960407
0.99999772648
0.999998453917
0.999998522636
0.967784255729
0.34185825418
1.03187543147e-06
-8.5384920829e-09
0.999990803964
0.999994279008
0.999998390219
0.999997595196
0.999998454015
0.999998521999
0.97000254787
0.338101238342
4.20870249872e-05
1.35604547776e-06
0.999983194897
0.999988051914
0.999997598796
0.999997583301
0.999998447004
0.999998519443
0.972708223968
0.333021497404
3.24385923474e-05
6.49977791216e-06
0.99997677355
0.99998661746
0.999996906006
0.999997488721
0.999998512194
0.999998564202
0.973514724954
0.328792487307
6.50147111347e-06
7.33666326921e-08
0.99997677355
0.999979913414
0.999992837803
0.999995986637
0.999998453939
0.999998806766
0.97126769151
0.327027465508
7.51174401285e-08
8.65556408486e-12
0.99997677355
0.999981197596
0.999991211053
0.999992728275
0.999998237618
0.999999137584
0.969065611927
0.329212694273
-4.65976134193e-12
-8.65759342161e-12
0.99997680399
0.999990190234
0.999996010841
0.999996392514
0.999999021121
0.99999939825
0.969220542423
0.334940280942
-4.3443711026e-13
-2.21168470268e-10
0.999986747375
0.999997773298
0.999998751546
0.999998807505
0.999999650219
0.999999700408
0.97153997423
0.343159385092
-1.90603457894e-16
-1.44109975507e-11
0.999998659435
0.999999803854
1.00000054934
0.999999791992
0.999999856407
0.999999940621
0.975213605516
0.354061995186
-8.72739557229e-20
-1.26053163171e-09
1.00000208236
1.00000375151
1.00000469742
1.00000211566
0.999999998316
1
0.979349880718
0.368973472485
-1.46651371995e-22
-3.91560057812e-13
1.00000814706
1.00000996582
1.00001091635
1.00000741439
0.99999999962
1.00000000003
0.983549786672
0.388179804681
-1.69904235363e-14
5.01544256351e-38
1.00001525189
1.00001705824
1.00001821356
1.00001366538
0.999999999049
1.00000000002
0.987542952194
0.411044856531
-1.16089104096e-15
-4.57629334921e-16
1.0000204508
1.00002306136
1.00002460539
1.0000194509
1
1.00000000001
0.991091819099
0.436555068968
-6.13638165833e-13
-1.66141693173e-16
)
;

boundaryField
{
    back
    {
        type            zeroGradient;
    }
    sides
    {
        type            zeroGradient;
    }
    bottom
    {
        type            zeroGradient;
    }
    front
    {
        type            zeroGradient;
    }
    atmosphere
    {
        type            inletOutlet;
        inletValue      uniform 0;
        value           nonuniform List<scalar> 
16
(
1.80235202743e-05
0
0
0
1.35604547776e-06
6.49977791216e-06
7.33666326921e-08
0
0
-2.21168470268e-10
0
0
0
0
0
0
)
;
    }
    floatingObject
    {
        type            zeroGradient;
    }
    procBoundary1to0
    {
        type            processor;
        value           nonuniform List<scalar> 10(1.00002210251 1.0000263852 1.00002847664 1.00002346636 1 1.00000000001 0.994057798986 0.463934027798 0 -4.43075693312e-19);
    }
    procBoundary1to2
    {
        type            processor;
        value           nonuniform List<scalar> 
18
(
1.00000327061
1.00000379437
1.00000351792
1.00000167072
1.00000167072
0.999995621195
0.999995621195
0.999993391086
0.999987569498
0.999983014567
0.999978614908
0.999980028872
0.999990152515
0.999999137475
1.00000146673
1.000005764
1.00001038463
1.00001365019
)
;
    }
}


// ************************************************************************* //
