/*--------------------------------*- C++ -*----------------------------------*\
| =========                 |                                                 |
| \\      /  F ield         | OpenFOAM: The Open Source CFD Toolbox           |
|  \\    /   O peration     | Version:  v2012                                 |
|   \\  /    A nd           | Website:  www.openfoam.com                      |
|    \\/     M anipulation  |                                                 |
\*---------------------------------------------------------------------------*/
FoamFile
{
    version     2.0;
    format      ascii;
    class       volScalarField;
    location    "5.7";
    object      p;
}
// * * * * * * * * * * * * * * * * * * * * * * * * * * * * * * * * * * * * * //

dimensions      [1 -1 -2 0 0 0 0];


internalField   nonuniform List<scalar> 
167
(
4348.96350618
3855.67042214
3362.03080129
2868.08364396
2373.88661602
1879.53224163
1385.16112827
891.054093808
402.811541252
75.8424210646
-9.20042750908
-9.63431626349
4349.31816527
3855.99491638
3362.31261106
2868.30326822
2374.01196075
1879.49603611
1384.81603585
890.016649837
401.90277738
75.9270393638
-9.06542994694
-9.61275037807
4350.05414356
3856.67790912
3362.92033291
2868.80247648
2374.35564366
1879.62294087
1384.63642906
889.446487679
401.185790336
75.7568660333
-8.99652845226
-9.58828660327
3857.74093861
3363.88428437
2869.62693804
2374.98468304
1879.98606691
1384.65152846
889.053608637
400.319436494
75.1884901889
-9.01379984769
-9.57326548948
3365.24456804
2870.82880107
2375.96553177
1880.67247664
1384.95236484
888.881604321
399.193535391
74.2411642784
-9.04699999316
-9.58032210685
3367.05187693
2872.47056057
2377.37020765
1881.74427714
1385.56856114
888.898880029
397.922191428
72.9939386891
-9.06000799996
-9.60300481433
3369.35917471
2874.62277284
2379.28995571
1883.32336517
1386.65380537
889.249897373
396.895003643
71.9682599771
-9.04837230454
-9.5741263982
3372.21948718
2877.35901705
2381.82864011
1885.5511609
1388.41173054
890.472455778
396.751655395
71.5222414536
-9.04241698754
-9.56274598244
3375.68325176
2880.75234738
2385.0991877
1888.58840081
1390.98281114
894.06904293
398.724360066
72.0133347983
-9.04885272254
-9.55962759038
3379.78501187
2884.86286408
2389.20369266
1892.73059775
1395.44064747
897.724246412
403.127228858
73.4299627094
-9.05339907811
-9.55990545193
3384.54037434
2889.69744172
2394.11303617
1897.69959261
1400.37510126
901.976341516
406.984630301
75.476961002
-9.04741069286
-9.55957050095
3389.95152714
2895.26550806
2399.8425221
1903.57182912
1406.29611986
907.684510102
412.125157235
78.142457038
-9.04445548726
-9.55777611106
3396.00891263
2901.564705
2406.41182668
1910.43327428
1413.45403086
915.128471105
419.405975958
81.7510120507
-9.04791066051
-9.55599444126
3402.68378468
2908.56660145
2413.79903874
1918.27754697
1421.85157098
924.238291416
428.795334898
86.3992377155
-9.0543219402
-9.55501485971
3409.92684586
2916.21285735
2421.93240875
1927.00881905
1431.33635088
934.72250666
439.874751113
91.9498762907
-9.06092969471
-9.55512940043
3417.67205466
2924.41963264
2430.70185702
1936.47363087
1441.6798325
946.214406875
452.135447251
98.1607591259
-9.06699889836
-9.55606768444
)
;

boundaryField
{
    back
    {
        type            calculated;
        value           nonuniform List<scalar> 
167
(
4348.96350618
3855.67042214
3362.03080129
2868.08364396
2373.88661602
1879.53224163
1385.16112827
891.054093808
402.811541252
75.8424210646
-9.20042750908
-9.63431626349
4349.31816527
3855.99491638
3362.31261106
2868.30326822
2374.01196075
1879.49603611
1384.81603585
890.016649837
401.90277738
75.9270393638
-9.06542994694
-9.61275037807
4350.05414356
3856.67790912
3362.92033291
2868.80247648
2374.35564366
1879.62294087
1384.63642906
889.446487679
401.185790336
75.7568660333
-8.99652845226
-9.58828660327
3857.74093861
3363.88428437
2869.62693804
2374.98468304
1879.98606691
1384.65152846
889.053608637
400.319436494
75.1884901889
-9.01379984769
-9.57326548948
3365.24456804
2870.82880107
2375.96553177
1880.67247664
1384.95236484
888.881604321
399.193535391
74.2411642784
-9.04699999316
-9.58032210685
3367.05187693
2872.47056057
2377.37020765
1881.74427714
1385.56856114
888.898880029
397.922191428
72.9939386891
-9.06000799996
-9.60300481433
3369.35917471
2874.62277284
2379.28995571
1883.32336517
1386.65380537
889.249897373
396.895003643
71.9682599771
-9.04837230454
-9.5741263982
3372.21948718
2877.35901705
2381.82864011
1885.5511609
1388.41173054
890.472455778
396.751655395
71.5222414536
-9.04241698754
-9.56274598244
3375.68325176
2880.75234738
2385.0991877
1888.58840081
1390.98281114
894.06904293
398.724360066
72.0133347983
-9.04885272254
-9.55962759038
3379.78501187
2884.86286408
2389.20369266
1892.73059775
1395.44064747
897.724246412
403.127228858
73.4299627094
-9.05339907811
-9.55990545193
3384.54037434
2889.69744172
2394.11303617
1897.69959261
1400.37510126
901.976341516
406.984630301
75.476961002
-9.04741069286
-9.55957050095
3389.95152714
2895.26550806
2399.8425221
1903.57182912
1406.29611986
907.684510102
412.125157235
78.142457038
-9.04445548726
-9.55777611106
3396.00891263
2901.564705
2406.41182668
1910.43327428
1413.45403086
915.128471105
419.405975958
81.7510120507
-9.04791066051
-9.55599444126
3402.68378468
2908.56660145
2413.79903874
1918.27754697
1421.85157098
924.238291416
428.795334898
86.3992377155
-9.0543219402
-9.55501485971
3409.92684586
2916.21285735
2421.93240875
1927.00881905
1431.33635088
934.72250666
439.874751113
91.9498762907
-9.06092969471
-9.55512940043
3417.67205466
2924.41963264
2430.70185702
1936.47363087
1441.6798325
946.214406875
452.135447251
98.1607591259
-9.06699889836
-9.55606768444
)
;
    }
    sides
    {
        type            calculated;
        value           nonuniform List<scalar> 
12
(
4348.96350618
3855.67042214
3362.03080129
2868.08364396
2373.88661602
1879.53224163
1385.16112827
891.054093808
402.811541252
75.8424210646
-9.20042750908
-9.63431626349
)
;
    }
    bottom
    {
        type            calculated;
        value           nonuniform List<scalar> 0();
    }
    front
    {
        type            calculated;
        value           nonuniform List<scalar> 
167
(
4348.96350618
3855.67042214
3362.03080129
2868.08364396
2373.88661602
1879.53224163
1385.16112827
891.054093808
402.811541252
75.8424210646
-9.20042750908
-9.63431626349
4349.31816527
3855.99491638
3362.31261106
2868.30326822
2374.01196075
1879.49603611
1384.81603585
890.016649837
401.90277738
75.9270393638
-9.06542994694
-9.61275037807
4350.05414356
3856.67790912
3362.92033291
2868.80247648
2374.35564366
1879.62294087
1384.63642906
889.446487679
401.185790336
75.7568660333
-8.99652845226
-9.58828660327
3857.74093861
3363.88428437
2869.62693804
2374.98468304
1879.98606691
1384.65152846
889.053608637
400.319436494
75.1884901889
-9.01379984769
-9.57326548948
3365.24456804
2870.82880107
2375.96553177
1880.67247664
1384.95236484
888.881604321
399.193535391
74.2411642784
-9.04699999316
-9.58032210685
3367.05187693
2872.47056057
2377.37020765
1881.74427714
1385.56856114
888.898880029
397.922191428
72.9939386891
-9.06000799996
-9.60300481433
3369.35917471
2874.62277284
2379.28995571
1883.32336517
1386.65380537
889.249897373
396.895003643
71.9682599771
-9.04837230454
-9.5741263982
3372.21948718
2877.35901705
2381.82864011
1885.5511609
1388.41173054
890.472455778
396.751655395
71.5222414536
-9.04241698754
-9.56274598244
3375.68325176
2880.75234738
2385.0991877
1888.58840081
1390.98281114
894.06904293
398.724360066
72.0133347983
-9.04885272254
-9.55962759038
3379.78501187
2884.86286408
2389.20369266
1892.73059775
1395.44064747
897.724246412
403.127228858
73.4299627094
-9.05339907811
-9.55990545193
3384.54037434
2889.69744172
2394.11303617
1897.69959261
1400.37510126
901.976341516
406.984630301
75.476961002
-9.04741069286
-9.55957050095
3389.95152714
2895.26550806
2399.8425221
1903.57182912
1406.29611986
907.684510102
412.125157235
78.142457038
-9.04445548726
-9.55777611106
3396.00891263
2901.564705
2406.41182668
1910.43327428
1413.45403086
915.128471105
419.405975958
81.7510120507
-9.04791066051
-9.55599444126
3402.68378468
2908.56660145
2413.79903874
1918.27754697
1421.85157098
924.238291416
428.795334898
86.3992377155
-9.0543219402
-9.55501485971
3409.92684586
2916.21285735
2421.93240875
1927.00881905
1431.33635088
934.72250666
439.874751113
91.9498762907
-9.06092969471
-9.55512940043
3417.67205466
2924.41963264
2430.70185702
1936.47363087
1441.6798325
946.214406875
452.135447251
98.1607591259
-9.06699889836
-9.55606768444
)
;
    }
    atmosphere
    {
        type            calculated;
        value           nonuniform List<scalar> 
16
(
-9.98631566384
-9.81063526621
-9.8103138806
-9.81002454986
-9.82326555828
-9.87358428542
-9.81071771143
-9.81000519652
-9.81000933168
-9.80999783641
-9.81000013091
-9.81005084403
-9.81022496826
-9.81046006492
-9.81064449695
-9.81073958841
)
;
    }
    floatingObject
    {
        type            calculated;
        value           nonuniform List<scalar> 0();
    }
    procBoundary1to0
    {
        type            processor;
        value           nonuniform List<scalar> 10(3425.83898947 2933.08595228 2439.97485659 1946.49259796 1452.62943015 958.35177103 465.151427436 104.838679427 -9.07429018352 -9.55764942541);
    }
    procBoundary1to2
    {
        type            processor;
        value           nonuniform List<scalar> 
18
(
4841.88347129
4842.25875865
4843.03148371
4351.18627548
4351.18627548
3859.21359328
3859.21359328
3861.13571957
3863.54502448
3866.48017158
3869.97438047
3874.05302848
3878.72569987
3883.99021831
3889.83388799
3896.22974569
3903.13595778
3910.49725691
)
;
    }
}


// ************************************************************************* //
