/*--------------------------------*- C++ -*----------------------------------*\
| =========                 |                                                 |
| \\      /  F ield         | OpenFOAM: The Open Source CFD Toolbox           |
|  \\    /   O peration     | Version:  v2012                                 |
|   \\  /    A nd           | Website:  www.openfoam.com                      |
|    \\/     M anipulation  |                                                 |
\*---------------------------------------------------------------------------*/
FoamFile
{
    version     2.0;
    format      ascii;
    class       volScalarField;
    location    "4.8";
    object      k;
}
// * * * * * * * * * * * * * * * * * * * * * * * * * * * * * * * * * * * * * //

dimensions      [0 2 -2 0 0 0 0];


internalField   nonuniform List<scalar> 
167
(
0.00115560956245
0.00135078257528
0.0014207364056
0.00145054889999
0.0014662461533
0.00147717737435
0.00148667495899
0.00149601112938
0.00135438685755
0.00166553528935
0.00176962921358
0.00181216671234
0.00183249935708
0.00184504347063
0.00185509095389
0.00186467167497
0.00142203076365
0.00176683303834
0.00188323260653
0.00193041500228
0.00195222757355
0.00196508017143
0.0019750889744
0.00198456798676
0.00144975426744
0.00180741831844
0.00192871406257
0.00197759798989
0.00199970946125
0.00201236379558
0.00202206682931
0.00203126313753
0.00204119181615
0.00146379561704
0.00182645851691
0.0019496276847
0.00199896468132
0.00202088786967
0.0020331465733
0.00204243646055
0.00205127815481
0.00206088709735
0.00207270123887
0.00147313667338
0.00183797042697
0.00196181119382
0.00201109273704
0.00203264600028
0.00204445027191
0.00205330255899
0.00206175340184
0.00207101281221
0.00208246628371
0.00148083681121
0.0018469137028
0.00197095290155
0.00201999924491
0.00204113949157
0.00205249458313
0.0020609195254
0.00206897889625
0.00207787732626
0.00208896542589
0.00148790530659
0.00185497444476
0.00197903932808
0.00202780268076
0.00204854309076
0.00205948197627
0.00206751142477
0.00207520187759
0.00208374749579
0.00209447301971
0.0014946249797
0.00186267884837
0.00198672007403
0.00203520095686
0.00205557438975
0.00206613859783
0.00207381293791
0.0020811672482
0.0020893908595
0.00209976750025
0.00150107153055
0.00187014719594
0.00199416922739
0.00204238849667
0.00206243080675
0.00207266397872
0.00208002402873
0.0020870815112
0.00209501074624
0.00210506817148
0.0015072563156
0.00187737018527
0.00200140374163
0.00204938766249
0.00206913566911
0.00207907829803
0.00208616499571
0.00209296277351
0.00210063361582
0.00211039343743
0.00151315827839
0.00188438146147
0.00200841480121
0.00205617983542
0.00207566308369
0.00208535065127
0.00209220085075
0.00209877619639
0.00210622007989
0.00211570624271
0.00151874185668
0.00189109948694
0.0020151621792
0.0020627314658
0.00208197495423
0.00209143772562
0.00209808522901
0.00210446986323
0.00211171793103
0.00212095382394
0.00152399972762
0.00189752719202
0.00202161912128
0.00206900556906
0.00208803234741
0.0020972982222
0.00210377227968
0.00210999945252
0.00211707703159
0.00212608815193
0.00152892219248
0.00190361131379
0.00202774525325
0.00207496804331
0.00209380097767
0.00210289577004
0.00210922287692
0.00211531728262
0.00212224894501
0.00213105143082
0.0015335048105
0.00190937199339
0.00203352640168
0.00208059333747
0.00209925090474
0.00210819862949
0.00211440485046
0.00212038193526
0.00212717957858
0.0021358101272
0.00153773060886
0.00191476835064
0.00203894667798
0.00208586387539
0.002104369591
0.00211318838304
0.00211928948412
0.0015415765466
0.00191976605463
0.00204398193904
0.00209077929459
0.00210913928357
0.00204863361304
0.00209530891451
)
;

boundaryField
{
    back
    {
        type            kqRWallFunction;
        value           nonuniform List<scalar> 
167
(
0.00115560956245
0.00135078257528
0.0014207364056
0.00145054889999
0.0014662461533
0.00147717737435
0.00148667495899
0.00149601112938
0.00135438685755
0.00166553528935
0.00176962921358
0.00181216671234
0.00183249935708
0.00184504347063
0.00185509095389
0.00186467167497
0.00142203076365
0.00176683303834
0.00188323260653
0.00193041500228
0.00195222757355
0.00196508017143
0.0019750889744
0.00198456798676
0.00144975426744
0.00180741831844
0.00192871406257
0.00197759798989
0.00199970946125
0.00201236379558
0.00202206682931
0.00203126313753
0.00204119181615
0.00146379561704
0.00182645851691
0.0019496276847
0.00199896468132
0.00202088786967
0.0020331465733
0.00204243646055
0.00205127815481
0.00206088709735
0.00207270123887
0.00147313667338
0.00183797042697
0.00196181119382
0.00201109273704
0.00203264600028
0.00204445027191
0.00205330255899
0.00206175340184
0.00207101281221
0.00208246628371
0.00148083681121
0.0018469137028
0.00197095290155
0.00201999924491
0.00204113949157
0.00205249458313
0.0020609195254
0.00206897889625
0.00207787732626
0.00208896542589
0.00148790530659
0.00185497444476
0.00197903932808
0.00202780268076
0.00204854309076
0.00205948197627
0.00206751142477
0.00207520187759
0.00208374749579
0.00209447301971
0.0014946249797
0.00186267884837
0.00198672007403
0.00203520095686
0.00205557438975
0.00206613859783
0.00207381293791
0.0020811672482
0.0020893908595
0.00209976750025
0.00150107153055
0.00187014719594
0.00199416922739
0.00204238849667
0.00206243080675
0.00207266397872
0.00208002402873
0.0020870815112
0.00209501074624
0.00210506817148
0.0015072563156
0.00187737018527
0.00200140374163
0.00204938766249
0.00206913566911
0.00207907829803
0.00208616499571
0.00209296277351
0.00210063361582
0.00211039343743
0.00151315827839
0.00188438146147
0.00200841480121
0.00205617983542
0.00207566308369
0.00208535065127
0.00209220085075
0.00209877619639
0.00210622007989
0.00211570624271
0.00151874185668
0.00189109948694
0.0020151621792
0.0020627314658
0.00208197495423
0.00209143772562
0.00209808522901
0.00210446986323
0.00211171793103
0.00212095382394
0.00152399972762
0.00189752719202
0.00202161912128
0.00206900556906
0.00208803234741
0.0020972982222
0.00210377227968
0.00210999945252
0.00211707703159
0.00212608815193
0.00152892219248
0.00190361131379
0.00202774525325
0.00207496804331
0.00209380097767
0.00210289577004
0.00210922287692
0.00211531728262
0.00212224894501
0.00213105143082
0.0015335048105
0.00190937199339
0.00203352640168
0.00208059333747
0.00209925090474
0.00210819862949
0.00211440485046
0.00212038193526
0.00212717957858
0.0021358101272
0.00153773060886
0.00191476835064
0.00203894667798
0.00208586387539
0.002104369591
0.00211318838304
0.00211928948412
0.0015415765466
0.00191976605463
0.00204398193904
0.00209077929459
0.00210913928357
0.00204863361304
0.00209530891451
)
;
    }
    sides
    {
        type            kqRWallFunction;
        value           nonuniform List<scalar> 8(0.00115560956245 0.00135078257528 0.0014207364056 0.00145054889999 0.0014662461533 0.00147717737435 0.00148667495899 0.00149601112938);
    }
    bottom
    {
        type            kqRWallFunction;
        value           nonuniform List<scalar> 
18
(
0.00115560956245
0.00135438685755
0.00142203076365
0.00144975426744
0.00146379561704
0.00147313667338
0.00148083681121
0.00148790530659
0.0014946249797
0.00150107153055
0.0015072563156
0.00151315827839
0.00151874185668
0.00152399972762
0.00152892219248
0.0015335048105
0.00153773060886
0.0015415765466
)
;
    }
    front
    {
        type            kqRWallFunction;
        value           nonuniform List<scalar> 
167
(
0.00115560956245
0.00135078257528
0.0014207364056
0.00145054889999
0.0014662461533
0.00147717737435
0.00148667495899
0.00149601112938
0.00135438685755
0.00166553528935
0.00176962921358
0.00181216671234
0.00183249935708
0.00184504347063
0.00185509095389
0.00186467167497
0.00142203076365
0.00176683303834
0.00188323260653
0.00193041500228
0.00195222757355
0.00196508017143
0.0019750889744
0.00198456798676
0.00144975426744
0.00180741831844
0.00192871406257
0.00197759798989
0.00199970946125
0.00201236379558
0.00202206682931
0.00203126313753
0.00204119181615
0.00146379561704
0.00182645851691
0.0019496276847
0.00199896468132
0.00202088786967
0.0020331465733
0.00204243646055
0.00205127815481
0.00206088709735
0.00207270123887
0.00147313667338
0.00183797042697
0.00196181119382
0.00201109273704
0.00203264600028
0.00204445027191
0.00205330255899
0.00206175340184
0.00207101281221
0.00208246628371
0.00148083681121
0.0018469137028
0.00197095290155
0.00201999924491
0.00204113949157
0.00205249458313
0.0020609195254
0.00206897889625
0.00207787732626
0.00208896542589
0.00148790530659
0.00185497444476
0.00197903932808
0.00202780268076
0.00204854309076
0.00205948197627
0.00206751142477
0.00207520187759
0.00208374749579
0.00209447301971
0.0014946249797
0.00186267884837
0.00198672007403
0.00203520095686
0.00205557438975
0.00206613859783
0.00207381293791
0.0020811672482
0.0020893908595
0.00209976750025
0.00150107153055
0.00187014719594
0.00199416922739
0.00204238849667
0.00206243080675
0.00207266397872
0.00208002402873
0.0020870815112
0.00209501074624
0.00210506817148
0.0015072563156
0.00187737018527
0.00200140374163
0.00204938766249
0.00206913566911
0.00207907829803
0.00208616499571
0.00209296277351
0.00210063361582
0.00211039343743
0.00151315827839
0.00188438146147
0.00200841480121
0.00205617983542
0.00207566308369
0.00208535065127
0.00209220085075
0.00209877619639
0.00210622007989
0.00211570624271
0.00151874185668
0.00189109948694
0.0020151621792
0.0020627314658
0.00208197495423
0.00209143772562
0.00209808522901
0.00210446986323
0.00211171793103
0.00212095382394
0.00152399972762
0.00189752719202
0.00202161912128
0.00206900556906
0.00208803234741
0.0020972982222
0.00210377227968
0.00210999945252
0.00211707703159
0.00212608815193
0.00152892219248
0.00190361131379
0.00202774525325
0.00207496804331
0.00209380097767
0.00210289577004
0.00210922287692
0.00211531728262
0.00212224894501
0.00213105143082
0.0015335048105
0.00190937199339
0.00203352640168
0.00208059333747
0.00209925090474
0.00210819862949
0.00211440485046
0.00212038193526
0.00212717957858
0.0021358101272
0.00153773060886
0.00191476835064
0.00203894667798
0.00208586387539
0.002104369591
0.00211318838304
0.00211928948412
0.0015415765466
0.00191976605463
0.00204398193904
0.00209077929459
0.00210913928357
0.00204863361304
0.00209530891451
)
;
    }
    atmosphere
    {
        type            inletOutlet;
        inletValue      nonuniform List<scalar> 0();
        value           nonuniform List<scalar> 0();
    }
    floatingObject
    {
        type            kqRWallFunction;
        value           nonuniform List<scalar> 0();
    }
    procBoundary2to0
    {
        type            processor;
        value           nonuniform List<scalar> 
14
(
0.00212516131955
0.00213186358604
0.00214031867617
0.00211784635468
0.00212516131955
0.00212387051279
0.00154503695939
0.00192437492646
0.00211784635468
0.00211354676981
0.00192437492646
0.00205284846746
0.00211354676981
0.00209942433441
)
;
    }
    procBoundary2to1
    {
        type            processor;
        value           nonuniform List<scalar> 
18
(
0.00150583979693
0.0018748018812
0.00199466781256
0.00199466781256
0.00205320485969
0.00205320485969
0.00208956699879
0.00209897603304
0.00210503011973
0.00211008122531
0.00211493876111
0.00211982269716
0.00212477028971
0.00212970822463
0.0021345886486
0.00213935677912
0.0021439895557
0.00214842454585
)
;
    }
}


// ************************************************************************* //
