/*--------------------------------*- C++ -*----------------------------------*\
| =========                 |                                                 |
| \\      /  F ield         | OpenFOAM: The Open Source CFD Toolbox           |
|  \\    /   O peration     | Version:  v2012                                 |
|   \\  /    A nd           | Website:  www.openfoam.com                      |
|    \\/     M anipulation  |                                                 |
\*---------------------------------------------------------------------------*/
FoamFile
{
    version     2.0;
    format      ascii;
    class       surfaceScalarField;
    location    "1.4";
    object      alphaPhi0.water;
}
// * * * * * * * * * * * * * * * * * * * * * * * * * * * * * * * * * * * * * //

dimensions      [0 3 -1 0 0 0 0];
oriented        oriented;


internalField   nonuniform List<scalar> 
293
(
0.000371331131756
-0.000124067812857
0.000504353824486
0.0002238047042
0.000626474236441
0.000305110786014
0.000769258358465
0.000359238977669
0.00083485420689
0.000576676782806
0.000744195049293
0.000955060762472
-2.27149748285e-06
0.00213966523549
3.79331084478e-05
-0.000124066983392
3.00979715367e-09
9.97409668396e-05
4.88909591798e-10
0.00040485380207
9.32957763774e-10
0.000764091227361
3.53514654031e-09
0.00134076249718
6.54244724463e-09
0.00229581854926
5.05506615892e-09
0.00443545807946
1.13141817096e-08
-4.87286132463e-10
-0.000124064591827
0.000124071874181
9.97446282482e-05
-0.000223805183911
0.000404855297009
-0.000305107107033
0.000764090687845
-0.00035923033843
0.00134075973787
-0.000576661924631
0.00229580647392
-0.000955041904232
0.00443545234124
-0.00213963455311
-3.79214227481e-05
0.000371333729498
0.000504354568712
0.00062647358579
-0.000427223732817
0.000769257536861
-0.000502013365287
0.000834857188844
-0.000642261412009
0.000744200295396
-0.000864385362854
-2.27076829901e-06
-0.00117707846267
-4.01921910471e-05
0.000792086681698
-0.000479222275008
0.000806007228046
-0.000515932790618
0.000710233537001
-0.000546487659938
0.000403291044651
-0.000557443137178
-0.000103780215189
-0.000512496089467
6.73600488062e-05
0.00079501152608
-0.000536998837606
0.000907116234767
-0.000628036645912
0.00116909440015
-0.000808465666747
0.00170326369254
-0.00109161254007
0.00337978087855
-0.00218901327547
-5.91071527961e-06
0.000673199013505
-0.000562761061199
0.000706394325936
-0.000661231668037
0.000688501422772
-0.000790572713887
0.000562104565287
-0.000965215843819
-3.48746403343e-06
-0.00127140887469
-1.04170780172e-07
0.000569783724178
-0.000571947393247
0.000569363358132
-0.00066081149961
0.000549589822552
-0.000770799295259
0.000470477079664
-0.000886103126112
-1.84080932863e-05
-0.000626284771531
-3.97938887143e-07
0.000485421286035
-0.000575293941859
0.000464702334124
-0.000640093192971
0.000387148247047
-0.000693245495932
0.000207072082095
-0.000706026961045
-1.3252624642e-06
-0.000305530253023
2.8605394915e-08
0.000415200910273
-0.00057857977968
0.000412556375074
-0.000637449527238
0.000358165376906
-0.000638854844453
0.000237938258512
-0.000585799842534
-2.860539492e-08
-4.92111558032e-05
-5.00103930154e-18
0.000350513067576
-0.000574812880313
0.000347274480277
-0.000634211782999
0.000376759706919
-0.000668340449414
0.000437915861959
-0.000646955997097
-6.69045358087e-16
0.000346684759694
-6.75826501679e-16
0.000313527158722
-0.000570285088191
0.000281712828229
-0.00060239833208
0.000229266168793
-0.000615894250147
0.000151352090894
-0.000577622090549
4.9577778231e-06
0.000422939964741
4.9577778671e-06
0.000304252148013
-0.000594280984957
0.000337446312851
-0.000635593274695
0.0004171861324
-0.000695634307444
0.000461102986775
-0.000621538944923
0.00199431984688
-0.00101059427662
-8.36397535016e-19
0.000252772757265
-0.000613359159075
0.000292270431607
-0.000675091550636
0.0002914667618
-0.000694829853425
0.000363200525176
-0.0006932727083
-6.416836705e-19
-0.000428293039751
-1.48976315788e-18
0.000183890755989
-0.000615337795269
0.000198883394915
-0.000690084578611
0.000266965402568
-0.000762911926937
0.000436015138274
-0.000862322444006
-1.33787931678e-17
0.000160409700726
3.56515948242e-18
0.000120733188894
-0.000597708666525
6.16724630801e-05
-0.000631024042683
-4.58192423288e-05
-0.000655420163665
-0.000194566481764
-0.000674919671373
-3.36121879466e-07
0.000277888131645
-3.36121879567e-07
0.000106804378097
-0.000599356557156
9.79872069334e-05
-0.000622206886181
0.000146608971678
-0.000704041585326
6.01522996234e-05
-0.000588462999313
0.00140915783925
-0.000930422495302
4.14411172673e-06
6.62626703174e-05
-0.000598705405462
8.69517522685e-05
-0.000642895756794
0.000102957527876
-0.000720047343043
0.00026248760345
-0.000747993074887
-3.49939829632e-06
-0.000516243288711
6.44713430366e-07
1.74215176874e-05
-0.000589148011231
1.20817982966e-05
-0.000637555123693
-6.6192709588e-07
-0.00070730361616
6.0634472094e-05
-0.000809289473817
-4.84727127833e-07
-0.000288207408819
1.59986310978e-07
-3.32711948935e-05
-0.00056747452602
-6.42725511258e-05
-0.00060655403195
-0.000110362083541
-0.000661214085367
-0.000115976771706
-0.000734313262242
-1.43483074979e-07
-0.000209702387839
1.65033685849e-08
-7.40231607732e-05
-0.000537747909329
-0.00011716475636
-0.000563412469041
-0.000178371173255
-0.000600007668585
-0.000177671048765
-0.000637961475452
-1.47244580731e-08
-0.000159876907253
1.77426001602e-09
-0.000101112682531
-0.000504600387172
-0.000148050049421
-0.000516475081715
-0.000217066683005
-0.000530991032072
-0.000206945795191
-0.00054091180697
-5.17925137427e-08
-0.000121285496878
7.72583036289e-10
-0.000112780840021
-0.000473794445391
-0.000154822071171
-0.000474433760624
-0.000213631824777
-0.0004721812596
-0.00020062926337
-0.000454804866752
-4.28373474256e-10
-7.64837463129e-05
3.32446788918e-10
-0.000115480874178
-0.000150380389355
-0.000197021414178
-0.000425540235068
-0.000171131182565
-0.000392511596123
-9.35209348859e-11
-4.25485816218e-05
6.70356044898e-11
-0.000169074080791
-0.000392860979729
-0.000134757050773
-0.000349939512688
5.73346356821e-10
-1.52331313691e-05
8.0198914179e-12
-0.000138493328385
-0.000372555749643
-9.94096572995e-05
-0.00032288170579
-3.21376132539e-09
3.33551376131e-06
4.22141348459e-11
-0.000109979461644
-6.91277392103e-05
-8.72573043897e-10
)
;

boundaryField
{
    back
    {
        type            calculated;
        value           uniform 0;
    }
    sides
    {
        type            calculated;
        value           nonuniform List<scalar> 0();
    }
    bottom
    {
        type            calculated;
        value           nonuniform List<scalar> 0();
    }
    front
    {
        type            calculated;
        value           uniform 0;
    }
    atmosphere
    {
        type            calculated;
        value           nonuniform List<scalar> 
27
(
2.71986954542e-21
0.00453142620863
0.00453139698912
2.72015131884e-21
-5.0247825809e-24
0.00354719645034
-9.29184510414e-06
-1.81143251838e-05
-1.75180674626e-06
-3.51924084667e-31
-4.22337287734e-32
0
0.00205490059405
1.23468444099e-26
2.76945309923e-27
0
0.00145817317014
-1.60536896682e-21
-3.02022108894e-23
-2.35653925645e-21
0
-5.07209795486e-08
6.78653583781e-15
-3.41068447449e-14
-2.86057822516e-13
-3.47799519833e-09
8.65307453169e-13
)
;
    }
    floatingObject
    {
        type            calculated;
        value           uniform 0;
    }
    procBoundary6to3
    {
        type            processor;
        value           nonuniform List<scalar> 8(-0.000247257570601 -0.000356821041879 -0.000427225606163 -0.000502018886336 -0.000642269905079 -0.000864400332683 -0.00117709839047 -4.02046059306e-05);
    }
    procBoundary6to7
    {
        type            processor;
        value           nonuniform List<scalar> 
11
(
-2.69784664482e-05
1.15982804893e-05
4.42973970278e-05
6.79663889889e-05
8.19763698049e-05
8.83880836562e-05
-0.000446700149657
-0.000439532368705
0.000136394793121
0.000118188012375
0.000100575277796
)
;
    }
    procBoundary6to8
    {
        type            processor;
        value           nonuniform List<scalar> 
16
(
-0.000247257731698
-0.000356822403787
-0.000740083072013
-0.000737231830153
-0.000647435305213
-0.000560597302607
-0.000482075715832
-0.00041191656348
-0.000354281812285
-0.000318056482041
-0.000280257608558
-0.000233695565093
-0.000181912729254
-0.000138362581567
-0.000105156402663
-6.69134623646e-05
)
;
    }
    procBoundary6to9
    {
        type            processor;
        value           nonuniform List<scalar> 4(-0.00036315155878 -0.000307254001524 1.50046882089e-05 3.03962107923e-12);
    }
}


// ************************************************************************* //
