/*--------------------------------*- C++ -*----------------------------------*\
| =========                 |                                                 |
| \\      /  F ield         | OpenFOAM: The Open Source CFD Toolbox           |
|  \\    /   O peration     | Version:  v2012                                 |
|   \\  /    A nd           | Website:  www.openfoam.com                      |
|    \\/     M anipulation  |                                                 |
\*---------------------------------------------------------------------------*/
FoamFile
{
    version     2.0;
    format      ascii;
    class       surfaceScalarField;
    location    "1";
    object      phi;
}
// * * * * * * * * * * * * * * * * * * * * * * * * * * * * * * * * * * * * * //

dimensions      [0 3 -1 0 0 0 0];
oriented        oriented;


internalField   nonuniform List<scalar> 
304
(
-0.000105353279114
-0.000602230294004
-0.000132926518178
-0.000609778967258
-0.000161131190264
-0.00061919567813
-0.000190105364429
-0.000630514294069
-0.00021999497855
-0.000643747397725
-0.00025095544885
-0.000658905967816
-0.000283154794212
-0.000676000207139
-0.000695042673654
-5.53432532212e-05
-0.00056239332122
-8.39008496056e-05
-0.000567765895534
-0.000112856422658
-0.000573274729189
-0.000142320880722
-0.000580314489687
-0.000172425704245
-0.000589090812742
-0.000203310194318
-0.00059962974556
-0.000235120890899
-0.000611936636968
-0.000268013177405
-0.000626013620097
-0.000302153136758
-0.000641860196378
-0.000337720311033
-0.000659475472852
-0.000678853097361
-5.88363251225e-05
-0.000532472772639
-8.91463567967e-05
-0.000537455889652
-0.00011985615366
-0.000542564938598
-0.000151077880669
-0.000549092749971
-0.000182943623172
-0.000557225041436
-0.00021559234576
-0.000566980983283
-0.000249169401036
-0.000578359537384
-0.000283827806916
-0.000591355171674
-0.000319729386198
-0.00060595858629
-0.00035704761566
-0.000622157207012
-6.20801711018e-05
-0.000500925287457
-9.40146208414e-05
-0.000505521458096
-0.000126348079821
-0.000510231484849
-0.000159193041513
-0.000516247780282
-0.000192680834599
-0.000523737229876
-0.000226948813239
-0.000532712978621
-0.00026213967677
-0.000543168644707
-0.000298402237695
-0.00055509258334
-0.000335892907056
-0.000568467891429
-0.000583273513879
-3.20255785605e-05
-0.000455498632902
-6.50736568856e-05
-0.00046787723078
-9.85051170134e-05
-0.000472090012024
-0.000132332381699
-0.000476404225532
-0.000166667506444
-0.000481912652628
-0.000201640189837
-0.000488764536527
-0.000237385176242
-0.000496967977561
-0.000274041281615
-0.000506512522405
-0.000311752107458
-0.000517381742521
-0.000350666126077
-0.000529553859515
-0.00054300054932
-3.33953091644e-05
-0.000422103343065
-6.7818799936e-05
-0.000433453756834
-0.000102620232155
-0.000437288592046
-0.000137812529495
-0.000441211935245
-0.000173506511434
-0.000446218672498
-0.000209829582034
-0.000452441463449
-0.000246913135885
-0.000459884418166
-0.000284891560335
-0.000468534090526
-0.000323901415582
-0.000478371873942
-0.000364084069533
-0.000489371195414
-3.46434837283e-05
-0.000387459874933
-7.03179926167e-05
-0.000397779262545
-0.000106364108953
-0.000401242487863
-0.000142794511123
-0.0004047815422
-0.000179718449941
-0.000409294739739
-0.000217260654446
-0.00041489926228
-0.000255548844885
-0.000421596228921
-0.000294711793503
-0.000429371132659
-0.000334880665428
-0.00043820299653
-3.57717974758e-05
-0.000351688091378
-7.25752047183e-05
-0.000360975869252
-0.000109742598153
-0.000364075107362
-0.000147286316945
-0.000367237834777
-0.000185314050372
-0.000371267015874
-0.000223947786967
-0.000376265533408
-0.000263311227522
-0.000382232791297
-0.000303528476925
-0.000389153880091
-0.000397007473636
-3.678364218e-05
-0.000314904462643
-7.45960028273e-05
-0.000323163522904
-0.000112763068355
-0.000325908056118
-0.000151297390102
-0.000328703526696
-0.000190305563775
-0.000332258854774
-0.000229907029383
-0.000336664078521
-0.000270221689755
-0.000341918135837
-0.000311369018575
-0.000348006553578
-0.000354909555446
-3.76845225319e-05
-0.00027721995395
-7.63879406288e-05
-0.000284460120118
-0.000115434188901
-0.000286861823791
-0.000154837971997
-0.000289299759524
-0.000194705837898
-0.000292391003864
-0.000235155035653
-0.000296214893935
-0.000276302071757
-0.000300771109088
-0.000318261572651
-0.000306047057084
-0.000361146486721
-0.00031202464629
-0.000318680715463
-3.8483842108e-05
-0.000238736126633
-7.79612469475e-05
-0.000244982731885
-0.000117765416918
-0.000247057671421
-0.000157917977525
-0.000249147216808
-0.000198526928837
-0.000251782069775
-0.000239707342532
-0.000255034495824
-0.000281571906976
-0.000258906557584
-0.000324230795149
-0.000263388178912
-0.000367791742244
-0.000268463710586
-0.000274112701395
-3.91980183127e-05
-0.000199538124155
-7.93298614522e-05
-0.000204850906454
-0.000119765887008
-0.000206621664677
-0.000160545176835
-0.00020836794621
-0.000201778305572
-0.000210548959781
-0.000243576922027
-0.000213235896705
-0.000286048995771
-0.000216434499297
-0.000329300000381
-0.000220137188614
-0.000373433279222
-0.000224330447198
-0.000228996814933
-3.98612429069e-05
-0.000159676897643
-8.05151611356e-05
-0.000164197006311
-0.000121442318565
-0.000165694526351
-0.000162721929028
-0.000167088355246
-0.00020446396284
-0.000168806945078
-0.000246771432035
-0.000170928445419
-0.00028974498899
-0.000173460958906
-0.000333484780416
-0.000176397413349
-0.000378089386704
-0.000179725854565
-0.000183429791761
-4.05434247137e-05
-0.000119133488969
-8.15382676682e-05
-0.000123202180792
-0.000122781372567
-0.000124451439685
-0.000164428421833
-0.000125441324509
-0.00020656678701
-0.000126668598002
-0.000249277081117
-0.000128218168504
-0.000292648301736
-0.000130089754652
-0.000336773920603
-0.000132271807992
-0.000381749436122
-0.00013475036215
-4.12250548452e-05
-7.790844972e-05
-8.2281604222e-05
-8.21456476881e-05
-0.000123645688258
-8.30873724038e-05
-0.00016553319106
-8.35538385121e-05
-0.00020795371143
-8.42480940544e-05
-0.000250950880842
-8.52210148103e-05
-0.000294601350646
-8.64392997606e-05
-0.000338995018631
-8.78781583896e-05
-8.95208386334e-05
-4.10263213526e-05
-3.68821433838e-05
-8.19877793117e-05
-4.1184205092e-05
-0.000123448068925
-4.16270983336e-05
-0.000165461595066
-4.15403279366e-05
-0.000207980390611
-4.17293136145e-05
-0.000251050498883
-4.21509211957e-05
-0.000294756922682
-4.27328908985e-05
-0.000339194262154
-4.34408334535e-05
-4.42575503899e-05
-3.68821508814e-05
-7.80663635596e-05
-0.000119693469571
-0.00016123380503
-0.000202963125895
-0.000245114054219
-0.000287846951541
-0.000331287797111
)
;

boundaryField
{
    back
    {
        type            calculated;
        value           uniform 0;
    }
    sides
    {
        type            calculated;
        value           uniform 0;
    }
    bottom
    {
        type            calculated;
        value           uniform 0;
    }
    front
    {
        type            calculated;
        value           uniform 0;
    }
    atmosphere
    {
        type            calculated;
        value           nonuniform List<scalar> 0();
    }
    floatingObject
    {
        type            calculated;
        value           nonuniform List<scalar> 0();
    }
    procBoundary10to9
    {
        type            processor;
        value           nonuniform List<scalar> 
15
(
0.00062930227984
0.000637352249519
0.000647400443088
0.000659488606351
0.000673637162897
0.000689866587618
0.000708199669788
0.000728662841368
0.000590560835178
7.82812346349e-05
0.00059632342102
2.71755867187e-05
2.89156863976e-05
3.05326347987e-05
0.000487524163892
)
;
    }
    procBoundary10to11
    {
        type            processor;
        value           nonuniform List<scalar> 
23
(
-0.000316774881482
0.000716042420982
-0.0003749095888
-0.000395969804796
-0.000639930895508
-0.000374776584001
-0.000390939077003
-0.000405584802721
-0.000501499812991
-0.000376188099556
-0.000448063753083
-0.000344723993807
-0.00035346693074
0.000362600630651
-0.000405066402092
-0.000412359768533
-0.00041854918159
-0.000423656432956
-0.000427669595611
-0.000137509647736
-0.000384224557596
-0.000384457573819
-0.000375545356632
)
;
    }
}


// ************************************************************************* //
