/*--------------------------------*- C++ -*----------------------------------*\
| =========                 |                                                 |
| \\      /  F ield         | OpenFOAM: The Open Source CFD Toolbox           |
|  \\    /   O peration     | Version:  v2012                                 |
|   \\  /    A nd           | Website:  www.openfoam.com                      |
|    \\/     M anipulation  |                                                 |
\*---------------------------------------------------------------------------*/
FoamFile
{
    version     2.0;
    format      ascii;
    class       volVectorField;
    location    "4";
    object      ddtCorrDdt0(U);
}
// * * * * * * * * * * * * * * * * * * * * * * * * * * * * * * * * * * * * * //

dimensions      [0 1 -2 0 0 0 0];


internalField   nonuniform List<vector> 
164
(
(0.0414043162275 -0.00295351717569 -1.63790750837e-23)
(0.0421767963988 -0.00804825060892 -6.54491326204e-23)
(0.0414695675476 -0.0134609362452 -6.78577294202e-23)
(0.0402185617653 -0.0188743737585 -1.10865922063e-23)
(0.0384641411019 -0.0242111863649 3.63177876389e-23)
(0.036184386384 -0.0294611731427 2.25459439236e-23)
(0.0333100997526 -0.0345755138022 4.49114591863e-23)
(0.0297536959979 -0.039468538563 3.53076367416e-23)
(0.0470121280101 -0.00312642290123 -1.83592876808e-22)
(0.0478186087184 -0.00867536179411 -2.06171152645e-22)
(0.0471033354406 -0.0145240368578 -8.20895737786e-23)
(0.0458387628584 -0.0204009070632 -3.3974886423e-23)
(0.0440503551663 -0.0262534610799 2.07176254092e-23)
(0.0416989605269 -0.0320985864552 5.56171476375e-23)
(0.0387148063986 -0.0379027322304 4.62379150984e-23)
(0.0349485088887 -0.0435958780197 3.67950670259e-23)
(0.0302660017086 -0.0490703895505 7.11071669705e-24)
(0.0245057374994 -0.0541984141142 -4.34252299995e-24)
(0.0173621227153 -0.058744379656 3.83865877255e-23)
(0.0530214992073 -0.00329854103941 -1.13253291238e-22)
(0.0538605355612 -0.00928960744312 -6.70505323013e-23)
(0.0531773894891 -0.0155594280422 -2.33118423415e-23)
(0.051949494404 -0.021908670004 -1.80837220081e-23)
(0.0501978001299 -0.0283071089716 4.01084720058e-24)
(0.047871844906 -0.0347717081702 3.33732878943e-23)
(0.0448582111576 -0.0413261060756 1.02350635414e-23)
(0.0410428097523 -0.0479316458159 -7.73715219168e-24)
(0.0362115003974 -0.0545005110746 -5.8667741838e-25)
(0.0301324887042 -0.0609625722345 -2.24863272666e-23)
(0.0225275903957 -0.0671525566463 2.50060821058e-23)
(0.0129409851557 -0.0728890715819 -4.81410818922e-22)
(0.000751785341355 -0.0777881253589 -2.64235044966e-23)
(0.0594041958032 -0.00345802894612 7.3828500584e-23)
(0.0602917361187 -0.00986879405441 -8.24591389384e-23)
(0.0596710035605 -0.0165357053232 2.01242971093e-23)
(0.058534110031 -0.0233440868057 2.65940328855e-23)
(0.0569081293898 -0.0302766199091 1.02574058861e-23)
(0.0547245015629 -0.0374003171336 -4.94337789101e-24)
(0.0518583947268 -0.0447154680883 -1.47213070351e-22)
(0.0481614777312 -0.0522528982841 -5.34168700452e-23)
(0.0434074721432 -0.0600182459676 7.651057945e-24)
(0.0373590996442 -0.0679536234183 -9.04951907976e-23)
(0.0296610777351 -0.0760077832975 -2.00902012279e-22)
(0.0198443795767 -0.0840788479232 -3.27294791489e-22)
(0.00717221295636 -0.0920207327565 -1.12792319663e-21)
(-0.00979972435723 -0.0999296604127 -7.95043597096e-22)
(0.06614193846 -0.0036001545839 9.83738887044e-23)
(0.0670621337249 -0.0103880640543 -9.18410385308e-23)
(0.0665470310904 -0.0174047796353 5.21524730475e-23)
(0.0655715643943 -0.0246256308298 3.0404736985e-23)
(0.0641600475233 -0.0320568582278 -2.39509814977e-24)
(0.0622455293807 -0.0397849251729 6.77499133309e-24)
(0.0597071010353 -0.0478746948236 -1.16822903206e-23)
(0.056339602447 -0.0563828426019 1.28670783929e-23)
(0.0519310423384 -0.0653210169448 -4.62342585375e-23)
(0.0462569179356 -0.0747486806289 -6.76287015033e-23)
(0.0389347474815 -0.0847155930575 -7.13913056228e-23)
(0.0294966655285 -0.0952049676651 -4.394258879e-22)
(0.0172492528021 -0.106221104648 -8.27913031776e-22)
(0.000782000730817 -0.118364294313 -2.46420518691e-21)
(0.0732092762947 -0.00375057893277 3.74728978169e-23)
(0.0740620493409 -0.0108364550348 -6.5974457277e-23)
(0.073749324348 -0.0180960045167 1.32574397607e-23)
(0.0730079188691 -0.0256687413111 2.01826725672e-23)
(0.0719048386734 -0.0335347315965 2.44775899471e-23)
(0.0703871250117 -0.0418087032163 1.30507974304e-23)
(0.0683319384787 -0.0506002947391 1.36347377001e-24)
(0.0655691990181 -0.0600241309722 -6.77701176616e-23)
(0.0617422657418 -0.0701009151927 -6.70975936175e-24)
(0.0568256665296 -0.0809496484017 -1.03570695206e-22)
(0.0503562623208 -0.0927557091648 -1.03370152697e-22)
(0.0418768005034 -0.105585214508 -3.31704421136e-22)
(0.030804186064 -0.119558273075 -1.04593978739e-21)
(0.0161571551836 -0.135193876554 -1.99609553197e-21)
(0.0803066888881 -0.00397650766338 3.15681259318e-23)
(0.0814062904896 -0.0112150113036 -4.52873011826e-24)
(0.0812249184428 -0.0185040301272 5.806001545e-23)
(0.0807643056496 -0.026384846943 -1.9409000469e-23)
(0.0800613506614 -0.0345943973974 -1.15122683015e-23)
(0.0790582057238 -0.0433054877333 1.99966111621e-23)
(0.0776358843791 -0.0526637205427 4.4747455716e-25)
(0.0756387173339 -0.0629492683557 6.37825371862e-23)
(0.0728565555868 -0.074047306592 4.64699664654e-24)
(0.0690300941763 -0.0861170880734 -2.86196985559e-23)
(0.0638388753998 -0.0996257141524 4.40771482162e-23)
(0.0568517412634 -0.114599256755 -2.54818106365e-22)
(0.0475412242122 -0.131127665117 -2.0442431537e-22)
(0.0352134510263 -0.149378507708 -1.46363014948e-21)
(0.0874535683323 -0.0037967494908 1.10406848715e-22)
(0.0888986658063 -0.0112371067314 1.20056537309e-22)
(0.0888667573078 -0.018742861522 4.04581495858e-24)
(0.0887428311817 -0.0267240219006 -2.49579559209e-23)
(0.0885227719956 -0.0351473627134 2.34878306652e-24)
(0.0881510793992 -0.0441762711052 2.17004351666e-23)
(0.0875213894392 -0.0539804038389 3.42680310992e-23)
(0.0864924242785 -0.0647719299793 2.32449948046e-23)
(0.0850242808132 -0.0766820664686 1.37361689851e-23)
(0.082632757396 -0.0899383670705 3.80486379883e-23)
(0.0791529497921 -0.10489208858 4.39197069068e-23)
(0.074194004484 -0.121758885348 -9.14479639299e-23)
(0.0671929550122 -0.140657088295 6.83939278213e-23)
(0.0572175148925 -0.161586080701 -5.47194029142e-22)
(0.0947446675306 -0.00374551517203 2.07755797398e-22)
(0.0962483315543 -0.01112194771 -2.19363230476e-22)
(0.0965233228092 -0.0186521388406 9.81746574936e-24)
(0.0968104632081 -0.0266176144814 1.54994075865e-23)
(0.0971451943986 -0.0350899885095 1.31616363436e-23)
(0.0975164004257 -0.0442494778956 -1.89541891701e-23)
(0.0978389705673 -0.0542894135452 9.98634381477e-24)
(0.0980068768219 -0.0654238679998 2.88609400684e-23)
(0.097910763586 -0.0778845030825 -5.55859181388e-24)
(0.0973129301295 -0.0919655064611 2.20971277671e-23)
(0.0960007219994 -0.108036427562 2.45520353048e-23)
(0.093656431207 -0.126487918293 -1.16475919272e-22)
(0.0897321242712 -0.14780250124 -7.89900578276e-23)
(0.0831872679283 -0.17272476699 -1.12577724585e-21)
(0.101958676626 -0.00359453295362 2.18245192191e-22)
(0.103515750063 -0.0108437677323 -8.02870869239e-23)
(0.104068702431 -0.0182053385888 9.28731059322e-24)
(0.104801469139 -0.0259997919912 -2.62236425794e-24)
(0.105751335214 -0.0343468207386 1.45847153376e-23)
(0.106936680282 -0.0434307953383 5.58998462572e-24)
(0.108303453117 -0.053464305989 8.23219370037e-24)
(0.109783477136 -0.0646833354079 -9.90012430999e-24)
(0.111295732921 -0.0773620314449 1.4791570489e-23)
(0.112718756516 -0.0918369907581 1.42836814928e-23)
(0.113917311362 -0.10854134393 -8.97164406023e-24)
(0.114701083155 -0.128010865757 -8.25985953164e-23)
(0.114741151024 -0.151002014376 -2.43415872914e-22)
(0.113507031819 -0.178817716649 -1.06790750662e-21)
(0.11032247148 -0.213537469793 -5.39346665732e-22)
(0.104226804245 -0.264672915101 1.81464646776e-21)
(0.108833210554 -0.00336557096784 1.45204412802e-22)
(0.110514736042 -0.010319614918 4.32244485434e-23)
(0.111353523949 -0.0173621465967 5.67987579908e-23)
(0.112547492444 -0.0248272862878 -5.49059965704e-23)
(0.114144845715 -0.0328608290027 -1.06794447283e-23)
(0.116184676915 -0.0416514335947 9.7130537867e-24)
(0.118650204444 -0.0514209636246 2.19912331036e-24)
(0.12151631361 -0.0624188866188 -6.57886012444e-25)
(0.124760421858 -0.0749395351257 -4.36057529697e-23)
(0.128350383628 -0.0893373196524 5.23335582327e-24)
(0.132257937387 -0.106058745899 2.78209969818e-23)
(0.136459761324 -0.125676526207 -6.71374687254e-24)
(0.140927806878 -0.148954925384 -1.47316325625e-22)
(0.145659444248 -0.176991052016 -8.74450626295e-22)
(0.151275244123 -0.211379224577 -1.72536989159e-21)
(0.158781025167 -0.256980737282 -6.72262168502e-21)
(0.115296906425 -0.00307129871929 1.67576969049e-22)
(0.117099970222 -0.00957290030978 -3.4594667604e-24)
(0.1182284923 -0.0161260214434 5.53116678392e-23)
(0.11988077534 -0.0230887256634 -2.34865939416e-23)
(0.122125557984 -0.0306126750765 1.96093089539e-23)
(0.125022684049 -0.038882384935 2.74561084095e-23)
(0.128593925949 -0.0481181088273 2.32893411617e-23)
(0.13286072411 -0.0585679840075 -9.58782975881e-24)
(0.137864508079 -0.070525840732 -9.65101088769e-24)
(0.143660288951 -0.0843411336259 1.3611290223e-23)
(0.150324078522 -0.100439540077 2.61094185737e-23)
(0.157970948822 -0.119352378551 6.3194670284e-23)
(0.166767248147 -0.141757409967 1.65811993059e-23)
(0.176920652613 -0.16847543858 -7.18194181999e-22)
(0.189258271241 -0.200629784705 -8.4248640224e-22)
(0.204364390088 -0.241235298003 -7.47620942144e-21)
)
;

boundaryField
{
    back
    {
        type            calculated;
        value           uniform (0 0 0);
    }
    sides
    {
        type            calculated;
        value           nonuniform List<vector> 0();
    }
    bottom
    {
        type            calculated;
        value           uniform (0 0 0);
    }
    front
    {
        type            calculated;
        value           uniform (0 0 0);
    }
    atmosphere
    {
        type            calculated;
        value           nonuniform List<vector> 0();
    }
    floatingObject
    {
        type            calculated;
        value           nonuniform List<vector> 0();
    }
    procBoundary7to6
    {
        type            processor;
        value           nonuniform List<vector> 
11
(
(-0.0321609746768 -0.105605318368 -1.7648254279e-21)
(-0.0217787640159 -0.130659403809 1.04901264127e-21)
(-0.00353769673017 -0.153240655987 -4.29052073041e-21)
(0.0190536611679 -0.169467659811 -7.49609633432e-22)
(0.0426530440726 -0.183082102749 -8.11041053356e-22)
(0.0719610278635 -0.202011494635 4.95411806363e-22)
(0.0719610278635 -0.202011494635 4.95411806363e-22)
(0.0517581884715 -0.241447206791 2.11404298989e-21)
(0.0954639919778 -0.331699579598 3.75165293343e-20)
(0.175420806389 -0.289808516169 1.38350715685e-20)
(0.226454121051 -0.265178993225 2.91062168803e-20)
)
;
    }
    procBoundary7to8
    {
        type            processor;
        value           nonuniform List<vector> 
17
(
(0.0362131220913 -0.00277449950444 -7.24803577598e-23)
(0.0369429710011 -0.00742220093219 -9.03849896018e-24)
(0.0362698990085 -0.0124128232439 -1.75312315036e-23)
(0.0350750825497 -0.0173757328066 -1.84139504226e-23)
(0.0333984726656 -0.0222257124974 -2.79367253685e-23)
(0.0312436571419 -0.0269406489646 1.7087754484e-23)
(0.0285700324477 -0.0314578422556 3.66905428864e-23)
(0.0253309880515 -0.0356904217228 3.75439401536e-23)
(0.0254244112213 -0.0440341898325 4.1781613701e-23)
(0.0254244112213 -0.0440341898325 4.1781613701e-23)
(0.0201775469869 -0.0480351535708 -1.05550936849e-22)
(0.0139013043784 -0.0512671832793 -1.82974569373e-22)
(0.00860598109433 -0.0624106065854 -3.14366990093e-22)
(0.00860598109433 -0.0624106065854 -3.14366990093e-22)
(-0.0021919784129 -0.064695449333 -1.2630586443e-21)
(-0.014931253086 -0.0814699714532 -3.25457703872e-21)
(-0.014931253086 -0.0814699714532 -3.25457703872e-21)
)
;
    }
    procBoundary7to9
    {
        type            processor;
        value           nonuniform List<vector> 
16
(
(0.121193555809 -0.0027208926441 9.9931821342e-23)
(0.123110099163 -0.00861758584341 -3.59955998095e-23)
(0.124517385015 -0.0145174321848 6.71195257847e-24)
(0.126607781097 -0.020805054741 3.67623834924e-23)
(0.129471454526 -0.0276216410205 -1.24225645481e-24)
(0.133191373506 -0.0351415124031 -1.57278965748e-23)
(0.137827436462 -0.043571522073 2.41919337637e-24)
(0.143450629952 -0.0531452998597 -7.35470053218e-24)
(0.150165353983 -0.0641375380855 8.62535446236e-23)
(0.158107673465 -0.0768734154006 -5.92832046984e-24)
(0.16745181389 -0.0917398581157 -1.20056454526e-23)
(0.178415801382 -0.109211551427 1.24463083254e-22)
(0.191269109742 -0.129893049779 4.86346404899e-23)
(0.206268561515 -0.154454828653 7.90922421389e-22)
(0.223866752056 -0.183668160357 3.87869406976e-22)
(0.24377562156 -0.219546308046 -1.35843580065e-21)
)
;
    }
}


// ************************************************************************* //
