/*--------------------------------*- C++ -*----------------------------------*\
| =========                 |                                                 |
| \\      /  F ield         | OpenFOAM: The Open Source CFD Toolbox           |
|  \\    /   O peration     | Version:  v2012                                 |
|   \\  /    A nd           | Website:  www.openfoam.com                      |
|    \\/     M anipulation  |                                                 |
\*---------------------------------------------------------------------------*/
FoamFile
{
    version     2.0;
    format      ascii;
    class       volScalarField;
    location    "4";
    object      epsilon;
}
// * * * * * * * * * * * * * * * * * * * * * * * * * * * * * * * * * * * * * //

dimensions      [0 2 -3 0 0 0 0];


internalField   nonuniform List<scalar> 
164
(
0.00104728674208
0.00109245921071
0.00120078264523
0.0012437902724
0.00126228376563
0.00127239272569
0.00128023790792
0.001288057245
0.00105120332217
0.00109683203923
0.00120535312462
0.00124802475027
0.00126602643182
0.00127564039371
0.00128300775029
0.00129034900662
0.00129847173714
0.001307896331
0.00131982226114
0.00105441050116
0.00110047870028
0.00120915882477
0.00125151053355
0.00126906633551
0.00127824101878
0.00128518819437
0.00129209982828
0.00129977039794
0.00130868195488
0.00131990329258
0.00133738819123
0.00137505696109
0.00105695676555
0.00110343090814
0.0012122203171
0.00125427105399
0.00127142379959
0.00128020721206
0.00128678406498
0.00129331644192
0.00130057804712
0.00130900662739
0.00131950918533
0.00133535842703
0.00136808324057
0.00145206403783
0.00105889993556
0.00110572660672
0.00121456924523
0.00125633623014
0.00127312904153
0.00128156761233
0.00128781298916
0.00129401299672
0.0013009096873
0.0013089058451
0.00131876800493
0.00133314338437
0.00136126123778
0.00143151694653
0.00106030552046
0.00110737917518
0.00121623221407
0.00125774004317
0.00127421533214
0.00128235262073
0.00128831110334
0.0012942143247
0.00130078677377
0.00130840969155
0.00131776065273
0.0013310748177
0.00135596487681
0.0014163920882
0.00106123615488
0.00110841179391
0.00121723732707
0.00125851180534
0.00127471280044
0.00128259180411
0.00128830176928
0.00129394397578
0.00130022949413
0.00130752875181
0.00131649201931
0.00132917814671
0.00135239387868
0.00140771082541
0.00106181699245
0.00110888717025
0.00121761599858
0.00125867428635
0.00127464681758
0.00128231068456
0.00128780639404
0.00129321937913
0.00129925094831
0.00130627412933
0.0013149543294
0.00132734659395
0.00135006674464
0.00140378265822
0.00106205139369
0.00110886093239
0.00121741802797
0.00125827754651
0.00127406155849
0.00128154462677
0.00128685485371
0.0012920653024
0.00129787184012
0.00130465775776
0.00131313208354
0.00132545246098
0.00134837761221
0.0014024277151
0.00106189237578
0.00110836654792
0.0012167114311
0.00125738447996
0.00127300445404
0.00128033184198
0.00128547931391
0.00129050901587
0.00129611577766
0.00130269895074
0.00131102956447
0.00132342412061
0.00134691331316
0.00140232337918
0.00155355480659
0.00202631273759
0.00106134488319
0.00110747470892
0.00121556280112
0.00125604513705
0.00127151484462
0.00127870479523
0.00128370836964
0.00128857748777
0.0012940091262
0.00130042468892
0.00130866854368
0.0013212403294
0.00134554116365
0.00140319696389
0.00156160532072
0.00206624893456
0.00106038411268
0.00110624506894
0.0012140248924
0.00125430357728
0.00126963066093
0.00127669797353
0.00128157523111
0.00128630391199
0.00129158479398
0.0012978667956
0.00130607813738
0.00131892468763
0.00134425217386
0.00140488530605
0.00157368730052
0.00212081496973
)
;

boundaryField
{
    back
    {
        lowReCorrection 0;
        blending        stepwise;
        n               2;
        type            epsilonWallFunction;
        value           nonuniform List<scalar> 
164
(
0.00104728674208
0.00109245921071
0.00120078264523
0.0012437902724
0.00126228376563
0.00127239272569
0.00128023790792
0.001288057245
0.00105120332217
0.00109683203923
0.00120535312462
0.00124802475027
0.00126602643182
0.00127564039371
0.00128300775029
0.00129034900662
0.00129847173714
0.001307896331
0.00131982226114
0.00105441050116
0.00110047870028
0.00120915882477
0.00125151053355
0.00126906633551
0.00127824101878
0.00128518819437
0.00129209982828
0.00129977039794
0.00130868195488
0.00131990329258
0.00133738819123
0.00137505696109
0.00105695676555
0.00110343090814
0.0012122203171
0.00125427105399
0.00127142379959
0.00128020721206
0.00128678406498
0.00129331644192
0.00130057804712
0.00130900662739
0.00131950918533
0.00133535842703
0.00136808324057
0.00145206403783
0.00105889993556
0.00110572660672
0.00121456924523
0.00125633623014
0.00127312904153
0.00128156761233
0.00128781298916
0.00129401299672
0.0013009096873
0.0013089058451
0.00131876800493
0.00133314338437
0.00136126123778
0.00143151694653
0.00106030552046
0.00110737917518
0.00121623221407
0.00125774004317
0.00127421533214
0.00128235262073
0.00128831110334
0.0012942143247
0.00130078677377
0.00130840969155
0.00131776065273
0.0013310748177
0.00135596487681
0.0014163920882
0.00106123615488
0.00110841179391
0.00121723732707
0.00125851180534
0.00127471280044
0.00128259180411
0.00128830176928
0.00129394397578
0.00130022949413
0.00130752875181
0.00131649201931
0.00132917814671
0.00135239387868
0.00140771082541
0.00106181699245
0.00110888717025
0.00121761599858
0.00125867428635
0.00127464681758
0.00128231068456
0.00128780639404
0.00129321937913
0.00129925094831
0.00130627412933
0.0013149543294
0.00132734659395
0.00135006674464
0.00140378265822
0.00106205139369
0.00110886093239
0.00121741802797
0.00125827754651
0.00127406155849
0.00128154462677
0.00128685485371
0.0012920653024
0.00129787184012
0.00130465775776
0.00131313208354
0.00132545246098
0.00134837761221
0.0014024277151
0.00106189237578
0.00110836654792
0.0012167114311
0.00125738447996
0.00127300445404
0.00128033184198
0.00128547931391
0.00129050901587
0.00129611577766
0.00130269895074
0.00131102956447
0.00132342412061
0.00134691331316
0.00140232337918
0.00155355480659
0.00202631273759
0.00106134488319
0.00110747470892
0.00121556280112
0.00125604513705
0.00127151484462
0.00127870479523
0.00128370836964
0.00128857748777
0.0012940091262
0.00130042468892
0.00130866854368
0.0013212403294
0.00134554116365
0.00140319696389
0.00156160532072
0.00206624893456
0.00106038411268
0.00110624506894
0.0012140248924
0.00125430357728
0.00126963066093
0.00127669797353
0.00128157523111
0.00128630391199
0.00129158479398
0.0012978667956
0.00130607813738
0.00131892468763
0.00134425217386
0.00140488530605
0.00157368730052
0.00212081496973
)
;
    }
    sides
    {
        lowReCorrection 0;
        blending        stepwise;
        n               2;
        type            epsilonWallFunction;
        value           nonuniform List<scalar> 0();
    }
    bottom
    {
        lowReCorrection 0;
        blending        stepwise;
        n               2;
        type            epsilonWallFunction;
        value           nonuniform List<scalar> 
12
(
0.00104728674208
0.00105120332217
0.00105441050116
0.00105695676555
0.00105889993556
0.00106030552046
0.00106123615488
0.00106181699245
0.00106205139369
0.00106189237578
0.00106134488319
0.00106038411268
)
;
    }
    front
    {
        lowReCorrection 0;
        blending        stepwise;
        n               2;
        type            epsilonWallFunction;
        value           nonuniform List<scalar> 
164
(
0.00104728674208
0.00109245921071
0.00120078264523
0.0012437902724
0.00126228376563
0.00127239272569
0.00128023790792
0.001288057245
0.00105120332217
0.00109683203923
0.00120535312462
0.00124802475027
0.00126602643182
0.00127564039371
0.00128300775029
0.00129034900662
0.00129847173714
0.001307896331
0.00131982226114
0.00105441050116
0.00110047870028
0.00120915882477
0.00125151053355
0.00126906633551
0.00127824101878
0.00128518819437
0.00129209982828
0.00129977039794
0.00130868195488
0.00131990329258
0.00133738819123
0.00137505696109
0.00105695676555
0.00110343090814
0.0012122203171
0.00125427105399
0.00127142379959
0.00128020721206
0.00128678406498
0.00129331644192
0.00130057804712
0.00130900662739
0.00131950918533
0.00133535842703
0.00136808324057
0.00145206403783
0.00105889993556
0.00110572660672
0.00121456924523
0.00125633623014
0.00127312904153
0.00128156761233
0.00128781298916
0.00129401299672
0.0013009096873
0.0013089058451
0.00131876800493
0.00133314338437
0.00136126123778
0.00143151694653
0.00106030552046
0.00110737917518
0.00121623221407
0.00125774004317
0.00127421533214
0.00128235262073
0.00128831110334
0.0012942143247
0.00130078677377
0.00130840969155
0.00131776065273
0.0013310748177
0.00135596487681
0.0014163920882
0.00106123615488
0.00110841179391
0.00121723732707
0.00125851180534
0.00127471280044
0.00128259180411
0.00128830176928
0.00129394397578
0.00130022949413
0.00130752875181
0.00131649201931
0.00132917814671
0.00135239387868
0.00140771082541
0.00106181699245
0.00110888717025
0.00121761599858
0.00125867428635
0.00127464681758
0.00128231068456
0.00128780639404
0.00129321937913
0.00129925094831
0.00130627412933
0.0013149543294
0.00132734659395
0.00135006674464
0.00140378265822
0.00106205139369
0.00110886093239
0.00121741802797
0.00125827754651
0.00127406155849
0.00128154462677
0.00128685485371
0.0012920653024
0.00129787184012
0.00130465775776
0.00131313208354
0.00132545246098
0.00134837761221
0.0014024277151
0.00106189237578
0.00110836654792
0.0012167114311
0.00125738447996
0.00127300445404
0.00128033184198
0.00128547931391
0.00129050901587
0.00129611577766
0.00130269895074
0.00131102956447
0.00132342412061
0.00134691331316
0.00140232337918
0.00155355480659
0.00202631273759
0.00106134488319
0.00110747470892
0.00121556280112
0.00125604513705
0.00127151484462
0.00127870479523
0.00128370836964
0.00128857748777
0.0012940091262
0.00130042468892
0.00130866854368
0.0013212403294
0.00134554116365
0.00140319696389
0.00156160532072
0.00206624893456
0.00106038411268
0.00110624506894
0.0012140248924
0.00125430357728
0.00126963066093
0.00127669797353
0.00128157523111
0.00128630391199
0.00129158479398
0.0012978667956
0.00130607813738
0.00131892468763
0.00134425217386
0.00140488530605
0.00157368730052
0.00212081496973
)
;
    }
    atmosphere
    {
        type            inletOutlet;
        inletValue      nonuniform List<scalar> 0();
        value           nonuniform List<scalar> 0();
    }
    floatingObject
    {
        lowReCorrection 0;
        blending        stepwise;
        n               2;
        type            epsilonWallFunction;
        value           nonuniform List<scalar> 0();
    }
    procBoundary7to6
    {
        type            processor;
        value           nonuniform List<scalar> 
11
(
0.00166860762301
0.00161788366603
0.00158094410199
0.00156071629449
0.001552390156
0.00155069943322
0.00155069943322
0.00200823971591
0.00366148804029
0.003822665125
0.0040095658024
)
;
    }
    procBoundary7to8
    {
        type            processor;
        value           nonuniform List<scalar> 
17
(
0.00104260368917
0.00108734054569
0.00119542374308
0.00123878045049
0.00125780729279
0.00126846679942
0.00127685086475
0.00128521605906
0.00129669041359
0.00129669041359
0.00130666543075
0.00131923075
0.00133872756917
0.00133872756917
0.00138030262807
0.00147333151994
0.00147333151994
)
;
    }
    procBoundary7to9
    {
        type            processor;
        value           nonuniform List<scalar> 
16
(
0.00105901355492
0.00110469644191
0.00121213023172
0.00125219630274
0.0012673870678
0.00127434382716
0.00127910968938
0.00128371594579
0.00128886748206
0.00129504539653
0.00130327159729
0.00131647916043
0.00134300851892
0.00140699329659
0.00158691178136
0.00217534594935
)
;
    }
}


// ************************************************************************* //
