/*--------------------------------*- C++ -*----------------------------------*\
| =========                 |                                                 |
| \\      /  F ield         | OpenFOAM: The Open Source CFD Toolbox           |
|  \\    /   O peration     | Version:  v2012                                 |
|   \\  /    A nd           | Website:  www.openfoam.com                      |
|    \\/     M anipulation  |                                                 |
\*---------------------------------------------------------------------------*/
FoamFile
{
    version     2.0;
    format      ascii;
    class       volVectorField;
    location    "4";
    object      U;
}
// * * * * * * * * * * * * * * * * * * * * * * * * * * * * * * * * * * * * * //

dimensions      [0 1 -1 0 0 0 0];


internalField   nonuniform List<vector> 
164
(
(0.0388455205675 -0.000974767973784 -2.75877608291e-22)
(0.037514833228 -0.00299890092022 -4.62973204044e-22)
(0.0367623177709 -0.00493384596487 -1.52099607186e-22)
(0.0367536337833 -0.00689208839642 5.63810124003e-23)
(0.0373453863006 -0.0088705008635 1.53311548191e-22)
(0.0383346243382 -0.0108811612021 1.51246733694e-22)
(0.0396081079662 -0.0129273651129 1.26979300407e-22)
(0.041114325647 -0.0150182088109 1.16861055286e-22)
(0.0407144729697 -0.000849304186409 -1.04564350647e-22)
(0.0393669676876 -0.00264488983183 -2.23964610869e-22)
(0.0386149156134 -0.0043577607852 -9.4172002293e-24)
(0.0386220040539 -0.00610162101226 8.51145808186e-23)
(0.0392426645648 -0.0078709143258 1.16859668567e-22)
(0.040269704737 -0.00966790380788 1.05095596789e-22)
(0.0415816263802 -0.0115013226266 8.59927295636e-23)
(0.0431478443966 -0.0133897726757 5.32953569373e-23)
(0.0449338054261 -0.01535179516 4.41494506111e-23)
(0.0469324036435 -0.0174212862687 2.99197721949e-23)
(0.0491399528531 -0.0196392452342 -1.2052773613e-23)
(0.0423406180536 -0.000719153191353 1.53829642179e-22)
(0.0409917161264 -0.00228386874708 4.62196603774e-25)
(0.040241050309 -0.00377333580096 4.78341967994e-23)
(0.0402634851246 -0.00529151339373 8.09144884424e-23)
(0.0409139213943 -0.0068360799182 8.24214432552e-23)
(0.0419859484971 -0.00841719467024 6.20627134824e-23)
(0.0433576417616 -0.0100262016294 5.91804038889e-23)
(0.0449783880975 -0.0116861012611 3.45235592849e-23)
(0.0468534574357 -0.013431882363 3.0583335146e-23)
(0.0489839590744 -0.015282315267 5.53232244099e-24)
(0.0513800392034 -0.017283097529 -9.86910469055e-23)
(0.0540274188191 -0.019498943393 -3.59893884924e-22)
(0.0568050512763 -0.0220691160885 -1.47372386742e-21)
(0.043727214994 -0.000587467128956 4.85711211585e-23)
(0.0423790275765 -0.00191986515576 -1.07589653883e-22)
(0.0416358327664 -0.00318128318703 -9.27540770161e-24)
(0.0416770767532 -0.00446353795529 4.19298101167e-23)
(0.0423505755969 -0.00577092030564 5.54815732302e-23)
(0.0434549566221 -0.00710680312865 4.81751845464e-23)
(0.0448802528991 -0.00848576892756 4.35551453168e-23)
(0.0465680701814 -0.00990993715758 6.65801392765e-23)
(0.0485314611693 -0.0113913081776 3.2782280006e-23)
(0.050778543449 -0.0129636933184 3.95524969133e-23)
(0.0533408526423 -0.0146615645406 -8.28485742991e-23)
(0.0562452319889 -0.0165326662149 -4.0444447477e-22)
(0.0594329513258 -0.0186736200749 -1.16570907748e-21)
(0.0624472367736 -0.0211995204815 -2.76480066213e-21)
(0.0448696182843 -0.000464720677244 -9.67683128023e-23)
(0.0435248758509 -0.00155437227869 -1.50725894575e-22)
(0.0427958429968 -0.0025766427653 -6.67091369289e-23)
(0.0428560694507 -0.0036187141336 2.66450764499e-23)
(0.0435506302448 -0.00468546343895 5.78010275904e-23)
(0.0446776737486 -0.00577276265491 4.63633551373e-23)
(0.04612698877 -0.00688984991184 5.4167952173e-23)
(0.0478756248682 -0.00804298399628 4.14186772486e-23)
(0.049912394617 -0.00924453709791 2.54781548934e-23)
(0.0522522940354 -0.010505018058 5.26434216455e-23)
(0.0549359808912 -0.0118456904786 -6.00165753512e-23)
(0.0579994633736 -0.013304204566 -2.74211346914e-22)
(0.0614400620122 -0.0149211505209 -9.45534129738e-22)
(0.0649267341021 -0.0167346565374 -2.84117796931e-21)
(0.0457663021759 -0.000340370144029 -1.74274502799e-22)
(0.044430548309 -0.00118374987242 -1.87299932644e-22)
(0.0437160046871 -0.00196235379279 -1.06426432536e-22)
(0.0437932268526 -0.0027605867228 -6.86520013416e-24)
(0.0445035485491 -0.00358224476799 1.80824613533e-23)
(0.0456479059128 -0.00441513204428 3.77748690772e-23)
(0.0471196697993 -0.00525976899448 5.15882203541e-23)
(0.0488950525624 -0.00612490115376 5.34516589148e-23)
(0.0509677481939 -0.00702442430789 5.51380089375e-23)
(0.0533745505315 -0.00795426357708 9.73243400529e-23)
(0.0561290361336 -0.00892437390289 4.73570021511e-23)
(0.0592714728613 -0.00995754564109 -2.82411926989e-23)
(0.0628156637416 -0.0110569397115 -3.42603214877e-22)
(0.0665359120624 -0.0122361615676 -1.70727165988e-21)
(0.0464150712419 -0.000207469403256 -1.52685211669e-22)
(0.0450960943453 -0.000809540281321 -1.58214594937e-22)
(0.0443975670122 -0.00134444819864 -7.1597160187e-23)
(0.0444852875317 -0.00189883269423 1.71250458037e-23)
(0.0452027579516 -0.0024725775597 1.95506123351e-23)
(0.0463545396461 -0.00304490962381 2.82876812665e-23)
(0.0478360426005 -0.00361326744883 5.49524955855e-23)
(0.0496171830416 -0.0041903512893 1.59956893433e-23)
(0.0517063365133 -0.00477221864024 4.58431012215e-23)
(0.0541336795557 -0.00535820111398 6.40871591199e-23)
(0.0569129019366 -0.00596108671872 2.82762347284e-23)
(0.0600847532585 -0.00658416531107 5.44433442363e-23)
(0.0636600920009 -0.00723425135253 -1.47757029195e-22)
(0.0674823754234 -0.00792621979409 -7.28474244596e-22)
(0.0468100415052 -7.97348134975e-05 -1.72235904096e-22)
(0.0455198315482 -0.000437983286934 -9.73233571518e-23)
(0.0448353853355 -0.000736448103962 -5.22701790325e-23)
(0.0449269210179 -0.00104608215697 3.14924815632e-23)
(0.0456424490897 -0.00136668846941 1.55007545075e-23)
(0.0467882146279 -0.00167627879311 1.47586124394e-24)
(0.0482620926935 -0.00197253003742 5.99390911265e-24)
(0.0500338758453 -0.0022549482913 -4.87094631517e-25)
(0.052122467548 -0.0025185025873 2.04122935515e-23)
(0.0545398576957 -0.00276621122472 1.89433336624e-23)
(0.0573182051987 -0.00300024382724 5.36908200777e-24)
(0.0604863879879 -0.00322715113052 4.06875586114e-23)
(0.0640749379148 -0.00346613113694 -1.18049653853e-22)
(0.0680097157379 -0.00374654519019 -7.53203270082e-22)
(0.0469711083396 4.02142099475e-05 -1.848620829e-22)
(0.045698377257 -7.48510016193e-05 -9.34404774867e-23)
(0.0450267947932 -0.000143345349994 -1.92868714798e-23)
(0.0451199674975 -0.000208844624111 1.78422370237e-23)
(0.0458250000126 -0.000279767968226 1.07496287558e-23)
(0.0469506113158 -0.000329252150262 2.05378046029e-23)
(0.0483995181465 -0.000350802153953 -4.65217353894e-24)
(0.0501471480556 -0.00033840751867 -2.52579864315e-23)
(0.0522045522874 -0.000285069173818 1.43591509753e-23)
(0.0545922658947 -0.000189677116169 1.24064521064e-24)
(0.0573439167903 -5.60901820677e-05 3.13745080499e-24)
(0.0604946795932 0.00011483597163 5.29811463651e-23)
(0.0640957020245 0.000302851011059 -5.79510886918e-23)
(0.06815220248 0.000464974520013 -6.11849392427e-22)
(0.0468949859594 0.000158874375468 -2.60752357989e-22)
(0.0456368777817 0.000278176948213 -1.24661479679e-22)
(0.0449815936033 0.000435591362087 -4.84621754883e-23)
(0.0450724609689 0.000605589773568 -4.30995501371e-24)
(0.0457585323909 0.000777821256467 -8.50415136711e-24)
(0.0468530258795 0.000982719105165 6.05086814132e-24)
(0.0482612470782 0.00123145435348 -9.94793612973e-24)
(0.0499603007309 0.00153343330161 -1.46926500912e-23)
(0.0519608797984 0.0018992343982 -1.83587928356e-23)
(0.0542876300278 0.00233615324174 -1.60097885577e-23)
(0.0569769181721 0.00284888853183 8.22810233217e-24)
(0.0600817480486 0.0034410568029 9.0885982863e-23)
(0.063668972876 0.00409791804572 1.1416875073e-22)
(0.0678074259587 0.00479439993432 -2.36902160414e-22)
(0.0724260324192 0.00504941948065 -1.65278191382e-21)
(0.0767766910393 0.00626710262883 -6.14924061193e-21)
(0.0465853853273 0.000274631886406 -3.1012822255e-22)
(0.0453506506577 0.000616885703155 -1.81124789494e-22)
(0.0447099696689 0.000992271507704 -1.03757561759e-22)
(0.0447916992102 0.0013880609419 2.76159975266e-23)
(0.0454485192233 0.00179459672831 1.10687650949e-23)
(0.046498215384 0.00224520494235 -8.2374672719e-24)
(0.0478486161475 0.00275539449859 -1.4327540694e-23)
(0.0494776916264 0.0033386634683 -5.06053103189e-24)
(0.0513960057873 0.00401102989169 3.19715914632e-23)
(0.0536304856603 0.0047868294959 -3.88802856035e-24)
(0.056218894242 0.00568150372391 4.78538170338e-23)
(0.0592179698542 0.00671065655088 1.35584896272e-22)
(0.0627140326005 0.0078772597418 2.11354879904e-22)
(0.0668167344424 0.00920832098585 3.20252496705e-22)
(0.0715098004546 0.0103119600717 -2.45530493396e-21)
(0.0761713171505 0.0130846261984 -3.28517577779e-21)
(0.0460592821898 0.000375724107949 -3.92396159308e-22)
(0.0448502975569 0.000935719621254 -2.27069591516e-22)
(0.0442204230819 0.00151987016252 -1.32516995855e-22)
(0.0442866978358 0.00213029937732 7.16677767805e-23)
(0.044904435578 0.00276009654667 3.44134703942e-23)
(0.0458957464173 0.00344465569987 1.90822785639e-23)
(0.0471707144499 0.00420400615821 1.01070001055e-23)
(0.0487082488902 0.00505551018833 -1.24952799386e-23)
(0.0505167303469 0.00602096399215 3.017831746e-23)
(0.0526212173459 0.00712285156656 1.97143072444e-23)
(0.0550591053268 0.00838694628859 1.06482442092e-23)
(0.0578841622692 0.00984440741597 9.86603430382e-23)
(0.0611857510392 0.0115220670808 2.08656089869e-22)
(0.0650984190546 0.0134869462176 4.67642627808e-22)
(0.0695783106777 0.0154652680976 -1.77380306668e-21)
(0.0740364560142 0.0195293868337 1.85921889748e-21)
)
;

boundaryField
{
    back
    {
        type            noSlip;
    }
    sides
    {
        type            noSlip;
    }
    bottom
    {
        type            noSlip;
    }
    front
    {
        type            noSlip;
    }
    atmosphere
    {
        type            pressureInletOutletVelocity;
        value           nonuniform List<vector> 0();
    }
    floatingObject
    {
        type            movingWallVelocity;
        value           nonuniform List<vector> 0();
    }
    procBoundary7to6
    {
        type            processor;
        value           nonuniform List<vector> 
11
(
(0.0638172731609 -0.0244612801262 -4.97111602424e-21)
(0.0669610367476 -0.0191941215196 -7.29175508967e-21)
(0.0692508621535 -0.0139025125662 -3.46152655906e-21)
(0.0707973438874 -0.00908319475963 -3.40259171336e-21)
(0.0718656738037 -0.00452287603574 -1.94356765213e-21)
(0.0724564886406 0.000149525578311 -2.42869725584e-21)
(0.0724564886406 0.000149525578311 -2.42869725584e-21)
(0.0761365838425 0.000446084566019 -5.05674645117e-21)
(0.0807751523465 0.00488327903605 -1.54572428801e-20)
(0.080933843686 0.0142259450802 -1.2717597588e-20)
(0.0785671128304 0.0217797841272 -1.81063041347e-20)
)
;
    }
    procBoundary7to8
    {
        type            processor;
        value           nonuniform List<vector> 
17
(
(0.0367474296706 -0.00109962677163 -1.68484943594e-22)
(0.0354445902163 -0.00333124973612 -4.52019586765e-22)
(0.0346968339835 -0.00547003097096 -2.35246768925e-22)
(0.0346720554989 -0.00763514816501 3.86547744602e-23)
(0.035238714982 -0.00981813034977 1.93772306047e-22)
(0.0361960171834 -0.0120345238986 1.97294089635e-22)
(0.0374298678891 -0.0142865647134 1.62126406914e-22)
(0.0388894522398 -0.0165795435528 1.3668852835e-22)
(0.0428260847848 -0.0171721659764 9.81216042952e-23)
(0.0428260847848 -0.0171721659764 9.81216042952e-23)
(0.0447287352296 -0.0194175018956 1.14383993282e-22)
(0.046740071828 -0.0217560936301 1.11380121697e-22)
(0.0514745256137 -0.0220625518711 -2.43019146121e-22)
(0.0514745256137 -0.0220625518711 -2.43019146121e-22)
(0.0538141294197 -0.0248261940234 -1.05804563648e-21)
(0.0592733789948 -0.0251244663498 -2.65237096509e-21)
(0.0592733789948 -0.0251244663498 -2.65237096509e-21)
)
;
    }
    procBoundary7to9
    {
        type            processor;
        value           nonuniform List<vector> 
16
(
(0.0453336840148 0.000468618094697 -4.49324040833e-22)
(0.0441476646201 0.00123254954122 -2.39612212535e-22)
(0.043524312504 0.00201257777418 -1.18597744555e-22)
(0.0435697810875 0.00282532453184 4.83516814385e-23)
(0.0441398865224 0.00366472481404 2.21087985093e-23)
(0.0450608137745 0.00456856929874 -5.22576525594e-24)
(0.0462441662064 0.00556104443398 -6.14967003283e-25)
(0.0476685423249 0.00666273222594 9.05115082761e-25)
(0.0493392927619 0.00790008507894 1.12606944645e-23)
(0.051277374204 0.00930448008651 8.23436836856e-24)
(0.0535148879219 0.0109107524773 -2.84768140805e-23)
(0.0561010268389 0.0127619379311 -5.13847805774e-24)
(0.0591148654886 0.014906351243 -8.77389029273e-23)
(0.0626884757291 0.0174026852145 -8.54903804523e-23)
(0.0668387696493 0.0200544616538 -1.98775711501e-21)
(0.0709325756687 0.024872067397 1.71888481171e-21)
)
;
    }
}


// ************************************************************************* //
