/*--------------------------------*- C++ -*----------------------------------*\
| =========                 |                                                 |
| \\      /  F ield         | OpenFOAM: The Open Source CFD Toolbox           |
|  \\    /   O peration     | Version:  v2012                                 |
|   \\  /    A nd           | Website:  www.openfoam.com                      |
|    \\/     M anipulation  |                                                 |
\*---------------------------------------------------------------------------*/
FoamFile
{
    version     2.0;
    format      ascii;
    class       surfaceVectorField;
    location    "5.4";
    object      Uf_0;
}
// * * * * * * * * * * * * * * * * * * * * * * * * * * * * * * * * * * * * * //

dimensions      [0 1 -1 0 0 0 0];


internalField   nonuniform List<vector> 
305
(
(0.00120114852452 -0.00226457856289 6.64414112908e-22)
(0.00226448372898 -0.00120426061918 7.79490878343e-22)
(0.00136197495967 -0.00475484844859 5.11980521412e-22)
(0.00249016117652 -0.00362682095717 8.35644497313e-22)
(0.0014317417806 -0.00738407856717 3.0866380799e-23)
(0.0026291131757 -0.00618784659838 4.10340065341e-22)
(0.0014509442148 -0.0100692219412 -4.74536642287e-22)
(0.00268502204484 -0.00885679775464 -2.10728651972e-22)
(0.00146064817094 -0.0127855124765 -6.93515035266e-22)
(0.00271617263242 -0.0115686555387 -6.35339475992e-22)
(0.00147631763821 -0.015538302335 -5.69634133687e-22)
(0.00275267912028 -0.0143260487187 -6.88959777532e-22)
(0.00150233331117 -0.0183554286324 -2.00333673399e-22)
(0.00281703573303 -0.0171364561441 -4.36594250098e-22)
(0.00288631876804 -0.0200123556659 -2.96450828201e-23)
(0.00363977279983 -0.00248494005237 9.50721262748e-22)
(0.00474931825304 -0.00135025425695 1.10737885104e-21)
(0.00387156837241 -0.00505103197687 7.34004041243e-22)
(0.00505613594931 -0.00383383345679 1.09663711356e-21)
(0.00400663307631 -0.00767082350759 1.68745032571e-22)
(0.00524877981626 -0.00640848953272 6.41002452922e-22)
(0.00408496609878 -0.0103599341258 -3.71531485676e-22)
(0.00537400522107 -0.00908167075965 -2.61772010091e-23)
(0.00415044952865 -0.0131136256357 -6.30784218258e-22)
(0.0054697425868 -0.0118065057722 -4.62503077601e-22)
(0.00422800405437 -0.0159273024982 -5.55919893943e-22)
(0.0055662448005 -0.0145952019735 -5.69215851904e-22)
(0.00432399118595 -0.0187974611526 -2.65905659519e-22)
(0.00568709724255 -0.0174466164292 -3.75364976465e-22)
(0.00583915474052 -0.0203654859048 -1.10475636055e-22)
(0.00618336345345 -0.00260259007225 1.25329470185e-21)
(0.00735180323769 -0.00139193156413 1.30478626607e-21)
(0.00644060858711 -0.00519381838118 1.00363552524e-21)
(0.00764724824053 -0.00391009386887 1.2755075263e-21)
(0.00662858420558 -0.00783177902026 4.46080219342e-22)
(0.00788661647964 -0.00650302845984 8.63480918869e-22)
(0.00676745201749 -0.0105305191701 -1.17148792934e-22)
(0.00807261773426 -0.00917779117931 2.22625107892e-22)
(0.00689248073577 -0.0132897155164 -4.00934711247e-22)
(0.00822881661031 -0.0119032393673 -1.97159113916e-22)
(0.00703680622178 -0.0161223868553 -3.88660934426e-22)
(0.00839880268203 -0.0146936556976 -3.28352019368e-22)
(0.00721215554906 -0.0190205254193 -2.19934953001e-22)
(0.00858514648933 -0.0175511684776 -2.36652037741e-22)
(0.00881595231801 -0.0204813909979 -7.72122643925e-23)
(0.00879581250054 -0.00260881863809 1.32699909052e-21)
(0.0099605230282 -0.00137362294062 1.22730672896e-21)
(0.00907155168171 -0.005215223007 1.13535291993e-21)
(0.0102535430966 -0.00388860336429 1.2510598463e-21)
(0.00930743493196 -0.0078576565755 6.40025807419e-22)
(0.0105289314831 -0.00647670154961 9.48545517548e-22)
(0.00950790773585 -0.0105533698697 1.4261478691e-22)
(0.0107682072261 -0.00914059177369 4.06289434579e-22)
(0.00969885789333 -0.0133102623839 -1.24576422037e-22)
(0.0109855890476 -0.0118514775152 3.2404707723e-23)
(0.00991253584098 -0.0161274390292 -1.76343122683e-22)
(0.0112158709026 -0.014623439147 -1.0665950483e-22)
(0.0101645306482 -0.0190233664433 -9.39293491323e-23)
(0.0114809794076 -0.017461815456 -9.89919267125e-23)
(0.0104547728629 -0.0219974977728 -1.36474685388e-23)
(0.0117900169953 -0.0203752244364 -1.68346184033e-23)
(0.012143888853 -0.0233739614326 3.01299403391e-24)
(0.0113927474892 -0.00256078967924 1.15136748474e-21)
(0.0125212229202 -0.00133215235185 1.02630165426e-21)
(0.011691601592 -0.00514446348845 1.06425244392e-21)
(0.0128371165499 -0.00381222338749 1.10836209301e-21)
(0.0119714876287 -0.0077670551699 7.14809144708e-22)
(0.0131514125482 -0.00636591203549 9.13756244189e-22)
(0.0122275113604 -0.0104400173276 2.96079355392e-22)
(0.0134410518033 -0.0089985670087 4.71445015317e-22)
(0.0124817336913 -0.0131680692592 5.03216249302e-23)
(0.0137135252574 -0.0116744022444 1.49446656127e-22)
(0.0127639175604 -0.0159582984906 -2.93083088594e-23)
(0.0140059960169 -0.0144079218229 9.80948741188e-24)
(0.0130906400226 -0.0188204064271 -2.18971959835e-23)
(0.0143429986021 -0.0172054788388 -1.83455139665e-23)
(0.013468276428 -0.0217636431241 -1.74155830591e-25)
(0.0147331765098 -0.0200780794204 -2.95828361979e-24)
(0.013896708298 -0.0248018444671 -9.59983962126e-24)
(0.0151820256308 -0.0230361085531 -1.29766700243e-25)
(0.0156925895484 -0.0260949439434 -2.01676919301e-23)
(0.0139384855813 -0.00249273455675 9.83296262535e-22)
(0.0150138781762 -0.00128461365063 8.70830183105e-22)
(0.014274968881 -0.00502772655028 9.57865893282e-22)
(0.0153720188256 -0.0037108574196 1.02672767095e-21)
(0.0145995403846 -0.00760612434815 6.70392114799e-22)
(0.0157297094108 -0.00620665351942 8.35078534618e-22)
(0.0149070282309 -0.010233680207 3.24812316052e-22)
(0.016068498452 -0.00878817646947 4.52501875025e-22)
(0.0152192543665 -0.0129137765668 1.08934518609e-22)
(0.0163935120817 -0.0114104404042 1.71996628897e-22)
(0.0155676983078 -0.0156553001687 2.07722823048e-23)
(0.0167474196669 -0.0140871482458 4.87515847434e-23)
(0.0159695139273 -0.0184646168291 5.93398397193e-25)
(0.0171522286293 -0.0168259528242 2.60949811486e-24)
(0.0164338662153 -0.0213563284533 -2.91389448944e-24)
(0.0176248073781 -0.0196385139394 -4.25494256185e-24)
(0.0169668060796 -0.0243385811692 -1.06976190091e-23)
(0.0181641903953 -0.022535839477 -9.0994113415e-24)
(0.018782028518 -0.0255286459013 -1.97960389022e-23)
(0.0164162433961 -0.00241578797934 9.14261591519e-22)
(0.017429597993 -0.00123507584226 8.59180755392e-22)
(0.0168006825468 -0.00488350163362 9.03940312284e-22)
(0.0178396542147 -0.00359569889454 9.66674891138e-22)
(0.0171729669109 -0.00739926549997 6.17188294844e-22)
(0.0182453832379 -0.00601642632048 7.91788052201e-22)
(0.0175308165006 -0.00996479130017 2.9968618787e-22)
(0.0186339249852 -0.00853016816204 4.38917400455e-22)
(0.0178983281607 -0.0125819497963 1.11813695032e-22)
(0.0190105694255 -0.0110832684022 1.75401669581e-22)
(0.0183104802055 -0.0152553381024 3.05888005535e-23)
(0.0194207130795 -0.0136883325209 5.99014411941e-23)
(0.0187862070874 -0.0179980517369 -2.23884284418e-24)
(0.0198948572774 -0.0163540703931 1.00418716929e-23)
(0.0193352847998 -0.0208175903085 -1.04404594139e-23)
(0.020444258131 -0.0190920818385 -4.86579589856e-24)
(0.0199645366622 -0.0237300268794 -1.81978312346e-23)
(0.0210765252115 -0.0219139589395 -1.10931839514e-23)
(0.0217903379942 -0.0248312486391 -2.64576615967e-23)
(0.018816063618 -0.0023324800822 9.11594055012e-22)
(0.0197620212612 -0.00118471800807 8.75875670058e-22)
(0.019253355498 -0.00471904554705 8.54522631055e-22)
(0.0202261532806 -0.00346801966552 9.26161273373e-22)
(0.0196763909273 -0.00715838845867 6.13517157812e-22)
(0.0206846477233 -0.005800185416 7.73433546192e-22)
(0.0200843493998 -0.00964745984119 3.14632882166e-22)
(0.0211229080719 -0.00823316780532 4.41506928135e-22)
(0.0205056801677 -0.0121864819461 1.23489415743e-22)
(0.0215494998063 -0.0107036591353 1.87846396065e-22)
(0.0209795953129 -0.0147818189222 3.93545123335e-23)
(0.0220159620833 -0.0132245772449 7.00676901554e-23)
(0.0215285194433 -0.0174433637665 7.41491863853e-24)
(0.0225563192734 -0.0158046317866 2.06301591714e-23)
(0.0221627782604 -0.0201834905306 -5.51852043607e-24)
(0.0231842951561 -0.0184555764476 1.26220697429e-24)
(0.0228871876771 -0.0230154492434 -1.93530143136e-23)
(0.0239083678797 -0.0211907342191 -5.51622761635e-24)
(0.0247294221431 -0.024027785776 -2.80950766982e-23)
(0.0211295777235 -0.00224028329652 8.90442888419e-22)
(0.0220022590805 -0.00113352375222 7.46155976957e-22)
(0.0216217581576 -0.00453570436253 8.4507218851e-22)
(0.0225215199565 -0.0033263710688 8.08962528513e-22)
(0.0220970606231 -0.00688718210627 6.01423316516e-22)
(0.0230360590125 -0.00555897644459 6.96228745168e-22)
(0.0225546690425 -0.00928810241899 3.14720442034e-22)
(0.0235237514385 -0.00790063521643 4.10569222252e-22)
(0.0230282100258 -0.0117384580913 1.34424670477e-22)
(0.0239997738154 -0.0102764391715 1.77491422407e-22)
(0.0235621935792 -0.0142421144887 5.13433369933e-23)
(0.0245195374972 -0.0127013725697 6.68736083925e-23)
(0.0241829713657 -0.0168093120915 1.44774475072e-23)
(0.0251234378342 -0.0151836708821 2.08145852844e-23)
(0.0249033105668 -0.0194555436517 1.264499794e-24)
(0.0258304344848 -0.0177348304147 3.84007112033e-24)
(0.0257297690305 -0.0221937876899 -1.4258290001e-23)
(0.026646496789 -0.0203709147309 -3.19822006263e-24)
(0.0275885465109 -0.0231148873889 -2.23991461207e-23)
(0.0233495913149 -0.0021389103642 6.64675617051e-22)
(0.0241411351678 -0.00107845784967 4.62107805453e-22)
(0.0238966957108 -0.00434392037801 6.60119085171e-22)
(0.024726487495 -0.00316979519349 6.08972819608e-22)
(0.0244220695408 -0.00659074828867 5.05374650905e-22)
(0.0252828323817 -0.00529585175135 5.56380220357e-22)
(0.0249293228059 -0.0088873696191 2.73340202625e-22)
(0.0258203070804 -0.00753343679912 3.39511197452e-22)
(0.025453711893 -0.0112345454008 1.09940360322e-22)
(0.026346877468 -0.00980346506313 1.46786005351e-22)
(0.0260457324418 -0.0136355242731 3.63448566836e-23)
(0.0269204427051 -0.0121209218849 4.82339730772e-23)
(0.0267368009358 -0.016099251678 1.01772088975e-23)
(0.0275870897326 -0.01449336617 1.26220268518e-23)
(0.0275431127365 -0.0186385736012 -6.22648736305e-25)
(0.0283696676642 -0.0169340393951 1.13752061446e-24)
(0.028478505832 -0.0212747530091 -1.13390761824e-23)
(0.0292825589049 -0.0194596622833 -1.55619340882e-24)
(0.0303483102087 -0.0220932774361 -1.71884851889e-23)
(0.0254660091097 -0.00203003901057 4.0640500801e-22)
(0.0261711507166 -0.00101664742541 2.28294849993e-22)
(0.0260672787237 -0.00411830503245 5.05233954794e-22)
(0.0268147224056 -0.00299821413487 4.67522587374e-22)
(0.0266410237184 -0.00625796081832 3.90516766904e-22)
(0.0274224449024 -0.00501205969008 4.57264485999e-22)
(0.027197340558 -0.00844602367144 2.12957000178e-22)
(0.0280083146369 -0.0071321965884 2.85343986783e-22)
(0.0277716132557 -0.0106821435397 8.50796181059e-23)
(0.0285829338806 -0.00928588916375 1.21264649875e-22)
(0.0284197596703 -0.0129695243013 2.45111432454e-23)
(0.0292077553178 -0.011485038408 3.64919479739e-23)
(0.0291802037305 -0.0153144838015 3.58233856873e-24)
(0.0299319770509 -0.0137355470824 1.0588347396e-23)
(0.0300742807769 -0.0177420844709 2.03975941949e-25)
(0.0307971799459 -0.0160560598412 -7.2733923077e-24)
(0.0311193330074 -0.0202681085002 -7.40560241532e-24)
(0.0318084744636 -0.0184600552703 -3.3976575184e-24)
(0.0329894294913 -0.0209595562399 -1.45120092768e-23)
(0.0274659082114 -0.00191214265404 2.89412429356e-22)
(0.0280832797891 -0.000948438371419 1.55678601731e-22)
(0.0281213785287 -0.00387871610811 4.19553118579e-22)
(0.0287812748248 -0.00281154276757 3.51223718478e-22)
(0.0287451613355 -0.00589853854333 3.52091705878e-22)
(0.0294422338406 -0.00470559756978 4.05802665109e-22)
(0.0293491469217 -0.00796842480313 1.9365163648e-22)
(0.0300781543493 -0.00669851682332 2.67093365412e-22)
(0.0299724097987 -0.0100799645179 7.26769797433e-23)
(0.0306944167193 -0.00872545218813 1.11636048794e-22)
(0.0306760913063 -0.0122458697276 2.25691521245e-23)
(0.0313735966038 -0.0107969247189 3.01600369268e-23)
(0.0315029139122 -0.0144745277298 -2.67383480445e-25)
(0.0321605640137 -0.0129173622148 1.13573945726e-23)
(0.0324810232151 -0.016765039661 -1.0875025768e-23)
(0.0330876068938 -0.0151023200834 -8.36558123202e-24)
(0.0336264862264 -0.0191447113809 -1.05040643799e-23)
(0.0341880377842 -0.0173624898164 -1.76868580562e-24)
(0.0354649210482 -0.0197002152429 -1.59247163072e-23)
(0.0293406853885 -0.00178738445893 2.17489890852e-22)
(0.0298706587212 -0.000875746814114 5.47619502657e-23)
(0.030049775193 -0.00362305721942 3.37473265008e-22)
(0.0306169343412 -0.00261057759918 2.29587733405e-22)
(0.0307253032255 -0.00551367996213 3.20804324643e-22)
(0.0313328304533 -0.00437526264503 3.11137412212e-22)
(0.0313758845287 -0.00745485825113 1.85077777726e-22)
(0.0320192923754 -0.00623299681522 2.20424115697e-22)
(0.0320451553779 -0.00944005624002 6.91191059775e-23)
(0.0326795622259 -0.00812603423045 9.27093625327e-23)
(0.0328023292182 -0.0114650817424 1.89482793749e-23)
(0.0333985595327 -0.0100613288567 2.55608160032e-23)
(0.0336905717042 -0.0135457477939 3.25919682106e-24)
(0.0342411591772 -0.0120419040218 9.58945013503e-24)
(0.0347400950232 -0.0156912988434 7.40758730406e-25)
(0.035233072044 -0.01407401491 -9.77493096585e-24)
(0.0359691221534 -0.0179111770468 -7.18933773297e-24)
(0.0364078151764 -0.0161708040796 -1.8321748384e-24)
(0.0377611419536 -0.0183346451998 -1.48699715786e-23)
(0.0310838684666 -0.00164988929201 6.68597928181e-23)
(0.0315205477149 -0.000801244469522 -1.69188498761e-22)
(0.0318452392365 -0.00334903231426 2.03251880609e-22)
(0.0323160687786 -0.00239635013928 1.25729516355e-23)
(0.0325721833621 -0.00510446208246 2.10757203265e-22)
(0.0330882384659 -0.00402264468238 1.26375593836e-22)
(0.0332683866621 -0.00690357446131 1.28055700503e-22)
(0.0338183681613 -0.00573933031105 1.06507393336e-22)
(0.0339808324523 -0.00874644286473 4.91510725584e-23)
(0.0345223802924 -0.00749055952541 4.23808855987e-23)
(0.0347850838307 -0.0106318299661 1.62019867633e-23)
(0.0352838853538 -0.00927776783491 1.11604567162e-23)
(0.0357280751927 -0.0125666149705 -3.44467765188e-24)
(0.0361758739772 -0.0111045953846 3.90044087025e-24)
(0.0368377333305 -0.0145546823149 -1.23478645347e-23)
(0.0372210465111 -0.0129763375942 -1.67825094344e-23)
(0.0381344091465 -0.016591281385 -9.51280868407e-24)
(0.0384443009382 -0.0149041464598 -7.47209638395e-24)
(0.0398707262662 -0.0168933244005 1.43299686664e-24)
(0.0326878494502 -0.00150269277869 -2.23475339944e-22)
(0.0330232419093 -0.000723963125162 -4.59301715025e-22)
(0.0335012099148 -0.00306299810126 -6.43033351375e-23)
(0.0338763666447 -0.00217281130948 -2.57741412615e-22)
(0.0342775940862 -0.0046691697866 2.21257839061e-23)
(0.0346943898427 -0.00365202233708 -9.56766278747e-23)
(0.0350174160318 -0.00632288282973 2.08325784311e-23)
(0.0354720464382 -0.00521673073589 -2.95376785329e-23)
(0.0357697707138 -0.00801761975521 4.39026975659e-24)
(0.0362170695521 -0.00681266731311 -1.26430390352e-23)
(0.036614279372 -0.00974887507396 -1.1410891768e-24)
(0.0370150763092 -0.00844036783227 -3.61019325995e-24)
(0.0376044231427 -0.0115127524401 -9.43739091226e-24)
(0.0379396420558 -0.0101041895531 1.91718929985e-24)
(0.0387664423426 -0.0133296556466 -1.19067412837e-23)
(0.0390378314023 -0.0118107791635 -5.64461260273e-24)
(0.0401225897854 -0.0152006746841 3.47370916676e-24)
(0.0403151973822 -0.0135640796496 1.29368373479e-23)
(0.0418015654054 -0.0153729600736 2.72741491351e-23)
(0.0341434837559 -0.00135344018923 -4.93567787696e-22)
(0.0343766792332 -0.000642678825024 -6.40298679898e-22)
(0.0350076883483 -0.00275555248465 -2.89114705352e-22)
(0.0352784675164 -0.00194049508768 -3.90543047548e-22)
(0.0358308798578 -0.00420844809916 -1.47340090314e-22)
(0.0361472644448 -0.00326091292565 -2.18130610299e-22)
(0.0366120080828 -0.00570332563479 -6.30132959992e-23)
(0.0369668917511 -0.00465686335048 -9.77053240241e-23)
(0.0374012803805 -0.00723164795748 -2.06435020518e-23)
(0.037745325775 -0.00608284644512 -3.86537523827e-23)
(0.0382818911256 -0.00879499012532 -5.51914783297e-25)
(0.0385783087336 -0.00754051950943 -3.87726091124e-24)
(0.0393150822014 -0.0103958011949 5.70996760938e-24)
(0.0395403443767 -0.00903514513258 1.71033699885e-23)
(0.0405312570374 -0.0120425275204 1.91989660289e-23)
(0.0419394027462 -0.0137268451542 3.67372773162e-23)
(0.0354406748943 -0.00119753931889 -5.37273939751e-22)
(0.0355742072431 -0.000558606279842 -5.19669258341e-22)
(0.0363511593176 -0.0024364067486 -3.19558952495e-22)
(0.0365173196265 -0.00169608742487 -2.97703857406e-22)
(0.0372168603178 -0.00371606407951 -1.68495844009e-22)
(0.037426897818 -0.00285134736162 -1.59961372531e-22)
(0.0380351580042 -0.00503405743634 -7.33457804076e-23)
(0.0382848217561 -0.00407237936307 -6.91508235892e-23)
(0.0388594947158 -0.00638564241368 -2.18875112421e-23)
(0.0390968412746 -0.0053205376529 -2.63741763713e-23)
(0.0397790103316 -0.00777344489041 1.37780238606e-23)
(0.0365739057004 -0.0010339641779 -2.80099175996e-22)
(0.0375259477807 -0.0021025547765 -1.38106277441e-22)
(0.0384300431511 -0.00321408838686 -6.06163521109e-23)
(0.0385383857934 -0.0024335974163 -2.40367531449e-24)
(0.0392816296927 -0.0043558917188 -2.2179219553e-23)
(0.0394265884801 -0.00348318364198 1.86100554434e-23)
(0.0394711289797 -0.00270640063039 7.68227322398e-23)
)
;

boundaryField
{
    back
    {
        type            calculated;
        value           uniform (0 0 0);
    }
    sides
    {
        type            calculated;
        value           uniform (0 0 0);
    }
    bottom
    {
        type            calculated;
        value           uniform (0 0 0);
    }
    front
    {
        type            calculated;
        value           uniform (0 0 0);
    }
    atmosphere
    {
        type            calculated;
        value           nonuniform List<vector> 0();
    }
    floatingObject
    {
        type            calculated;
        value           nonuniform List<vector> 0();
    }
    procBoundary2to0
    {
        type            processor;
        value           nonuniform List<vector> 
14
(
(0.0406844258843 -0.0105705108306 1.58802375792e-23)
(0.0419993949091 -0.012148649639 2.66482609531e-23)
(0.0435450980896 -0.0137728025181 2.80826963532e-23)
(0.0399660233109 -0.0065991388724 1.58648820015e-24)
(0.040855584908 -0.0092046601049 2.72736399583e-23)
(0.0409714389315 -0.00791652186609 1.80828405439e-23)
(0.036608155975 -0.000468345114434 -2.06870329814e-22)
(0.0375858867878 -0.00144308810043 -6.27103310536e-23)
(0.0401404383836 -0.00552775558686 -2.90017692907e-24)
(0.0402686363144 -0.00455648964037 8.50688657063e-24)
(0.0385329879822 -0.001764570062 7.29922710733e-23)
(0.0394801777894 -0.00201995432924 9.36011117043e-23)
(0.0403527216233 -0.00367804164928 4.9296161567e-23)
(0.0403981831265 -0.00290354789535 7.80696433763e-23)
)
;
    }
    procBoundary2to1
    {
        type            processor;
        value           nonuniform List<vector> 
18
(
(0.00154292588136 -0.0212418182078 2.24899799455e-22)
(0.00443573337278 -0.0217503595376 1.24004831719e-23)
(0.00741268307527 -0.0219974040753 -6.43862872053e-23)
(0.00907706762621 -0.0234984073132 -8.21491351541e-25)
(0.0107728358049 -0.0250644181677 -3.71250832249e-23)
(0.0125361097711 -0.026478398949 -4.97379168801e-23)
(0.014367331193 -0.0279584110871 -5.24724100604e-23)
(0.0175658576738 -0.0274281053165 -4.68969856693e-23)
(0.0206724263378 -0.0267384473159 -6.41865631819e-23)
(0.023698173117 -0.0259546536694 -7.54210582173e-23)
(0.0266599466072 -0.0250530405307 -6.65486047708e-23)
(0.0295480014428 -0.0240346373271 -5.69882842712e-23)
(0.0323279694349 -0.0229093460877 -5.71900067587e-23)
(0.0349524415955 -0.0216203098158 -5.86145020199e-23)
(0.0373892481536 -0.0202075030458 -4.85803395361e-23)
(0.0396289388747 -0.0187009711733 -5.55826037119e-23)
(0.0416843090496 -0.0171316224524 -3.25038805969e-23)
(0.0435482985327 -0.0154704738174 -1.16140072039e-23)
)
;
    }
}


// ************************************************************************* //
