/*--------------------------------*- C++ -*----------------------------------*\
| =========                 |                                                 |
| \\      /  F ield         | OpenFOAM: The Open Source CFD Toolbox           |
|  \\    /   O peration     | Version:  v2012                                 |
|   \\  /    A nd           | Website:  www.openfoam.com                      |
|    \\/     M anipulation  |                                                 |
\*---------------------------------------------------------------------------*/
FoamFile
{
    version     2.0;
    format      ascii;
    class       volVectorField;
    location    "0.9";
    object      U_0;
}
// * * * * * * * * * * * * * * * * * * * * * * * * * * * * * * * * * * * * * //

dimensions      [0 1 -1 0 0 0 0];


internalField   nonuniform List<vector> 
166
(
(0.129857437617 -0.0451261131537 -1.38443718965e-23)
(0.132342725819 -0.0518598343308 -5.10551575913e-24)
(0.135103856602 -0.0588591587701 -1.71402527508e-23)
(0.138125947644 -0.0661592809117 7.09139084691e-25)
(0.141391144056 -0.0738036972638 -3.80109278196e-23)
(0.144873449087 -0.0818389993193 1.66811440696e-23)
(0.148534180191 -0.0902338539195 1.00511064135e-22)
(0.15232063826 -0.0989872662713 3.47847537002e-22)
(0.156011463158 -0.108729351365 9.0002780931e-22)
(0.159057899384 -0.119673123033 -9.74659501352e-22)
(0.160779348199 -0.128873977186 -8.32495519016e-22)
(0.15822303244 -0.136007286175 3.00626208895e-21)
(0.147262099434 -0.15354887596 2.8141315773e-21)
(0.131822216097 -0.0304894371109 -2.6320748165e-23)
(0.133906033474 -0.0364756509056 -3.12978773792e-23)
(0.136321366968 -0.0426682348004 -3.59390686364e-23)
(0.139059745312 -0.0491024115119 -1.58452333425e-23)
(0.14211052292 -0.055815078785 -2.17940679807e-23)
(0.145460684406 -0.0628445883975 -8.83365146229e-24)
(0.149094434177 -0.070238034114 -7.99172250804e-23)
(0.152987801305 -0.0780457176435 1.88474660105e-23)
(0.157104676146 -0.0862459241343 9.71537696319e-23)
(0.161394543356 -0.0948511507676 -3.75666008122e-23)
(0.165633923744 -0.1044531501 9.2678262321e-23)
(0.169264570763 -0.115309499173 -9.35973223951e-22)
(0.171353660957 -0.125035445351 -2.78323099665e-21)
(0.168882467963 -0.133130076045 -5.83159203509e-21)
(0.156433410787 -0.148928155248 -5.53193093465e-21)
(0.128378453305 -0.0031906579571 2.92199176337e-23)
(0.131734500747 -0.00709364009468 1.14661105537e-21)
(0.135643202609 -0.02303427161 -3.1011179415e-23)
(0.137546493918 -0.0284882509819 -8.24572999714e-24)
(0.139821517463 -0.0341223769091 -9.55992151132e-24)
(0.142463437895 -0.039969701764 -2.12507800411e-23)
(0.145465500664 -0.0460672297606 -3.57578308256e-23)
(0.14881914745 -0.0524541307195 -5.91914873233e-24)
(0.1525138404 -0.0591716455694 -2.69409857944e-23)
(0.15653659199 -0.0662701014931 -1.91796360842e-23)
(0.160866508885 -0.073803239588 2.74282988966e-23)
(0.165471570514 -0.0817594406304 8.34026547136e-23)
(0.170304852137 -0.0901632825545 1.75280223426e-22)
(0.175143761238 -0.0995582562478 1.86544373195e-22)
(0.17942371305 -0.110267475089 6.16242816652e-22)
(0.181913553827 -0.120602750408 -1.05795303948e-21)
(0.179674105398 -0.129625514645 -1.62408836307e-20)
(0.165599906084 -0.143353036846 -1.55857356193e-20)
(0.133072972939 -0.00296897552599 -3.31295182208e-22)
(0.136611943238 -0.00649814321573 2.20847131647e-21)
(0.137873635016 -0.0114503869652 -3.74443043772e-23)
(0.139174837072 -0.0163298382344 -1.79035623575e-22)
(0.140835281427 -0.0212478881531 -4.59755922429e-23)
(0.142899946437 -0.0263103652173 -2.29484347217e-23)
(0.145371428739 -0.0315569481608 -2.4656500496e-23)
(0.148246626112 -0.0370217657429 2.5594496628e-23)
(0.151520897857 -0.042743299323 -4.879282973e-23)
(0.155188218465 -0.0487625744026 -3.25606884518e-23)
(0.159241096977 -0.0551232534345 3.17001635017e-23)
(0.163670108239 -0.0618783391989 -7.92561956947e-23)
(0.168458513151 -0.0690845544647 7.14505665504e-23)
(0.173579881472 -0.0767403721882 1.64652648644e-22)
(0.178991811205 -0.0848804485822 4.32543677864e-22)
(0.184475188728 -0.0939917032373 7.80116286355e-22)
(0.189463689019 -0.104478796892 -4.1471956e-21)
(0.192382677505 -0.115528605298 -1.10475090041e-20)
(0.190544437989 -0.125445263302 -1.42848944148e-20)
(0.174718199392 -0.136704938392 -1.38636644653e-20)
(0.137356898019 -0.00272766628332 -9.75934478577e-22)
(0.141075770471 -0.00585701601771 -4.25394928499e-22)
(0.142426659895 -0.0103815379225 -3.78464376844e-22)
(0.143828204855 -0.0148265343818 -2.49030985251e-22)
(0.145618740183 -0.0193158598557 -4.14121224736e-23)
(0.147847487466 -0.0239517984733 9.26855611211e-26)
(0.15051899474 -0.0287741412673 -2.2597701491e-23)
(0.15363212907 -0.0338177496024 3.14131728424e-24)
(0.157184641184 -0.0391221060252 -3.42945320196e-23)
(0.161173431176 -0.0447295514081 -2.89340219425e-23)
(0.165594579593 -0.0506855525432 3.08840550646e-23)
(0.170442914847 -0.0570450235555 -4.08300945628e-24)
(0.175706918526 -0.0638670008812 6.045646072e-23)
(0.181367326914 -0.0711598826558 5.28585549185e-23)
(0.187386891851 -0.0789656372714 2.75434139604e-22)
(0.193553049015 -0.0877074644078 1.54264380971e-22)
(0.199311045061 -0.0979007887707 -4.42491013868e-21)
(0.202702350237 -0.109777354756 -1.04165737839e-20)
(0.20140368201 -0.120419975322 -9.42722465628e-21)
(0.183610254087 -0.129077173855 -9.11705936957e-21)
(0.141199249889 -0.00246606456402 -1.2632134854e-21)
(0.145094109155 -0.00517018248637 -5.80344843787e-22)
(0.146534832291 -0.00923385902428 -3.46579851662e-22)
(0.148037564044 -0.0132102621502 -2.57563753635e-22)
(0.149959099511 -0.0172364705521 -5.330812206e-23)
(0.152353152234 -0.0214101537975 -2.36348637589e-23)
(0.155226373759 -0.025770763457 -5.69465964336e-24)
(0.158579762597 -0.0303534322957 1.03862407184e-23)
(0.162413661939 -0.0351980990448 -5.20168419138e-23)
(0.166728190537 -0.0403477731389 -4.63389839621e-24)
(0.171523415934 -0.045848946093 1.90745886975e-23)
(0.176798994077 -0.05175746733 -6.06347202656e-23)
(0.182549582752 -0.0581336369197 1.09836066147e-22)
(0.188764711348 -0.0649951704508 9.43364195063e-23)
(0.195413486614 -0.0723880316721 3.75740768147e-22)
(0.202293196795 -0.0806581948151 2.17766497861e-22)
(0.208872332214 -0.090448497283 -2.54004934276e-21)
(0.212771763628 -0.103194592492 -4.46259938161e-21)
(0.212131692781 -0.114152089594 -6.72196161978e-22)
(0.192203662835 -0.120137879357 -7.61938365844e-22)
(0.144568970761 -0.00218356525681 -1.18097845229e-21)
(0.148635033797 -0.00443801922541 4.84712213874e-22)
(0.150165379997 -0.00800756448188 3.68693071825e-22)
(0.15176923116 -0.0114808733617 -3.97017930136e-23)
(0.153821465705 -0.0150093281263 -3.83258402467e-23)
(0.156380460778 -0.0186847512767 -3.17863336074e-23)
(0.159455074659 -0.0225457584613 -2.58593435195e-23)
(0.163048499759 -0.0266272683881 -3.76860866643e-23)
(0.167163765486 -0.0309690716758 -4.34379718974e-23)
(0.171804365648 -0.0356140972762 -3.03440079851e-23)
(0.176974595472 -0.0406089245067 2.32124623958e-25)
(0.182679321704 -0.0460091872288 -6.71867510208e-23)
(0.188920062823 -0.051875098595 3.14261061086e-23)
(0.195696164294 -0.0582320340814 2.91541039496e-24)
(0.202984271318 -0.0651266462936 -1.68837956367e-22)
(0.210595099163 -0.0728132898647 -6.88547272643e-22)
(0.218027372716 -0.0820506375539 -4.1914062464e-21)
(0.222472298464 -0.0956808332349 -4.85558572707e-21)
(0.222594510465 -0.106465148495 -9.83553097009e-22)
(0.200471462342 -0.109963030697 -1.18480913341e-21)
(0.147435161746 -0.00187959465977 -7.10392685972e-22)
(0.151666928411 -0.00366142788068 1.47565141381e-23)
(0.15328550497 -0.00670378054529 1.81495407312e-22)
(0.154989447929 -0.00963923210293 -8.72503644497e-23)
(0.157170854623 -0.0126352971272 -3.56603354588e-23)
(0.159892850874 -0.0157765426264 -1.87010615393e-23)
(0.163166502299 -0.0191002282072 -1.59749071745e-23)
(0.166997140704 -0.0226405343421 -3.57500417994e-23)
(0.17139043927 -0.0264364416121 -5.83921570995e-23)
(0.176353261883 -0.0305299771843 -2.34712103464e-23)
(0.181894156657 -0.0349667617183 -5.18692293326e-23)
(0.188023343423 -0.0398009556715 -1.07136515548e-22)
(0.194749592059 -0.0450913405841 4.44303482797e-23)
(0.202082463735 -0.0508688630585 1.02719343658e-22)
(0.210006846843 -0.0571777426102 2.91148910511e-22)
(0.218350981908 -0.0641733519958 8.98752764234e-22)
(0.226652297509 -0.072701523906 -9.92598337004e-23)
(0.231698306626 -0.0871707791913 -1.97645149199e-21)
(0.232641991168 -0.0971366319745 -4.06790968407e-21)
(0.208307526548 -0.0986234778545 -4.5567291592e-21)
(0.149767343295 -0.00155354400463 -8.40178723465e-22)
(0.15415894909 -0.00284191946571 1.01278794921e-21)
(0.155862407395 -0.00532463872135 1.5203332399e-23)
(0.157664565994 -0.00768696073685 -8.13132173069e-23)
(0.159972570967 -0.0101162351192 -3.78018823256e-23)
(0.162854170295 -0.0126879309352 -1.79358574974e-23)
(0.166322560821 -0.0154373145594 -1.42078277838e-23)
(0.170385065726 -0.0183973009666 9.9428103861e-25)
(0.175049770206 -0.0216053441833 -2.69141735844e-23)
(0.180326722901 -0.0251016526041 -3.0554250208e-23)
(0.186228534253 -0.0289297861589 -2.51439435965e-23)
(0.192770689874 -0.0331411310504 -1.03300392066e-22)
(0.19996930393 -0.0377916574049 3.86388077338e-23)
(0.207844093152 -0.0429154049032 1.08319452344e-22)
(0.216388974516 -0.0485507408097 2.94825297102e-22)
(0.225452294273 -0.0547465312278 1.88394853144e-22)
(0.234615346461 -0.0623751387241 -3.94042736691e-21)
(0.240325481293 -0.0775229781208 -3.24374432623e-21)
(0.242059190629 -0.0862089555404 -5.055566289e-21)
(0.215631204462 -0.0857191702622 -6.00969062347e-21)
)
;

boundaryField
{
    back
    {
        type            noSlip;
    }
    sides
    {
        type            noSlip;
    }
    bottom
    {
        type            noSlip;
    }
    front
    {
        type            noSlip;
    }
    atmosphere
    {
        type            pressureInletOutletVelocity;
        value           nonuniform List<vector> 9((0 -0.15354887596 0) (0 -0.148928155248 0) (0 -0.143353036846 0) (0 -0.136704938392 0) (0 -0.129077173855 0) (0 -0.120137879357 0) (0 -0.109963030697 0) (0 -0.0986234778545 0) (0 -0.0857191702622 0));
    }
    floatingObject
    {
        type            movingWallVelocity;
        value           nonuniform List<vector> 0();
    }
    procBoundary0to1
    {
        type            processor;
        value           nonuniform List<vector> 10((0.130549930388 -0.0691352643245 3.08309556325e-23) (0.133469203098 -0.0769912543164 2.72506024402e-24) (0.136568204803 -0.0852130351374 2.33263968725e-23) (0.139807148607 -0.0937607327384 1.23132677591e-23) (0.143132320142 -0.102619041805 2.04867743418e-22) (0.146327067049 -0.112447364773 3.3983110727e-22) (0.148858374253 -0.123448146861 -3.38602785985e-21) (0.150248686955 -0.132217866156 -8.10664348073e-21) (0.147710229659 -0.13836093383 -4.91688768932e-21) (0.138047470885 -0.15747259315 -4.73425900107e-21));
    }
    procBoundary0to2
    {
        type            processor;
        value           nonuniform List<vector> 
14
(
(0.123106532487 -0.0473536531515 1.61093790565e-24)
(0.125350930454 -0.0543522882113 -1.67467466786e-23)
(0.127837443691 -0.0616021905917 -1.89762915519e-23)
(0.125760927119 -0.0323192495551 -2.57512739304e-23)
(0.127660240869 -0.0386236253337 -2.75652229608e-23)
(0.127660240869 -0.0386236253337 -2.75652229608e-23)
(0.123303977685 -0.00339337990249 -8.99357561157e-22)
(0.126474888394 -0.00764396690768 1.34248735619e-22)
(0.130076208996 -0.0246779527973 -2.23275885211e-23)
(0.130076208996 -0.0246779527973 -2.23275885211e-23)
(0.13290826668 -0.0124409169184 1.61627283441e-22)
(0.13290826668 -0.0124409169184 1.61627283441e-22)
(0.134110772635 -0.0177212743292 -1.00892564531e-22)
(0.134110772635 -0.0177212743292 -1.00892564531e-22)
)
;
    }
    procBoundary0to4
    {
        type            processor;
        value           nonuniform List<vector> 8((0.151535954082 -0.00120478081394 -3.20287668781e-22) (0.156081479917 -0.00198188674233 -8.06930011569e-23) (0.157862952682 -0.00387326734396 -1.5814950388e-22) (0.159761382582 -0.00562572790441 -1.33800785653e-22) (0.162192706935 -0.00745452269485 -3.22965754668e-23) (0.165229273937 -0.00942260908532 3.50708879415e-24) (0.168886362047 -0.0115622632658 2.23351621676e-24) (0.173173063879 -0.0139045393107 4.92377497426e-24));
    }
    procBoundary0to5
    {
        type            processor;
        value           nonuniform List<vector> 
12
(
(0.178099409903 -0.016484676494 -1.836902728e-23)
(0.183678318667 -0.0193402223112 -4.31869775191e-24)
(0.189925980788 -0.0225115369271 1.94736409262e-23)
(0.196862795954 -0.0260458142553 -5.95487386382e-24)
(0.20451204892 -0.029994762884 1.05160798529e-22)
(0.212903088331 -0.0343929973078 9.27915802436e-23)
(0.222038729762 -0.0392699801549 2.52335843133e-22)
(0.231783422144 -0.044558948131 3.54961502107e-22)
(0.241746507798 -0.0510516965085 -2.6023363346e-22)
(0.248150867163 -0.0666043868184 -2.18216260436e-21)
(0.250501617158 -0.0736268522878 -1.01710388458e-20)
(0.222248689013 -0.0713100337171 -9.42615469646e-21)
)
;
    }
}


// ************************************************************************* //
