/*--------------------------------*- C++ -*----------------------------------*\
| =========                 |                                                 |
| \\      /  F ield         | OpenFOAM: The Open Source CFD Toolbox           |
|  \\    /   O peration     | Version:  v2012                                 |
|   \\  /    A nd           | Website:  www.openfoam.com                      |
|    \\/     M anipulation  |                                                 |
\*---------------------------------------------------------------------------*/
FoamFile
{
    version     2.0;
    format      ascii;
    class       surfaceVectorField;
    location    "3.4";
    object      Uf;
}
// * * * * * * * * * * * * * * * * * * * * * * * * * * * * * * * * * * * * * //

dimensions      [0 1 -1 0 0 0 0];


internalField   nonuniform List<vector> 
300
(
(-0.0414806500948 -0.00042095512837 -3.70988188616e-22)
(-0.0403377375825 -0.000294887256005 -5.25283480418e-22)
(-0.0430951205913 -0.000913301510786 -1.80572596174e-22)
(-0.0421545598673 -0.000766920937607 -2.18886594449e-22)
(-0.0442985605705 -0.00146901545332 -4.72018403202e-23)
(-0.0434971254642 -0.00139964982969 -1.03363535005e-22)
(-0.0452495376205 -0.00208968840084 2.7398045072e-23)
(-0.0444939909481 -0.00206426727433 2.62964498443e-23)
(-0.0461476532983 -0.00278174583086 1.29539856695e-23)
(-0.045330355398 -0.00280716369964 7.92159298859e-24)
(-0.0471462057263 -0.00356075310428 3.66923859073e-24)
(-0.0462113265789 -0.00362893183621 -1.36840280169e-24)
(-0.0483077852044 -0.00445063125321 -1.32880683624e-25)
(-0.0472281145171 -0.00454756830589 -2.89850428004e-24)
(-0.0496529088019 -0.0054801517075 1.30077763443e-26)
(-0.0484100240094 -0.00559270463153 9.91184762665e-24)
(-0.0511899214563 -0.00668476454311 5.73262642183e-24)
(-0.0497609222303 -0.00679478705538 -4.16114806209e-24)
(-0.0529183529876 -0.00811033390625 1.40735940118e-23)
(-0.0512839964555 -0.0081894823506 8.86488658802e-24)
(-0.0548304704742 -0.00981262656548 4.38495114251e-24)
(-0.0529667142815 -0.00982905933191 1.17316909135e-23)
(-0.0568997986376 -0.0118645778562 -9.22408170265e-24)
(-0.0548024213755 -0.0117779186589 -4.03573946922e-23)
(-0.0590501999776 -0.0143453730305 -7.44356826933e-23)
(-0.0567237161391 -0.0141107516434 -1.06579974364e-22)
(-0.0612363338405 -0.0174471813931 -3.57413511858e-22)
(-0.0586069496498 -0.0168522537323 -4.35157290209e-22)
(-0.0637642474341 -0.0214571016361 -1.70534753925e-21)
(-0.0603809207591 -0.0200812962893 -1.27750973405e-21)
(-0.067033952493 -0.0271419370359 -6.87633214555e-21)
(-0.0623989627114 -0.0258120992626 -3.0429529527e-21)
(-0.0700251104466 -0.0353379004988 -1.23643720098e-20)
(-0.064930386294 -0.035163819629 -9.01649220594e-21)
(-0.0689154532174 -0.0458013591403 -1.36011804923e-20)
(-0.0661717467313 -0.0372411591871 -1.6490254022e-20)
(-0.0341404127756 -0.0533368613869 -5.6440286132e-21)
(-0.0637610836257 -0.0400015854327 -1.59440772686e-20)
(-0.00227771567245 -0.0582501850926 -2.76477053707e-21)
(-0.0409380497291 -0.000591398515027 -3.73181886251e-22)
(-0.0397466497352 -0.000378620507396 -5.21904765241e-22)
(-0.0424873307437 -0.00124878264412 -1.4167753328e-22)
(-0.0414975022747 -0.00100471004462 -1.95227773279e-22)
(-0.0436257152442 -0.00197308885622 -2.98652448405e-23)
(-0.0427731555683 -0.00179756984195 -8.22012274064e-23)
(-0.044508333615 -0.00276368694703 6.81999776088e-24)
(-0.0437037321879 -0.0026229090166 -1.13745824088e-23)
(-0.0453274510952 -0.00362626796432 -6.40079548258e-24)
(-0.0444681045839 -0.00352752852476 -1.21379074291e-23)
(-0.0462274167923 -0.0045782347984 -7.93614567247e-24)
(-0.0452596649126 -0.00451076512053 -1.2854149578e-23)
(-0.0472651924382 -0.00563712460453 7.14622403024e-24)
(-0.0461694851407 -0.00558899510001 -2.0903277628e-24)
(-0.0484537190537 -0.00684031645295 5.73769178822e-24)
(-0.0472070264436 -0.00678922618057 4.81369214172e-24)
(-0.0497926229312 -0.00821350084293 -1.02888789591e-24)
(-0.0483878412865 -0.00814242472737 1.00135841321e-24)
(-0.0512751021945 -0.00980143787143 6.52298348972e-24)
(-0.0496960434842 -0.00968189386117 4.3978638311e-24)
(-0.0528824444726 -0.0116512808803 -3.30106549211e-23)
(-0.0511167069971 -0.0114535620093 -1.1748069543e-24)
(-0.0545697297388 -0.0138297761832 -1.37713287353e-22)
(-0.0526235955868 -0.0135148364279 -8.99480498872e-23)
(-0.0562302894318 -0.016415003506 -4.67301581879e-22)
(-0.0541380029107 -0.0159279160636 -2.87098787867e-22)
(-0.0577101312467 -0.0195349630927 -1.3552535124e-21)
(-0.055486397124 -0.0186903092223 -9.97637299012e-22)
(-0.0590016653006 -0.0234965048801 -2.6151151475e-21)
(-0.0564187836533 -0.0218364453543 -2.56354647622e-21)
(-0.0603718589356 -0.0289934336738 -5.18311301309e-21)
(-0.0569016231937 -0.0272444685439 -3.4597495032e-21)
(-0.061570580247 -0.036470151448 -1.31423742182e-20)
(-0.0574535425471 -0.0357311104343 -3.84341875061e-21)
(-0.0614265701674 -0.0446037216793 -1.88331507983e-20)
(-0.0580373542099 -0.0372858353219 -1.73552504403e-20)
(-0.032305486331 -0.0506946498434 -1.30648191925e-20)
(-0.0576699547611 -0.0395493687556 -1.71473679341e-20)
(-0.00464274935258 -0.054887832494 -6.329047743e-21)
(-0.0402397708136 -0.000740198719439 -3.4395065227e-22)
(-0.0390066989271 -0.000457615484656 -5.13722592473e-22)
(-0.0417203372238 -0.00154947920484 -1.35751467406e-22)
(-0.0406884747327 -0.00121958833161 -2.0126721511e-22)
(-0.042791918129 -0.0024268946692 -6.37105649746e-23)
(-0.0418959965723 -0.00215389702462 -1.35891201513e-22)
(-0.0436070697668 -0.00336947333344 -3.03324875987e-23)
(-0.0427614090897 -0.00312470947205 -5.78600755545e-23)
(-0.0443492673819 -0.00438145767117 -1.85912615244e-23)
(-0.0434563640323 -0.00417310818456 -3.46156942746e-23)
(-0.0451514225716 -0.00548592169094 -7.00833166829e-24)
(-0.0441554174989 -0.0052933660051 -1.33158610009e-23)
(-0.0460646784918 -0.00668883548537 -4.42285965131e-24)
(-0.0449667421516 -0.00650401954435 -7.55011441135e-24)
(-0.0470993699821 -0.00802527038274 7.73587667124e-26)
(-0.045870696035 -0.00783065633427 -3.45758742479e-24)
(-0.0482485597725 -0.00952723430072 6.42811014022e-24)
(-0.0468858942017 -0.00929925707038 1.47814998498e-23)
(-0.0494999760708 -0.0112316542826 -3.29992661292e-24)
(-0.047991529804 -0.0109423525025 5.96357184305e-24)
(-0.0508294569001 -0.0131776795678 -5.81122019204e-23)
(-0.049170458564 -0.0128004157498 -1.087128184e-24)
(-0.05217790946 -0.0154185551126 -2.39333550401e-22)
(-0.0503823594647 -0.014918585356 -1.12569735241e-22)
(-0.0534124012649 -0.018012277377 -8.17434504999e-22)
(-0.0515438016442 -0.0173459031901 -4.17865325785e-22)
(-0.0542890195463 -0.0210453954104 -2.20593026283e-21)
(-0.0524527314 -0.0200605744981 -1.45411726009e-21)
(-0.0545036030326 -0.0247073807286 -3.40818083192e-21)
(-0.052756277893 -0.0230542956206 -3.29917776308e-21)
(-0.0542944305448 -0.0296833621575 -2.12005524072e-21)
(-0.0519252902749 -0.0279991255919 -2.76163271385e-21)
(-0.0542596023698 -0.0361495862975 -8.05629497269e-21)
(-0.0509872091594 -0.0356467010065 4.4728262096e-22)
(-0.0543422711505 -0.043287121859 -1.5669467576e-20)
(-0.0508991746626 -0.0366389358824 -1.73047965373e-20)
(-0.029818610061 -0.0498492657807 -1.04115964846e-20)
(-0.0511077858772 -0.0386817789161 -1.74083570668e-20)
(-0.00506999750289 -0.0542312233885 -7.17906577679e-21)
(-0.0393973252526 -0.000869293602993 -3.71039155313e-22)
(-0.038137584636 -0.000527662573794 -5.23533796487e-22)
(-0.0408070086829 -0.00182063359462 -2.01406949217e-22)
(-0.0397373105091 -0.0014130197351 -2.49538798626e-22)
(-0.0418129303479 -0.00283524079154 -1.30040712093e-22)
(-0.0408815649969 -0.00247452340332 -2.41790081411e-22)
(-0.042561789464 -0.00391312504051 -6.21432822304e-23)
(-0.041683698634 -0.0035739692076 -9.93126497174e-23)
(-0.0432276463915 -0.00505786371813 -2.93402937511e-23)
(-0.042311787459 -0.00474670652499 -5.27626268889e-23)
(-0.0439362622001 -0.00627504637613 -1.3857643744e-23)
(-0.0429383694732 -0.00598285829299 -1.32401198648e-23)
(-0.0447337567653 -0.00759988498003 -6.58484218483e-24)
(-0.0436419926599 -0.00730195500216 -1.33645675534e-23)
(-0.0456259703565 -0.00904344393741 1.12465536583e-23)
(-0.0444271589821 -0.00872771157933 3.71666529229e-24)
(-0.0466020421943 -0.0106358631681 1.43169615526e-23)
(-0.045293410677 -0.0102812615708 4.09984044687e-25)
(-0.0476452025452 -0.0124154118322 8.17637027198e-24)
(-0.0462118098366 -0.0119929172304 -1.07356387794e-23)
(-0.0487249414116 -0.0144163107951 -5.55446615046e-23)
(-0.0471692712768 -0.0138969245952 -1.48830922828e-25)
(-0.0497741949575 -0.0166768152575 -2.91101510626e-22)
(-0.0481214485429 -0.0160262503205 -1.08264954356e-22)
(-0.0506508951685 -0.0192350389229 -1.05454808088e-21)
(-0.0489850811006 -0.0184294050808 -4.67561547861e-22)
(-0.0510399749209 -0.0221425159544 -2.54736476034e-21)
(-0.0495447146355 -0.0210825309337 -1.61954711963e-21)
(-0.0503556730237 -0.0255946975358 -2.65262964501e-21)
(-0.0493036067361 -0.0239505809556 -3.23475394983e-21)
(-0.0488575785295 -0.0301042008532 -1.94294852173e-22)
(-0.0474154612473 -0.0285384087748 -8.02446501272e-22)
(-0.0478238965498 -0.0357524873781 -8.80121894369e-21)
(-0.0453388254833 -0.0354727822904 2.42754996978e-21)
(-0.0476670573112 -0.041859604376 -1.90436860281e-20)
(-0.0447913865505 -0.0360005467282 -1.76056870578e-20)
(-0.0261401524711 -0.0479052224178 -1.4175826359e-20)
(-0.0450623372546 -0.0375787757908 -1.75747404231e-20)
(-0.00407611692071 -0.0509055843439 -8.34269763041e-21)
(-0.0384267249415 -0.000996663707794 -4.020334398e-22)
(-0.037141024184 -0.000589647154096 -5.08666838917e-22)
(-0.0397654823613 -0.00206445213213 -2.8992193082e-22)
(-0.0386696169509 -0.00158747519078 -2.58609710187e-22)
(-0.0407068755542 -0.0032007602952 -2.11062019036e-22)
(-0.039745351473 -0.00276219885936 -2.62324646881e-22)
(-0.0413920516927 -0.00439511163794 -8.9931994376e-23)
(-0.0404894426896 -0.00397474849063 -8.7796121651e-23)
(-0.0419870897886 -0.00565031856199 -3.66624530026e-23)
(-0.041056666668 -0.00525470920132 -4.21004178288e-23)
(-0.0426119713 -0.00697485564361 -1.27470436742e-23)
(-0.0416138934339 -0.00659004090872 -1.24881995951e-23)
(-0.0433067075549 -0.00839004409444 -3.06306007628e-24)
(-0.0422268218047 -0.00799754464689 -7.94084767439e-24)
(-0.044071170667 -0.00991254686537 -7.11990432128e-24)
(-0.0429046082957 -0.00949691224896 -8.08401005586e-25)
(-0.0448928333769 -0.0115710238884 -2.46426162873e-23)
(-0.0436348016584 -0.0111086480503 -1.64686581118e-23)
(-0.0457509932499 -0.0133869521329 -1.90608399742e-23)
(-0.0443956467079 -0.0128588452782 -2.41273448344e-23)
(-0.04660646322 -0.0154097295369 -5.28691237738e-23)
(-0.0451461515664 -0.014770289128 -2.9583279133e-23)
(-0.0473914920558 -0.0176427507006 -2.8472499159e-22)
(-0.0458879833911 -0.0168743648243 -7.59968393151e-23)
(-0.0479636800384 -0.020148340402 -1.03256058661e-21)
(-0.0464789794813 -0.0192318301421 -3.4095067926e-22)
(-0.0479303544547 -0.0229635541126 -2.30693630912e-21)
(-0.0467289633063 -0.0218164965119 -1.23378441389e-21)
(-0.0464852257067 -0.0262744515745 -1.38457080609e-21)
(-0.0459922391123 -0.0245836499526 -2.61560469881e-21)
(-0.0440232021939 -0.0304525295768 1.81939832068e-21)
(-0.0432370747066 -0.0289025627085 -1.44769880192e-21)
(-0.0424286969035 -0.0352847657069 -6.37691814438e-21)
(-0.0405065039877 -0.0350930585622 -2.92652211813e-21)
(-0.0422525107312 -0.0400484457449 -1.61367414529e-20)
(-0.0400270876426 -0.0352676390413 -1.30948640032e-20)
(-0.0230227734104 -0.0444407161473 -1.17416116945e-20)
(-0.0406702717898 -0.0361419855975 -1.29306610931e-20)
(-0.00371953660616 -0.0454552885274 -4.68989553968e-21)
(-0.0373405129427 -0.00109935578792 -3.65243109305e-22)
(-0.0360416964103 -0.000647079174621 -3.7020429423e-22)
(-0.0386095524165 -0.0022910424358 -2.31012426248e-22)
(-0.0374779511472 -0.00174592503934 -1.17538149721e-22)
(-0.0394899404427 -0.00353115337545 -1.39058749496e-22)
(-0.0385052657087 -0.00302026191617 -8.90099115704e-23)
(-0.0401178163995 -0.00482640323358 -3.99645451039e-23)
(-0.0391941998398 -0.00433310728145 5.61070035554e-24)
(-0.0406507218857 -0.00617593602734 -1.79261644214e-23)
(-0.0397071414854 -0.00570601557092 -3.55247962965e-24)
(-0.0412013645741 -0.007586397871 -7.68200359532e-24)
(-0.0402034177295 -0.00712434942006 -1.14883564759e-23)
(-0.0418056018208 -0.00907251450017 -5.6861886037e-24)
(-0.0407406616633 -0.0086025282888 -6.23905487483e-24)
(-0.0424603964909 -0.0106513802991 -1.01571547961e-23)
(-0.0413256270288 -0.0101563020476 -3.67135866451e-25)
(-0.0431480391178 -0.0123418153982 -1.59533866589e-23)
(-0.0419441775398 -0.0118019103824 -1.52645476251e-24)
(-0.0438395893782 -0.0141805962381 -3.46497839931e-23)
(-0.0425565714435 -0.0135583331262 -5.03520281149e-24)
(-0.0444956155163 -0.0161616739579 -5.27109946742e-23)
(-0.0431647261263 -0.0154445870775 -4.46728409138e-23)
(-0.0450501799679 -0.0183569510693 -1.32222526984e-22)
(-0.0436921545919 -0.0174957056883 -5.17048261368e-23)
(-0.0453477839324 -0.0207934135519 -5.42174506535e-22)
(-0.0440418972262 -0.019780247365 -1.93430442924e-22)
(-0.0449224488365 -0.0235322643726 -1.54245280358e-21)
(-0.0439894906783 -0.0222635090221 -7.90304932929e-22)
(-0.0428887243061 -0.0267217810846 -2.67873269464e-21)
(-0.0428021975125 -0.0249060754254 -2.05255808668e-21)
(-0.0398518231304 -0.0304495881319 -6.19361924073e-21)
(-0.0395089161054 -0.0289161784866 -3.13962777969e-21)
(-0.0382362002323 -0.0344145791957 -9.64446797691e-21)
(-0.0365413969227 -0.0342355067538 -8.07138490672e-21)
(-0.0385254599285 -0.0377496201096 -9.88878364344e-21)
(-0.0366915376336 -0.0341244624909 -8.93005675399e-21)
(-0.0214609067481 -0.0405351894154 -5.87894493826e-21)
(-0.0378848387269 -0.034172913363 -8.58882589377e-21)
(-0.00418051234986 -0.0404927692758 -2.53846030784e-21)
(-0.0361432852469 -0.00120565405591 -1.22499334647e-22)
(-0.0348360103926 -0.000701375589066 -1.81832629057e-22)
(-0.0373444108403 -0.00248132272883 2.44643649563e-23)
(-0.036202224807 -0.00189108069241 9.41519487767e-23)
(-0.0381704892101 -0.00382208792372 5.56595382817e-23)
(-0.0371643752192 -0.00325638162252 9.80424870104e-23)
(-0.0387498071093 -0.00520993156869 4.20227658298e-23)
(-0.0378062899294 -0.0046582402743 7.42430659542e-23)
(-0.0392313496764 -0.0066409194394 2.88532831578e-24)
(-0.0382760784294 -0.00611126063629 -5.1575555736e-24)
(-0.0397215425243 -0.00812200405296 -1.00454077554e-23)
(-0.0387222818723 -0.00759930037121 -1.42539614037e-23)
(-0.0402512147684 -0.00966404439848 -9.20002137587e-25)
(-0.0391984949892 -0.00913348864336 -4.29473354745e-24)
(-0.0408136187026 -0.0112774558656 8.26356416714e-24)
(-0.0397120717091 -0.0107236886177 1.17550958619e-23)
(-0.0413858612904 -0.0129821039921 9.39172908486e-24)
(-0.0402392573869 -0.0123798414678 2.88302599071e-23)
(-0.0419362434822 -0.0147869440524 -1.50582597322e-23)
(-0.0407514883501 -0.0141166741111 1.07655863922e-23)
(-0.0424252239723 -0.0167324789102 -4.36666723765e-23)
(-0.041218443897 -0.0159520290439 -2.52598312405e-23)
(-0.0427748825195 -0.0188514501021 -1.12912742077e-22)
(-0.0415725581018 -0.0179158388834 -4.80412645819e-23)
(-0.0428103668493 -0.0211812186703 -4.41560869319e-22)
(-0.0417113585918 -0.0200793060117 -1.83703219222e-22)
(-0.0420393669202 -0.0238039838417 -1.30041021603e-21)
(-0.0413660564043 -0.0223981740324 -7.49306497016e-22)
(-0.0396470683246 -0.0267643722894 -2.51345317173e-21)
(-0.0398411368027 -0.0248228539705 -2.62233505591e-21)
(-0.0364324111967 -0.0298370394189 -5.01739344569e-21)
(-0.0364358805736 -0.0283760453495 -5.00691015716e-21)
(-0.0351646386052 -0.0328160365919 -7.3569736838e-21)
(-0.033562264735 -0.0327920865618 -5.2513743884e-21)
(-0.0360754766628 -0.0350579222387 -7.63009900432e-21)
(-0.0344493003427 -0.0324564307136 -9.10470732627e-21)
(-0.0205661788937 -0.0369856049071 -5.24834126335e-21)
(-0.0359571432482 -0.0317540143691 -8.8721648117e-21)
(-0.00422517091513 -0.0365856680528 -2.59172283919e-21)
(-0.0348521753042 -0.00130173964166 3.48186543671e-23)
(-0.0335340976103 -0.000750347937964 -8.67930108201e-23)
(-0.0359865165654 -0.00266745057988 1.67730070831e-22)
(-0.0348362931656 -0.00202397469898 1.90898476522e-22)
(-0.0367629783854 -0.00409519910071 1.16626014683e-22)
(-0.0357365001274 -0.0034747436265 1.23111439346e-22)
(-0.0373019134822 -0.00556224086489 2.70627445508e-23)
(-0.0377441611436 -0.00706453423103 -2.22968452931e-23)
(-0.0381892300153 -0.00859993989821 -8.50328719574e-24)
(-0.0386614279649 -0.0101841130315 8.38036445204e-24)
(-0.0391516776235 -0.011812007497 3.23217916018e-23)
(-0.0396366118798 -0.0135025582018 3.02041172144e-23)
(-0.0400819697553 -0.0152650212669 5.64014883954e-25)
(-0.0404372008014 -0.0171260717368 -2.96344234459e-23)
(-0.0406073579722 -0.0191091838319 -1.18831741727e-22)
(-0.0404004513387 -0.0212811025078 -4.91448846919e-22)
(-0.0393512306225 -0.0236861794032 -2.07123133689e-21)
(-0.0368633150491 -0.0262735764712 -5.11579204134e-21)
(-0.0338611619448 -0.0286101255989 -5.24089109988e-21)
(-0.0330508331513 -0.0304984494283 -6.99910803087e-21)
(-0.0343197143103 -0.0320757348302 -1.03467731336e-20)
(-0.0194980799068 -0.0335500740542 -6.21554638754e-21)
(-0.0334782632307 -0.00138069267696 6.92868113349e-23)
(-0.0321531833643 -0.000792108450835 -3.61124569954e-23)
(-0.0345479923889 -0.00283797285498 1.46279845037e-22)
(-0.0306877207869 -0.000833036766118 3.08223200688e-23)
(-0.0291425002516 -0.000875582430848 1.78378922436e-22)
)
;

boundaryField
{
    back
    {
        type            calculated;
        value           uniform (0 0 0);
    }
    sides
    {
        type            calculated;
        value           nonuniform List<vector> 0();
    }
    bottom
    {
        type            calculated;
        value           uniform (0 0 0);
    }
    front
    {
        type            calculated;
        value           uniform (0 0 0);
    }
    atmosphere
    {
        type            calculated;
        value           nonuniform List<vector> 8((0 -0.0548645388104 0) (0 -0.0483292960337 0) (0 -0.0494217930938 0) (0 -0.0488989250188 0) (0 -0.0447971285686 0) (0 -0.0400741042363 0) (0 -0.0369407731144 0) (0 -0.034067528754 0));
    }
    floatingObject
    {
        type            calculated;
        value           nonuniform List<vector> 0();
    }
    procBoundary9to6
    {
        type            processor;
        value           nonuniform List<vector> 4((-0.0731268156059 -0.0331166204742 -8.14797793943e-23) (-0.0766364555103 -0.03555624439 -9.86704498128e-21) (-0.0712981441341 -0.038573314432 -1.02348102611e-20) (-0.00380677975059 -0.0662943116763 7.93889798576e-21));
    }
    procBoundary9to7
    {
        type            processor;
        value           nonuniform List<vector> 
16
(
(-0.0407581161954 -0.000200738098053 -4.79319063148e-22)
(-0.0426462814479 -0.00050484508435 -2.27608585131e-22)
(-0.0440521775906 -0.000960076143381 -1.5434565915e-22)
(-0.0451139741863 -0.00144667916123 4.95234197034e-23)
(-0.0460217162133 -0.00200903309473 1.55433271776e-23)
(-0.0469896572642 -0.00264730682031 -5.0632591463e-24)
(-0.0481173764826 -0.00338050831145 -1.66658232298e-23)
(-0.0494390321968 -0.00423746141226 6.42426318032e-24)
(-0.0509651826642 -0.0052472689231 -6.19452890532e-24)
(-0.0527094358516 -0.00645006410665 -1.12564838687e-23)
(-0.0546691660622 -0.00789951007129 2.05132541396e-23)
(-0.056854872397 -0.0096620448328 2.52422909699e-23)
(-0.0592053650478 -0.0118252249878 1.76303854845e-22)
(-0.0617099174802 -0.0144300129655 3.37737537764e-22)
(-0.0643921813035 -0.0175663240675 -1.83607975733e-22)
(-0.0680848909797 -0.0231982447609 -1.08420201172e-21)
)
;
    }
    procBoundary9to10
    {
        type            processor;
        value           nonuniform List<vector> 
15
(
(-0.0363390808307 -0.0049578821124 6.33522059396e-23)
(-0.0367736982721 -0.00648288701675 -2.85886254086e-23)
(-0.0371867498465 -0.00803114900229 -1.28631750031e-23)
(-0.0376142180499 -0.00960736881064 7.59287939808e-25)
(-0.0380839526773 -0.0112188840625 1.72498642038e-23)
(-0.0385485011318 -0.0128710826341 4.01569854738e-23)
(-0.038988291368 -0.0145720613817 1.211423697e-23)
(-0.0393570063462 -0.0163286109918 -1.42735772956e-23)
(-0.0333788434165 -0.00214797384698 1.7079971202e-22)
(-0.0352791163618 -0.00434516395405 6.98376306024e-23)
(-0.0342290976637 -0.00367840383033 3.48432196043e-23)
(-0.0320192928348 -0.00146529796038 6.54004436899e-23)
(-0.0304776496589 -0.00154523142845 1.3022666853e-22)
(-0.028858184604 -0.0016202271536 3.42587710091e-22)
(-0.0275222543532 -0.000917048819708 4.53227286e-22)
)
;
    }
    procBoundary9to11
    {
        type            processor;
        value           nonuniform List<vector> 9((-0.0395883505352 -0.0181585706176 -3.75166817246e-23) (-0.0395386953154 -0.0201279374447 -1.94477356621e-22) (-0.0389601366093 -0.0221645215543 -9.39153394778e-22) (-0.0372531613765 -0.0241764103066 -3.48338797643e-21) (-0.0340988960589 -0.0270511466418 -6.63836401315e-21) (-0.0316738046629 -0.0306936662063 -6.72694657556e-21) (-0.0328717069162 -0.0304425475466 -1.29415422325e-20) (-0.0344826845981 -0.0291145896146 -1.28325204579e-20) (-0.00370759991391 -0.0332269582067 -3.29946557345e-21));
    }
}


// ************************************************************************* //
