/*--------------------------------*- C++ -*----------------------------------*\
| =========                 |                                                 |
| \\      /  F ield         | OpenFOAM: The Open Source CFD Toolbox           |
|  \\    /   O peration     | Version:  v2012                                 |
|   \\  /    A nd           | Website:  www.openfoam.com                      |
|    \\/     M anipulation  |                                                 |
\*---------------------------------------------------------------------------*/
FoamFile
{
    version     2.0;
    format      ascii;
    class       volScalarField;
    location    "0.1";
    object      ddt0(epsilon);
}
// * * * * * * * * * * * * * * * * * * * * * * * * * * * * * * * * * * * * * //

dimensions      [0 2 -4 0 0 0 0];


internalField   nonuniform List<scalar> 
164
(
-0.9479100357
-0.694623592703
-0.656913628983
-0.624413954644
-0.588957948658
-0.53693766896
-0.447710421858
-0.0283663327686
-1.06232985867
-0.732794780174
-0.675994996583
-0.635588938769
-0.597443587778
-0.551520735281
-0.495696131575
-0.350503301031
-1.06232974717
-0.732794479967
-0.675994319109
-0.635587516117
-0.597441056508
-0.551517822537
-0.495700905995
-0.350515714812
-0.947909982173
-0.694623379373
-0.656913233405
-0.624411781626
-0.588955159375
-0.536937071687
-0.447686286346
-0.0282259394422
-0.643057917097
-0.619069643737
-0.58668261702
-0.523666884389
-0.347411174518
0.523498741472
-0.643434081271
-0.624142981561
-0.592407852705
-0.508889499771
-0.174841966867
0.691825601311
-0.650957278402
-0.633213029527
-0.596452622535
-0.462863446629
0.0751161646267
0.47508485841
-0.659148665744
-0.64192845053
-0.58318479227
-0.351150609288
0.0894291019192
0.336872470676
-0.666733549857
-0.649691495857
-0.594793381687
-0.427268683807
-0.217395044278
-0.483484521008
-0.67438964571
-0.663461567814
-0.632881864726
-0.506229969397
-0.257029221069
-0.147156841017
-0.681072264264
-0.673295272911
-0.655212914763
-0.580542780758
-0.360901283704
-0.0968145064731
-0.686972320595
-0.681547218035
-0.670295794471
-0.623371314067
-0.447952884537
-0.114233536954
-0.691893135994
-0.687951090992
-0.680335127253
-0.648471013112
-0.513026876104
-0.1691518928
-0.696034925331
-0.693138645384
-0.687824144437
-0.664750848707
-0.554676867546
-0.218932937446
-0.699529868532
-0.697380043447
-0.693592151936
-0.676257474682
-0.583376382174
-0.255199516987
-0.702494930736
-0.700887695912
-0.698138636186
-0.684740183282
-0.604405873504
-0.281587737068
-0.705024875499
-0.703815799393
-0.70178485691
-0.691157280804
-0.6203736608
-0.301672744472
-0.707196359586
-0.706281036707
-0.704753942617
-0.696124461381
-0.632820982857
-0.317591070799
-0.709071429051
-0.70837374379
-0.707205497693
-0.700051901718
-0.642744570787
-0.330592737087
-0.710700373198
-0.710164628904
-0.70925594074
-0.703217876304
-0.650812675616
-0.341447897611
-0.712124030051
-0.711709351349
-0.710991284563
-0.705814394494
-0.657484181969
-0.350660975093
-0.713375471749
-0.713051813571
-0.712475786547
-0.707976419681
-0.663081586526
-0.358580809484
-0.714481595472
-0.714226723576
-0.713757965769
-0.709800622546
-0.667836701334
-0.365459318054
-0.715464273649
-0.715261630661
-0.714874876331
-0.711357555332
-0.671919718068
-0.371484511643
-0.715855141119
-0.71269963492
-0.675458010559
-0.37680023437
-0.716721050642
-0.713866454575
-0.678548572909
-0.381518671556
-0.717490291014
-0.714888395453
-0.681266415131
-0.385728673187
)
;

boundaryField
{
    back
    {
        type            calculated;
        value           nonuniform List<scalar> 
164
(
-0.9479100357
-0.694623592703
-0.656913628983
-0.624413954644
-0.588957948658
-0.53693766896
-0.447710421858
-0.0283663327686
-1.06232985867
-0.732794780174
-0.675994996583
-0.635588938769
-0.597443587778
-0.551520735281
-0.495696131575
-0.350503301031
-1.06232974717
-0.732794479967
-0.675994319109
-0.635587516117
-0.597441056508
-0.551517822537
-0.495700905995
-0.350515714812
-0.947909982173
-0.694623379373
-0.656913233405
-0.624411781626
-0.588955159375
-0.536937071687
-0.447686286346
-0.0282259394422
-0.643057917097
-0.619069643737
-0.58668261702
-0.523666884389
-0.347411174518
0.523498741472
-0.643434081271
-0.624142981561
-0.592407852705
-0.508889499771
-0.174841966867
0.691825601311
-0.650957278402
-0.633213029527
-0.596452622535
-0.462863446629
0.0751161646267
0.47508485841
-0.659148665744
-0.64192845053
-0.58318479227
-0.351150609288
0.0894291019192
0.336872470676
-0.666733549857
-0.649691495857
-0.594793381687
-0.427268683807
-0.217395044278
-0.483484521008
-0.67438964571
-0.663461567814
-0.632881864726
-0.506229969397
-0.257029221069
-0.147156841017
-0.681072264264
-0.673295272911
-0.655212914763
-0.580542780758
-0.360901283704
-0.0968145064731
-0.686972320595
-0.681547218035
-0.670295794471
-0.623371314067
-0.447952884537
-0.114233536954
-0.691893135994
-0.687951090992
-0.680335127253
-0.648471013112
-0.513026876104
-0.1691518928
-0.696034925331
-0.693138645384
-0.687824144437
-0.664750848707
-0.554676867546
-0.218932937446
-0.699529868532
-0.697380043447
-0.693592151936
-0.676257474682
-0.583376382174
-0.255199516987
-0.702494930736
-0.700887695912
-0.698138636186
-0.684740183282
-0.604405873504
-0.281587737068
-0.705024875499
-0.703815799393
-0.70178485691
-0.691157280804
-0.6203736608
-0.301672744472
-0.707196359586
-0.706281036707
-0.704753942617
-0.696124461381
-0.632820982857
-0.317591070799
-0.709071429051
-0.70837374379
-0.707205497693
-0.700051901718
-0.642744570787
-0.330592737087
-0.710700373198
-0.710164628904
-0.70925594074
-0.703217876304
-0.650812675616
-0.341447897611
-0.712124030051
-0.711709351349
-0.710991284563
-0.705814394494
-0.657484181969
-0.350660975093
-0.713375471749
-0.713051813571
-0.712475786547
-0.707976419681
-0.663081586526
-0.358580809484
-0.714481595472
-0.714226723576
-0.713757965769
-0.709800622546
-0.667836701334
-0.365459318054
-0.715464273649
-0.715261630661
-0.714874876331
-0.711357555332
-0.671919718068
-0.371484511643
-0.715855141119
-0.71269963492
-0.675458010559
-0.37680023437
-0.716721050642
-0.713866454575
-0.678548572909
-0.381518671556
-0.717490291014
-0.714888395453
-0.681266415131
-0.385728673187
)
;
    }
    sides
    {
        type            calculated;
        value           nonuniform List<scalar> 0();
    }
    bottom
    {
        type            calculated;
        value           nonuniform List<scalar> 0();
    }
    front
    {
        type            calculated;
        value           nonuniform List<scalar> 
164
(
-0.9479100357
-0.694623592703
-0.656913628983
-0.624413954644
-0.588957948658
-0.53693766896
-0.447710421858
-0.0283663327686
-1.06232985867
-0.732794780174
-0.675994996583
-0.635588938769
-0.597443587778
-0.551520735281
-0.495696131575
-0.350503301031
-1.06232974717
-0.732794479967
-0.675994319109
-0.635587516117
-0.597441056508
-0.551517822537
-0.495700905995
-0.350515714812
-0.947909982173
-0.694623379373
-0.656913233405
-0.624411781626
-0.588955159375
-0.536937071687
-0.447686286346
-0.0282259394422
-0.643057917097
-0.619069643737
-0.58668261702
-0.523666884389
-0.347411174518
0.523498741472
-0.643434081271
-0.624142981561
-0.592407852705
-0.508889499771
-0.174841966867
0.691825601311
-0.650957278402
-0.633213029527
-0.596452622535
-0.462863446629
0.0751161646267
0.47508485841
-0.659148665744
-0.64192845053
-0.58318479227
-0.351150609288
0.0894291019192
0.336872470676
-0.666733549857
-0.649691495857
-0.594793381687
-0.427268683807
-0.217395044278
-0.483484521008
-0.67438964571
-0.663461567814
-0.632881864726
-0.506229969397
-0.257029221069
-0.147156841017
-0.681072264264
-0.673295272911
-0.655212914763
-0.580542780758
-0.360901283704
-0.0968145064731
-0.686972320595
-0.681547218035
-0.670295794471
-0.623371314067
-0.447952884537
-0.114233536954
-0.691893135994
-0.687951090992
-0.680335127253
-0.648471013112
-0.513026876104
-0.1691518928
-0.696034925331
-0.693138645384
-0.687824144437
-0.664750848707
-0.554676867546
-0.218932937446
-0.699529868532
-0.697380043447
-0.693592151936
-0.676257474682
-0.583376382174
-0.255199516987
-0.702494930736
-0.700887695912
-0.698138636186
-0.684740183282
-0.604405873504
-0.281587737068
-0.705024875499
-0.703815799393
-0.70178485691
-0.691157280804
-0.6203736608
-0.301672744472
-0.707196359586
-0.706281036707
-0.704753942617
-0.696124461381
-0.632820982857
-0.317591070799
-0.709071429051
-0.70837374379
-0.707205497693
-0.700051901718
-0.642744570787
-0.330592737087
-0.710700373198
-0.710164628904
-0.70925594074
-0.703217876304
-0.650812675616
-0.341447897611
-0.712124030051
-0.711709351349
-0.710991284563
-0.705814394494
-0.657484181969
-0.350660975093
-0.713375471749
-0.713051813571
-0.712475786547
-0.707976419681
-0.663081586526
-0.358580809484
-0.714481595472
-0.714226723576
-0.713757965769
-0.709800622546
-0.667836701334
-0.365459318054
-0.715464273649
-0.715261630661
-0.714874876331
-0.711357555332
-0.671919718068
-0.371484511643
-0.715855141119
-0.71269963492
-0.675458010559
-0.37680023437
-0.716721050642
-0.713866454575
-0.678548572909
-0.381518671556
-0.717490291014
-0.714888395453
-0.681266415131
-0.385728673187
)
;
    }
    atmosphere
    {
        type            calculated;
        value           nonuniform List<scalar> 
27
(
-0.124285613949
-0.446422582211
-0.446434995992
-0.124145220622
0.427579460292
0.595906320131
-6.58219321403
-1.03041064637
0
0
0
0
0
0
0
0
0
0
0
0
0
0
0
0
0
0
0
)
;
    }
    floatingObject
    {
        type            calculated;
        value           nonuniform List<scalar> 4(-0.9479100357 -1.06232985867 -1.06232974717 -0.947909982173);
    }
    procBoundary6to3
    {
        type            processor;
        value           nonuniform List<scalar> 8(-0.822986203641 -0.768507425932 -0.738975619729 -0.714990141799 -0.682601294341 -0.619586900593 -0.44339073259 0.42755797304);
    }
    procBoundary6to7
    {
        type            processor;
        value           nonuniform List<scalar> 
11
(
-0.805685489269
-0.807159995609
-0.80846570229
-0.809626908154
-0.810663865131
-0.811593429054
-0.812260625852
-0.812097799098
-0.812097799098
-0.812914258132
-0.813644639172
)
;
    }
    procBoundary6to8
    {
        type            processor;
        value           nonuniform List<scalar> 
16
(
-0.82298657879
-0.768507954836
-0.768507954836
-0.753443690953
-0.759248267994
-0.766143152305
-0.772451076955
-0.777887860309
-0.782844716918
-0.787302561631
-0.791175570042
-0.794522347215
-0.797416002166
-0.799924281145
-0.802106362347
-0.804012728081
)
;
    }
    procBoundary6to9
    {
        type            processor;
        value           nonuniform List<scalar> 4(-0.814096224392 -0.811708385639 -0.779589649579 -0.485420805579);
    }
}


// ************************************************************************* //
