/*--------------------------------*- C++ -*----------------------------------*\
| =========                 |                                                 |
| \\      /  F ield         | OpenFOAM: The Open Source CFD Toolbox           |
|  \\    /   O peration     | Version:  v2012                                 |
|   \\  /    A nd           | Website:  www.openfoam.com                      |
|    \\/     M anipulation  |                                                 |
\*---------------------------------------------------------------------------*/
FoamFile
{
    version     2.0;
    format      ascii;
    class       volVectorField;
    location    "1";
    object      ddt0(rho,U);
}
// * * * * * * * * * * * * * * * * * * * * * * * * * * * * * * * * * * * * * //

dimensions      [1 -2 -2 0 0 0 0];


internalField   nonuniform List<vector> 
164
(
(16.5749275964 -4.24303852372 -3.38484651522e-19)
(15.4603705547 -10.7193480343 3.23197751847e-18)
(13.8862856919 -17.3147132164 1.6288115698e-19)
(11.6456127678 -24.2442318468 2.27582960925e-18)
(7.94907898913 -31.4355108089 8.41147168683e-18)
(1.52843541403 -39.7782311729 9.78522826345e-17)
(-10.1128773443 -50.2160012206 5.07364602731e-16)
(-27.7541833103 -67.5960415639 1.93772851237e-15)
(-9.24856368423 -83.2887896602 1.97887401262e-15)
(10.4363538468 -98.5781416035 -2.87351726153e-16)
(14.2535077195 -110.012082845 1.83681156214e-15)
(19.1207373005 -136.874547366 5.22239059251e-15)
(56.001371672 -118.018074978 1.3503917833e-14)
(38.9380693588 -83.5707467826 -1.3251726741e-15)
(23.9116059486 -4.45114572491 5.08134400756e-18)
(22.6585129981 -11.4454620494 3.90264630408e-18)
(21.1395525746 -18.7537872892 -1.37855740427e-18)
(19.3163133489 -26.7141339213 1.23474598626e-19)
(16.8131750698 -35.1472214875 2.90062590579e-18)
(13.4050783528 -44.7658251447 1.20808009453e-17)
(8.82248939752 -57.0305336831 7.92997933244e-17)
(4.93809764038 -74.9773668846 6.00749871949e-16)
(16.3383336105 -91.606535625 7.3445302048e-17)
(22.6280846699 -103.875107655 7.4394277128e-16)
(23.7555520238 -110.820277514 2.14326963352e-15)
(20.4664748425 -117.207216243 1.87364029543e-15)
(29.4431807906 -115.678542385 -7.30446687712e-16)
(15.8152064521 -84.6957948849 3.53701075093e-15)
(31.6836604392 -4.59430197532 2.64830696834e-18)
(30.3746045969 -12.0180288972 -5.67562479134e-18)
(29.0623940248 -19.768082907 -5.0407829612e-19)
(27.8151469353 -28.2573126343 3.02187281726e-19)
(26.3984387015 -37.2750269613 9.5775074033e-19)
(24.6703493771 -47.3654234581 9.95969044945e-19)
(22.5823544519 -59.2275845037 1.04661232987e-17)
(22.0882385764 -74.0669220593 7.70508556804e-17)
(27.2002057536 -88.0250218643 -3.81880964314e-19)
(32.7312254281 -98.7251221257 5.87732951337e-17)
(33.2666954075 -107.081904292 4.13249391978e-17)
(29.7652933497 -114.570405242 3.70189933626e-17)
(22.350789775 -121.213206658 1.14749859954e-16)
(2.87112968821 -122.493303094 -1.04252206251e-15)
(39.7307035396 -4.63250104007 2.21053555538e-18)
(38.3921445294 -12.3501533794 -3.00182091134e-18)
(37.3455822129 -20.3122511454 -3.10177815185e-20)
(36.6783873903 -29.0237413545 5.5798295437e-19)
(36.1580333709 -38.2514912269 5.48718164457e-19)
(35.6993234521 -48.3817720777 -2.1118203376e-19)
(35.4023275543 -59.7490302604 4.47467901745e-19)
(36.1963372521 -72.4820553173 -2.16045784228e-18)
(39.2470963882 -85.0789088826 5.06058364023e-18)
(42.5731563197 -96.3560602072 4.45409887064e-18)
(43.4046315299 -107.024500518 1.33653493938e-18)
(40.5943523049 -118.692371224 -1.08140018933e-17)
(32.9502365137 -132.924169219 -1.61525838903e-17)
(18.1306737794 -152.083004481 1.76623096294e-16)
(47.8662509067 -4.55547631985 1.35329567523e-18)
(46.5007437235 -12.4077830271 -6.83314050892e-18)
(45.7265342056 -20.3771760772 -3.83030675007e-20)
(45.6112714328 -29.0610562906 5.37742360396e-19)
(45.8872386554 -38.2141152788 7.34762359293e-19)
(46.4704972316 -48.1208034783 -7.06138136126e-20)
(47.4497047468 -58.9214643727 3.30367957014e-19)
(49.2051156723 -70.6053507553 -1.62817810944e-18)
(51.951320013 -82.6457392736 -5.67052275728e-19)
(54.8079928155 -94.7015726342 -1.07191804463e-18)
(56.4001511319 -107.397959028 4.08010440231e-19)
(55.6700830512 -122.322409701 8.2347760156e-19)
(51.8998343504 -141.36917675 2.12387513947e-20)
(44.6632436279 -167.039548325 -3.33088945296e-17)
(55.9053828049 -4.37012217005 2.41095714492e-18)
(54.5113556146 -12.1925978153 -6.40517708173e-18)
(53.9926774577 -19.9893784935 -4.57408901322e-19)
(54.3775018089 -28.4459010796 6.44439648504e-19)
(55.3477246481 -37.3279549913 5.78795591431e-19)
(56.7926021031 -46.860759163 2.04893097068e-19)
(58.7515299025 -57.1216754888 1.5381447207e-19)
(61.3458027392 -68.134903178 2.56374366854e-19)
(64.5984343992 -79.8028743525 -1.40918776947e-19)
(68.0976027502 -92.1991128751 -3.89164836091e-19)
(71.2256014785 -105.948869716 5.9481679109e-19)
(73.5364695708 -122.408280767 -1.21815479606e-18)
(74.9183856817 -143.357030202 -1.097342325e-18)
(75.7908845138 -169.985411935 5.07533393393e-18)
(63.6798429766 -4.0885734312 4.49452296344e-18)
(62.2563975203 -11.7233554324 -3.24517832211e-20)
(61.9706841791 -19.1904807744 -1.76202912294e-18)
(62.8004261338 -27.2558723121 1.2076652012e-18)
(64.3767333181 -35.7163989233 4.12729874938e-19)
(66.5627899148 -44.7583344726 -3.28716843444e-19)
(69.3626859636 -54.4444577573 -3.50994622888e-21)
(72.8144222849 -64.8452337521 -3.01019291575e-20)
(76.9212374038 -76.0386831445 -1.13108405154e-18)
(81.541838018 -88.2452096268 -4.48774007934e-19)
(86.5139775791 -102.015625187 -3.95258981325e-19)
(91.9167760484 -118.392259571 -2.54017938967e-19)
(98.3309409284 -138.835531968 -3.96041909677e-18)
(106.808178811 -164.538794502 -4.33355714783e-18)
(71.0359540045 -3.72623791552 3.06856668001e-18)
(69.5875012773 -11.0289424345 -3.45456466001e-18)
(69.5145114954 -18.0268289989 -1.77107127786e-18)
(70.7381023763 -25.5605108303 -8.3489714382e-19)
(72.8468207251 -33.4699830516 4.07176293626e-19)
(75.6868118621 -41.9083397442 -9.69745884233e-20)
(79.2456139832 -50.9337314217 -1.01316468337e-19)
(83.5455215457 -60.6409434699 -3.32446362793e-20)
(88.6168408292 -71.1614326697 -9.59058360108e-19)
(94.4668928487 -82.7246221992 -1.50803328282e-18)
(101.16807172 -95.7238061519 -6.19830907824e-19)
(109.042234011 -110.786063797 -6.74316230082e-19)
(119.020614709 -128.746375826 -7.441497967e-19)
(133.248058823 -151.015436058 -4.59976588649e-18)
(77.8417709069 -3.2981696903 -3.7205596971e-19)
(76.3774529338 -10.1423511998 -3.96511160281e-18)
(76.4995330322 -16.5482102416 -7.98788353807e-19)
(78.0699917779 -23.4281681571 1.91331625382e-19)
(80.6453104538 -30.6687913941 2.78816578534e-19)
(84.0626471553 -38.389580588 2.55087205975e-19)
(88.3045832817 -46.6439875228 1.18733391369e-19)
(93.3993366281 -55.5314191793 2.73213811057e-19)
(99.4053399826 -65.1820363959 1.49135475096e-19)
(106.396052608 -75.7812108585 -7.31699851561e-20)
(114.528410606 -87.5718210977 2.92820670829e-19)
(124.127791233 -100.824237976 2.69177829801e-19)
(135.88272008 -115.520472118 7.82996639592e-19)
(151.064154693 -130.569094687 3.46165699609e-18)
(83.9990532217 -2.81730043732 -4.20697297088e-19)
(82.5219948329 -9.09289973179 -3.67846680634e-18)
(82.8188671175 -14.7997728932 -2.44015266065e-19)
(84.6890857195 -20.9199268495 7.12644943692e-19)
(87.6667536442 -27.3844624287 2.90080567002e-19)
(91.5854560606 -34.2788034622 2.16910659346e-19)
(96.4290916549 -41.6502944447 1.8845755613e-19)
(102.237162614 -49.5907222189 -4.76792465283e-20)
(109.083244836 -58.2142882022 3.82573229607e-20)
(117.060415492 -67.6553759794 5.35443880395e-19)
(126.324503605 -78.0493658247 -1.1428649435e-19)
(137.116496008 -89.4770617904 1.45560291908e-19)
(149.786903155 -101.713164303 4.23166656636e-19)
(164.509366475 -114.011981373 -3.03809477536e-19)
(89.4248712108 -2.29583686537 -1.07348036093e-18)
(87.9290501727 -7.90261841348 -3.32410031307e-19)
(88.3773397408 -12.820124429 5.6844972704e-20)
(90.5002445469 -18.0913886817 1.02641986943e-18)
(93.8162432496 -23.6855158155 2.39918459715e-19)
(98.1609202871 -29.65509776 -7.72578137453e-20)
(103.521848812 -36.039180884 -8.84201940701e-20)
(109.947132593 -42.9214033919 3.59467378837e-19)
(117.520336695 -50.4000651663 -8.23515768517e-20)
(126.329937141 -58.5730961328 4.00860719921e-21)
(136.498535178 -67.5258392445 7.23235115477e-19)
(148.173859097 -77.2875598457 1.72289343526e-20)
(161.50908013 -87.7408229827 1.02134766198e-18)
(176.462168912 -98.7437197822 -7.71908450639e-19)
(124.645212703 -41.8641472003 1.04952957605e-19)
(134.159994782 -48.7019969764 -1.16963349119e-19)
(145.087637715 -56.2169220864 -1.07263916723e-19)
(157.494540639 -64.4435000294 2.16334494824e-19)
(171.391261621 -73.3140553023 -6.91381155913e-19)
(186.747554553 -82.7546811576 -2.10279694052e-19)
(165.295674823 -51.0025566602 6.06233470346e-20)
(179.817867364 -58.5590893087 -3.2966405501e-19)
(195.407388911 -66.6892221322 2.7845291839e-19)
(203.878765283 -51.1672095072 2.39378759601e-19)
)
;

boundaryField
{
    back
    {
        type            calculated;
        value           uniform (0 0 0);
    }
    sides
    {
        type            calculated;
        value           nonuniform List<vector> 0();
    }
    bottom
    {
        type            calculated;
        value           uniform (0 0 0);
    }
    front
    {
        type            calculated;
        value           uniform (0 0 0);
    }
    atmosphere
    {
        type            calculated;
        value           nonuniform List<vector> 0();
    }
    floatingObject
    {
        type            calculated;
        value           nonuniform List<vector> 4((0 -1.90031358611e-16 2.37539198264e-17) (0 -2.37759102067e-16 2.97198877584e-17) (0 0 0) (0 -6.21611389551e-16 3.8850711847e-17));
    }
    procBoundary8to3
    {
        type            processor;
        value           nonuniform List<vector> 8((9.7278789232 -4.0283946411 -1.99476794656e-19) (8.91957347223 -9.98107067751 -2.0912054574e-18) (7.69917239691 -15.6804205263 1.92860922755e-18) (5.87791794886 -21.0272965525 9.60221282547e-18) (2.76630702353 -25.0637239969 7.36340795269e-17) (-3.0854079857 -26.4029788965 4.44038841202e-16) (-13.9869066145 -24.739695402 1.51455256218e-15) (-29.2752526574 -18.4204771811 5.04908526356e-15));
    }
    procBoundary8to6
    {
        type            processor;
        value           nonuniform List<vector> 
16
(
(76.9073621313 -79.2912220981 8.67201073648e-15)
(54.8953561558 -46.4423941192 -1.29162144329e-15)
(53.8609518078 -53.268398379 1.38819760101e-15)
(-18.1692311452 -32.3541720446 4.19959621451e-15)
(-49.0138393681 -133.86556429 -1.24365826389e-15)
(-10.6417625254 -189.291925307 2.27279014628e-16)
(33.0491722965 -206.684199831 -2.12705257412e-17)
(76.6320019851 -207.144789813 -6.86613026057e-19)
(116.872418566 -200.600033658 1.03751090704e-17)
(154.872943498 -178.532359458 3.31325105688e-19)
(171.607395377 -141.567573369 -5.8505923957e-17)
(180.166344844 -124.971025415 7.21866449496e-18)
(192.279387597 -110.185252875 -1.01964548586e-18)
(203.756116535 -92.9833380158 -6.21327259519e-18)
(211.477174708 -73.8982561725 -5.83552636266e-19)
(220.325429986 -60.7491058116 -8.14438837372e-19)
)
;
    }
    procBoundary8to7
    {
        type            processor;
        value           nonuniform List<vector> 
17
(
(94.026866932 -1.74540668843 -3.70998131689e-19)
(92.5066432845 -6.59514827073 -1.99312774976e-18)
(93.0857652192 -10.6491638303 -3.25669721116e-19)
(95.416957113 -14.9986543318 -2.2962973764e-19)
(99.0104495727 -19.6404344125 2.47025250799e-19)
(103.70865925 -24.5980928698 -4.36498613405e-20)
(109.506969022 -29.9045308344 5.37172768432e-20)
(116.45973027 -35.6288764207 -3.1336394463e-19)
(116.45973027 -35.6288764207 -3.1336394463e-19)
(130.413416853 -32.7239365785 -1.34913851652e-19)
(140.547194547 -38.1541622774 -1.10659303744e-20)
(152.169451307 -44.212134157 -2.94566790327e-20)
(152.169451307 -44.212134157 -2.94566790327e-20)
(171.688958308 -36.8178355563 -1.8149508951e-19)
(187.222553061 -43.2253000286 1.4097165572e-18)
(187.222553061 -43.2253000286 1.4097165572e-18)
(212.438621772 -33.5071923923 4.46380454164e-20)
)
;
    }
}


// ************************************************************************* //
