/*--------------------------------*- C++ -*----------------------------------*\
| =========                 |                                                 |
| \\      /  F ield         | OpenFOAM: The Open Source CFD Toolbox           |
|  \\    /   O peration     | Version:  v2012                                 |
|   \\  /    A nd           | Website:  www.openfoam.com                      |
|    \\/     M anipulation  |                                                 |
\*---------------------------------------------------------------------------*/
FoamFile
{
    version     2.0;
    format      ascii;
    class       volScalarField;
    location    "1";
    object      epsilon_0;
}
// * * * * * * * * * * * * * * * * * * * * * * * * * * * * * * * * * * * * * //

dimensions      [0 2 -3 0 0 0 0];


internalField   nonuniform List<scalar> 
164
(
0.0205855234275
0.0206219713127
0.0222621525504
0.0228523342712
0.023099005385
0.0231971642723
0.0229617413149
0.0216345097399
0.0267217327419
0.0261166864617
0.0263393957733
0.0272402758601
0.0225231041753
0.0241530583454
0.0207523963651
0.0207330431234
0.02238121127
0.0229843973623
0.0232561169467
0.0234347852563
0.0235599389006
0.0235262988966
0.023651105216
0.0238633970092
0.0241749854132
0.0245899347419
0.0251224816672
0.0256906925997
0.0209326693678
0.0208696133396
0.0225235108549
0.0231311587547
0.023409110439
0.0236051171936
0.0237997391963
0.0240135757593
0.0242744361715
0.024571266323
0.0248955909809
0.0252463420051
0.025622301173
0.0260110972518
0.0211177032165
0.021023794028
0.0226798728873
0.0232843986108
0.0235580825409
0.0237493567767
0.0239412930752
0.0241610165013
0.0244163623956
0.0246987592423
0.024999353129
0.0253147061968
0.0256449212533
0.0259901913321
0.021299699566
0.0211866271279
0.0228410810574
0.0234362232474
0.0236996504151
0.0238794819808
0.024056646738
0.0242562616179
0.0244845155432
0.0247372233795
0.0250084424779
0.0252946464072
0.0255958352423
0.0259145766984
0.0214724977136
0.0213501218628
0.0229994064566
0.023580390459
0.0238300162701
0.023996161495
0.0241573247194
0.0243367193435
0.0245399109394
0.0247652495451
0.0250090734174
0.025268529895
0.0255429898286
0.0258355486142
0.0216317814105
0.0215080678722
0.023149107955
0.023712595882
0.0239464859993
0.0240983376091
0.0242441525293
0.0244054531829
0.0245872312257
0.0247889364533
0.0250083183595
0.0252432530492
0.0254930114526
0.0257612305624
0.02177492655
0.0216561004051
0.0232863541353
0.023830259806
0.0240476403969
0.0241854376732
0.0243169992911
0.0244622091542
0.0246255182713
0.0248068251558
0.0250047193307
0.0252177337556
0.0254456172281
0.0256936985449
0.0219007337585
0.0217914943643
0.0234089039911
0.0239321427251
0.0241330622507
0.0242575420645
0.0243761009951
0.0245070101506
0.0246542119493
0.024817757914
0.0249967766156
0.0251903439479
0.025399001401
0.0256310617991
0.0220090759196
0.0219127822636
0.0235157039372
0.0240179646162
0.0242030344247
0.0243152170863
0.0244220691724
0.0245402987674
0.024673396522
0.0248213301048
0.0249837166378
0.0251600226239
0.025351510434
0.0255694699468
0.0221004523331
0.0220192267292
0.0236064298317
0.0240880176523
0.0242582215145
0.0243592621882
0.0244556746208
0.0245626912629
0.0246833569774
0.0248175763196
0.0249652808317
0.0251262789137
0.0253023378994
0.0255080092443
0.0246846102341
0.024806744314
0.0249414639557
0.0250888292564
0.0252512421557
0.0254467523919
0.0250477273405
0.0251982255105
0.0253858709207
0.025325359508
)
;

boundaryField
{
    back
    {
        lowReCorrection 0;
        blending        stepwise;
        n               2;
        type            epsilonWallFunction;
        value           nonuniform List<scalar> 
164
(
0.0205855234275
0.0206219713127
0.0222621525504
0.0228523342712
0.023099005385
0.0231971642723
0.0229617413149
0.0216345097399
0.0267217327419
0.0261166864617
0.0263393957733
0.0272402758601
0.0225231041753
0.0241530583454
0.0207523963651
0.0207330431234
0.02238121127
0.0229843973623
0.0232561169467
0.0234347852563
0.0235599389006
0.0235262988966
0.023651105216
0.0238633970092
0.0241749854132
0.0245899347419
0.0251224816672
0.0256906925997
0.0209326693678
0.0208696133396
0.0225235108549
0.0231311587547
0.023409110439
0.0236051171936
0.0237997391963
0.0240135757593
0.0242744361715
0.024571266323
0.0248955909809
0.0252463420051
0.025622301173
0.0260110972518
0.0211177032165
0.021023794028
0.0226798728873
0.0232843986108
0.0235580825409
0.0237493567767
0.0239412930752
0.0241610165013
0.0244163623956
0.0246987592423
0.024999353129
0.0253147061968
0.0256449212533
0.0259901913321
0.021299699566
0.0211866271279
0.0228410810574
0.0234362232474
0.0236996504151
0.0238794819808
0.024056646738
0.0242562616179
0.0244845155432
0.0247372233795
0.0250084424779
0.0252946464072
0.0255958352423
0.0259145766984
0.0214724977136
0.0213501218628
0.0229994064566
0.023580390459
0.0238300162701
0.023996161495
0.0241573247194
0.0243367193435
0.0245399109394
0.0247652495451
0.0250090734174
0.025268529895
0.0255429898286
0.0258355486142
0.0216317814105
0.0215080678722
0.023149107955
0.023712595882
0.0239464859993
0.0240983376091
0.0242441525293
0.0244054531829
0.0245872312257
0.0247889364533
0.0250083183595
0.0252432530492
0.0254930114526
0.0257612305624
0.02177492655
0.0216561004051
0.0232863541353
0.023830259806
0.0240476403969
0.0241854376732
0.0243169992911
0.0244622091542
0.0246255182713
0.0248068251558
0.0250047193307
0.0252177337556
0.0254456172281
0.0256936985449
0.0219007337585
0.0217914943643
0.0234089039911
0.0239321427251
0.0241330622507
0.0242575420645
0.0243761009951
0.0245070101506
0.0246542119493
0.024817757914
0.0249967766156
0.0251903439479
0.025399001401
0.0256310617991
0.0220090759196
0.0219127822636
0.0235157039372
0.0240179646162
0.0242030344247
0.0243152170863
0.0244220691724
0.0245402987674
0.024673396522
0.0248213301048
0.0249837166378
0.0251600226239
0.025351510434
0.0255694699468
0.0221004523331
0.0220192267292
0.0236064298317
0.0240880176523
0.0242582215145
0.0243592621882
0.0244556746208
0.0245626912629
0.0246833569774
0.0248175763196
0.0249652808317
0.0251262789137
0.0253023378994
0.0255080092443
0.0246846102341
0.024806744314
0.0249414639557
0.0250888292564
0.0252512421557
0.0254467523919
0.0250477273405
0.0251982255105
0.0253858709207
0.025325359508
)
;
    }
    sides
    {
        lowReCorrection 0;
        blending        stepwise;
        n               2;
        type            epsilonWallFunction;
        value           nonuniform List<scalar> 0();
    }
    bottom
    {
        lowReCorrection 0;
        blending        stepwise;
        n               2;
        type            epsilonWallFunction;
        value           nonuniform List<scalar> 
11
(
0.0205855234275
0.0207523963651
0.0209326693678
0.0211177032165
0.021299699566
0.0214724977136
0.0216317814105
0.02177492655
0.0219007337585
0.0220090759196
0.0221004523331
)
;
    }
    front
    {
        lowReCorrection 0;
        blending        stepwise;
        n               2;
        type            epsilonWallFunction;
        value           nonuniform List<scalar> 
164
(
0.0205855234275
0.0206219713127
0.0222621525504
0.0228523342712
0.023099005385
0.0231971642723
0.0229617413149
0.0216345097399
0.0267217327419
0.0261166864617
0.0263393957733
0.0272402758601
0.0225231041753
0.0241530583454
0.0207523963651
0.0207330431234
0.02238121127
0.0229843973623
0.0232561169467
0.0234347852563
0.0235599389006
0.0235262988966
0.023651105216
0.0238633970092
0.0241749854132
0.0245899347419
0.0251224816672
0.0256906925997
0.0209326693678
0.0208696133396
0.0225235108549
0.0231311587547
0.023409110439
0.0236051171936
0.0237997391963
0.0240135757593
0.0242744361715
0.024571266323
0.0248955909809
0.0252463420051
0.025622301173
0.0260110972518
0.0211177032165
0.021023794028
0.0226798728873
0.0232843986108
0.0235580825409
0.0237493567767
0.0239412930752
0.0241610165013
0.0244163623956
0.0246987592423
0.024999353129
0.0253147061968
0.0256449212533
0.0259901913321
0.021299699566
0.0211866271279
0.0228410810574
0.0234362232474
0.0236996504151
0.0238794819808
0.024056646738
0.0242562616179
0.0244845155432
0.0247372233795
0.0250084424779
0.0252946464072
0.0255958352423
0.0259145766984
0.0214724977136
0.0213501218628
0.0229994064566
0.023580390459
0.0238300162701
0.023996161495
0.0241573247194
0.0243367193435
0.0245399109394
0.0247652495451
0.0250090734174
0.025268529895
0.0255429898286
0.0258355486142
0.0216317814105
0.0215080678722
0.023149107955
0.023712595882
0.0239464859993
0.0240983376091
0.0242441525293
0.0244054531829
0.0245872312257
0.0247889364533
0.0250083183595
0.0252432530492
0.0254930114526
0.0257612305624
0.02177492655
0.0216561004051
0.0232863541353
0.023830259806
0.0240476403969
0.0241854376732
0.0243169992911
0.0244622091542
0.0246255182713
0.0248068251558
0.0250047193307
0.0252177337556
0.0254456172281
0.0256936985449
0.0219007337585
0.0217914943643
0.0234089039911
0.0239321427251
0.0241330622507
0.0242575420645
0.0243761009951
0.0245070101506
0.0246542119493
0.024817757914
0.0249967766156
0.0251903439479
0.025399001401
0.0256310617991
0.0220090759196
0.0219127822636
0.0235157039372
0.0240179646162
0.0242030344247
0.0243152170863
0.0244220691724
0.0245402987674
0.024673396522
0.0248213301048
0.0249837166378
0.0251600226239
0.025351510434
0.0255694699468
0.0221004523331
0.0220192267292
0.0236064298317
0.0240880176523
0.0242582215145
0.0243592621882
0.0244556746208
0.0245626912629
0.0246833569774
0.0248175763196
0.0249652808317
0.0251262789137
0.0253023378994
0.0255080092443
0.0246846102341
0.024806744314
0.0249414639557
0.0250888292564
0.0252512421557
0.0254467523919
0.0250477273405
0.0251982255105
0.0253858709207
0.025325359508
)
;
    }
    atmosphere
    {
        type            inletOutlet;
        inletValue      nonuniform List<scalar> 0();
        value           nonuniform List<scalar> 0();
    }
    floatingObject
    {
        lowReCorrection 0;
        blending        stepwise;
        n               2;
        type            epsilonWallFunction;
        value           nonuniform List<scalar> 4(0.0267217327419 0.0261166864617 0.0263393957733 0.0272402758601);
    }
    procBoundary8to3
    {
        type            processor;
        value           nonuniform List<scalar> 8(0.0204424790417 0.0205430080872 0.0221758611526 0.0227436750822 0.0229337027085 0.0228581264596 0.0220230051189 0.0236162502025);
    }
    procBoundary8to6
    {
        type            processor;
        value           nonuniform List<scalar> 
16
(
0.0273941008596
0.0229501156407
0.0253152611298
0.0262300470355
0.0264208506524
0.0263686712278
0.0262715639236
0.0261689582951
0.0260737432314
0.0259941884712
0.025930530587
0.0258698366599
0.0258115213157
0.0257570993888
0.025707975365
0.0256637580385
)
;
    }
    procBoundary8to7
    {
        type            processor;
        value           nonuniform List<scalar> 
17
(
0.022175747015
0.0221106261993
0.0236813088574
0.0241430194292
0.0242995715295
0.0243906591505
0.0244778222462
0.0245749186769
0.0245749186769
0.0246776725262
0.0247892505441
0.0249124701215
0.0249124701215
0.0250030352988
0.0251433494278
0.0251433494278
0.0252652112237
)
;
    }
}


// ************************************************************************* //
