/*--------------------------------*- C++ -*----------------------------------*\
| =========                 |                                                 |
| \\      /  F ield         | OpenFOAM: The Open Source CFD Toolbox           |
|  \\    /   O peration     | Version:  v2012                                 |
|   \\  /    A nd           | Website:  www.openfoam.com                      |
|    \\/     M anipulation  |                                                 |
\*---------------------------------------------------------------------------*/
FoamFile
{
    version     2.0;
    format      ascii;
    class       volScalarField;
    location    "1";
    object      epsilon;
}
// * * * * * * * * * * * * * * * * * * * * * * * * * * * * * * * * * * * * * //

dimensions      [0 2 -3 0 0 0 0];


internalField   nonuniform List<scalar> 
164
(
0.0201265185395
0.0201745489855
0.0217893572173
0.0223734750616
0.0226182753687
0.0227154294522
0.0224835772651
0.0211814618321
0.0261608725351
0.0255693284227
0.0257898808713
0.0266741422477
0.0220573181143
0.0236559432286
0.0202911966995
0.0202842761024
0.0219069910998
0.0225040196226
0.022773671134
0.0229504585365
0.023073627172
0.0230401095946
0.0231633774009
0.0233727950019
0.0236796995053
0.0240877624227
0.0246110359076
0.0251696760457
0.0204692058525
0.0204192474723
0.022047695467
0.0226492224656
0.0229251262417
0.023119193745
0.0233111659483
0.0235215795806
0.0237782936703
0.024070457398
0.0243896580075
0.0247347209801
0.0251044519381
0.0254870045553
0.0206520097936
0.0205716566089
0.0222023986338
0.0228009511904
0.0230727058095
0.0232621712384
0.0234516260632
0.0236680742548
0.0239194438924
0.0241973951053
0.0244932032335
0.0248034261316
0.0251281525391
0.0254676422641
0.0208319043895
0.0207326443763
0.022361982014
0.0229513902012
0.023213058223
0.023391249199
0.0235661733269
0.0237628839214
0.0239876332226
0.0242363690283
0.0245032409715
0.0247847331342
0.025080816258
0.025394006505
0.0210028042565
0.0208943141849
0.0225187948877
0.0230943510536
0.023342413664
0.0235070906276
0.0236662377098
0.0238430462064
0.0240431367778
0.0242649309231
0.0245048163211
0.0247599408469
0.0250296365507
0.0253169025728
0.0211604462487
0.0210505334063
0.0226671532515
0.0232255619359
0.0234580931692
0.0236086417356
0.0237526433444
0.0239116282205
0.0240906408725
0.0242891714168
0.0245049900122
0.0247359621978
0.0249813110923
0.0252445376183
0.0213022379536
0.0211969963423
0.0228032636369
0.0233424592404
0.0235586816593
0.0236953292866
0.0238252609824
0.0239683923146
0.0241292256102
0.024307683329
0.0245023605375
0.0247117761981
0.0249356360375
0.0251791140914
0.021426990789
0.0213310181489
0.0229249067919
0.0234438073176
0.0236437578315
0.0237672278293
0.023884323367
0.0240133668364
0.0241583503538
0.024319338721
0.0244954602986
0.0246857784859
0.0248908058958
0.0251187331484
0.0215345683642
0.0214511543034
0.0230310374909
0.0235293205866
0.0237135939835
0.0238248928422
0.0239304333723
0.0240469908216
0.0241781024507
0.0243237432386
0.0244835271826
0.0246569107804
0.0248451308047
0.0250593518525
0.0216254474966
0.0215566790555
0.0231213305557
0.0235992790928
0.0237688396057
0.0238691092472
0.0239643490468
0.0240698700113
0.0241887612813
0.0243209299287
0.0244663030043
0.024624679267
0.0247977992747
0.0250000608792
0.0241908323779
0.0243111395486
0.0244437781995
0.0245887999075
0.0247485798553
0.0249409849134
0.0245493218141
0.0246974773939
0.0248823155255
0.0248240390987
)
;

boundaryField
{
    back
    {
        lowReCorrection 0;
        blending        stepwise;
        n               2;
        type            epsilonWallFunction;
        value           nonuniform List<scalar> 
164
(
0.0201265185395
0.0201745489855
0.0217893572173
0.0223734750616
0.0226182753687
0.0227154294522
0.0224835772651
0.0211814618321
0.0261608725351
0.0255693284227
0.0257898808713
0.0266741422477
0.0220573181143
0.0236559432286
0.0202911966995
0.0202842761024
0.0219069910998
0.0225040196226
0.022773671134
0.0229504585365
0.023073627172
0.0230401095946
0.0231633774009
0.0233727950019
0.0236796995053
0.0240877624227
0.0246110359076
0.0251696760457
0.0204692058525
0.0204192474723
0.022047695467
0.0226492224656
0.0229251262417
0.023119193745
0.0233111659483
0.0235215795806
0.0237782936703
0.024070457398
0.0243896580075
0.0247347209801
0.0251044519381
0.0254870045553
0.0206520097936
0.0205716566089
0.0222023986338
0.0228009511904
0.0230727058095
0.0232621712384
0.0234516260632
0.0236680742548
0.0239194438924
0.0241973951053
0.0244932032335
0.0248034261316
0.0251281525391
0.0254676422641
0.0208319043895
0.0207326443763
0.022361982014
0.0229513902012
0.023213058223
0.023391249199
0.0235661733269
0.0237628839214
0.0239876332226
0.0242363690283
0.0245032409715
0.0247847331342
0.025080816258
0.025394006505
0.0210028042565
0.0208943141849
0.0225187948877
0.0230943510536
0.023342413664
0.0235070906276
0.0236662377098
0.0238430462064
0.0240431367778
0.0242649309231
0.0245048163211
0.0247599408469
0.0250296365507
0.0253169025728
0.0211604462487
0.0210505334063
0.0226671532515
0.0232255619359
0.0234580931692
0.0236086417356
0.0237526433444
0.0239116282205
0.0240906408725
0.0242891714168
0.0245049900122
0.0247359621978
0.0249813110923
0.0252445376183
0.0213022379536
0.0211969963423
0.0228032636369
0.0233424592404
0.0235586816593
0.0236953292866
0.0238252609824
0.0239683923146
0.0241292256102
0.024307683329
0.0245023605375
0.0247117761981
0.0249356360375
0.0251791140914
0.021426990789
0.0213310181489
0.0229249067919
0.0234438073176
0.0236437578315
0.0237672278293
0.023884323367
0.0240133668364
0.0241583503538
0.024319338721
0.0244954602986
0.0246857784859
0.0248908058958
0.0251187331484
0.0215345683642
0.0214511543034
0.0230310374909
0.0235293205866
0.0237135939835
0.0238248928422
0.0239304333723
0.0240469908216
0.0241781024507
0.0243237432386
0.0244835271826
0.0246569107804
0.0248451308047
0.0250593518525
0.0216254474966
0.0215566790555
0.0231213305557
0.0235992790928
0.0237688396057
0.0238691092472
0.0239643490468
0.0240698700113
0.0241887612813
0.0243209299287
0.0244663030043
0.024624679267
0.0247977992747
0.0250000608792
0.0241908323779
0.0243111395486
0.0244437781995
0.0245887999075
0.0247485798553
0.0249409849134
0.0245493218141
0.0246974773939
0.0248823155255
0.0248240390987
)
;
    }
    sides
    {
        lowReCorrection 0;
        blending        stepwise;
        n               2;
        type            epsilonWallFunction;
        value           nonuniform List<scalar> 0();
    }
    bottom
    {
        lowReCorrection 0;
        blending        stepwise;
        n               2;
        type            epsilonWallFunction;
        value           nonuniform List<scalar> 
11
(
0.0201265185395
0.0202911966995
0.0204692058525
0.0206520097936
0.0208319043895
0.0210028042565
0.0211604462487
0.0213022379536
0.021426990789
0.0215345683642
0.0216254474966
)
;
    }
    front
    {
        lowReCorrection 0;
        blending        stepwise;
        n               2;
        type            epsilonWallFunction;
        value           nonuniform List<scalar> 
164
(
0.0201265185395
0.0201745489855
0.0217893572173
0.0223734750616
0.0226182753687
0.0227154294522
0.0224835772651
0.0211814618321
0.0261608725351
0.0255693284227
0.0257898808713
0.0266741422477
0.0220573181143
0.0236559432286
0.0202911966995
0.0202842761024
0.0219069910998
0.0225040196226
0.022773671134
0.0229504585365
0.023073627172
0.0230401095946
0.0231633774009
0.0233727950019
0.0236796995053
0.0240877624227
0.0246110359076
0.0251696760457
0.0204692058525
0.0204192474723
0.022047695467
0.0226492224656
0.0229251262417
0.023119193745
0.0233111659483
0.0235215795806
0.0237782936703
0.024070457398
0.0243896580075
0.0247347209801
0.0251044519381
0.0254870045553
0.0206520097936
0.0205716566089
0.0222023986338
0.0228009511904
0.0230727058095
0.0232621712384
0.0234516260632
0.0236680742548
0.0239194438924
0.0241973951053
0.0244932032335
0.0248034261316
0.0251281525391
0.0254676422641
0.0208319043895
0.0207326443763
0.022361982014
0.0229513902012
0.023213058223
0.023391249199
0.0235661733269
0.0237628839214
0.0239876332226
0.0242363690283
0.0245032409715
0.0247847331342
0.025080816258
0.025394006505
0.0210028042565
0.0208943141849
0.0225187948877
0.0230943510536
0.023342413664
0.0235070906276
0.0236662377098
0.0238430462064
0.0240431367778
0.0242649309231
0.0245048163211
0.0247599408469
0.0250296365507
0.0253169025728
0.0211604462487
0.0210505334063
0.0226671532515
0.0232255619359
0.0234580931692
0.0236086417356
0.0237526433444
0.0239116282205
0.0240906408725
0.0242891714168
0.0245049900122
0.0247359621978
0.0249813110923
0.0252445376183
0.0213022379536
0.0211969963423
0.0228032636369
0.0233424592404
0.0235586816593
0.0236953292866
0.0238252609824
0.0239683923146
0.0241292256102
0.024307683329
0.0245023605375
0.0247117761981
0.0249356360375
0.0251791140914
0.021426990789
0.0213310181489
0.0229249067919
0.0234438073176
0.0236437578315
0.0237672278293
0.023884323367
0.0240133668364
0.0241583503538
0.024319338721
0.0244954602986
0.0246857784859
0.0248908058958
0.0251187331484
0.0215345683642
0.0214511543034
0.0230310374909
0.0235293205866
0.0237135939835
0.0238248928422
0.0239304333723
0.0240469908216
0.0241781024507
0.0243237432386
0.0244835271826
0.0246569107804
0.0248451308047
0.0250593518525
0.0216254474966
0.0215566790555
0.0231213305557
0.0235992790928
0.0237688396057
0.0238691092472
0.0239643490468
0.0240698700113
0.0241887612813
0.0243209299287
0.0244663030043
0.024624679267
0.0247977992747
0.0250000608792
0.0241908323779
0.0243111395486
0.0244437781995
0.0245887999075
0.0247485798553
0.0249409849134
0.0245493218141
0.0246974773939
0.0248823155255
0.0248240390987
)
;
    }
    atmosphere
    {
        type            inletOutlet;
        inletValue      nonuniform List<scalar> 0();
        value           nonuniform List<scalar> 0();
    }
    floatingObject
    {
        lowReCorrection 0;
        blending        stepwise;
        n               2;
        type            epsilonWallFunction;
        value           nonuniform List<scalar> 4(0.0261608725351 0.0255693284227 0.0257898808713 0.0266741422477);
    }
    procBoundary8to3
    {
        type            processor;
        value           nonuniform List<scalar> 8(0.0199854687586 0.0200965914021 0.0217041802522 0.022266185147 0.0224550489701 0.0223810668541 0.0215602546429 0.0231142588915);
    }
    procBoundary8to6
    {
        type            processor;
        value           nonuniform List<scalar> 
16
(
0.026812613558
0.0224684884901
0.0247960070957
0.0257002596851
0.0258904425389
0.025839684253
0.0257446058543
0.0256440213355
0.025550874141
0.0254736671864
0.0254127637946
0.0253545787591
0.0252985423016
0.0252463779925
0.0251995834739
0.0251577084909
)
;
    }
    procBoundary8to7
    {
        type            processor;
        value           nonuniform List<scalar> 
17
(
0.0217004841616
0.0216473961624
0.0231960055627
0.0236543834274
0.0238104241159
0.0239008415054
0.0239869597708
0.0240827229224
0.0240827229224
0.024184822442
0.0242947790169
0.0244161503388
0.0244161503388
0.0245063045733
0.0246445496931
0.0246445496931
0.0247661541449
)
;
    }
}


// ************************************************************************* //
