/*--------------------------------*- C++ -*----------------------------------*\
| =========                 |                                                 |
| \\      /  F ield         | OpenFOAM: The Open Source CFD Toolbox           |
|  \\    /   O peration     | Version:  v2012                                 |
|   \\  /    A nd           | Website:  www.openfoam.com                      |
|    \\/     M anipulation  |                                                 |
\*---------------------------------------------------------------------------*/
FoamFile
{
    version     2.0;
    format      ascii;
    class       surfaceVectorField;
    location    "1";
    object      Uf_0;
}
// * * * * * * * * * * * * * * * * * * * * * * * * * * * * * * * * * * * * * //

dimensions      [0 1 -1 0 0 0 0];


internalField   nonuniform List<vector> 
300
(
(-0.0197070696015 0.00875828678977 5.12445259421e-22)
(-0.0239259304638 0.00605258678838 2.33019534579e-21)
(-0.0195312179849 0.0179872075922 -5.11949501951e-22)
(-0.0249571634539 0.0132673474506 -1.35693070654e-21)
(-0.0175677053622 0.0274762963 4.47266493594e-22)
(-0.0241628662063 0.0234253876802 -5.33978686692e-22)
(-0.0134563547417 0.0375216763289 6.06571717402e-21)
(-0.0218947972469 0.0340024114822 6.02137295154e-22)
(-0.00635800111369 0.0489990884285 3.61104755574e-20)
(-0.0179582336064 0.0453508653627 6.54503692729e-21)
(0.00494056607485 0.0631725507659 2.33667819938e-19)
(-0.0117158537096 0.0591385965302 3.36740449878e-20)
(0.0249505474151 0.0832173263132 1.77794956273e-18)
(-0.00268508200948 0.0756946719196 2.27158106669e-19)
(0.0280335612031 0.115277340546 6.25924658366e-18)
(0.012022223793 0.102603908497 1.84260158147e-18)
(0.00453031319242 0.122508258859 1.55955961377e-17)
(-0.0072309299603 0.127523044901 5.21242829839e-18)
(-0.0173630520448 0.149776167032 1.72481161036e-17)
(-0.0272679157092 0.148946364292 1.25450447604e-17)
(-0.0329412038565 0.189995046509 1.49568061528e-17)
(-0.0402188456939 0.17502326108 7.73442304103e-18)
(-0.0779712177258 0.245223590547 1.48375235404e-17)
(-0.0552284403656 0.217377134993 9.3855999491e-18)
(-0.119610196161 0.228127897584 8.86256622468e-18)
(-0.104377187407 0.237681911199 6.70992208522e-18)
(-0.126596606103 0.236838295589 3.09203092664e-18)
(-0.0292158342049 0.00948795488736 4.60819379827e-22)
(-0.0334139602096 0.00637084684164 4.30591882272e-21)
(-0.0295377560691 0.0195249064798 -1.37895989128e-21)
(-0.0349941881285 0.0141925665153 -1.69907668638e-21)
(-0.0283061423669 0.0300447751353 -3.79107885133e-22)
(-0.0346827954184 0.02501464125 -5.62430248147e-22)
(-0.0258329542378 0.041427154247 1.08145704842e-21)
(-0.0332772193573 0.0364980987047 2.7132049319e-22)
(-0.0221711767695 0.0543918637118 4.10860635774e-21)
(-0.0309229691612 0.0489086600762 1.41512610397e-21)
(-0.0179548109525 0.0702622948517 2.71643317191e-20)
(-0.027586299671 0.0634609711188 3.80477257699e-21)
(-0.0124871342859 0.091783296818 2.9181012541e-19)
(-0.0242060938554 0.0812489969409 2.70972059099e-20)
(-0.0188847393377 0.123137740587 7.95783296197e-19)
(-0.0193322292257 0.106825827295 2.89557582393e-19)
(-0.0353112476852 0.148711057682 2.16187692104e-18)
(-0.0328042543344 0.132524529391 5.73372214895e-19)
(-0.0487961644521 0.170433949135 3.03135169776e-18)
(-0.0489908055203 0.156519417102 1.69758187231e-18)
(-0.0633282892499 0.197004371508 2.16321683735e-18)
(-0.06678924217 0.177787807488 1.42328643891e-18)
(-0.0880316245348 0.226604418605 1.2579984939e-18)
(-0.0848284275124 0.201093300642 7.74877003155e-19)
(-0.116228851186 0.232435298581 9.3938678718e-19)
(-0.110207993416 0.219487879775 4.41733555667e-19)
(-0.137997321095 0.229914876668 4.08903651405e-19)
(-0.0393575024508 0.00995522778583 2.14602275652e-21)
(-0.043369262063 0.00650109663558 5.40325106919e-21)
(-0.0402424908853 0.020509354107 -8.82547043246e-22)
(-0.0455483864353 0.0147232171485 -1.54476340936e-21)
(-0.0397757965293 0.0316152920299 8.79981301757e-23)
(-0.0457887930655 0.0258556695174 -2.42225700232e-23)
(-0.0385964027845 0.0436895067799 6.04989548742e-22)
(-0.0453514767962 0.0377343667376 5.02889489137e-22)
(-0.0369390781388 0.0573849832698 1.11129232322e-21)
(-0.0446184717234 0.0504997193383 6.14962375403e-22)
(-0.0353018637326 0.0737149736161 3.73764676776e-21)
(-0.0439163040354 0.0650649467488 8.561816674e-22)
(-0.0336977075374 0.0937235580494 2.48446628933e-20)
(-0.0442146856531 0.082085068872 3.33486137591e-21)
(-0.0376155605418 0.119685687616 6.71465010914e-20)
(-0.0452943628661 0.103206403954 2.1659435727e-20)
(-0.0503819763421 0.141559012899 1.09077166167e-19)
(-0.0546775800483 0.125298192732 4.60215728975e-20)
(-0.0672813733387 0.161374762975 8.95166134519e-20)
(-0.0688065484956 0.145510749604 6.45609785137e-20)
(-0.0859150691129 0.180279886126 3.49466047082e-20)
(-0.0856943456106 0.163531690386 2.52360902068e-20)
(-0.107721018353 0.199023565195 -4.1387935076e-20)
(-0.103572073884 0.18039002118 7.42623570507e-21)
(-0.131871534856 0.213307409423 -8.87495801082e-20)
(-0.124491806178 0.195570828935 -4.20445612057e-20)
(-0.149591209785 0.207837013603 -3.35297160498e-20)
(-0.0498252243643 0.0101334293706 1.71246490331e-21)
(-0.0535027647041 0.00646258111923 4.10483964688e-21)
(-0.0512842526241 0.0208714867519 -6.86438936133e-22)
(-0.0562865133922 0.0148489057595 -1.88616400151e-21)
(-0.0515628575609 0.0321246251855 3.90668788938e-22)
(-0.0570419879333 0.0259551550946 1.10104221448e-22)
(-0.05159697321 0.0442364285187 5.12862315798e-22)
(-0.0574633190028 0.0377608381669 9.85611895123e-22)
(-0.0518008029712 0.0576523272959 3.59851719587e-22)
(-0.0580343920816 0.050233931999 5.26726053508e-22)
(-0.0527886831117 0.0728932426213 4.53396275557e-22)
(-0.0591572274555 0.0639863592696 2.63303389636e-22)
(-0.0551388114789 0.0902277111444 1.49634209573e-22)
(-0.0615491535778 0.0793317549974 4.89162409177e-22)
(-0.0611682348012 0.11047128934 5.34507533083e-22)
(-0.0655379352584 0.0967394676353 -3.58256085799e-22)
(-0.0722317134894 0.12967446842 1.50538524397e-21)
(-0.0738807493556 0.114903599439 7.47993531028e-22)
(-0.0867340423454 0.147065769079 2.804552686e-22)
(-0.08619783488 0.132134660247 1.49033805342e-21)
(-0.103509353616 0.162585340338 -2.28427879638e-21)
(-0.101213898236 0.147610449607 2.92004696662e-22)
(-0.122362593844 0.17713944631 6.76960957534e-21)
(-0.11812616172 0.161387287722 -3.26858785169e-22)
(-0.143812831647 0.189940458663 1.31753028528e-20)
(-0.137292812661 0.173907457921 8.02433830597e-21)
(-0.160045236041 0.183914386439 5.58931177384e-21)
(-0.0603119567297 0.0100582610329 5.06210742057e-22)
(-0.0635610949256 0.00629187669534 3.36389896133e-21)
(-0.062301092695 0.0206872107768 -1.08962084393e-21)
(-0.0669155268185 0.0146256501942 -2.46144714197e-21)
(-0.0632033791028 0.0317509397101 7.05047327633e-22)
(-0.0681057664779 0.0254407046872 -1.15461043455e-22)
(-0.0641795433501 0.0434906263842 9.99475632833e-22)
(-0.0692030371611 0.0368531355516 1.2548790098e-21)
(-0.0656747004765 0.0561764857909 4.30177723557e-22)
(-0.0707202649812 0.0486990077283 5.08774872404e-22)
(-0.0681928754935 0.0700468272936 2.99069523256e-22)
(-0.0730275677199 0.0613913818191 2.79059667158e-22)
(-0.0722691331499 0.0851283325284 -1.87278861943e-23)
(-0.0766306473023 0.0750836686776 3.44775535651e-22)
(-0.0789243240545 0.101535271123 -1.44770087854e-22)
(-0.0819448560157 0.0898004504093 -1.17435068278e-22)
(-0.0888825696353 0.117684678572 7.32946340472e-22)
(-0.0900301353819 0.104886731744 2.0576237813e-22)
(-0.101727998438 0.132529042479 1.50188748148e-21)
(-0.101042175816 0.119359430166 1.10546760405e-21)
(-0.116869761505 0.145777075776 2.24942470787e-21)
(-0.114461910049 0.132526258982 1.02838333035e-21)
(-0.134122793103 0.157532941525 9.27869945458e-22)
(-0.129882015218 0.144065045388 1.58182079227e-21)
(-0.154005821754 0.16752209094 4.38347227053e-22)
(-0.147281969155 0.154018283909 -2.85931149317e-23)
(-0.167604941018 0.16120607158 1.2246104854e-21)
(-0.0705714177333 0.00978142016971 3.96241077306e-22)
(-0.0733425765196 0.00602228522771 4.15576810319e-21)
(-0.0730208733041 0.0200722856038 -1.48728734149e-21)
(-0.0772064468271 0.0141298834136 -1.81432149163e-21)
(-0.0744056483155 0.0307086209212 4.34370638714e-22)
(-0.0787421419978 0.0244625079926 1.66371095418e-22)
(-0.0760591827196 0.0418387438218 7.64178249373e-22)
(-0.0803331822485 0.0352774246371 8.3708721084e-22)
(-0.0784048174941 0.0536142430613 3.57656816006e-22)
(-0.0824957684009 0.046331481077 3.80120647682e-22)
(-0.0818275843497 0.0661306179833 3.24765679553e-22)
(-0.0855439316157 0.0579132748429 3.35854253338e-22)
(-0.0867347989026 0.0793354068024 2.46068353567e-22)
(-0.0898354140601 0.070091659948 3.17205167122e-22)
(-0.0936524243383 0.0930927453353 2.33097397706e-22)
(-0.0957021657475 0.0827529137595 1.25116165843e-22)
(-0.102970414713 0.106659837031 5.78283641704e-22)
(-0.10359719538 0.0954936278007 4.15908842577e-22)
(-0.114597364763 0.119291584821 6.31963452921e-22)
(-0.113673892724 0.107720404814 7.39628220669e-22)
(-0.128236403793 0.130560233169 3.60779414756e-22)
(-0.125730532952 0.118901752278 5.06559997406e-22)
(-0.143687795402 0.140171735689 6.25357731884e-22)
(-0.139493506931 0.128615886453 4.10530430737e-22)
(-0.161128688937 0.147643146175 7.57670143414e-22)
(-0.154753392493 0.136568114989 4.87342653493e-22)
(-0.171753716917 0.141668898139 6.93019994063e-22)
(-0.0804199414056 0.00935446755291 1.94520553425e-21)
(-0.082697095268 0.00568099230792 4.0548327112e-21)
(-0.0832518074312 0.0191434119903 -1.60663054722e-22)
(-0.0869954350216 0.0134373522546 -1.11413621556e-21)
(-0.0849898302333 0.0291949665587 5.69087667544e-22)
(-0.0887937265719 0.0231581219055 3.77950841674e-22)
(-0.0871027035262 0.0395856719135 4.53029609149e-22)
(-0.0907239007158 0.0332530585763 7.24119318636e-22)
(-0.0899837876515 0.0503912290084 3.58318085014e-22)
(-0.0933013216248 0.043442538346 3.14735091247e-22)
(-0.0939259778647 0.0616340428003 3.28293740907e-22)
(-0.0967867268977 0.0539347109936 2.82556848509e-22)
(-0.0992179330115 0.0732320881054 1.96252979398e-22)
(-0.101433429983 0.0647515965544 2.41206440425e-22)
(-0.1061524475 0.0849987672763 3.07927610713e-22)
(-0.107468808979 0.0757535012 9.92526534117e-23)
(-0.114931364297 0.0965104982065 5.77253421541e-22)
(-0.115108888205 0.086658383777 4.19344406101e-22)
(-0.125529475333 0.107272584055 6.14224765154e-22)
(-0.124435942891 0.0970826371558 6.39817646911e-22)
(-0.13775572498 0.116884833736 5.56311013387e-22)
(-0.135342754776 0.106636332854 4.232635982e-22)
(-0.151352136493 0.124987839042 2.72515352346e-22)
(-0.147596501965 0.114954807804 4.02511196836e-22)
(-0.166083518144 0.131068996845 4.22692504142e-22)
(-0.160834565782 0.121712012543 -4.72735046082e-23)
(-0.174550684703 0.126097825176 1.23533187585e-22)
(-0.0897284879329 0.0088228321804 9.9549096139e-22)
(-0.0915199675969 0.00528906753511 2.29176493913e-21)
(-0.0928675158982 0.0180009589257 -5.75522319161e-22)
(-0.0961735946436 0.0126119767056 -1.80368249598e-21)
(-0.094851846726 0.0273701555551 5.32982492766e-22)
(-0.0981629438503 0.0216383362625 -1.6535366269e-22)
(-0.0972572099885 0.0369567179939 5.85824800735e-22)
(-0.100310469038 0.0309463038297 6.17689209623e-22)
(-0.100452944284 0.0467893914514 2.38973854742e-22)
(-0.103133986072 0.0402495434684 2.40991922426e-22)
(-0.104663615311 0.0568542720766 1.95469548027e-22)
(-0.106851585501 0.0497015341134 1.31787189863e-22)
(-0.110086031719 0.067062864905 1.44206114439e-22)
(-0.111641990987 0.0592996098262 1.45327152332e-22)
(-0.116887437782 0.077244354321 2.10669448799e-22)
(-0.117650260727 0.0689144645319 5.77473105064e-23)
(-0.125166780977 0.0871204849537 4.81908631471e-22)
(-0.124984979678 0.078338549375 2.10148306656e-22)
(-0.13489866655 0.0963594220129 4.48856479958e-22)
(-0.133674844053 0.0873107939486 2.9719805815e-22)
(-0.145932422465 0.10465436185 2.69463781649e-22)
(-0.14363766753 0.0955567680524 2.03939310067e-23)
(-0.157993165175 0.11174142082 8.27223398815e-23)
(-0.154683552318 0.102822199169 1.35667575392e-22)
(-0.170613867005 0.117387105777 -3.46432821165e-22)
(-0.166480267825 0.108931146468 -8.44147586245e-23)
(-0.178410603665 0.113628073077 -1.32770348541e-22)
(-0.0984136482486 0.00822135928909 -5.07408518237e-22)
(-0.0997413581495 0.00486160637531 7.87456898424e-22)
(-0.101791412929 0.016721476053 -1.3935138395e-21)
(-0.104673735868 0.0117007325455 -2.1831743924e-21)
(-0.103937506368 0.0253530852654 -8.06469458324e-23)
(-0.106794567186 0.0199843748655 -3.79456137807e-22)
(-0.106512811318 0.03411069766 2.72856331315e-22)
(-0.109068083297 0.0284756685532 3.28587195767e-22)
(-0.109871238339 0.0429957170905 1.33805257548e-22)
(-0.11201899498 0.0368997932138 1.94354339436e-22)
(-0.114187497757 0.051977805978 8.16447941682e-23)
(-0.115833652893 0.0453709929271 1.15469517291e-22)
(-0.119592637001 0.0609734095729 5.88683483993e-23)
(-0.120637564714 0.053874663067 1.31283107616e-22)
(-0.126180960379 0.0698417535351 5.72261683625e-23)
(-0.126518569844 0.0623010780292 9.47303188356e-23)
(-0.133994898392 0.0783858763918 2.54377333343e-23)
(-0.133529067293 0.0704946698288 1.38523845247e-22)
(-0.143000385348 0.0863792780946 -1.31264490801e-22)
(-0.141668214323 0.0782711930292 -1.03849638085e-23)
(-0.153077395812 0.0936081040485 -1.1340227525e-22)
(-0.150866470789 0.0854403795218 -1.08355347324e-22)
(-0.164013799857 0.0999068987709 -3.14695231144e-23)
(-0.160982341797 0.0918366918635 -6.68483383559e-24)
(-0.175493148519 0.10523016057 1.29247714e-22)
(-0.171803548024 0.0973967579395 1.0011497423e-22)
(-0.183115623386 0.102165696582 4.97485206181e-22)
(-0.106427132011 0.00757363340091 -8.88308975735e-22)
(-0.107315015725 0.00441085158043 3.67598154459e-22)
(-0.10998262322 0.0153580703115 -1.1691166907e-21)
(-0.112458191366 0.0107365693612 -9.29301801599e-22)
(-0.112225407382 0.0232264937434 2.97780037923e-23)
(-0.114663000896 0.0182536755154 -1.5517958449e-23)
(-0.114883733627 0.0311552496332 2.50085203888e-22)
(-0.116996839709 0.0259230345249 4.23900837765e-22)
(-0.118303406766 0.0391311016389 1.76018599179e-22)
(-0.119994837537 0.0334905734367 2.17779981258e-22)
(-0.122623156403 0.0471177721796 1.65107830739e-22)
(-0.123820305158 0.0410410450491 1.58699670295e-22)
(-0.127928400183 0.0550410155563 1.67145078053e-22)
(-0.128560782999 0.0485548335689 1.7271514005e-22)
(-0.13426928003 0.0627892630463 1.7602799572e-22)
(-0.134266789426 0.0559418235204 6.98204659779e-23)
(-0.141657139988 0.0702183188034 1.02701148105e-22)
(-0.140958095833 0.0630840247998 1.6452328297e-22)
(-0.150053299333 0.0771684147371 1.25241796685e-23)
(-0.148618287035 0.0698476428526 1.26133532081e-22)
(-0.159364884443 0.0834885111086 -1.6379059097e-24)
(-0.157186552326 0.0760978952746 -1.08911098713e-22)
(-0.169452637195 0.089068911235 1.24899663509e-22)
(-0.1665627417 0.0817172067392 3.0108874841e-23)
(-0.180184789213 0.0938946459796 4.68352466411e-22)
(-0.176629303209 0.0866494387482 -3.50314148932e-23)
(-0.187374513816 0.0908396065401 2.63939879655e-22)
(-0.113742055516 0.00689828950738 3.26605328595e-22)
(-0.117423070339 0.0139495935596 2.24296930651e-22)
(-0.119714502576 0.0210484933759 3.78604875524e-22)
(-0.122396679466 0.0281627168024 3.91595615135e-22)
(-0.125812483737 0.0352721774368 2.00461052374e-22)
(-0.130074886285 0.0423401591074 1.66306979606e-22)
(-0.135237925962 0.0493030051204 7.53905279755e-23)
(-0.141324041612 0.0560722045691 5.83157532279e-23)
(-0.14832699467 0.062540767992 1.87955666947e-22)
(-0.147426642293 0.0560626096305 1.29298314275e-22)
(-0.156206257713 0.0685920401635 4.69825370028e-24)
(-0.154669547718 0.0619457719202 2.00449362256e-22)
(-0.164886343193 0.0741162676764 -7.7164317962e-23)
(-0.162710772669 0.0673923049714 -2.05589723419e-23)
(-0.174268404319 0.0790200876588 -1.29822203561e-22)
(-0.171466569265 0.0723096590369 8.9956662171e-23)
(-0.184278391196 0.0832347067981 -2.3944400165e-22)
(-0.180843947418 0.0766244366621 -1.07494656751e-23)
(-0.19078369335 0.080205517688 -7.0989149844e-23)
(-0.154132524497 0.0552874487803 1.41792009584e-22)
(-0.16157156474 0.060550060959 1.75192136214e-22)
(-0.169720832087 0.0653684737506 1.46562007791e-22)
(-0.178491807704 0.0696663649194 2.09029400057e-22)
(-0.175764474553 0.0635138336989 6.42522601767e-23)
(-0.187790021892 0.0733652676913 1.57705386131e-22)
(-0.184542878582 0.0672987078741 7.80797075257e-23)
(-0.193757180612 0.0704725450423 -1.30225169188e-22)
(-0.182209513235 0.0609106469016 -6.66974323543e-23)
(-0.190926089542 0.0641914183852 -2.09850847793e-22)
(-0.19649208882 0.0614289421006 -9.84061577824e-23)
)
;

boundaryField
{
    back
    {
        type            calculated;
        value           uniform (0 0 0);
    }
    sides
    {
        type            calculated;
        value           nonuniform List<vector> 0();
    }
    bottom
    {
        type            calculated;
        value           uniform (0 0 0);
    }
    front
    {
        type            calculated;
        value           uniform (0 0 0);
    }
    atmosphere
    {
        type            calculated;
        value           nonuniform List<vector> 0();
    }
    floatingObject
    {
        type            calculated;
        value           nonuniform List<vector> 4((0 -4.4408920985e-15 5.55111512313e-16) (0 -4.4408920985e-15 5.55111512313e-16) (0 0 0) (0 -8.881784197e-15 5.55111512313e-16));
    }
    procBoundary8to3
    {
        type            processor;
        value           nonuniform List<vector> 8((-0.0151675151331 0.00556255167823 2.4199942358e-21) (-0.0157281202012 0.0120346723098 1.86441368346e-21) (-0.0146736780026 0.021116036287 6.4001104675e-22) (-0.0118493490287 0.0298274870549 2.66906517288e-21) (-0.0064807841038 0.0380042532734 2.53008857763e-20) (0.00245762501426 0.0463336269013 1.88249293757e-19) (0.0173596999843 0.0508839874539 1.02423531132e-18) (0.0440822483571 0.0634537739727 5.50311636926e-18));
    }
    procBoundary8to6
    {
        type            processor;
        value           nonuniform List<vector> 
16
(
(-0.121473115813 0.190783627344 1.13922984428e-17)
(-0.114051840109 0.183679172342 5.7785099528e-18)
(-0.125109825668 0.240672871683 4.48527715994e-18)
(-0.135057776822 0.243836074054 2.37215714588e-19)
(-0.155093963846 0.224901315131 7.33549771841e-20)
(-0.168094826617 0.200394474121 -3.25829864776e-20)
(-0.177221381998 0.175081769952 1.0436913417e-20)
(-0.181078051214 0.151791888827 -1.8811564417e-21)
(-0.181737059858 0.133865928431 3.41744028019e-22)
(-0.182708708569 0.121246987719 3.92791643375e-22)
(-0.186945612272 0.109935143527 -2.16267923256e-21)
(-0.19158163238 0.0981535000381 -5.67591985752e-23)
(-0.194951756655 0.0866438494261 8.34529048283e-22)
(-0.197500672031 0.0763387181036 -5.59365495896e-22)
(-0.199950567694 0.0669262975431 4.4719184368e-22)
(-0.202300092618 0.058063368234 -2.89398529062e-22)
)
;
    }
    procBoundary8to7
    {
        type            processor;
        value           nonuniform List<vector> 
17
(
(-0.114213323553 0.00394803050715 1.09322221726e-22)
(-0.119509509493 0.00974423046595 -6.04763058128e-22)
(-0.121761908668 0.0164877779126 3.23695945659e-23)
(-0.124111063779 0.0233450471883 3.33980255925e-22)
(-0.127104291479 0.0300853930049 1.6005746146e-22)
(-0.130888273448 0.036770884456 1.04554716792e-22)
(-0.135523610987 0.0433805460235 1.1731735679e-22)
(-0.141035969515 0.0498413461131 3.00065769714e-23)
(-0.147471648969 0.0496661596462 1.00989138018e-22)
(-0.153047917268 0.0493864155289 1.0649573066e-22)
(-0.159932154704 0.0544879002503 7.68566956528e-23)
(-0.167529190179 0.0592209797665 -2.2945689961e-23)
(-0.173945582116 0.0571468368292 -1.05255437575e-22)
(-0.179528304564 0.0552273166793 9.1253054812e-23)
(-0.187823682466 0.0585580851701 -2.1978132927e-22)
(-0.193755208545 0.0555535920153 -1.08336639259e-22)
(-0.19900191255 0.0528666684645 7.672282966e-23)
)
;
    }
}


// ************************************************************************* //
