/*--------------------------------*- C++ -*----------------------------------*\
| =========                 |                                                 |
| \\      /  F ield         | OpenFOAM: The Open Source CFD Toolbox           |
|  \\    /   O peration     | Version:  v2012                                 |
|   \\  /    A nd           | Website:  www.openfoam.com                      |
|    \\/     M anipulation  |                                                 |
\*---------------------------------------------------------------------------*/
FoamFile
{
    version     2.0;
    format      ascii;
    class       volScalarField;
    location    "1.8";
    object      alpha.water;
}
// * * * * * * * * * * * * * * * * * * * * * * * * * * * * * * * * * * * * * //

dimensions      [0 0 0 0 0 0 0];


internalField   nonuniform List<scalar> 
166
(
1.00000010124
1.00000012453
1.0000001413
1.00000016074
1.00000017304
1.00000019322
1.00000020797
1.00000024156
1.00000031273
1.00000039798
1.00000048837
1.00000056022
1.00000053934
1.00000018977
0.999999999414
1
0.999386948812
0.555363132076
3.79468962613e-16
-3.17402778203e-23
1.00000010321
1.00000011981
1.00000012455
1.00000013521
1.00000015133
1.00000017535
1.00000021851
1.00000028795
1.0000003754
1.000000473
1.00000056389
1.00000061206
1.00000054058
1.00000015946
1
1.00000000001
0.999145750511
0.544554525213
6.07337900294e-19
-2.56104532563e-24
1.00000013687
1.0000001578
1.00000016634
1.00000017609
1.00000019306
1.000000228
1.00000028318
1.00000035938
1.00000045121
1.00000055044
1.00000063438
1.0000006557
1.00000053562
1.00000012663
1
1.00000000001
0.99897993459
0.537677523808
1.384882871e-22
-9.27379832821e-31
1.00000017349
1.00000020063
1.00000021403
1.00000022974
1.00000024935
1.0000002891
1.00000034905
1.0000004291
1.00000052456
1.00000062804
1.00000071014
1.00000070524
1.00000053315
1.00000010412
1
1.00000000001
0.998831076838
0.532383090517
-4.19003373033e-49
-9.66742984273e-39
1.00000021384
1.00000025041
1.00000026782
1.0000002912
1.00000031169
1.00000035553
1.0000004195
1.00000050153
1.00000060188
1.00000071459
1.0000008034
1.00000076967
1.00000053429
1.00000007746
1
1
0.998637437882
0.526413563432
-2.87605455116e-33
-2.10117928404e-48
1.00000026295
1.00000031481
1.00000033309
1.00000037795
1.00000039892
1.0000004486
1.00000051494
1.00000059682
1.00000069983
1.00000082571
1.00000092114
1.00000086005
1.00000054092
1.0000000486
1
0.999999999958
0.998287890897
0.518203131709
-8.98767307381e-35
0
1.00000032829
1.00000041457
1.00000045562
1.00000048851
1.00000050536
1.00000054799
1.00000062273
1.00000068835
1.00000080147
1.00000092912
1.00000108898
1.00000094121
1.00000050481
1.00000002083
1
0.999999999761
0.997546859014
0.507037644437
0
-2.57139389242e-39
1.00000045439
1.00000059012
1.00000050002
1.00000058817
1.00000056331
1.00000062434
1.00000067115
1.0000007533
1.0000008505
1.00000106846
1.00000112059
1.00000105493
1.00000043313
1.00000002652
1
0.999999999823
0.995605854676
0.492664324467
1.48687120166e-23
-6.74113346741e-30
1.00000056424
1.00000065953
1.00000057215
1.00000066153
1.00000068625
1.00000074819
)
;

boundaryField
{
    back
    {
        type            zeroGradient;
    }
    sides
    {
        type            zeroGradient;
    }
    bottom
    {
        type            zeroGradient;
    }
    front
    {
        type            zeroGradient;
    }
    atmosphere
    {
        type            inletOutlet;
        inletValue      uniform 0;
        value           nonuniform List<scalar> 8(0 0 0 0 0 0 0 -6.74113346741e-30);
    }
    floatingObject
    {
        type            zeroGradient;
    }
    procBoundary9to6
    {
        type            processor;
        value           nonuniform List<scalar> 4(0.999711913765 0.572907539418 1.07949370743e-12 -9.61982681368e-22);
    }
    procBoundary9to7
    {
        type            processor;
        value           nonuniform List<scalar> 
16
(
1.00000002528
1.00000003403
1.0000000292
1.00000004211
1.00000007036
1.00000008073
1.00000009866
1.00000013281
1.00000023221
1.00000036307
1.00000050953
1.00000064285
1.00000068241
1.00000036619
0.999999998648
0.999999999893
)
;
    }
    procBoundary9to10
    {
        type            processor;
        value           nonuniform List<scalar> 
15
(
1.00000071395
1.00000065789
1.00000069253
1.00000076211
1.00000080826
1.0000009502
1.00000105147
1.00000132326
1.00000091703
1.00000071395
1.00000060018
1.00000091703
1.00000084851
1.00000071746
1.00000071625
)
;
    }
    procBoundary9to11
    {
        type            processor;
        value           nonuniform List<scalar> 9(1.00000103918 1.00000038242 1.00000006736 1 0.999999999492 0.993174959086 0.477502248013 8.25487217738e-23 3.56547555216e-10);
    }
}


// ************************************************************************* //
