/*--------------------------------*- C++ -*----------------------------------*\
| =========                 |                                                 |
| \\      /  F ield         | OpenFOAM: The Open Source CFD Toolbox           |
|  \\    /   O peration     | Version:  v2012                                 |
|   \\  /    A nd           | Website:  www.openfoam.com                      |
|    \\/     M anipulation  |                                                 |
\*---------------------------------------------------------------------------*/
FoamFile
{
    version     2.0;
    format      ascii;
    class       volScalarField;
    location    "1.8";
    object      epsilon;
}
// * * * * * * * * * * * * * * * * * * * * * * * * * * * * * * * * * * * * * //

dimensions      [0 2 -3 0 0 0 0];


internalField   nonuniform List<scalar> 
166
(
0.00689225935312
0.00709932876263
0.0076719587932
0.00784372117146
0.00789493030961
0.00791680945263
0.00793418801359
0.00795278596213
0.0079738173251
0.00799796371313
0.00802751856689
0.00807189753437
0.00816452095683
0.00840664703295
0.00906651623122
0.0108407237766
0.0158766374506
0.0314466500487
0.0743532446085
0.172989396956
0.00688441146977
0.00708886237944
0.00765844221581
0.0078285835914
0.00787908288216
0.00790060245919
0.00791769650822
0.00793601993645
0.00795676845961
0.00798069260247
0.00801044338604
0.00805662908635
0.00815595139615
0.00841650400622
0.00911396174547
0.0109265652197
0.0158844341889
0.031139441764
0.0747595932386
0.173759885344
0.0068745455948
0.00707676295076
0.00764352327262
0.00781222120601
0.00786214048709
0.00788342008539
0.00790036096006
0.00791851737161
0.00793912048759
0.00796300867562
0.00799317800097
0.00804143188272
0.00814770663575
0.00842679644941
0.00916113869443
0.0110068937676
0.015844123459
0.0304997788745
0.0736021975414
0.173372707436
0.00686272060127
0.00706324634059
0.00762735363405
0.00779475150514
0.00784418225625
0.00786530812246
0.00788220890395
0.007900359631
0.00792096163002
0.00794494409186
0.007975714495
0.00802627082984
0.00813989332111
0.00843794597559
0.00920986717417
0.0110935244409
0.0158069590206
0.0297061192381
0.0715511530493
0.17236244588
0.00684902314036
0.00704834713151
0.00760996661742
0.00777621180944
0.0078252730846
0.00784634739898
0.00786329700568
0.00788153888567
0.00790228631582
0.0079265501568
0.00795809585605
0.00801123052475
0.00813261822347
0.00845072960706
0.00926359030127
0.0111934659338
0.0158010962949
0.0288683419019
0.0687048458831
0.170853091379
0.00683359309917
0.00703221278828
0.00759145877074
0.00775666001999
0.00780546105881
0.00782658843734
0.00784369470148
0.00786213966164
0.0078831344063
0.00790781115458
0.0079403236868
0.00799630154169
0.00812598849779
0.00846577703707
0.00932454735404
0.0113166863392
0.0158459185902
0.0279669734727
0.0647376325396
0.168402603868
0.00681652682446
0.00701489882779
0.00757192645069
0.0077361961004
0.0077848039695
0.00780606794765
0.00782343440486
0.00784219312065
0.00786356102589
0.00788877124064
0.00792240920253
0.00798146945846
0.00812000477997
0.00848316028218
0.00939534227837
0.0114725227079
0.0159415715842
0.0267583097648
0.0588424766628
0.15934178566
0.00679807505984
0.00699644557447
0.00755136131379
0.0077148128173
0.007763331111
0.00778482295762
0.00780254782371
0.00782172079922
0.0078435669619
0.00786942305304
0.00790431555688
0.00796663205074
0.00811433929
0.0085016991609
0.00947000528457
0.0116384553511
0.0159813742078
0.0245096381975
0.0437009498046
0.0753921081053
0.00677807287238
0.00697685484718
0.00752976894376
0.00675718559316
0.00673535163742
0.00671248894507
)
;

boundaryField
{
    back
    {
        lowReCorrection 0;
        blending        stepwise;
        n               2;
        type            epsilonWallFunction;
        value           nonuniform List<scalar> 
166
(
0.00689225935312
0.00709932876263
0.0076719587932
0.00784372117146
0.00789493030961
0.00791680945263
0.00793418801359
0.00795278596213
0.0079738173251
0.00799796371313
0.00802751856689
0.00807189753437
0.00816452095683
0.00840664703295
0.00906651623122
0.0108407237766
0.0158766374506
0.0314466500487
0.0743532446085
0.172989396956
0.00688441146977
0.00708886237944
0.00765844221581
0.0078285835914
0.00787908288216
0.00790060245919
0.00791769650822
0.00793601993645
0.00795676845961
0.00798069260247
0.00801044338604
0.00805662908635
0.00815595139615
0.00841650400622
0.00911396174547
0.0109265652197
0.0158844341889
0.031139441764
0.0747595932386
0.173759885344
0.0068745455948
0.00707676295076
0.00764352327262
0.00781222120601
0.00786214048709
0.00788342008539
0.00790036096006
0.00791851737161
0.00793912048759
0.00796300867562
0.00799317800097
0.00804143188272
0.00814770663575
0.00842679644941
0.00916113869443
0.0110068937676
0.015844123459
0.0304997788745
0.0736021975414
0.173372707436
0.00686272060127
0.00706324634059
0.00762735363405
0.00779475150514
0.00784418225625
0.00786530812246
0.00788220890395
0.007900359631
0.00792096163002
0.00794494409186
0.007975714495
0.00802627082984
0.00813989332111
0.00843794597559
0.00920986717417
0.0110935244409
0.0158069590206
0.0297061192381
0.0715511530493
0.17236244588
0.00684902314036
0.00704834713151
0.00760996661742
0.00777621180944
0.0078252730846
0.00784634739898
0.00786329700568
0.00788153888567
0.00790228631582
0.0079265501568
0.00795809585605
0.00801123052475
0.00813261822347
0.00845072960706
0.00926359030127
0.0111934659338
0.0158010962949
0.0288683419019
0.0687048458831
0.170853091379
0.00683359309917
0.00703221278828
0.00759145877074
0.00775666001999
0.00780546105881
0.00782658843734
0.00784369470148
0.00786213966164
0.0078831344063
0.00790781115458
0.0079403236868
0.00799630154169
0.00812598849779
0.00846577703707
0.00932454735404
0.0113166863392
0.0158459185902
0.0279669734727
0.0647376325396
0.168402603868
0.00681652682446
0.00701489882779
0.00757192645069
0.0077361961004
0.0077848039695
0.00780606794765
0.00782343440486
0.00784219312065
0.00786356102589
0.00788877124064
0.00792240920253
0.00798146945846
0.00812000477997
0.00848316028218
0.00939534227837
0.0114725227079
0.0159415715842
0.0267583097648
0.0588424766628
0.15934178566
0.00679807505984
0.00699644557447
0.00755136131379
0.0077148128173
0.007763331111
0.00778482295762
0.00780254782371
0.00782172079922
0.0078435669619
0.00786942305304
0.00790431555688
0.00796663205074
0.00811433929
0.0085016991609
0.00947000528457
0.0116384553511
0.0159813742078
0.0245096381975
0.0437009498046
0.0753921081053
0.00677807287238
0.00697685484718
0.00752976894376
0.00675718559316
0.00673535163742
0.00671248894507
)
;
    }
    sides
    {
        lowReCorrection 0;
        blending        stepwise;
        n               2;
        type            epsilonWallFunction;
        value           nonuniform List<scalar> 0();
    }
    bottom
    {
        lowReCorrection 0;
        blending        stepwise;
        n               2;
        type            epsilonWallFunction;
        value           nonuniform List<scalar> 
12
(
0.00689225935312
0.00688441146977
0.0068745455948
0.00686272060127
0.00684902314036
0.00683359309917
0.00681652682446
0.00679807505984
0.00677807287238
0.00675718559316
0.00673535163742
0.00671248894507
)
;
    }
    front
    {
        lowReCorrection 0;
        blending        stepwise;
        n               2;
        type            epsilonWallFunction;
        value           nonuniform List<scalar> 
166
(
0.00689225935312
0.00709932876263
0.0076719587932
0.00784372117146
0.00789493030961
0.00791680945263
0.00793418801359
0.00795278596213
0.0079738173251
0.00799796371313
0.00802751856689
0.00807189753437
0.00816452095683
0.00840664703295
0.00906651623122
0.0108407237766
0.0158766374506
0.0314466500487
0.0743532446085
0.172989396956
0.00688441146977
0.00708886237944
0.00765844221581
0.0078285835914
0.00787908288216
0.00790060245919
0.00791769650822
0.00793601993645
0.00795676845961
0.00798069260247
0.00801044338604
0.00805662908635
0.00815595139615
0.00841650400622
0.00911396174547
0.0109265652197
0.0158844341889
0.031139441764
0.0747595932386
0.173759885344
0.0068745455948
0.00707676295076
0.00764352327262
0.00781222120601
0.00786214048709
0.00788342008539
0.00790036096006
0.00791851737161
0.00793912048759
0.00796300867562
0.00799317800097
0.00804143188272
0.00814770663575
0.00842679644941
0.00916113869443
0.0110068937676
0.015844123459
0.0304997788745
0.0736021975414
0.173372707436
0.00686272060127
0.00706324634059
0.00762735363405
0.00779475150514
0.00784418225625
0.00786530812246
0.00788220890395
0.007900359631
0.00792096163002
0.00794494409186
0.007975714495
0.00802627082984
0.00813989332111
0.00843794597559
0.00920986717417
0.0110935244409
0.0158069590206
0.0297061192381
0.0715511530493
0.17236244588
0.00684902314036
0.00704834713151
0.00760996661742
0.00777621180944
0.0078252730846
0.00784634739898
0.00786329700568
0.00788153888567
0.00790228631582
0.0079265501568
0.00795809585605
0.00801123052475
0.00813261822347
0.00845072960706
0.00926359030127
0.0111934659338
0.0158010962949
0.0288683419019
0.0687048458831
0.170853091379
0.00683359309917
0.00703221278828
0.00759145877074
0.00775666001999
0.00780546105881
0.00782658843734
0.00784369470148
0.00786213966164
0.0078831344063
0.00790781115458
0.0079403236868
0.00799630154169
0.00812598849779
0.00846577703707
0.00932454735404
0.0113166863392
0.0158459185902
0.0279669734727
0.0647376325396
0.168402603868
0.00681652682446
0.00701489882779
0.00757192645069
0.0077361961004
0.0077848039695
0.00780606794765
0.00782343440486
0.00784219312065
0.00786356102589
0.00788877124064
0.00792240920253
0.00798146945846
0.00812000477997
0.00848316028218
0.00939534227837
0.0114725227079
0.0159415715842
0.0267583097648
0.0588424766628
0.15934178566
0.00679807505984
0.00699644557447
0.00755136131379
0.0077148128173
0.007763331111
0.00778482295762
0.00780254782371
0.00782172079922
0.0078435669619
0.00786942305304
0.00790431555688
0.00796663205074
0.00811433929
0.0085016991609
0.00947000528457
0.0116384553511
0.0159813742078
0.0245096381975
0.0437009498046
0.0753921081053
0.00677807287238
0.00697685484718
0.00752976894376
0.00675718559316
0.00673535163742
0.00671248894507
)
;
    }
    atmosphere
    {
        type            inletOutlet;
        inletValue      uniform 0.1;
        value           nonuniform List<scalar> 8(0.1 0.1 0.1 0.1 0.1 0.1 0.1 0.0753921081053);
    }
    floatingObject
    {
        lowReCorrection 0;
        blending        stepwise;
        n               2;
        type            epsilonWallFunction;
        value           nonuniform List<scalar> 0();
    }
    procBoundary9to6
    {
        type            processor;
        value           nonuniform List<scalar> 4(0.0157592378106 0.0312527445889 0.0721919230671 0.170563657094);
    }
    procBoundary9to7
    {
        type            processor;
        value           nonuniform List<scalar> 
16
(
0.00689774117386
0.00710800022867
0.00768389956212
0.00785748338038
0.00790954172017
0.00793189631571
0.00794967415241
0.0079686962909
0.00799019198506
0.00801474777581
0.00804432350315
0.0080871542957
0.00817336332659
0.00839701127449
0.00901723753287
0.0107368487707
)
;
    }
    procBoundary9to10
    {
        type            processor;
        value           nonuniform List<scalar> 
15
(
0.0076925391774
0.00774107638083
0.00776289840271
0.00778107257667
0.00780075640488
0.00782317933499
0.00784978711965
0.00788601441912
0.00695601364443
0.0076925391774
0.00750715800808
0.00695601364443
0.00693408805289
0.00691117330114
0.00668858370043
)
;
    }
    procBoundary9to11
    {
        type            processor;
        value           nonuniform List<scalar> 9(0.00795165754312 0.00810827635516 0.00851764483347 0.00953049302004 0.0117516473558 0.0159753590057 0.023227551596 0.035756164164 0.0518748482313);
    }
}


// ************************************************************************* //
