/*--------------------------------*- C++ -*----------------------------------*\
| =========                 |                                                 |
| \\      /  F ield         | OpenFOAM: The Open Source CFD Toolbox           |
|  \\    /   O peration     | Version:  v2012                                 |
|   \\  /    A nd           | Website:  www.openfoam.com                      |
|    \\/     M anipulation  |                                                 |
\*---------------------------------------------------------------------------*/
FoamFile
{
    version     2.0;
    format      ascii;
    class       surfaceScalarField;
    location    "1.8";
    object      phi;
}
// * * * * * * * * * * * * * * * * * * * * * * * * * * * * * * * * * * * * * //

dimensions      [0 3 -1 0 0 0 0];
oriented        oriented;


internalField   nonuniform List<scalar> 
300
(
-6.45658564362e-06
0.000156129541253
-1.34021091149e-05
0.000139101351406
-2.08556459353e-05
0.000134387387182
-2.86362180043e-05
0.000134564542085
-3.67927721439e-05
0.000136534142607
-4.54181599196e-05
0.000139237813662
-5.46296254046e-05
0.000142416168457
-6.43928406231e-05
0.000145788875321
-7.50985528152e-05
0.000149742466569
-8.67358848089e-05
0.000153578937793
-9.95361248523e-05
0.000157306716301
-0.000113768046397
0.000160597690696
-0.000129677243209
0.000162948039015
-0.000148071521678
0.000164819121411
-0.000169542955464
0.000166065375034
-0.000196003788094
0.000166292371951
-0.000233096457287
0.00016718632233
-0.000291658219866
0.000186482364132
-0.000344860131289
0.000185517586227
5.64231616976e-05
-5.79714193873e-06
0.000161926409669
-1.23666154131e-05
0.000145670453706
-1.91799842399e-05
0.000141200296925
-2.64012645801e-05
0.000141785291135
-3.40617799673e-05
0.000144194094588
-4.22388251273e-05
0.000147414338128
-5.10064052942e-05
0.000151183383312
-6.07346062205e-05
0.000155517006424
-7.12885229596e-05
0.00016029675484
-8.30049051845e-05
0.00016529624432
-9.62223557779e-05
0.000170525671527
-0.000111226278477
0.0001756036026
-0.000128555693425
0.000180279710037
-0.000148744876479
0.000185010555402
-0.000173003813323
0.00019032624541
-0.000203513328799
0.000196803139551
-0.000247156821139
0.000210830189037
-0.000314438955175
0.000253763168853
-0.00037770429868
0.000248779596735
0.000113288582031
-5.10178172576e-06
0.000167027833871
-1.09410576799e-05
0.000151509289176
-1.71571863721e-05
0.000147415928264
-2.3751757489e-05
0.000148379335775
-3.08217003888e-05
0.000151263527701
-3.84801129953e-05
0.00015507233048
-4.66711571798e-05
0.000159374198206
-5.59390951634e-05
0.000164785023412
-6.6192404767e-05
0.00017055056492
-7.78695502042e-05
0.00017697438599
-9.11119175711e-05
0.000183769530267
-0.000106536880821
0.000191030453475
-0.000124323824417
0.000198068743794
-0.000145589157875
0.000206277940348
-0.000171281109741
0.000216019937245
-0.000203380953929
0.000228904097211
-0.000249450355436
0.000256899932278
-0.00032007341944
0.000324385673951
-0.000382420449353
0.000311125206603
0.000168520580551
-4.32374204178e-06
0.000171351135113
-9.40235783471e-06
0.000156587398031
-1.48388547479e-05
0.00015285188801
-2.06042475238e-05
0.000154144197823
-2.69547251386e-05
0.000157613531563
-3.38289429437e-05
0.000161946203287
-4.16091947066e-05
0.000167154327872
-5.01858845442e-05
0.000173361914343
-5.97384341633e-05
0.00018010372841
-7.0940886289e-05
0.000188177910786
-8.391662161e-05
0.00019674677449
-9.89662724917e-05
0.000206081944685
-0.000117032998639
0.00021613746205
-0.000138260371536
0.000227507239111
-0.000163814885504
0.000241576063131
-0.000196195810721
0.000261286043825
-0.000241071847104
0.000301776280892
-0.000310218134116
0.000393531794017
-0.000371125682077
0.000372032353008
0.000225130192555
-3.39093127059e-06
0.000174741568147
-7.53811983977e-06
0.00016073404128
-1.21391155483e-05
0.000157452331085
-1.7216043772e-05
0.000159220607286
-2.26139684615e-05
0.000163011021787
-2.86153736919e-05
0.000167947326043
-3.5378366878e-05
0.000173917276442
-4.3026358535e-05
0.000181010185847
-5.20597496243e-05
0.000189137795572
-6.23440154775e-05
0.00019846327607
-7.45023818162e-05
0.000208906627274
-8.89488099404e-05
0.000220530138837
-0.000106301563065
0.000233492094163
-0.000126871080777
0.000248078555311
-0.000151705830241
0.000266412301007
-0.000182366454897
0.00029194760217
-0.000223249933777
0.000342660038565
-0.000286914541146
0.000457196436316
-0.00034544166308
0.000430559695489
0.000284560400792
-2.38415587762e-06
0.000177125207469
-5.60113967982e-06
0.000163950482969
-9.18375378427e-06
0.000161034416067
-1.32057204649e-05
0.00016324205186
-1.76335979222e-05
0.000167438469568
-2.25712206759e-05
0.000172884680025
-2.83045007934e-05
0.000179650539006
-3.49180095024e-05
0.000187624009358
-4.26889119018e-05
0.000196909411109
-5.18814216134e-05
0.000207656917108
-6.28663415417e-05
0.000219893021709
-7.61345260365e-05
0.000233800129911
-9.21798267882e-05
0.000249539322217
-0.000111771512544
0.000267672086146
-0.000135205103957
0.000289847419592
-0.000163837246843
0.000320580724984
-0.00019841679632
0.000377239909116
-0.000250973169641
0.000509752966912
-0.000302227608016
0.000481815252293
0.000337979086557
-1.27550790438e-06
0.000178400227713
-3.48941592313e-06
0.000166163876148
-5.88506682801e-06
0.000163429434953
-8.77295531403e-06
0.000166129381685
-1.20708387795e-05
0.00017073588763
-1.58962105069e-05
0.000176709782528
-2.03301046882e-05
0.000184084428338
-2.55862168946e-05
0.00019288048224
-3.19405139635e-05
0.00020326450234
-3.96475463901e-05
0.000215365115892
-4.89680372747e-05
0.000229215394404
-6.05929755823e-05
0.000245427139073
-7.48782759088e-05
0.000263826794404
-9.28418334525e-05
0.000285637619286
-0.000115586998396
0.00031259429903
-0.000143887794929
0.000348882535767
-0.000172647315289
0.000405999762414
-0.000198424928713
0.000535531039343
-0.000228850199598
0.000512242764403
0.000347925426923
-2.25931979317e-07
0.000178625646393
-1.16034305956e-06
0.000167097651696
-2.38557353585e-06
0.000164654095134
-4.10449028701e-06
-6.08272954282e-06
-8.50924497818e-06
-1.14771657203e-05
-1.51949774878e-05
-1.98521628144e-05
-2.55898861028e-05
-3.29972367953e-05
-4.22524267634e-05
-5.41963200161e-05
-6.98719096224e-05
-9.11373562132e-05
-0.000119486387806
-0.000146190887631
-0.000130013429236
-6.89263404111e-05
9.99729315825e-07
0.000177625435515
1.50757987873e-06
0.000175288576759
0.000171608279733
)
;

boundaryField
{
    back
    {
        type            calculated;
        value           uniform 0;
    }
    sides
    {
        type            calculated;
        value           nonuniform List<scalar> 0();
    }
    bottom
    {
        type            calculated;
        value           uniform 0;
    }
    front
    {
        type            calculated;
        value           uniform 0;
    }
    atmosphere
    {
        type            calculated;
        value           nonuniform List<scalar> 8(-0.000390208436661 -0.000434570975404 -0.000437652911779 -0.000427735309436 -0.000404871556457 -0.000355645349825 -0.000238795202476 0.000117853756051);
    }
    floatingObject
    {
        type            calculated;
        value           nonuniform List<scalar> 0();
    }
    procBoundary9to6
    {
        type            processor;
        value           nonuniform List<scalar> 4(-0.000130092545892 -0.000127923324266 -0.000132328186533 -1.10832388632e-05);
    }
    procBoundary9to7
    {
        type            processor;
        value           nonuniform List<scalar> 
16
(
-0.000149673296226
-0.000132156318404
-0.00012693452754
-0.000126784844259
-0.000128378612992
-0.000130613481272
-0.000133205588737
-0.000136026110658
-0.000139036469127
-0.000141940324168
-0.00014450407384
-0.000146362356416
-0.000147034777189
-0.000146420604585
-0.00014459007662
-0.000139828703852
)
;
    }
    procBoundary9to10
    {
        type            processor;
        value           nonuniform List<scalar> 
15
(
0.000167847703706
0.000172713689897
0.000179136031229
0.000187052360324
0.000196598666843
0.000207922439584
0.000221104448144
0.000236624528877
0.000166589351906
1.20098121068e-06
0.000164960155172
2.33659932518e-06
3.6803084054e-06
5.07366536967e-06
0.000166534669072
)
;
    }
    procBoundary9to11
    {
        type            processor;
        value           nonuniform List<scalar> 9(0.000254684773501 0.000275772834652 0.000301315292737 0.000333861332821 0.000377232603693 0.000432704591689 0.000519354353003 0.000451158321613 0.000161146858279);
    }
}


// ************************************************************************* //
