/*--------------------------------*- C++ -*----------------------------------*\
| =========                 |                                                 |
| \\      /  F ield         | OpenFOAM: The Open Source CFD Toolbox           |
|  \\    /   O peration     | Version:  v2012                                 |
|   \\  /    A nd           | Website:  www.openfoam.com                      |
|    \\/     M anipulation  |                                                 |
\*---------------------------------------------------------------------------*/
FoamFile
{
    version     2.0;
    format      ascii;
    class       volVectorField;
    location    "1";
    object      ddt0(rho,U);
}
// * * * * * * * * * * * * * * * * * * * * * * * * * * * * * * * * * * * * * //

dimensions      [1 -2 -2 0 0 0 0];


internalField   nonuniform List<vector> 
164
(
(-72.7675256035 -64.4655210699 2.97528289758e-23)
(-76.8236804417 -75.7265341015 -4.59268525392e-19)
(-81.3942879901 -88.0490655356 5.80566681039e-19)
(-86.3564683956 -101.906112331 -4.10332330068e-19)
(-91.8320857023 -118.311265983 -2.50151637772e-19)
(-98.3408909942 -138.743198182 -3.24891621955e-18)
(-106.899827661 -164.458156231 -1.45988159734e-18)
(-117.016956551 -200.614420869 1.11320395977e-18)
(-130.398609619 -226.297818843 -5.70144721877e-17)
(-160.748262779 -262.670587126 7.06386905996e-17)
(-191.177807249 -215.784693093 1.05278182592e-16)
(-250.452816899 -230.51515696 -2.88633188587e-17)
(-3.59829767537 1.14000662824 -1.93697697141e-20)
(-55.9782529107 -4.34899986237 2.1157533537e-18)
(-54.5900200882 -12.1194654597 2.46908297357e-18)
(-54.0744758709 -19.8532073941 -1.81177920412e-19)
(-54.4650919562 -28.2175898806 1.40376643654e-19)
(-56.8507866452 -46.4211636116 -2.6459931077e-20)
(-58.7665049418 -56.6075949904 -4.02272410388e-21)
(-61.2915070846 -67.662690336 5.87783508555e-20)
(-64.4852890451 -79.4378011441 -2.09526054519e-19)
(-67.9389889082 -91.9762458596 -7.73063333668e-19)
(-71.0478293686 -105.879050647 -1.89536632819e-19)
(-73.4257266964 -122.446354886 -1.84833248383e-18)
(-74.9355779997 -143.416659262 -1.30998758478e-18)
(-75.9539880373 -170.045941535 4.41624716666e-18)
(-76.9119152701 -207.229020738 2.71683602963e-18)
(-85.1375254978 -240.145434777 -6.22276833523e-17)
(-120.619244894 -292.097080822 4.54880050025e-18)
(-153.118922842 -264.577134139 -4.08298754452e-17)
(-448.085567817 -221.612395666 9.3431252849e-16)
(-9.12083879465 5.02184647758 2.23961606382e-18)
(-47.9045959436 -4.5359517987 4.63986917314e-18)
(-46.5437209855 -12.3397370241 3.44476367742e-18)
(-45.7775850562 -20.2413524761 3.47728443593e-19)
(-45.6626990917 -28.8380739916 2.42548302422e-19)
(-45.9454912936 -37.8647469416 -4.92502266484e-20)
(-46.5113591067 -47.6512283572 -4.95092185104e-19)
(-47.4924663309 -58.3973360808 -4.91881986644e-20)
(-49.228180136 -70.097653357 -1.06654092056e-18)
(-51.9213704964 -82.2287107247 -5.35730897254e-19)
(-54.7180470519 -94.4392828071 3.56501332064e-19)
(-56.2688033508 -107.335298172 -1.12682548817e-18)
(-55.5567579868 -122.435130065 4.28382111429e-19)
(-51.8744084478 -141.546787948 9.13908279236e-19)
(-44.7514125048 -167.215992417 -3.25128595717e-17)
(-33.2298288742 -206.842561117 -3.26423379205e-17)
(-33.4341140939 -259.555026662 6.18568918153e-17)
(-99.3247575448 -329.36730476 6.69507961834e-17)
(-319.903402316 -391.357521793 2.51181559115e-16)
(-1353.31642675 81.6171827624 1.40244535266e-15)
(-31.6633402095 15.491377734 -3.09167294573e-18)
(-39.7417907156 -4.61531341333 4.25432435286e-18)
(-38.4138216717 -12.2898522465 1.30303353125e-18)
(-37.3835928505 -20.1866499364 9.99116595401e-20)
(-36.7350810281 -28.8051655031 3.44123444171e-19)
(-36.2296886218 -37.9147874111 1.77286132592e-20)
(-35.8009527942 -47.9291635953 -5.1141647771e-19)
(-35.5158910579 -59.2193440944 2.1316742947e-19)
(-36.291521525 -71.9380667773 -1.76611509869e-18)
(-39.2837792469 -84.6009268013 3.39232520751e-19)
(-42.5298639062 -96.0313055034 -3.55126072363e-18)
(-43.2914272492 -106.931286484 -1.76365487991e-19)
(-40.4647808146 -118.837077621 -1.16321364367e-17)
(-32.8856299813 -133.184083294 -1.69950975028e-17)
(-18.1450601347 -152.345828984 1.73871371594e-16)
(10.5785288554 -189.533938701 2.48691517595e-16)
(57.3419092775 -292.67166303 -2.73534697812e-17)
(93.0892058754 -438.167898583 -1.28874530346e-16)
(91.0944815868 -1323.00798957 -7.8189126518e-19)
(-374.963424388 -1159.23916684 -8.31656487195e-15)
(-462.264438738 76.3087711306 -3.06407016974e-18)
(-31.6767270595 -4.58226272582 3.69246222736e-18)
(-30.3829784179 -11.9726407247 1.24992521674e-19)
(-29.094973787 -19.6654903507 -1.46961885142e-18)
(-27.8800786081 -28.0670974052 5.35325463246e-19)
(-26.5006227476 -36.9697246823 7.35159252189e-19)
(-24.811465685 -46.9364126455 3.24581705247e-18)
(-22.7465835418 -58.6960981375 2.19150254381e-18)
(-22.2413052626 -73.481747087 7.87182772304e-17)
(-27.2610578489 -87.4692516343 2.66799540763e-17)
(-32.6855288924 -98.3131045812 6.08983047766e-17)
(-33.1352750304 -106.933696605 3.96571139718e-17)
(-29.6292399282 -114.734315811 3.66866169522e-17)
(-22.2826352204 -121.536788422 1.06713561979e-16)
(-2.84178382999 -122.798930125 -1.01183865351e-15)
(49.0448938589 -134.175723491 -1.28661330513e-15)
(161.39896631 -160.217659434 -2.94597874671e-16)
(505.764262057 -256.07262891 1.17944417632e-16)
(1291.52860122 -772.555898821 -1.28492482419e-16)
(3258.69477326 -2094.52147364 -1.98544095928e-15)
(-843.949901556 -6976.56929744 -7.68598732052e-17)
(-23.8931403957 -4.44582671806 3.55479825856e-18)
(-22.6556126278 -11.4195699246 3.41317050077e-19)
(-21.1617488658 -18.6818944567 4.84927388965e-19)
(-19.373550973 -26.5635012222 4.86871371647e-19)
(-16.91452903 -34.8856732419 3.25542240344e-18)
(-13.5575088611 -44.3738324665 1.29215289767e-17)
(-9.02780429693 -56.5113711534 7.97140061314e-17)
(-5.14210379339 -74.3290391068 6.27559095176e-16)
(-16.3443958897 -90.929415575 6.61775490871e-17)
(-22.505096579 -103.357379819 7.41889417167e-16)
(-23.5621965412 -110.637001369 2.14461644086e-15)
(-20.2837508651 -117.418949627 1.88160886457e-15)
(-29.4311484157 -116.04983311 -5.1247713993e-16)
(-15.8223257133 -84.9993613298 3.54434099381e-15)
(18.156519648 -32.711673958 4.11093825929e-15)
(75.9977230541 121.359653266 1.02391765208e-15)
(165.678694872 577.233134522 -1.00547388832e-15)
(368.88030367 2140.29486353 -5.69192206848e-16)
(1931.64375926 1006.21602281 1.04770351441e-14)
(866.386179366 8752.10530197 1.40698772288e-15)
(-16.5205229354 -4.24416021631 2.25791740988e-18)
(-15.4163496763 -10.7118923629 -2.87301524954e-18)
(-13.8608208171 -17.2722301706 -1.72483114478e-18)
(-11.653210562 -24.1338493992 5.48234707264e-18)
(-8.01029631145 -31.2261749643 1.51134379373e-17)
(-1.67210459072 -39.4535184359 8.73377546135e-17)
(9.85380190086 -49.7357820029 4.87678001247e-16)
(27.3295229406 -66.810840862 1.94076390776e-15)
(9.27079039322 -82.4038906669 2.09308961866e-15)
(-10.3459521498 -97.9619031979 -2.91960286621e-16)
(-14.1370746949 -109.798380346 1.82985348648e-15)
(-19.007933785 -137.21765678 5.24605714925e-15)
(-56.6421859772 -118.534848894 1.35082202419e-14)
(-39.4045132932 -83.899852621 -1.32326669331e-15)
(-54.2260564555 -53.6674272906 1.36939900254e-15)
(-118.366091846 14.8368710167 2.11812999176e-15)
(-315.536190321 53.4664269121 5.23980726389e-16)
(-890.408752202 156.592338071 1.49186234846e-15)
(-2715.03186684 -274.544700135 2.8017678203e-15)
(-14.9709985258 9.6388041454 7.34683640543e-18)
(-9.63319929494 -4.03079362876 -5.44430252325e-19)
(-8.82842364012 -9.98092918492 -3.21870366267e-18)
(-7.61750637158 -15.6595195001 6.17401428092e-19)
(-5.82531529398 -20.9629031448 9.34938842541e-18)
(-2.7757576759 -24.9377926035 7.6480311005e-17)
(2.96990549155 -26.2085281427 4.49703654999e-16)
(13.7195538268 -24.500752208 1.50513545012e-15)
(28.7504845246 -18.2954299496 5.05034181489e-15)
(-3.13198393463 -3.88955730159 1.98389854335e-18)
(-2.83144325097 -9.54983123947 4.75797738184e-19)
(-2.38897550309 -14.775130999 2.26199418974e-18)
(-1.76723121769 -19.4845227535 1.73845119492e-17)
(-0.883362380235 -22.6466732155 1.5063592245e-16)
(0.651932929633 -22.6505032964 8.05164817476e-16)
(2.77967894611 -20.0076307794 2.19041036643e-15)
(4.37743803894 -10.3849490337 7.22956216616e-15)
(3.24053902509 -3.88822181212 1.32409948351e-18)
(2.94071662185 -9.54869770833 1.61796320284e-18)
(2.4947797999 -14.781137406 2.62105614888e-18)
(1.8482401767 -19.5059242575 1.77566580693e-17)
(0.901743003228 -22.6902915996 1.51749559043e-16)
(-0.74289189341 -22.7191895821 8.04362542246e-16)
(-3.02585438681 -20.0785072354 2.1798591325e-15)
(-4.77636538484 -10.4153551836 7.22523062014e-15)
(9.7278789232 -4.0283946411 -1.99476794656e-19)
(8.91957347223 -9.98107067751 -2.0912054574e-18)
(7.69917239691 -15.6804205263 1.92860922755e-18)
(5.87791794886 -21.0272965525 9.60221282547e-18)
(2.76630702353 -25.0637239969 7.36340795269e-17)
(-3.0854079857 -26.4029788965 4.44038841202e-16)
(-13.9869066145 -24.739695402 1.51455256218e-15)
(-29.2752526574 -18.4204771811 5.04908526356e-15)
)
;

boundaryField
{
    back
    {
        type            calculated;
        value           uniform (0 0 0);
    }
    sides
    {
        type            calculated;
        value           nonuniform List<vector> 0();
    }
    bottom
    {
        type            calculated;
        value           uniform (0 0 0);
    }
    front
    {
        type            calculated;
        value           uniform (0 0 0);
    }
    atmosphere
    {
        type            calculated;
        value           nonuniform List<vector> 7((0 1.10934614168 0) (-2.15164089526e-13 5.02187175074 2.46987711508e-34) (0.00606317205022 15.4907153413 1.51348125847e-23) (-811.724974142 76.3087710567 7.63519346492e-19) (-843.94894206 -6976.56928585 -7.68599137895e-17) (1254.7284416 8756.07632783 1.60717629111e-15) (1.03851572727e-05 9.63873139922 -3.22993527797e-24));
    }
    floatingObject
    {
        type            calculated;
        value           nonuniform List<vector> 8((0 -1.23629509522e-16 1.54536886903e-17) (0 0 1.44531056158e-17) (0 0 0) (0 -2.18013327411e-16 1.36258329632e-17) (9.05235433673e-18 0 0) (0 0 5.1745426781e-18) (0 0 5.00871003951e-18) (0 0 0));
    }
    procBoundary3to4
    {
        type            processor;
        value           nonuniform List<vector> 
13
(
(-83.5473249 -60.3017056614 4.50540441853e-20)
(-88.5702515967 -70.8986836536 1.15440348633e-19)
(-94.3936977726 -82.5628798963 3.59839028091e-19)
(-63.786067115 -4.06268684403 6.54436478444e-18)
(-62.369948648 -11.6450004923 2.72303268026e-18)
(-62.0920495357 -19.0431886906 4.88421216359e-19)
(-62.9312446802 -27.0277033972 -8.56299371287e-19)
(-66.6582602479 -44.3548590854 -1.84269684716e-19)
(-69.3976912705 -54.0322772118 5.35496790575e-20)
(-69.3976912705 -54.0322772118 5.35496790575e-20)
(-55.4316334709 -36.9998231148 1.60985187763e-19)
(-55.4316334709 -36.9998231148 1.60985187763e-19)
(-55.4316334709 -36.9998231148 1.60985187763e-19)
)
;
    }
    procBoundary3to5
    {
        type            processor;
        value           nonuniform List<vector> 10((-101.074888908 -95.591790176 -6.26920207594e-20) (-108.971875769 -110.65858042 3.68723108406e-19) (-118.956685016 -128.633945325 -2.14607930804e-18) (-133.161639064 -150.947575611 -6.58153045136e-19) (-154.748200564 -178.598405549 9.59867102612e-18) (-176.030578793 -215.819534135 -1.59364624028e-17) (-230.880444246 -303.922430976 3.58916424398e-17) (-300.128837549 -532.083840857 1.4693090451e-16) (-910.359012354 -691.048636522 1.19922256326e-15) (116.802551405 10.2989152028 -1.8015328168e-18));
    }
    procBoundary3to6
    {
        type            processor;
        value           nonuniform List<vector> 8((-77.9465357963 -79.2960554559 8.8193634515e-15) (-55.8066357827 -46.477690857 -1.11025180579e-15) (-84.1687320975 -72.510041968 2.6945861883e-15) (-140.67252014 -127.402893156 4.8280963712e-15) (-275.870299472 -232.530851047 4.73293642774e-15) (-550.472032091 -528.117670786 1.36260584172e-15) (-1012.86613962 -694.104788623 -1.55794568572e-15) (4.03853903554 -13.0074310553 4.78309614297e-18));
    }
    procBoundary3to8
    {
        type            processor;
        value           nonuniform List<vector> 8((16.5749275964 -4.24303852372 -3.38484651522e-19) (15.4603705547 -10.7193480343 3.23197751847e-18) (13.8862856919 -17.3147132164 1.6288115698e-19) (11.6456127678 -24.2442318468 2.27582960925e-18) (7.94907898913 -31.4355108089 8.41147168683e-18) (1.52843541403 -39.7782311729 9.78522826345e-17) (-10.1128773443 -50.2160012206 5.07364602731e-16) (-27.7541833103 -67.5960415639 1.93772851237e-15));
    }
}


// ************************************************************************* //
