/*--------------------------------*- C++ -*----------------------------------*\
| =========                 |                                                 |
| \\      /  F ield         | OpenFOAM: The Open Source CFD Toolbox           |
|  \\    /   O peration     | Version:  v2012                                 |
|   \\  /    A nd           | Website:  www.openfoam.com                      |
|    \\/     M anipulation  |                                                 |
\*---------------------------------------------------------------------------*/
FoamFile
{
    version     2.0;
    format      ascii;
    class       volScalarField;
    location    "1";
    object      p_rgh;
}
// * * * * * * * * * * * * * * * * * * * * * * * * * * * * * * * * * * * * * //

dimensions      [1 -1 -2 0 0 0 0];


internalField   nonuniform List<scalar> 
164
(
9066.97236154
9068.67705231
9070.60501048
9072.83733937
9075.49983408
9078.78778635
9083.02838278
9088.76930713
9096.77131322
9105.6629506
9111.60734696
6167.07322773
-8.76860389083
9063.81573746
9064.49595218
9065.04575871
9065.78388202
9067.98986938
9069.39638935
9070.96831841
9072.67488925
9074.55144794
9076.69692385
9079.23701099
9082.33420352
9086.18908148
9091.00284586
9096.61207413
9101.81737502
9104.09825783
6159.21411835
-7.86053876391
9066.93061723
9067.65020555
9068.22726573
9069.01211661
9070.06347922
9071.34275581
9072.78991339
9074.36446701
9075.96694039
9077.65912739
9079.56785289
9081.7858436
9084.36381093
9087.32968058
9090.83837321
9094.84427379
9099.77599222
9103.18916296
6208.26315392
-13.393090544
9069.57567875
9070.32014949
9070.91227382
9071.73071871
9072.82630399
9074.1424418
9075.58536227
9077.09435437
9078.42457088
9079.80362835
9081.36905516
9083.13759429
9084.94856587
9086.72809271
9088.69438176
9090.89824902
9095.84327965
9108.98062399
8174.8780657
-48.8138846667
9071.73541417
9072.48655845
9073.07940093
9073.91427817
9075.03347995
9076.36583809
9077.76400199
9079.10395297
9079.81463838
9080.77818497
9081.99126894
9083.23361438
9084.10324387
9084.7410678
9085.033877
9082.79977518
9071.95412271
9047.6460708
8876.67944276
2812.23502289
9073.41033604
9074.14805311
9074.72652604
9075.55590816
9076.67368928
9078.02771299
9079.48633458
9080.93009216
9080.86533457
9080.99442816
9081.86230939
9082.16606465
9080.97229229
9081.92817525
9082.01991706
9076.976339
9061.33760368
9027.39759586
8864.12292135
1794.03717989
9074.61829777
9075.32490466
9075.87473785
9076.66508756
9077.68438566
9078.77530336
9079.30031185
9078.55103445
9075.13951922
9079.4152884
9081.8655998
9081.56214055
9074.49540813
9081.84490345
9083.63394842
9081.29759113
9076.44995294
9072.05568955
6455.1384591
-59.6492926281
9075.39347176
9076.06590507
9076.59230353
9077.38301026
9078.51341848
9079.97181958
9081.4205615
9085.17126378
9075.76723292
9076.41077799
9076.9075066
9077.6281605
9078.58889426
9079.71763532
9080.86038521
9082.95547615
9075.76972922
9076.41323866
9076.90973286
9077.62976087
9078.58932509
9079.71621391
9080.85726196
9082.95046943
9075.40073244
9076.07303774
9076.59872042
9077.38763982
9078.51470327
9079.96793482
9081.41030671
9085.15531353
)
;

boundaryField
{
    back
    {
        type            fixedFluxPressure;
        gradient        uniform 0;
        value           nonuniform List<scalar> 
164
(
9066.97236154
9068.67705231
9070.60501048
9072.83733937
9075.49983408
9078.78778635
9083.02838278
9088.76930713
9096.77131322
9105.6629506
9111.60734696
6167.07322773
-8.76860389083
9063.81573746
9064.49595218
9065.04575871
9065.78388202
9067.98986938
9069.39638935
9070.96831841
9072.67488925
9074.55144794
9076.69692385
9079.23701099
9082.33420352
9086.18908148
9091.00284586
9096.61207413
9101.81737502
9104.09825783
6159.21411835
-7.86053876391
9066.93061723
9067.65020555
9068.22726573
9069.01211661
9070.06347922
9071.34275581
9072.78991339
9074.36446701
9075.96694039
9077.65912739
9079.56785289
9081.7858436
9084.36381093
9087.32968058
9090.83837321
9094.84427379
9099.77599222
9103.18916296
6208.26315392
-13.393090544
9069.57567875
9070.32014949
9070.91227382
9071.73071871
9072.82630399
9074.1424418
9075.58536227
9077.09435437
9078.42457088
9079.80362835
9081.36905516
9083.13759429
9084.94856587
9086.72809271
9088.69438176
9090.89824902
9095.84327965
9108.98062399
8174.8780657
-48.8138846667
9071.73541417
9072.48655845
9073.07940093
9073.91427817
9075.03347995
9076.36583809
9077.76400199
9079.10395297
9079.81463838
9080.77818497
9081.99126894
9083.23361438
9084.10324387
9084.7410678
9085.033877
9082.79977518
9071.95412271
9047.6460708
8876.67944276
2812.23502289
9073.41033604
9074.14805311
9074.72652604
9075.55590816
9076.67368928
9078.02771299
9079.48633458
9080.93009216
9080.86533457
9080.99442816
9081.86230939
9082.16606465
9080.97229229
9081.92817525
9082.01991706
9076.976339
9061.33760368
9027.39759586
8864.12292135
1794.03717989
9074.61829777
9075.32490466
9075.87473785
9076.66508756
9077.68438566
9078.77530336
9079.30031185
9078.55103445
9075.13951922
9079.4152884
9081.8655998
9081.56214055
9074.49540813
9081.84490345
9083.63394842
9081.29759113
9076.44995294
9072.05568955
6455.1384591
-59.6492926281
9075.39347176
9076.06590507
9076.59230353
9077.38301026
9078.51341848
9079.97181958
9081.4205615
9085.17126378
9075.76723292
9076.41077799
9076.9075066
9077.6281605
9078.58889426
9079.71763532
9080.86038521
9082.95547615
9075.76972922
9076.41323866
9076.90973286
9077.62976087
9078.58932509
9079.71621391
9080.85726196
9082.95046943
9075.40073244
9076.07303774
9076.59872042
9077.38763982
9078.51470327
9079.96793482
9081.41030671
9085.15531353
)
;
    }
    sides
    {
        type            fixedFluxPressure;
        gradient        nonuniform List<scalar> 0();
        value           nonuniform List<scalar> 0();
    }
    bottom
    {
        type            fixedFluxPressure;
        gradient        uniform 0;
        value           nonuniform List<scalar> 10(9063.81573746 9066.93061723 9069.57567875 9071.73541417 9073.41033604 9074.61829777 9075.39347176 9075.76723292 9075.76972922 9075.40073244);
    }
    front
    {
        type            fixedFluxPressure;
        gradient        uniform 0;
        value           nonuniform List<scalar> 
164
(
9066.97236154
9068.67705231
9070.60501048
9072.83733937
9075.49983408
9078.78778635
9083.02838278
9088.76930713
9096.77131322
9105.6629506
9111.60734696
6167.07322773
-8.76860389083
9063.81573746
9064.49595218
9065.04575871
9065.78388202
9067.98986938
9069.39638935
9070.96831841
9072.67488925
9074.55144794
9076.69692385
9079.23701099
9082.33420352
9086.18908148
9091.00284586
9096.61207413
9101.81737502
9104.09825783
6159.21411835
-7.86053876391
9066.93061723
9067.65020555
9068.22726573
9069.01211661
9070.06347922
9071.34275581
9072.78991339
9074.36446701
9075.96694039
9077.65912739
9079.56785289
9081.7858436
9084.36381093
9087.32968058
9090.83837321
9094.84427379
9099.77599222
9103.18916296
6208.26315392
-13.393090544
9069.57567875
9070.32014949
9070.91227382
9071.73071871
9072.82630399
9074.1424418
9075.58536227
9077.09435437
9078.42457088
9079.80362835
9081.36905516
9083.13759429
9084.94856587
9086.72809271
9088.69438176
9090.89824902
9095.84327965
9108.98062399
8174.8780657
-48.8138846667
9071.73541417
9072.48655845
9073.07940093
9073.91427817
9075.03347995
9076.36583809
9077.76400199
9079.10395297
9079.81463838
9080.77818497
9081.99126894
9083.23361438
9084.10324387
9084.7410678
9085.033877
9082.79977518
9071.95412271
9047.6460708
8876.67944276
2812.23502289
9073.41033604
9074.14805311
9074.72652604
9075.55590816
9076.67368928
9078.02771299
9079.48633458
9080.93009216
9080.86533457
9080.99442816
9081.86230939
9082.16606465
9080.97229229
9081.92817525
9082.01991706
9076.976339
9061.33760368
9027.39759586
8864.12292135
1794.03717989
9074.61829777
9075.32490466
9075.87473785
9076.66508756
9077.68438566
9078.77530336
9079.30031185
9078.55103445
9075.13951922
9079.4152884
9081.8655998
9081.56214055
9074.49540813
9081.84490345
9083.63394842
9081.29759113
9076.44995294
9072.05568955
6455.1384591
-59.6492926281
9075.39347176
9076.06590507
9076.59230353
9077.38301026
9078.51341848
9079.97181958
9081.4205615
9085.17126378
9075.76723292
9076.41077799
9076.9075066
9077.6281605
9078.58889426
9079.71763532
9080.86038521
9082.95547615
9075.76972922
9076.41323866
9076.90973286
9077.62976087
9078.58932509
9079.71621391
9080.85726196
9082.95046943
9075.40073244
9076.07303774
9076.59872042
9077.38763982
9078.51470327
9079.96793482
9081.41030671
9085.15531353
)
;
    }
    atmosphere
    {
        type            totalPressure;
        rho             rho;
        psi             none;
        gamma           1;
        p0              uniform 0;
        value           nonuniform List<scalar> 7(-0.123666433896 -0.0824853886075 -0.208050969518 -0.2417637697 0 0 -1.56572930887);
    }
    floatingObject
    {
        type            fixedFluxPressure;
        gradient        uniform 0;
        value           nonuniform List<scalar> 8(9075.13951922 9079.4152884 9081.8655998 9081.56214055 9085.17126378 9082.95547615 9082.95046943 9085.15531353);
    }
    procBoundary3to4
    {
        type            processor;
        value           nonuniform List<scalar> 
13
(
9062.43413558
9064.05533713
9065.9186675
9060.25942784
9060.89005661
9061.40269121
9062.08331143
9064.12996458
9065.45756153
9065.45756153
9066.7742938
9066.7742938
9066.7742938
)
;
    }
    procBoundary3to5
    {
        type            processor;
        value           nonuniform List<scalar> 10(9068.09316921 9070.67841171 9073.82477211 9077.79238242 9083.24364345 9091.6237625 9105.30406534 9141.99407283 8492.65929623 45.4374406472);
    }
    procBoundary3to6
    {
        type            processor;
        value           nonuniform List<scalar> 8(9052.54477404 9085.58448927 9088.24026781 9087.1927076 9087.45413214 9098.87204991 8427.89011689 -70.2355986407);
    }
    procBoundary3to8
    {
        type            processor;
        value           nonuniform List<scalar> 8(9074.62996711 9075.33621074 9075.88465486 9076.67191692 9077.68579179 9078.76859974 9079.28245898 9078.51830935);
    }
}


// ************************************************************************* //
