/*--------------------------------*- C++ -*----------------------------------*\
| =========                 |                                                 |
| \\      /  F ield         | OpenFOAM: The Open Source CFD Toolbox           |
|  \\    /   O peration     | Version:  v2012                                 |
|   \\  /    A nd           | Website:  www.openfoam.com                      |
|    \\/     M anipulation  |                                                 |
\*---------------------------------------------------------------------------*/
FoamFile
{
    version     2.0;
    format      ascii;
    class       volVectorField;
    location    "3.8";
    object      U;
}
// * * * * * * * * * * * * * * * * * * * * * * * * * * * * * * * * * * * * * //

dimensions      [0 1 -1 0 0 0 0];


internalField   nonuniform List<vector> 
164
(
(-0.0188257113718 0.000792706210142 -2.64235142087e-22)
(-0.0172530616213 0.00229400201575 -7.30812614019e-23)
(-0.0163422565114 0.00380188208917 -2.71675689832e-23)
(-0.0159908840821 0.00539572180855 7.03785515016e-23)
(-0.0160391831756 0.00708772503115 2.62450433351e-23)
(-0.0162936918892 0.008937739342 -1.67766348421e-24)
(-0.0166547978196 0.0109962827759 -7.3882500846e-24)
(-0.0170903484431 0.0133158963104 -7.25861680178e-24)
(-0.0203105575 0.0007662429822 -2.01420411277e-22)
(-0.0187284044947 0.00217459072996 -4.26963790674e-23)
(-0.0178484055376 0.0036069819203 -5.96246335976e-23)
(-0.0175776508411 0.00512315781852 1.38365079857e-23)
(-0.0177565045982 0.00673331563858 6.03989675107e-24)
(-0.0181899103723 0.00849897512539 2.75254011051e-24)
(-0.0187812647697 0.0104688907835 -4.19912307069e-24)
(-0.0195029927532 0.012694962315 -4.96650905355e-24)
(-0.0217019728605 0.000714367570806 -1.9728016356e-22)
(-0.0201104735297 0.00200226416971 -6.03057892759e-24)
(-0.0192585179478 0.0033261699271 2.13849322917e-24)
(-0.0190658126746 0.00472840038625 1.16279158127e-23)
(-0.0193708413908 0.00621823091517 -2.275260034e-25)
(-0.0199772007447 0.00785551293556 8.45161551401e-24)
(-0.020790808175 0.00968648847205 -5.41027231522e-24)
(-0.021789695357 0.011760465795 1.85838812007e-24)
(-0.0229839834766 0.0141370660856 3.14948389109e-23)
(-0.0243962583675 0.0168821483259 3.10332334309e-23)
(-0.0229603904981 0.000647108981026 -1.54479139719e-22)
(-0.0213659995205 0.00178086980556 5.26584215053e-23)
(-0.0205417393061 0.00296345169638 7.17226393127e-23)
(-0.0204205112904 0.00421773087348 8.57959923388e-23)
(-0.0208420257268 0.00554979589536 3.21177864787e-23)
(-0.0216088787326 0.00701669739901 1.03560904746e-23)
(-0.0226300452459 0.00865982909454 -7.51424354273e-25)
(-0.0238880546772 0.0105238744682 9.01934826866e-25)
(-0.0254030221801 0.0126631006578 5.06195703279e-23)
(-0.027206597295 0.0151386238468 3.01193076467e-23)
(-0.0240501513403 0.000574356246511 5.10648265379e-23)
(-0.0224594632746 0.00151895254656 1.88102613331e-22)
(-0.0216644825619 0.00252779401011 1.7460590167e-22)
(-0.0216086329736 0.003601080008 1.27144962591e-22)
(-0.0221346467325 0.0047405075009 6.71660586404e-23)
(-0.0230469302408 0.0059974715691 4.62996804517e-23)
(-0.0242550388466 0.00740760939048 4.45839060943e-24)
(-0.0257416811587 0.00900874447733 -1.39584765081e-23)
(-0.0275406439796 0.0108468548866 3.73264652058e-23)
(-0.0296930896317 0.0129779773985 4.21255997278e-23)
(-0.0249574347358 0.000478251054507 1.61740184731e-22)
(-0.023365016606 0.00121235659983 2.47678131563e-22)
(-0.0225920590366 0.00202384235774 2.07244932341e-22)
(-0.0225951324553 0.00288990119075 1.91254373289e-22)
(-0.0232102675325 0.00380482416685 8.971571894e-23)
(-0.0242439574883 0.00481754922011 4.89613991766e-23)
(-0.0256073389076 0.00596079621439 1.88315060174e-23)
(-0.0272909539862 0.00725701134561 8.36351301601e-24)
(-0.0293277188691 0.00873902213495 1.50718081754e-23)
(-0.0317758741916 0.0104567463186 2.69111085395e-23)
(-0.0256455391828 0.000360183873866 1.9261502221e-22)
(-0.0240595731725 0.000868931351237 2.48659036783e-22)
(-0.0233044853695 0.00145976529376 2.14809135926e-22)
(-0.0233530863385 0.0020966294089 1.81183879003e-22)
(-0.0240384504157 0.00276911190763 1.0559959484e-22)
(-0.0251665025108 0.00351274587908 1.02351853618e-22)
(-0.0266493482424 0.00435179559375 6.4572297742e-23)
(-0.0284872704281 0.00530434085357 5.12615432939e-23)
(-0.0307102403675 0.00638781701136 2.89845643544e-23)
(-0.0333905930688 0.00763376002847 3.24220983075e-23)
(-0.0261048702626 0.000243169572901 2.13557741142e-22)
(-0.0245270151391 0.000503955337152 1.91420005646e-22)
(-0.0237886113018 0.00085618054433 1.8473506867e-22)
(-0.0238671555494 0.00124517759896 1.84099834782e-22)
(-0.0246016700278 0.00165644360533 1.57304369887e-22)
(-0.0257974058914 0.0021130667678 1.2933415219e-22)
(-0.0273645069384 0.00262644007486 1.0624555779e-22)
(-0.0293057589451 0.00320789851492 6.20176061337e-23)
(-0.0316496251938 0.00385876200383 5.85535151556e-23)
(-0.0344606519325 0.00459862445869 9.38871963539e-23)
(-0.0263160963269 0.000123506189927 1.80035714598e-22)
(-0.0247552096879 0.000125056246518 6.06468428365e-23)
(-0.0240260984974 0.000229310170211 1.65273823587e-22)
(-0.0241227787398 0.000359481858511 1.8111832157e-22)
(-0.0248868497342 0.000497264695121 1.47640927828e-22)
(-0.0261231361642 0.000654300956805 1.25809371532e-22)
(-0.0277440414414 0.000829048663684 1.04580367173e-22)
(-0.0297233806471 0.00102947677176 1.28871566309e-22)
(-0.0321078857546 0.00125140290754 1.48781475357e-22)
(-0.0349529523397 0.00147308943 9.2996424654e-23)
(-0.0262738462968 -1.38986356533e-05 2.81509729075e-22)
(-0.0247292658301 -0.000270147450523 1.36234921989e-22)
(-0.0240085996626 -0.000408371717615 1.63324668073e-22)
(-0.0241127991216 -0.000545131754613 1.62858578789e-22)
(-0.0248914550641 -0.000687213889174 1.42621282629e-22)
(-0.0261432790841 -0.000838911821582 1.15144611898e-22)
(-0.027760267841 -0.00098679206035 1.28496186629e-22)
(-0.0297276757184 -0.00114534538366 9.23543730886e-23)
(-0.0320833643923 -0.00135312793571 1.51230008463e-22)
(-0.0348772828968 -0.00163437372233 1.03247262284e-22)
(-0.0259795347743 -0.00015462930304 2.70823472712e-22)
(-0.024441530008 -0.000671702938329 3.21801592715e-23)
(-0.0237341943864 -0.00105411706877 7.26887571549e-23)
(-0.0238421290853 -0.00145644852193 1.22048258305e-22)
(-0.0246090226875 -0.00187858208741 1.30959609116e-22)
(-0.0258386837074 -0.00231032656775 1.00077515899e-22)
(-0.027419413123 -0.00276879376119 9.06468149332e-23)
(-0.029347102982 -0.00328267897103 7.90097588734e-23)
(-0.0316242724748 -0.00387718251674 8.00390758295e-23)
(-0.0342806054615 -0.00460318212191 6.90414071744e-23)
(-0.0254173520951 -0.000284647032763 1.2976405334e-22)
(-0.0238994183834 -0.00106724220315 -3.42548171348e-22)
(-0.0231981585354 -0.00170465242139 -1.59991935069e-22)
(-0.0232960746981 -0.00235564308321 2.14812711646e-23)
(-0.0240382100664 -0.00303189341089 1.35613464305e-22)
(-0.0252275651022 -0.00374654758804 1.55035450885e-22)
(-0.0267687743747 -0.00450715132874 1.16001589501e-22)
(-0.0286248424537 -0.00533547811142 1.05283887715e-22)
(-0.0307952420145 -0.00626266612658 1.00077047542e-22)
(-0.0332995744117 -0.00736094502534 1.22837237518e-22)
(-0.0245905056943 -0.000421860534487 1.30426834225e-22)
(-0.0231106846354 -0.00145417039287 -5.18437984151e-22)
(-0.0224113896116 -0.00233039029496 -4.03733637156e-22)
(-0.0224880254654 -0.0032304202832 -9.26263041139e-23)
(-0.0232024870294 -0.00416001746804 1.28687048194e-22)
(-0.0243509097905 -0.00513715056637 1.48868232498e-22)
(-0.0258290650106 -0.00617384753435 1.34709026459e-22)
(-0.0275967373597 -0.00729089808473 9.84988630276e-23)
(-0.0296496044362 -0.00852743428391 1.38454926865e-22)
(-0.0319744274691 -0.00988322772403 1.86223508027e-22)
(-0.0235220982403 -0.000557355414622 2.57784125727e-22)
(-0.0220762618442 -0.00182956721685 -7.11797303038e-22)
(-0.0213903884739 -0.00293488744101 -5.84668810869e-22)
(-0.0214497389662 -0.00407273448057 -2.14551113285e-22)
(-0.0221226020352 -0.00524245615906 9.21921600363e-23)
(-0.0232164378895 -0.00646522215185 1.70191361943e-22)
(-0.0246225691711 -0.00775289804983 1.97876346193e-22)
(-0.0262958842957 -0.00912642087669 1.73277956741e-22)
(-0.028225312756 -0.0106010104164 2.31009799061e-22)
(-0.030358558151 -0.0121902994842 1.61608915478e-22)
(-0.0222035093611 -0.000672332657871 4.79547000736e-22)
(-0.0208159402435 -0.00217921867792 -5.93416878195e-22)
(-0.0201442252703 -0.00351464893861 -5.43633726457e-22)
(-0.0201837029154 -0.00487220046572 -2.15966771446e-22)
(-0.0208088230881 -0.00626749021627 8.24634390852e-23)
(-0.0218421736632 -0.00772064049018 1.59714809038e-22)
(-0.023178082538 -0.00924130300988 1.7769035037e-22)
(-0.0247850736688 -0.0108488208979 1.80890771319e-22)
(-0.0265832907196 -0.0125280101317 2.19774259317e-22)
(-0.0285791015288 -0.0142966958396 2.12890030983e-22)
(-0.0206484049889 -0.000789412015514 1.46630468497e-21)
(-0.0193393572176 -0.00250822177568 -2.86222509503e-23)
(-0.0186842985385 -0.00404716703009 -2.35743600767e-22)
(-0.0187010847405 -0.00561634779021 -6.61073545338e-23)
(-0.0192713754582 -0.0072269663944 1.34660627257e-22)
(-0.0202434706592 -0.00890551421624 1.81311312706e-22)
(-0.0215265636829 -0.0106686905015 2.27271673141e-22)
(-0.0230454340867 -0.0124679765381 3.0987599613e-22)
(-0.0247545147848 -0.0143113969485 3.99843302003e-22)
(-0.026657049447 -0.0162535596455 4.07479684175e-22)
(-0.0188882674026 -0.000891909260023 1.82099745891e-21)
(-0.0176621031339 -0.00280030819485 3.14368388019e-22)
(-0.0170236216017 -0.00453095604992 5.53977885551e-24)
(-0.0170092218659 -0.00629110629861 6.61058975075e-23)
(-0.0175232984858 -0.00811225175198 2.13673354113e-22)
(-0.018425084563 -0.0100261305427 3.46127812164e-22)
(-0.0196249744026 -0.0119906187527 7.44056582544e-22)
(-0.01557005324 -0.00890476238606 5.82777135152e-22)
)
;

boundaryField
{
    back
    {
        type            noSlip;
    }
    sides
    {
        type            noSlip;
    }
    bottom
    {
        type            noSlip;
    }
    front
    {
        type            noSlip;
    }
    atmosphere
    {
        type            pressureInletOutletVelocity;
        value           nonuniform List<vector> 0();
    }
    floatingObject
    {
        type            movingWallVelocity;
        value           nonuniform List<vector> 0();
    }
    procBoundary4to0
    {
        type            processor;
        value           nonuniform List<vector> 8((-0.0172810226719 0.000806684129417 -3.25429937135e-22) (-0.0157176548377 0.00236778817129 -4.13770019183e-23) (-0.0147747015829 0.00391789515099 3.04842781469e-23) (-0.0143434953368 0.00555418679454 1.01065121658e-22) (-0.0142621119079 0.00728626251985 3.88856632231e-23) (-0.0143379419466 0.00917316194147 4.45035037715e-24) (-0.0144686428661 0.0112657468806 -5.27454299166e-24) (-0.0146160421039 0.0136151856803 -1.09489218545e-23));
    }
    procBoundary4to3
    {
        type            processor;
        value           nonuniform List<vector> 
13
(
(-0.0210710325882 -0.0139886225591 1.43548642852e-21)
(-0.0227358033546 -0.0160491604169 2.17755831225e-21)
(-0.0245943714923 -0.0182086563212 2.50321808685e-21)
(-0.0169412275274 -0.000984389867517 1.55228807279e-21)
(-0.0158143613781 -0.00304875340979 3.42519429419e-22)
(-0.015185529536 -0.00494053994882 8.46977329391e-23)
(-0.0151295165228 -0.00688607263594 1.93660295616e-22)
(-0.0163769885529 -0.0110206792089 1.56624239683e-21)
(-0.0210710325882 -0.0139886225591 1.43548642852e-21)
(-0.0174831331063 -0.0132203107135 4.36117567932e-21)
(-0.0151295165228 -0.00688607263594 1.93660295616e-22)
(-0.0163769885529 -0.0110206792089 1.56624239683e-21)
(-0.0134132832441 -0.00956371318309 2.67773619412e-21)
)
;
    }
    procBoundary4to5
    {
        type            processor;
        value           nonuniform List<vector> 
18
(
(-0.017590895069 0.0159603033284 1.22042833029e-24)
(-0.0203558157015 0.0152405111883 1.28169429412e-23)
(-0.0203558157015 0.0152405111883 1.28169429412e-23)
(-0.021351439079 0.0181743805921 2.30497170291e-23)
(-0.0260557143243 0.0200753961576 2.71711287506e-23)
(-0.0293410513971 0.0180239033738 2.35078379006e-23)
(-0.0322556694665 0.0154689890498 2.83314461809e-23)
(-0.0347049155238 0.0124631504333 5.7492098122e-23)
(-0.0365990028472 0.00907996595382 8.47638280479e-23)
(-0.0378320053197 0.00543917165324 -2.47462921616e-23)
(-0.0383591472846 0.00167249533479 1.11759425314e-23)
(-0.0381819926762 -0.00204765542807 -2.2577883369e-23)
(-0.037383194432 -0.00553579917273 8.96665359164e-23)
(-0.0360978791772 -0.00865947152645 3.46412428843e-22)
(-0.0345171811602 -0.0114255136985 1.38912788868e-22)
(-0.0327177152428 -0.0139525291505 3.2279091686e-22)
(-0.0307550042412 -0.0162043185682 2.26029750275e-22)
(-0.0287478401293 -0.0182478418373 5.44632861799e-22)
)
;
    }
}


// ************************************************************************* //
