/*--------------------------------*- C++ -*----------------------------------*\
| =========                 |                                                 |
| \\      /  F ield         | OpenFOAM: The Open Source CFD Toolbox           |
|  \\    /   O peration     | Version:  v2012                                 |
|   \\  /    A nd           | Website:  www.openfoam.com                      |
|    \\/     M anipulation  |                                                 |
\*---------------------------------------------------------------------------*/
FoamFile
{
    version     2.0;
    format      ascii;
    class       surfaceScalarField;
    location    "5.1";
    object      phi;
}
// * * * * * * * * * * * * * * * * * * * * * * * * * * * * * * * * * * * * * //

dimensions      [0 3 -1 0 0 0 0];
oriented        oriented;


internalField   nonuniform List<scalar> 
296
(
9.16635240789e-05
7.03919866903e-05
0.000104057415892
7.09912244225e-05
0.000116218257283
7.14788793602e-05
0.000129254151135
7.0202710781e-05
0.000144238367692
6.73342782372e-05
0.000160515611721
6.53015712174e-05
0.000174697271662
6.64352986855e-05
0.000183743071356
6.74294515293e-05
0.000187549189829
7.06070475806e-05
0.000190725221104
7.1156242963e-05
0.000196885352138
7.00814651125e-05
0.000226318674163
0.00014620179042
3.8991588289e-05
9.68243105524e-06
5.27426607168e-05
1.98456955204e-05
5.62114262813e-05
3.05248109247e-05
5.90963423894e-05
6.03117021036e-05
6.59760025521e-05
5.88905077419e-05
7.88604209081e-05
5.77485324452e-05
9.19263005512e-05
5.73271866914e-05
0.000103845044271
5.90713622586e-05
0.000114738593268
6.058117924e-05
0.000126931708676
5.80043051102e-05
0.000142591672932
5.16679601872e-05
0.000161027260832
4.68603830653e-05
0.000175467241308
5.19904197935e-05
0.000181849781576
6.10443444367e-05
0.00018170457975
7.07520691962e-05
0.000182101835823
7.07595430917e-05
0.000186451348545
6.57295297565e-05
0.000227848119959
0.000104782623485
-0.000136692861122
9.32647842625e-06
4.34211249567e-05
1.91481826936e-05
4.63941008109e-05
2.95394266435e-05
4.87097892442e-05
4.05657826594e-05
4.92940757784e-05
5.23172676105e-05
4.82689106121e-05
6.48930534953e-05
4.63214298183e-05
7.82877417937e-05
4.43596109071e-05
9.16797983806e-05
4.39396832072e-05
0.000102564872765
4.81900240278e-05
0.000110709574407
5.24393559733e-05
0.000120892174886
4.7824231635e-05
0.000137607968859
3.49546763067e-05
0.000159827237949
2.46442525867e-05
0.000174606000892
3.72158841063e-05
0.000178459470449
5.71961721313e-05
0.000174727667281
7.44890076389e-05
0.000172532436909
7.29572143695e-05
0.00017221827857
6.60442704085e-05
0.000135668841887
0.000141334443811
0.00024658152003
8.87818909738e-06
3.45463113757e-05
1.81980169441e-05
3.70776479944e-05
2.8115560759e-05
3.87957339275e-05
3.86789633693e-05
3.87354885744e-05
4.99947466328e-05
3.69586458923e-05
6.23395646215e-05
3.39825773811e-05
7.59702478603e-05
3.07355280602e-05
9.02379231846e-05
2.96790835181e-05
9.9124548851e-05
3.93113616033e-05
0.000102712416198
4.88602828391e-05
0.000109606041205
4.09406977401e-05
0.000128401863857
1.61701054431e-05
0.000156673182355
-3.61432926361e-06
0.000171914531591
2.19883960866e-05
0.000172801258647
5.63231675906e-05
0.00016543323567
8.18676369189e-05
0.0001606470551
7.77477419755e-05
0.000159426775222
6.72681360992e-05
0.000126885337596
0.000173884998902
0.000798303197856
8.24612815883e-06
2.63019250178e-05
1.69499745165e-05
2.83756617007e-05
2.61117351786e-05
2.96361718276e-05
3.580346707e-05
2.90468436752e-05
4.59695198813e-05
2.67967467572e-05
5.69917775851e-05
2.29657071826e-05
7.07542272619e-05
1.69800020018e-05
8.76226255562e-05
1.28194148598e-05
9.58450288228e-05
3.1100390574e-05
9.66926662222e-05
4.80266840848e-05
0.000102003640662
3.56464266982e-05
0.000119592214506
-1.39914691947e-06
0.000151289429653
-3.52861722347e-05
0.000163941797524
9.36467496926e-06
0.000160964831696
5.93279654642e-05
0.000152096147057
9.07573818253e-05
0.0001473326887
8.25200369058e-05
0.000149976391978
6.46322688057e-05
0.000224995842021
9.88635044953e-05
0.000456710667616
7.50173771246e-06
1.88004957795e-05
1.54352276312e-05
2.04425402568e-05
2.38747115167e-05
2.1197482176e-05
3.23404324509e-05
2.05827670385e-05
4.03566021212e-05
1.87834364769e-05
4.76947670743e-05
1.56320130792e-05
6.06839394146e-05
3.99739255623e-06
8.67309820649e-05
-1.32172957482e-05
9.79428623472e-05
1.99026858567e-05
0.000104374437866
4.16128702385e-05
0.000115058791946
2.49834522259e-05
0.000137837394742
-2.4144352334e-05
0.000151896673678
-4.93016005158e-05
0.000147094345523
1.42155770975e-05
0.000139910753953
6.65570808402e-05
0.000134852197747
9.58478622206e-05
0.000135527682382
8.18562329984e-05
0.000143807282338
5.63674968077e-05
0.000257554873892
-1.48424456476e-05
-0.000508284318571
6.51641327554e-06
1.22832113742e-05
1.35090380997e-05
1.34490587337e-05
2.07304203481e-05
1.39756410217e-05
2.79852778623e-05
1.33282327208e-05
3.56190572664e-05
1.1151163686e-05
4.46863836765e-05
6.56787340239e-06
6.02127434688e-05
-1.15225536752e-05
0.00010055779142
-5.35531996972e-05
0.000120469086367
0.000162092540007
0.00018709321599
0.000162973379833
0.000129980949422
0.00010935689357
0.000105749751207
0.000114617796629
0.000126587144573
0.000139253243925
0.000132384216586
6.10724425897e-06
6.17426326865e-06
1.27892641201e-05
6.76533993376e-06
1.98088201511e-05
6.95469142063e-06
2.64287220313e-05
6.70755505719e-06
3.16068295895e-05
5.97327064323e-06
3.4223925653e-05
3.9526968493e-06
2.74139083293e-05
-4.7092716111e-06
-2.61381682008e-05
5.56891660677e-06
6.03036318182e-07
1.17465999241e-05
5.8535966673e-07
1.81231033175e-05
5.76035918665e-07
2.42198038629e-05
6.09065799017e-07
2.95280785084e-05
6.63857380271e-07
3.27195778087e-05
7.61147679313e-07
2.71646588687e-05
8.46566399614e-07
1.02675840767e-06
5.58930948887e-06
-4.98891085382e-06
1.17836637633e-05
-5.61173518222e-06
1.8150570597e-05
-5.79367335177e-06
2.42453570725e-05
-5.4883771725e-06
2.95596859374e-05
-4.65269846554e-06
3.26614709616e-05
-2.34189752594e-06
2.71420386405e-05
6.36568886688e-06
2.81687668536e-05
6.17626181579e-06
1.28575874174e-05
1.98758751231e-05
2.64783921245e-05
3.16581024696e-05
3.45509357063e-05
2.7521387632e-05
)
;

boundaryField
{
    back
    {
        type            calculated;
        value           uniform 0;
    }
    sides
    {
        type            calculated;
        value           nonuniform List<scalar> 0();
    }
    bottom
    {
        type            calculated;
        value           uniform 0;
    }
    front
    {
        type            calculated;
        value           uniform 0;
    }
    atmosphere
    {
        type            calculated;
        value           nonuniform List<scalar> 7(0.000206858680746 0.00040353826447 -0.000247609937686 -0.000424830044309 0.000566711080423 0.0012227518539 -3.84278162975e-05);
    }
    floatingObject
    {
        type            calculated;
        value           uniform 0;
    }
    procBoundary3to4
    {
        type            processor;
        value           nonuniform List<scalar> 
13
(
-8.31289678238e-05
-8.33961904294e-05
-8.36635772772e-05
-6.24154781502e-05
-6.63656776938e-05
-6.97603360733e-05
-7.15356177141e-05
-7.12959458665e-05
-7.89335610503e-05
-7.06281773886e-05
4.17515250408e-05
-5.35600975227e-05
-6.0013648769e-05
)
;
    }
    procBoundary3to5
    {
        type            processor;
        value           nonuniform List<scalar> 10(-8.32577921135e-05 -8.23378532525e-05 -8.15920870516e-05 -8.06299797447e-05 -7.64820383169e-05 -7.44181852181e-05 -7.4333453165e-05 -7.62519500432e-05 -0.000175701579102 -1.96191876011e-05);
    }
    procBoundary3to6
    {
        type            processor;
        value           nonuniform List<scalar> 8(-1.62521063426e-05 3.49003661991e-05 7.02192007406e-05 8.70172158141e-05 6.99007875596e-05 4.3730261801e-05 -7.85491626078e-06 -0.000337380998718);
    }
    procBoundary3to8
    {
        type            processor;
        value           nonuniform List<scalar> 8(-1.11677126801e-05 -1.22957728302e-05 -1.28148133532e-05 -1.2093749649e-05 -9.83479395033e-06 -5.23644771017e-06 1.33946833492e-05 5.56903273234e-05);
    }
}


// ************************************************************************* //
