/*--------------------------------*- C++ -*----------------------------------*\
| =========                 |                                                 |
| \\      /  F ield         | OpenFOAM: The Open Source CFD Toolbox           |
|  \\    /   O peration     | Version:  v2012                                 |
|   \\  /    A nd           | Website:  www.openfoam.com                      |
|    \\/     M anipulation  |                                                 |
\*---------------------------------------------------------------------------*/
FoamFile
{
    version     2.0;
    format      ascii;
    class       surfaceVectorField;
    location    "2.3";
    object      Uf;
}
// * * * * * * * * * * * * * * * * * * * * * * * * * * * * * * * * * * * * * //

dimensions      [0 1 -1 0 0 0 0];


internalField   nonuniform List<vector> 
304
(
(0.041672808995 0.0099943217265 1.48391845549e-24)
(0.0402562055918 0.00888559024848 -1.74300275143e-23)
(0.0419944133806 0.0126007460089 -3.19744801552e-23)
(0.0404698066577 0.0114578208245 -6.17053256065e-23)
(0.0424211583053 0.0153253895358 -5.82846879722e-24)
(0.0407949324407 0.0141508689058 -5.3333892373e-24)
(0.0429198041246 0.0181974390018 5.41220677552e-24)
(0.0411857187004 0.0169755062079 1.33250665169e-24)
(0.04347458031 0.0212536922059 2.09847992787e-23)
(0.0416241073765 0.0199599678803 1.3724511844e-24)
(0.0440757025568 0.024539067399 2.09084024514e-23)
(0.0420897589449 0.0231470741015 3.35272128021e-23)
(0.0447076554448 0.028097228334 1.18730365556e-24)
(0.0425698000831 0.0265792400892 8.91584275437e-24)
(0.0430498747287 0.0303024672862 -1.67918684571e-24)
(0.0394669836382 0.00515888759358 1.55557839072e-22)
(0.0385396559454 0.00402222781938 3.36908673896e-22)
(0.0390425693534 0.00769409854887 -1.4481731287e-22)
(0.0378014931669 0.00642973693651 -2.29805226839e-22)
(0.0390795474217 0.010278594907 -8.06192715764e-23)
(0.0376717117727 0.00909620389582 -5.59290537472e-23)
(0.0393042877469 0.012944099125 -3.50642346886e-23)
(0.0378042474737 0.0117210328998 -6.45583831613e-23)
(0.0396018030229 0.0157199931938 1.82758621162e-24)
(0.0380189295115 0.014454414412 -6.0675538728e-24)
(0.0399377629071 0.0186334054718 -2.70724893943e-24)
(0.0382721621427 0.0173102759554 -2.12177910285e-24)
(0.0402949909626 0.0217211285483 1.39148647079e-23)
(0.038536243326 0.0203143827589 -5.13699113981e-24)
(0.0406553181613 0.0250250625419 2.15346531051e-23)
(0.0387857363246 0.0235035857829 1.87694984159e-23)
(0.0409942142502 0.0285742099188 6.0493522531e-24)
(0.0390206785989 0.0269128394928 4.41459483322e-24)
(0.0412889067675 0.0324367868652 -1.93307010247e-24)
(0.0391875018017 0.0305864098748 4.5907081182e-24)
(0.0392635139064 0.034581413848 -3.3149704577e-24)
(0.0369078801259 0.00526511297405 -4.84543920147e-23)
(0.0359371976542 0.004084466372 3.39506837049e-22)
(0.0364651232188 0.00784872990941 -1.40916967716e-22)
(0.0352179533632 0.00652814689323 -5.96411978151e-23)
(0.0364397712686 0.0104748417614 -3.98681653322e-23)
(0.0350456246529 0.00923280097278 5.86927600163e-23)
(0.0365716417732 0.0131738354959 -3.55617023455e-23)
(0.0351052249884 0.0118876455875 -3.79527713592e-23)
(0.0367481303326 0.0159711143154 -1.00169191873e-23)
(0.0352215737309 0.0146355889787 -1.40291674635e-23)
(0.0369352661799 0.0188974660362 -4.55152130324e-24)
(0.0353457035827 0.0174952762884 -6.79495149351e-24)
(0.0371126580203 0.021981700118 -2.82357431818e-25)
(0.0354519050191 0.0204879768285 -8.59226094091e-24)
(0.0372544149508 0.0252506579704 1.64944014398e-24)
(0.0355167162781 0.0236405274358 -8.80069349786e-24)
(0.0373282947956 0.0287449346006 2.95595069833e-24)
(0.0355264639357 0.0269811005457 -3.5588470968e-24)
(0.0373046482663 0.0325144427128 3.20880776297e-24)
(0.035418182481 0.030552424342 1.10475863789e-24)
(0.0343067250189 0.00532719837413 3.28320031248e-22)
(0.0333099121528 0.00411994096402 7.73196851039e-22)
(0.0338528794279 0.00794311227691 1.39968529917e-22)
(0.0326021334943 0.00658064967468 2.39997055852e-22)
(0.0337712276801 0.0105880731729 6.06081539893e-23)
(0.0324007078661 0.00930125834102 1.01574771974e-22)
(0.0338193831549 0.0132975681978 -1.64202364772e-23)
(0.0323957227862 0.0119670797744 -1.92607771932e-23)
(0.0338892287159 0.016096050658 -1.08071997697e-23)
(0.0324230389189 0.0147092092951 -1.26911359696e-23)
(0.0339450970601 0.0190049241684 -1.08356911312e-23)
(0.0324367493555 0.0175485150723 -7.63686359979e-24)
(0.0339619073341 0.0220515804614 -1.71105970069e-23)
(0.0324051681438 0.0205006951952 -3.04433323548e-24)
(0.0339120826141 0.0252539908264 -1.40089807386e-23)
(0.0323142729361 0.0235856662621 -1.26874319129e-23)
(0.0337605808518 0.028652778212 -5.41003915724e-24)
(0.0321277419263 0.0268240637383 -7.92505199015e-24)
(0.0318079240329 0.0302496316158 -5.18847666086e-26)
(0.0324918273234 0.00271558459277 8.92769983828e-22)
(0.0315852385348 0.00144459971322 7.32253157284e-22)
(0.0316734184868 0.00536253582489 6.84873875642e-22)
(0.0306631041037 0.00413323471515 1.04060893439e-21)
(0.0312190499441 0.00798302795589 2.01603297908e-22)
(0.0299817469291 0.00659780802207 2.49776837242e-22)
(0.0310921675232 0.010631128841 2.17058407911e-23)
(0.0297526668774 0.00931434219361 9.18220358158e-23)
(0.0310707117271 0.0133338997369 -1.55316766856e-23)
(0.0296929629321 0.0119745540401 -2.14968902562e-23)
(0.0310510685505 0.0161112440529 -9.52079979965e-24)
(0.0296456613761 0.0146931805771 -1.38913964874e-23)
(0.0309976460084 0.0189800598086 1.54494295913e-25)
(0.0295678712421 0.0174927577459 -8.91456996582e-24)
(0.0308812368342 0.0219675415625 1.37883185861e-24)
(0.0294176205562 0.0203801936218 -1.45675694043e-24)
(0.0306724993222 0.0250666584532 -6.60350316438e-24)
(0.0292151280074 0.0233718558237 -5.39014094333e-24)
(0.0303392846781 0.0283195886998 -2.56689759952e-24)
(0.0288748327529 0.0264857798815 7.10291955953e-25)
(0.0283801317042 0.0297380603797 1.38205231606e-23)
(0.0298030492556 0.00271812039347 8.80092107848e-22)
(0.0288672724136 0.00145712673508 3.77502171235e-22)
(0.029032992146 0.00536751089872 6.05511895992e-22)
(0.028013856015 0.00412536836915 1.02853184704e-21)
(0.0285835825417 0.00798469170543 1.39995575149e-22)
(0.027364678597 0.00658325324789 8.94618879505e-23)
(0.028423981583 0.010618862001 4.86193047685e-23)
(0.0271185676912 0.00928426053832 9.51384018837e-23)
(0.0283458366501 0.0132976510601 -1.9856610058e-23)
(0.0270141982529 0.0119231569802 -2.11308348975e-23)
(0.0282523652156 0.0160359901506 -1.32851666536e-23)
(0.0269073027814 0.0146028298593 -7.34854448287e-24)
(0.0281103745578 0.0188491432598 -1.05258212022e-23)
(0.0267546679461 0.0173481263342 -2.16890588931e-24)
(0.0278909027963 0.021737588235 -8.22572974238e-24)
(0.0265291184276 0.0201563874499 9.45618552048e-24)
(0.0275623728549 0.024730386798 1.923654177e-24)
(0.0262222540771 0.0230384770194 -6.03853283789e-24)
(0.0270923949141 0.0278264324924 1.70977127161e-23)
(0.0257787731248 0.0260109416174 1.40368744085e-23)
(0.0271238436017 0.0027100077154 5.2594191043e-22)
(0.0261574115265 0.00146572225929 1.79863293013e-22)
(0.0264053729674 0.00534758197524 5.12481839002e-22)
(0.0253764209906 0.00410003365477 1.12096573537e-21)
(0.0259658703226 0.0079490555625 4.46047146848e-23)
(0.0247633187562 0.00654176127125 3.07518468751e-22)
(0.0257818751352 0.0105596118123 2.53882622177e-23)
(0.0245080872726 0.0092181810872 1.14453329393e-22)
(0.0256589113142 0.0132018985191 -8.62276932237e-24)
(0.0243719429587 0.0118244572378 2.90685743738e-25)
(0.0255074369234 0.0158879027908 3.7677162814e-24)
(0.0242212868791 0.014454449565 3.46411627819e-24)
(0.0252963254706 0.0186283840252 1.78131008333e-23)
(0.0240141435752 0.017134664879 4.1143157193e-24)
(0.0250016082817 0.0214204744271 1.1643382425e-23)
(0.0237369358724 0.0198576219061 1.42936277425e-23)
(0.0245913761884 0.0242820487478 6.07468739361e-24)
(0.0233605875239 0.0226241239618 -6.95584877332e-24)
(0.0244596059181 0.00269175728626 7.74887117956e-22)
(0.023465792041 0.00146991980962 6.54905915837e-22)
(0.0237966130654 0.00531008607348 9.16002365121e-22)
(0.0227582228994 0.00406144663292 1.44221432725e-21)
(0.023374265021 0.00788784201101 3.77367083459e-22)
(0.0221856705481 0.00648032261518 6.15128166083e-22)
(0.0231748336156 0.0104630291683 8.93557529195e-23)
(0.0219329728791 0.00912552774598 1.96786112467e-22)
(0.0230204961866 0.0130605127912 1.23775713443e-23)
(0.0217744902654 0.0116919784988 1.1077433582e-23)
(0.0228295390659 0.0156860594054 3.81071571608e-24)
(0.0215957299928 0.0142664811617 3.33516942923e-24)
(0.022571944584 0.0183513836351 5.9484262844e-25)
(0.0213487659057 0.0168754775598 8.65236224485e-24)
(0.0222268858116 0.0210474384566 -4.3056034558e-24)
(0.0210407821585 0.0195097704719 3.45561697038e-24)
(0.0206253653546 0.0221619739068 -1.69676478579e-24)
(0.0218161099509 0.00266617299203 1.32223312513e-21)
(0.0207997423587 0.00146887856766 9.63130744395e-22)
(0.0212125635573 0.00525996274828 1.14134012821e-21)
(0.0201645483153 0.00401380212277 1.87442957196e-21)
(0.0208140767767 0.00780091006769 4.34547195091e-22)
(0.0196448169372 0.00640489796888 8.96403165475e-22)
(0.0206071924099 0.0103429264698 1.18507793129e-22)
(0.0193910177162 0.00901403996366 2.84077104059e-22)
(0.0204338642968 0.0128949153746 2.03503166691e-24)
(0.0192225236073 0.0115380525117 3.11682362021e-23)
(0.0202212624666 0.0154634522102 8.17681595799e-24)
(0.0190271764703 0.0140568972728 5.73806204032e-24)
(0.0199399405343 0.018040427858 1.15131365868e-23)
(0.0187717298932 0.0165931715297 1.12176526649e-23)
(0.0195694950219 0.0206312655242 6.0644556404e-24)
(0.018449854279 0.0191371880094 9.6561479654e-24)
(0.0180232657173 0.0216809094715 -6.118710643e-25)
(0.0192006845039 0.00263473042149 1.51532719123e-21)
(0.0181651145611 0.00146218622161 6.59805387376e-22)
(0.0186591091474 0.00519671974524 1.62949260923e-21)
(0.0176026517214 0.00395969876156 1.7219422941e-21)
(0.0182892735949 0.00770785153376 7.45933074443e-22)
(0.017133757082 0.00631985841 9.746809157e-22)
(0.0180824437541 0.0102058056107 1.96737547132e-22)
(0.0168931050461 0.00889116344203 3.43240178973e-22)
(0.0179015123536 0.0127052515056 3.48712665755e-23)
(0.0167230826323 0.0113739550694 7.65090687646e-23)
(0.0176810647555 0.0152087859871 8.77889874721e-24)
(0.0165236111441 0.0138391292877 1.00895504315e-23)
(0.0173946440419 0.0177075095964 9.36066404348e-24)
(0.0162729446686 0.0163062118235 9.410525181e-24)
(0.0170226626382 0.0202063987218 2.9798212607e-24)
(0.0159508783682 0.01876416711 9.68765148464e-24)
(0.0165488123562 0.0226924996942 -8.45978882543e-25)
(0.0155370706947 0.0212060927514 -2.08395263776e-24)
(0.0150157291315 0.0236221905338 1.27402790526e-23)
(0.0166200524052 0.00259773469435 8.66420490249e-22)
(0.0155674565762 0.00145126636447 2.67673859854e-22)
(0.0161399985359 0.00512793678378 1.06713060057e-21)
(0.0150725141298 0.00389910611642 1.3428977537e-21)
(0.0158020524806 0.00760515427787 5.71988020231e-22)
(0.0146565831097 0.00622859142696 9.07155655122e-22)
(0.0156041457613 0.0100636260982 2.23011700606e-22)
(0.0144346473975 0.00876635411214 3.56481317688e-22)
(0.0154265131688 0.0125152645193 5.17273526206e-23)
(0.0142714244423 0.0112114140371 1.02369377655e-22)
(0.0152092444926 0.0149592885443 1.07211768653e-23)
(0.0140795354834 0.0136246823934 2.53482211375e-23)
(0.0149308919392 0.0173866123713 9.73751262216e-24)
(0.0138455463983 0.0160277570272 2.3844412213e-23)
(0.0145762956166 0.0197964268875 4.62387758617e-24)
(0.0135409776135 0.0184092387421 1.53098366842e-23)
(0.0141296374329 0.0221765067527 1.15023052974e-23)
(0.0131569128509 0.0207598293887 8.59971777022e-24)
(0.0126789771335 0.0230681884793 2.37180812657e-23)
(0.0140731614205 0.00255736757339 7.44151123301e-22)
(0.0130101361151 0.00142989173566 5.34922471136e-23)
(0.0136516344961 0.00505147892195 1.18292280825e-21)
(0.0125784349024 0.00383219420369 1.31451377702e-21)
(0.0133499073058 0.00750068427622 6.9164895258e-22)
(0.0122073879624 0.00613768485457 9.94143400586e-22)
(0.0131690933839 0.00992509040607 2.35838994737e-22)
(0.012010222754 0.0086497644902 3.65064700886e-22)
(0.0130035340785 0.0123362785843 7.59902461723e-23)
(0.011860186316 0.0110612822409 1.45726838896e-22)
(0.012800687848 0.014721062226 3.84714564852e-23)
(0.011694674864 0.0134274754791 9.08559804385e-23)
(0.0125435493669 0.0170855288049 2.94167362751e-23)
(0.0114809881768 0.0157742449386 7.26801861504e-23)
(0.0122200049135 0.0194170270084 1.92856768683e-23)
(0.0112093890528 0.0180894439258 6.08795059132e-23)
(0.0118165621514 0.0217051411969 2.08154937385e-23)
(0.010868729954 0.0203612972136 2.90367289304e-23)
(0.0104481828142 0.0225787723567 4.66932036034e-23)
(0.0115616531786 0.00250594786078 6.23854900834e-22)
(0.0105042036804 0.00138268282907 2.86156425515e-22)
(0.0111892920508 0.00497453748864 1.12573436936e-21)
(0.0101098427593 0.00376774315535 1.49192049098e-21)
(0.0109263806816 0.00740499002093 6.67559148891e-22)
(0.00977690970843 0.00606034809001 8.20078818239e-22)
(0.0107677023245 0.00980417698743 2.74952545044e-22)
(0.00961098185286 0.00855621656051 3.4884603863e-22)
(0.0106216412017 0.0121727200273 1.60592573162e-22)
(0.0094915608318 0.0109420281967 1.62594118656e-22)
(0.0104444008096 0.0145148483923 1.25064710104e-22)
(0.0093524427958 0.0132718195522 2.09343197045e-22)
(0.0102210732474 0.016822627691 1.04142955789e-22)
(0.009173099793 0.0155738320979 1.16638040278e-22)
(0.00994025766847 0.0190875320758 7.06305579753e-23)
(0.00894439000114 0.017834636991 1.81004382573e-22)
(0.00959166863175 0.0212986702089 5.49144387952e-23)
(0.00865750393816 0.0200423555932 1.50974812858e-22)
(0.00830435945155 0.0221868530727 5.54776532672e-23)
(0.00909445559886 0.00244563793479 1.15422201566e-21)
(0.00805854914409 0.00133208684533 9.99505521838e-22)
(0.00874777703737 0.00491111476841 1.18626493986e-21)
(0.00764432890837 0.00374006862415 2.27905975681e-21)
(0.00852271944032 0.00733468611452 5.01365707978e-22)
(0.00735327704443 0.00603686066033 8.99501139855e-22)
(0.00839471162526 0.00971797599356 2.36487612241e-22)
(0.00722760349995 0.00853107344985 3.12378330887e-22)
(0.00827971117732 0.0120643056027 2.11344742538e-22)
(0.00714511783929 0.0109064728603 2.47294665288e-22)
(0.00813891525884 0.0143724039317 2.00916527219e-22)
(0.00704421673145 0.0132176692818 4.95641785822e-22)
(0.00795826249191 0.0166370728502 1.93499467062e-22)
(0.00690830809828 0.0154934394496 1.47104894533e-22)
(0.00772914561668 0.0188506309724 2.61348637456e-22)
(0.00673070878562 0.0177204506305 5.6392862122e-22)
(0.00744417906162 0.0210021856777 1.5153802733e-22)
(0.00650588883193 0.019887002563 4.99139982682e-22)
(0.00655167039036 0.00243407669094 2.12434326298e-21)
(0.00562442157941 0.00136175362545 9.43280782646e-22)
(0.00619740740688 0.00491799038257 1.9922959568e-21)
(0.00516034614828 0.00385281514472 2.00918619565e-21)
(0.00600835205877 0.00735770630003 7.10513762764e-22)
(0.00491346845287 0.00616906092787 7.9168462044e-22)
(0.00592651283937 0.0097454726164 3.23185383933e-22)
(0.00483971919905 0.00868011994193 2.15591865297e-22)
(0.00585915109493 0.012088411981 5.31591708572e-22)
(0.00480204033058 0.0110742355329 3.94648135351e-22)
(0.00576563248671 0.0143854676231 4.41830153136e-22)
(0.00474701637568 0.0134005144954 8.23451257345e-22)
(0.00563612165286 0.0166336741451 5.17534048691e-22)
(0.00465996409439 0.0156888359465 6.78632467954e-23)
(0.00546675378557 0.0188244460082 8.01719966446e-22)
(0.00453982463461 0.0179253838801 8.1041122206e-22)
(0.00438368070129 0.0200964341122 8.30166098327e-22)
(0.00424623701085 0.0025946675896 8.28123715317e-22)
(0.0030296792174 0.00158011623136 3.22401588339e-22)
(0.00388141494401 0.00514464210328 8.0857485929e-22)
(0.00261028037993 0.00422780160208 7.66292487175e-22)
(0.00373505026577 0.00761907227854 2.96762722973e-22)
(0.00243892472399 0.00652864467738 3.36808568829e-22)
(0.00370213747423 0.0100406493219 2.87054616715e-22)
(0.00241800669698 0.00903907815335 2.57561093394e-22)
(0.00367796484951 0.0124165700337 6.86507684124e-22)
(0.00242596960283 0.011468409158 4.58626530423e-22)
(0.00362703729265 0.0147523106374 4.49484351004e-22)
(0.00241112733137 0.0138469135893 9.47620110805e-22)
(0.00354615392713 0.0170401237392 3.60740420165e-22)
(0.00237201781145 0.0161964026687 1.50043630175e-22)
(0.00343571594294 0.0192681856681 8.38857353941e-22)
(0.00231164002194 0.018495680141 1.06768659578e-21)
(0.00223003710183 0.0207255639091 1.11688757911e-21)
(0.00162755369359 0.00302963480002 2.60570360196e-22)
(0.00139410399196 0.00563986086069 2.94526196714e-22)
(0.00135501997701 0.00807872036722 2.9760693925e-22)
(0.00138776250236 0.0104966530524 4.29133007102e-22)
(0.00141730740887 0.0129225460979 7.19738957103e-22)
(0.00142599108197 0.0153336049292 6.48179389976e-22)
(0.00141924515047 0.0177055521104 8.56989805793e-22)
(0.00140045054353 0.0200171502891 1.34571682095e-21)
)
;

boundaryField
{
    back
    {
        type            calculated;
        value           uniform (0 0 0);
    }
    sides
    {
        type            calculated;
        value           uniform (0 0 0);
    }
    bottom
    {
        type            calculated;
        value           uniform (0 0 0);
    }
    front
    {
        type            calculated;
        value           uniform (0 0 0);
    }
    atmosphere
    {
        type            calculated;
        value           nonuniform List<vector> 0();
    }
    floatingObject
    {
        type            calculated;
        value           nonuniform List<vector> 0();
    }
    procBoundary10to9
    {
        type            processor;
        value           nonuniform List<vector> 
15
(
(0.0427741665263 0.00860049991565 6.40991251996e-23)
(0.0430763644628 0.0110956813354 -4.26789395683e-23)
(0.0435198076917 0.0137180629156 -1.04027609374e-23)
(0.0440580800765 0.0164783758081 6.08378631105e-24)
(0.0446806797698 0.0194083099815 1.08515971858e-23)
(0.045375355332 0.0225500618466 3.22131087695e-23)
(0.0461279881488 0.0259526379963 1.2423273795e-23)
(0.0469430789375 0.0296676505544 -1.26330340034e-23)
(0.041088762402 0.00392867491253 5.28179852523e-22)
(0.041571404089 0.00747637616253 9.99936282392e-23)
(0.0403366333931 0.00627768447382 -2.73936571167e-23)
(0.0404085229744 0.00260961117081 1.29274146178e-22)
(0.0378127624818 0.00266243473335 9.04659395088e-23)
(0.0351711838347 0.00269966250094 2.63225228342e-22)
(0.0343005476829 0.00142686541162 3.82798361131e-22)
)
;
    }
    procBoundary10to11
    {
        type            processor;
        value           nonuniform List<vector> 
23
(
(0.045352463189 0.0319906326793 -1.26443966032e-23)
(0.0434961740593 0.0343860854961 -1.28982798599e-23)
(0.0415180091676 0.0366698003466 1.31964688313e-23)
(0.0371489279728 0.0366087234752 1.66930118201e-23)
(0.0351694248392 0.0343931367342 -2.4458538283e-23)
(0.0334674799397 0.0322631766925 -2.65625874081e-23)
(0.0298370910249 0.0317474659313 -3.80919510889e-24)
(0.0264394164179 0.0310424634686 5.64999576708e-23)
(0.0251641268703 0.0290758406582 2.99487715864e-23)
(0.0240311733713 0.0272175521134 2.68879332788e-23)
(0.0228431924887 0.0254469828124 8.02006768375e-24)
(0.021767089237 0.0237825401505 -5.01046848318e-24)
(0.0190901195653 0.0232332587792 1.12850289924e-23)
(0.0174779453718 0.0242204837379 1.10509211742e-23)
(0.015951144935 0.0251545983153 -9.10162856751e-24)
(0.0135744929461 0.0245132147027 9.62099714052e-24)
(0.011320915251 0.0239358995553 1.98415279449e-23)
(0.00916629184935 0.023442487253 6.87657301366e-23)
(0.00709608179965 0.0230790632776 1.13311865468e-22)
(0.00622744565574 0.0219831969472 3.3271286462e-24)
(0.00525278408936 0.020946566974 3.50929083998e-22)
(0.0032932990229 0.0214217625212 5.48647853382e-22)
(0.00137001470481 0.0222471569222 9.87745147777e-22)
)
;
    }
}


// ************************************************************************* //
