/*--------------------------------*- C++ -*----------------------------------*\
| =========                 |                                                 |
| \\      /  F ield         | OpenFOAM: The Open Source CFD Toolbox           |
|  \\    /   O peration     | Version:  v2012                                 |
|   \\  /    A nd           | Website:  www.openfoam.com                      |
|    \\/     M anipulation  |                                                 |
\*---------------------------------------------------------------------------*/
FoamFile
{
    version     2.0;
    format      ascii;
    class       volScalarField;
    location    "4.7";
    object      nut;
}
// * * * * * * * * * * * * * * * * * * * * * * * * * * * * * * * * * * * * * //

dimensions      [0 2 -1 0 0 0 0];


internalField   nonuniform List<scalar> 
164
(
0.000332117348726
0.000494287283979
0.000509842273516
0.000515744672332
0.00051827768966
0.000519693661862
0.000520816153076
0.000521945744031
0.000332612795447
0.000495008592309
0.000510562546009
0.000516418243564
0.000518888866762
0.000520241088697
0.000521301102767
0.000522368669623
0.000523571317892
0.000525062313094
0.00052730255401
0.000333036300891
0.000495631647246
0.000511188296146
0.000517003154275
0.000519418616538
0.000520715288997
0.000521720614642
0.000522732521367
0.000523876454437
0.000525292967082
0.000527401946632
0.000531564422881
0.000541572211697
0.000333392225905
0.000496159624863
0.000511720875272
0.000517501062707
0.000519867673359
0.000521114884289
0.000522072643939
0.00052303476016
0.000524121995535
0.000525457772204
0.0005273994407
0.000531112934978
0.000539940081424
0.000562249670396
0.000333684471481
0.00049659466451
0.000512162365533
0.000517913891462
0.000520238270807
0.000521441838697
0.00052235593733
0.00052327316098
0.000524307541302
0.000525563799252
0.000527331609865
0.000530561463663
0.000538077827645
0.000557465902754
0.000333914471091
0.000496938531725
0.000512514763089
0.000518243662093
0.000520532432341
0.000521698307868
0.000522573882272
0.000523450096317
0.000524436020026
0.00052562212615
0.000527241120472
0.000530062810128
0.000536467067166
0.0005533311633
0.00033408447486
0.000497192130925
0.000512779857919
0.000518492273303
0.000520752223202
0.000521886305898
0.000522728776857
0.000523568556878
0.000524511946735
0.000525639811741
0.000527148929068
0.000529691217295
0.00053535918353
0.000550624026812
0.000334202970326
0.000497362703689
0.000512960619831
0.000518661223934
0.000520898991637
0.000522007238432
0.000522821716391
0.000523630289173
0.000524537865504
0.000525620467782
0.000527057472253
0.000529438360636
0.00053470066815
0.000549103386783
0.000334277320994
0.000497455415225
0.000513060431992
0.000518753729329
0.00052097531812
0.000522063015021
0.000522854050542
0.000523636295461
0.000524514084495
0.000525562397789
0.000526955269766
0.000529255079381
0.000534317260736
0.000548227137856
0.000334303973391
0.000497472221932
0.000513083791224
0.000518774013761
0.000520984516298
0.000522056274814
0.000522827998731
0.000523588078709
0.000524441176822
0.000525463639474
0.000526830629749
0.000529097976398
0.00053408036571
0.000547760537631
0.000589177753944
0.000707154888518
0.000334282112965
0.000497417681122
0.000513036047424
0.000518726289037
0.000520929517509
0.000521989003686
0.000522744900288
0.000523486437761
0.000524319313434
0.000525322382313
0.000526675161598
0.000528936208552
0.000533912947981
0.00054756203577
0.000588960451266
0.000706573458559
0.000334213386793
0.000497297575387
0.000512922069481
0.000518614071069
0.000520812761895
0.000521862925113
0.000522606018259
0.000523332311113
0.000524148880443
0.000525137570976
0.000526483425422
0.000528752607437
0.000533745986719
0.000547406400621
0.00058882656975
0.000706078788922
)
;

boundaryField
{
    back
    {
        type            nutkWallFunction;
        blending        stepwise;
        Cmu             0.09;
        kappa           0.41;
        E               9.8;
        value           nonuniform List<scalar> 
164
(
4.74042614932e-05
5.23836269192e-05
5.38816967838e-05
5.44490962461e-05
5.46925494599e-05
5.48291045366e-05
5.49377719308e-05
5.50472796979e-05
4.74695593027e-05
5.24541297694e-05
5.39519215343e-05
5.45147390352e-05
5.4752099612e-05
5.48824248353e-05
5.49849837511e-05
5.50884256075e-05
5.52048145807e-05
5.53484062961e-05
5.55622397942e-05
4.75253875316e-05
5.25150220814e-05
5.40129134692e-05
5.45717182304e-05
5.48037150602e-05
5.4928623668e-05
5.50258505089e-05
5.51238572896e-05
5.52345087065e-05
5.53708982838e-05
5.55722064515e-05
5.59660430999e-05
5.69079430244e-05
4.75723148051e-05
5.25666158309e-05
5.406481382e-05
5.46201966512e-05
5.48474661937e-05
5.49675654807e-05
5.50601592637e-05
5.51533178308e-05
5.52584865889e-05
5.53871658923e-05
5.55727043746e-05
5.59244713291e-05
5.67560472385e-05
5.88432514618e-05
4.76108568257e-05
5.26091329285e-05
5.41078339791e-05
5.46603672126e-05
5.4883561854e-05
5.49994285907e-05
5.50877864338e-05
5.51765992436e-05
5.52766791384e-05
5.53978117107e-05
5.55670692692e-05
5.58737398944e-05
5.65833834855e-05
5.84014447686e-05
4.76412253128e-05
5.26427499748e-05
5.41421736205e-05
5.46924378536e-05
5.49121958421e-05
5.50244181436e-05
5.5109045331e-05
5.5193896137e-05
5.52893257903e-05
5.54038141274e-05
5.55591647683e-05
5.58278551585e-05
5.64341869894e-05
5.80206494981e-05
4.76636038432e-05
5.26676384993e-05
5.41680387617e-05
5.47166059375e-05
5.49335544616e-05
5.50427062486e-05
5.51241313632e-05
5.52054705178e-05
5.52968257442e-05
5.54057977705e-05
5.55508782739e-05
5.57935494885e-05
5.63312915819e-05
5.77708860382e-05
4.76792396365e-05
5.26843659089e-05
5.41856821863e-05
5.47330301528e-05
5.49477840515e-05
5.50544229649e-05
5.51331445776e-05
5.52114797785e-05
5.52993999358e-05
5.54040660544e-05
5.55423756653e-05
5.57700087006e-05
5.62698984253e-05
5.76296833359e-05
4.76890998873e-05
5.26934402752e-05
5.41954228661e-05
5.47420078807e-05
5.49551469637e-05
5.50597761041e-05
5.51362345759e-05
5.52120385004e-05
5.52971033006e-05
5.5398506646e-05
5.55326856278e-05
5.5752856786e-05
5.62344128401e-05
5.75496572205e-05
4.76926922288e-05
5.2695077707e-05
5.41977014815e-05
5.47439525116e-05
5.49559776875e-05
5.50590434334e-05
5.51336344318e-05
5.52073069353e-05
5.52900061247e-05
5.53889488748e-05
5.55207167598e-05
5.57380028469e-05
5.62125943367e-05
5.75076436022e-05
6.13994409876e-05
7.2376842918e-05
4.76899006619e-05
5.26897292611e-05
5.41930355467e-05
5.47392726512e-05
5.49505654743e-05
5.50524274146e-05
5.51254869411e-05
5.51973753537e-05
5.52781363206e-05
5.53752336265e-05
5.55056937354e-05
5.57225560181e-05
5.6196842706e-05
5.74897004677e-05
6.1383851563e-05
7.23516640241e-05
4.76809159781e-05
5.26779322731e-05
5.41818921916e-05
5.47283087231e-05
5.49391508046e-05
5.50400996975e-05
5.51119205868e-05
5.51823422126e-05
5.52615400807e-05
5.53572688662e-05
5.54871162099e-05
5.57048182775e-05
5.61809426362e-05
5.74755663561e-05
6.13757433497e-05
7.23333483193e-05
)
;
    }
    sides
    {
        type            nutkWallFunction;
        blending        stepwise;
        Cmu             0.09;
        kappa           0.41;
        E               9.8;
        value           nonuniform List<scalar> 0();
    }
    bottom
    {
        type            nutkWallFunction;
        blending        stepwise;
        Cmu             0.09;
        kappa           0.41;
        E               9.8;
        value           nonuniform List<scalar> 
12
(
2.51554084779e-05
2.51903483522e-05
2.52202209305e-05
2.52453305946e-05
2.52659533787e-05
2.52822026471e-05
2.52941766829e-05
2.53025428725e-05
2.53078187529e-05
2.53097408911e-05
2.53082472217e-05
2.5303439828e-05
)
;
    }
    front
    {
        type            nutkWallFunction;
        blending        stepwise;
        Cmu             0.09;
        kappa           0.41;
        E               9.8;
        value           nonuniform List<scalar> 
164
(
4.74042614932e-05
5.23836269192e-05
5.38816967838e-05
5.44490962461e-05
5.46925494599e-05
5.48291045366e-05
5.49377719308e-05
5.50472796979e-05
4.74695593027e-05
5.24541297694e-05
5.39519215343e-05
5.45147390352e-05
5.4752099612e-05
5.48824248353e-05
5.49849837511e-05
5.50884256075e-05
5.52048145807e-05
5.53484062961e-05
5.55622397942e-05
4.75253875316e-05
5.25150220814e-05
5.40129134692e-05
5.45717182304e-05
5.48037150602e-05
5.4928623668e-05
5.50258505089e-05
5.51238572896e-05
5.52345087065e-05
5.53708982838e-05
5.55722064515e-05
5.59660430999e-05
5.69079430244e-05
4.75723148051e-05
5.25666158309e-05
5.406481382e-05
5.46201966512e-05
5.48474661937e-05
5.49675654807e-05
5.50601592637e-05
5.51533178308e-05
5.52584865889e-05
5.53871658923e-05
5.55727043746e-05
5.59244713291e-05
5.67560472385e-05
5.88432514618e-05
4.76108568257e-05
5.26091329285e-05
5.41078339791e-05
5.46603672126e-05
5.4883561854e-05
5.49994285907e-05
5.50877864338e-05
5.51765992436e-05
5.52766791384e-05
5.53978117107e-05
5.55670692692e-05
5.58737398944e-05
5.65833834855e-05
5.84014447686e-05
4.76412253128e-05
5.26427499748e-05
5.41421736205e-05
5.46924378536e-05
5.49121958421e-05
5.50244181436e-05
5.5109045331e-05
5.5193896137e-05
5.52893257903e-05
5.54038141274e-05
5.55591647683e-05
5.58278551585e-05
5.64341869894e-05
5.80206494981e-05
4.76636038432e-05
5.26676384993e-05
5.41680387617e-05
5.47166059375e-05
5.49335544616e-05
5.50427062486e-05
5.51241313632e-05
5.52054705178e-05
5.52968257442e-05
5.54057977705e-05
5.55508782739e-05
5.57935494885e-05
5.63312915819e-05
5.77708860382e-05
4.76792396365e-05
5.26843659089e-05
5.41856821863e-05
5.47330301528e-05
5.49477840515e-05
5.50544229649e-05
5.51331445776e-05
5.52114797785e-05
5.52993999358e-05
5.54040660544e-05
5.55423756653e-05
5.57700087006e-05
5.62698984253e-05
5.76296833359e-05
4.76890998873e-05
5.26934402752e-05
5.41954228661e-05
5.47420078807e-05
5.49551469637e-05
5.50597761041e-05
5.51362345759e-05
5.52120385004e-05
5.52971033006e-05
5.5398506646e-05
5.55326856278e-05
5.5752856786e-05
5.62344128401e-05
5.75496572205e-05
4.76926922288e-05
5.2695077707e-05
5.41977014815e-05
5.47439525116e-05
5.49559776875e-05
5.50590434334e-05
5.51336344318e-05
5.52073069353e-05
5.52900061247e-05
5.53889488748e-05
5.55207167598e-05
5.57380028469e-05
5.62125943367e-05
5.75076436022e-05
6.13994409876e-05
7.2376842918e-05
4.76899006619e-05
5.26897292611e-05
5.41930355467e-05
5.47392726512e-05
5.49505654743e-05
5.50524274146e-05
5.51254869411e-05
5.51973753537e-05
5.52781363206e-05
5.53752336265e-05
5.55056937354e-05
5.57225560181e-05
5.6196842706e-05
5.74897004677e-05
6.1383851563e-05
7.23516640241e-05
4.76809159781e-05
5.26779322731e-05
5.41818921916e-05
5.47283087231e-05
5.49391508046e-05
5.50400996975e-05
5.51119205868e-05
5.51823422126e-05
5.52615400807e-05
5.53572688662e-05
5.54871162099e-05
5.57048182775e-05
5.61809426362e-05
5.74755663561e-05
6.13757433497e-05
7.23333483193e-05
)
;
    }
    atmosphere
    {
        type            calculated;
        value           nonuniform List<scalar> 0();
    }
    floatingObject
    {
        type            nutkWallFunction;
        blending        stepwise;
        Cmu             0.09;
        kappa           0.41;
        E               9.8;
        value           nonuniform List<scalar> 0();
    }
    procBoundary7to6
    {
        type            processor;
        value           nonuniform List<scalar> 
11
(
0.000618040312179
0.000608500058946
0.000600275860674
0.000595186974012
0.00059232363026
0.000590313516176
0.000590313516176
0.000710430315124
0.00097131306307
0.00096686890122
0.000962727599408
)
;
    }
    procBoundary7to8
    {
        type            processor;
        value           nonuniform List<scalar> 
17
(
0.000331543090254
0.000493463331076
0.000509024450658
0.000514979784337
0.000517582265923
0.000519070091323
0.000520263732335
0.000521464548729
0.00052321346896
0.00052321346896
0.00052477535196
0.000527108463506
0.00053177232982
0.00053177232982
0.000542497486075
0.000566416576044
0.000566416576044
)
;
    }
    procBoundary7to9
    {
        type            processor;
        value           nonuniform List<scalar> 
16
(
0.00033409813326
0.000497115503772
0.000512745598495
0.00051844068579
0.000520637040015
0.000521680411158
0.000522413227621
0.000523126942143
0.000523930086115
0.000524907654408
0.000526250521554
0.000528531535252
0.000533536765876
0.000547118352717
0.000587955015865
0.000703029884031
)
;
    }
}


// ************************************************************************* //
