/*--------------------------------*- C++ -*----------------------------------*\
| =========                 |                                                 |
| \\      /  F ield         | OpenFOAM: The Open Source CFD Toolbox           |
|  \\    /   O peration     | Version:  v2012                                 |
|   \\  /    A nd           | Website:  www.openfoam.com                      |
|    \\/     M anipulation  |                                                 |
\*---------------------------------------------------------------------------*/
FoamFile
{
    version     2.0;
    format      ascii;
    class       surfaceScalarField;
    location    "3";
    object      alphaPhi0.water;
}
// * * * * * * * * * * * * * * * * * * * * * * * * * * * * * * * * * * * * * //

dimensions      [0 3 -1 0 0 0 0];
oriented        oriented;


internalField   nonuniform List<scalar> 
302
(
-8.25860919897e-05
0.00018108053102
-9.50157182417e-05
0.000185003542095
-0.00010819010187
0.000189705628875
-0.000122288458962
0.00019530871741
-0.000137438181514
0.000202013048546
-0.000153870160035
0.000209924391023
-0.000171892908067
0.000218657117092
-0.000191770496033
0.000226742430282
-0.000212236144847
0.000232161908373
-0.000231629643521
0.000235127384756
-8.81346384583e-05
0.000194942652017
-6.85989004924e-08
2.67319487281e-05
5.27092411878e-09
-5.68667451033e-05
0.000185364324328
-6.75278672063e-05
0.000188453668126
-7.86271631115e-05
0.000192179681204
-9.02192601711e-05
0.000196595143965
-0.000102395195077
0.0002018807504
-0.00011530462304
0.000208217027002
-0.000128985203272
0.000215692558113
-0.000143689721219
0.00022462822176
-0.000159634524835
0.000234603112068
-0.000176944846044
0.000244054294891
-0.000194366604966
0.000249584020274
-0.00020778388394
0.000248544012408
-7.71845366914e-05
0.000198225691117
-3.28692523124e-07
2.83543910007e-05
3.53993000869e-09
-8.20826920559e-06
0.000174011558681
0.000180126313795
-4.41291187802e-05
0.000192136370625
-5.37968598179e-05
0.000195032884984
-6.37752778354e-05
0.000198432306249
-7.41026889985e-05
0.000202506732961
-8.48701306086e-05
0.000207362287634
-9.59316517932e-05
0.000212941883999
-0.000107565331341
0.000219850246848
-0.000119703399066
0.000227830231985
-0.000132143210152
0.000237067883735
-0.000145070585467
0.000247531767071
-0.000158311578595
0.000257299688795
-0.000170992412494
0.00026226450365
-0.00018083018041
0.000258382870606
-6.86296119057e-05
0.000202224335815
-4.24513304871e-07
3.01300451209e-05
-1.44926464544e-11
-7.64399432682e-06
0.000181655261484
-1.57514027597e-05
0.0001882334368
-2.40707000733e-05
0.000194061298012
-3.26268442965e-05
0.000197920391876
-4.14091373259e-05
0.000200918354666
-5.0407700045e-05
0.000204031210604
-5.96583920014e-05
0.000207682761653
-6.91760099597e-05
0.000212024045819
-7.89548494188e-05
0.000217140908917
-8.91137858761e-05
0.000223100567233
-9.93441918183e-05
0.000230080395885
-0.000109748032356
0.000238233880196
-0.000120195386152
0.000247515201143
-0.000130384288743
0.00025772135806
-0.000140205144645
0.000267127701057
-0.000149957570468
0.000272017071644
-0.000159274764602
0.000267700242212
-6.33599254301e-05
0.000210002976155
-7.93204497263e-11
3.23463347685e-05
-4.61278581522e-12
-7.1638345741e-06
0.000188818850824
-1.45748994259e-05
0.000195644247423
-2.2334501469e-05
0.000201820687529
-3.02982342689e-05
0.000205883945825
-3.84487379283e-05
0.000209068532852
-4.6755082638e-05
0.000212337290846
-5.52804593973e-05
0.000216208029014
-6.39875135194e-05
0.000220730841243
-7.28946618113e-05
0.000226047860201
-8.1932100952e-05
0.00023213777515
-9.10435913392e-05
0.000239191641024
-0.000100029305727
0.000247219388477
-0.000108732978873
0.000256218775766
-0.000116821671162
0.000265810291788
-0.000124374637875
0.0002746856949
-0.000133271111939
0.000280912577753
-0.00014248909076
0.000276917847208
-6.01590071664e-05
0.000222016601567
-1.13168885366e-08
3.56541194139e-05
-2.76659464973e-13
-6.48446215447e-06
0.00019530311263
-1.33687100782e-05
0.000202528281185
-2.04965718375e-05
0.000208948335744
-2.78357388423e-05
0.00021322283546
-3.53389001102e-05
0.000216571424238
-4.28971607479e-05
0.000219895341223
-5.07159757349e-05
0.000224026731689
-5.86406479015e-05
0.000228655331005
-6.6653127948e-05
0.000234060156893
-7.47456819025e-05
0.000240230087431
-8.2781901096e-05
0.000247227570331
-9.06112993799e-05
0.000255048480221
-9.80051957238e-05
0.000263612414793
-0.000104587701494
0.000272392641507
-0.00011039683831
0.00028049811696
-0.000116367367293
0.00028688448267
-0.000127791296779
0.000288341603628
-5.80099052436e-05
0.000238511946247
1.19894388789e-09
4.07227035911e-05
1.32715794243e-09
-5.9244510154e-06
0.000201227426281
-1.21015474461e-05
0.000208705226888
-1.85621162486e-05
0.000215408737232
-2.52107418694e-05
0.000219871217884
-3.19862277799e-05
0.000223346613867
-3.89964260502e-05
0.000226905249279
-4.60332296143e-05
0.000231063325232
-5.32008148828e-05
0.00023582275925
-6.0431315847e-05
0.000241290458014
-6.76750293134e-05
0.0002474735131
-7.47788165011e-05
0.000254330940298
-8.16189927362e-05
0.000261888130015
-8.79961320934e-05
0.000269989013239
-9.37373202903e-05
0.000278133353154
-9.84261426151e-05
0.000285188983905
-0.000103645963124
0.000292102137097
-0.000113942973578
0.00029863824428
-5.39374470143e-05
0.000254848806421
-1.51007923276e-09
4.53415505179e-05
-1.68252220166e-10
-5.26618906901e-06
0.000206493541601
-1.07641199311e-05
0.000214203064894
-1.65290577737e-05
0.00022117354847
-2.24880494316e-05
0.000225830049455
-2.85892851107e-05
0.000229447664897
-3.48418475369e-05
0.000233157578495
-4.1183690761e-05
0.000237404884938
-4.7660152806e-05
0.000242298947863
-5.41912243888e-05
0.000247821239251
-6.07127531964e-05
0.00025399457308
-6.70831114622e-05
0.000260700660882
-7.32218941857e-05
0.000268026155989
-7.89124877661e-05
0.000275678863595
-8.4004657617e-05
0.000283224936931
-8.87945486061e-05
0.00028998032013
-9.40833979097e-05
0.000297387102921
-0.000105137817973
0.000309693373272
-5.0564268166e-05
0.000268903152458
1.83961137698e-09
4.79834178817e-05
3.3158027927e-10
-4.49159592795e-06
-9.32577377768e-06
-1.43908765661e-05
-1.96402067105e-05
-2.50394357608e-05
-3.05823110784e-05
-3.62618051011e-05
-4.20571604805e-05
-4.79312066771e-05
-5.38346103607e-05
-5.9698019752e-05
-6.54030352495e-05
-7.06044298557e-05
-7.56306944531e-05
-8.04831861511e-05
-8.69066291524e-05
-9.93432599094e-05
-4.61305547684e-05
2.07868217506e-08
)
;

boundaryField
{
    back
    {
        type            calculated;
        value           uniform 0;
    }
    sides
    {
        type            calculated;
        value           nonuniform List<scalar> 0();
    }
    bottom
    {
        type            calculated;
        value           uniform 0;
    }
    front
    {
        type            calculated;
        value           uniform 0;
    }
    atmosphere
    {
        type            calculated;
        value           nonuniform List<scalar> 9(-3.72558568528e-08 -3.26655600536e-07 -4.20593732027e-07 -2.06741407461e-11 -1.13203109985e-08 -1.28497302966e-10 -1.46689202578e-11 -1.32444273872e-08 -2.64672925597e-08);
    }
    floatingObject
    {
        type            calculated;
        value           nonuniform List<scalar> 0();
    }
    procBoundary0to1
    {
        type            processor;
        value           nonuniform List<scalar> 10(-0.000181210340123 -0.000186862588844 -0.000193490573793 -0.000200629885896 -0.000206862760065 -0.000211695709773 -0.000215735167133 -0.000184000985749 -2.41017924958e-05 -3.66226366851e-08);
    }
    procBoundary0to2
    {
        type            processor;
        value           nonuniform List<scalar> 
14
(
-0.000169294453236
-0.000172574279848
-0.000176531711434
-0.000175116003834
7.0798680155e-05
-0.00017779233484
-0.000165803856051
-0.000171609050577
4.66172938489e-05
-0.000182748447068
-1.67261659439e-05
-0.000185742712676
3.47410268142e-05
-0.000189364690009
)
;
    }
    procBoundary0to4
    {
        type            processor;
        value           nonuniform List<scalar> 8(0.000210985109081 0.000219037193029 0.000226238558587 0.000231079245881 0.000234846734321 0.000238700277757 0.00024308414961 0.000248094032985);
    }
    procBoundary0to5
    {
        type            processor;
        value           nonuniform List<scalar> 
12
(
0.000253694926966
0.000259897358242
0.000266563261321
0.000273730202005
0.000280879333024
0.000288250473443
0.000294833849913
0.000303809694945
0.000322128585818
0.000277720700648
4.6678183952e-05
-1.20849253407e-08
)
;
    }
}


// ************************************************************************* //
