/*--------------------------------*- C++ -*----------------------------------*\
| =========                 |                                                 |
| \\      /  F ield         | OpenFOAM: The Open Source CFD Toolbox           |
|  \\    /   O peration     | Version:  v2012                                 |
|   \\  /    A nd           | Website:  www.openfoam.com                      |
|    \\/     M anipulation  |                                                 |
\*---------------------------------------------------------------------------*/
FoamFile
{
    version     2.0;
    format      ascii;
    class       surfaceVectorField;
    location    "3";
    object      ddtCorrDdt0(Uf);
}
// * * * * * * * * * * * * * * * * * * * * * * * * * * * * * * * * * * * * * //

dimensions      [0 1 -2 0 0 0 0];


internalField   nonuniform List<vector> 
302
(
(0.0515245453111 -0.0360298568542 -3.29789288246e-24)
(0.0549220829559 -0.0351405774129 -4.0072675162e-24)
(0.0485085528201 -0.0399597821059 -5.63427960377e-24)
(0.0521164516784 -0.0395290077653 4.6382723853e-24)
(0.0447291467981 -0.0435079764598 -5.71813803527e-24)
(0.0485586738824 -0.0436766022619 -1.05190034584e-23)
(0.0399880073127 -0.0465010198906 -1.25330197799e-23)
(0.0440758126446 -0.047458508828 -1.23703687705e-25)
(0.0340104180274 -0.0487595559746 -9.31171791426e-23)
(0.0384188505272 -0.0507296271617 -3.23745976122e-24)
(0.0263592332106 -0.0500490829812 -4.6585283268e-22)
(0.0312513716194 -0.0534000034565 -1.51125144217e-22)
(0.0164820750724 -0.0501607074939 3.03911340975e-22)
(0.0220477591618 -0.0551202608067 -4.17978865958e-22)
(0.004217303799 -0.0486768656636 6.28109533865e-22)
(0.0101018953587 -0.0549605420464 -3.32042493878e-23)
(-0.00995281331002 -0.0450804459411 -8.52311041205e-22)
(-0.00463653551294 -0.0594083869254 -9.23293801025e-22)
(-0.0110290704777 -0.0379635924694 6.54274880346e-21)
(-0.0217343019572 -0.0514991441369 7.94185088234e-21)
(-0.11326534996 -0.0387660906201 -9.53011379135e-21)
(-0.00766995555845 -0.0708996836555 1.24868777297e-20)
(-0.174617663304 -0.0372578967081 -1.45293332553e-20)
(-0.228011627057 -0.0509520142163 4.79713251552e-20)
(-0.141678930395 -0.0326871212268 7.15051666316e-20)
(0.060446127595 -0.0291741667849 -4.6987250936e-24)
(0.0637052777924 -0.0274756418649 -5.54668225314e-24)
(0.0584666620109 -0.0340253227883 3.90921133268e-25)
(0.0619747202134 -0.0325780181522 1.45413458937e-24)
(0.0559185493741 -0.0388109303088 3.92889775156e-24)
(0.0597065507755 -0.0376871398102 7.10417707206e-24)
(0.0526687397246 -0.0434764522979 -2.46451469345e-25)
(0.0567859789632 -0.0427681587723 9.8740885311e-24)
(0.0485358246804 -0.0479418055607 -4.92456911085e-24)
(0.0530326864837 -0.047783446617 3.08328149419e-24)
(0.0432937428988 -0.0520895143355 9.17185633102e-24)
(0.0482366089656 -0.0526558311897 1.28752181074e-23)
(0.0366488162415 -0.0558212547978 -6.12454248354e-23)
(0.0421675523913 -0.0572945040568 -4.90766367555e-23)
(0.0281638465553 -0.0589845671128 -1.03251177494e-22)
(0.0344342598461 -0.0616359641828 -2.35883933506e-22)
(0.017174831383 -0.0615056242964 -7.5509445632e-22)
(0.0245888183528 -0.0656569604357 -7.42236530383e-22)
(0.00322154235154 -0.0630288436835 -1.58460758428e-21)
(0.0116428667174 -0.0680144086389 -1.34179043874e-21)
(-0.0125276828872 -0.0630382173933 7.87086812252e-21)
(-0.00461476004863 -0.0762197458879 -1.49636647979e-21)
(-0.0124346360309 -0.0637012920691 1.38859798085e-20)
(-0.0210667860726 -0.0712622670543 1.16727294693e-20)
(-0.110409410083 -0.0684115697229 6.99883166762e-20)
(-0.0029607617386 -0.0859692149095 -1.04780574093e-21)
(-0.18651756041 -0.085639181534 1.34005825042e-19)
(-0.210515929883 -0.0632760193688 7.68524163826e-20)
(-0.178248140972 -0.0531583160741 1.04510939753e-19)
(0.0697248036405 -0.00503018851187 -3.20733097108e-22)
(0.0720522716328 -0.00281300658059 1.1618209396e-23)
(0.072383623364 -0.00767233411936 -2.9792096492e-22)
(0.0670206535992 -0.0256113504378 -2.23097198546e-23)
(0.0702187540658 -0.0235028430978 -2.95090864311e-23)
(0.0655461537992 -0.0309190746606 6.06177429828e-25)
(0.0690021890767 -0.0289671664771 -6.29322133065e-25)
(0.0635834529508 -0.0362976573193 8.16739052816e-24)
(0.067347978516 -0.034551294659 -7.95012053321e-24)
(0.0610108278982 -0.0417319081593 1.30493678516e-23)
(0.0651403911896 -0.0402607363282 1.36256443572e-23)
(0.0576768312194 -0.0471869705039 1.32038214946e-23)
(0.0622453570784 -0.0460930234795 7.81006844882e-24)
(0.0534042730347 -0.0526757950448 2.08830687124e-23)
(0.0585301610229 -0.0520360691519 -1.32217121716e-24)
(0.0479505069482 -0.0580802594163 -4.53732749791e-23)
(0.0536535746123 -0.0580740057452 -8.17248853406e-24)
(0.0409991498968 -0.0633511083503 -2.23715145426e-22)
(0.0474537631101 -0.064173928213 -3.54717003177e-23)
(0.032133864159 -0.0684696484355 -8.74869286394e-22)
(0.0395696059762 -0.0702674402472 -4.30107034821e-22)
(0.0205695281359 -0.0733395321448 -1.3289325128e-21)
(0.0294749214884 -0.0765464356366 -1.63147284863e-21)
(0.00567186537051 -0.077773744689 -1.25354933426e-21)
(0.0160905925987 -0.0814673523598 -1.70676175204e-21)
(-0.0111086340516 -0.0815551904894 2.30549486697e-21)
(-0.000824624207625 -0.0924708292705 2.24896493309e-21)
(-0.0117697891941 -0.0844011132092 -3.26105608019e-21)
(-0.0182181429901 -0.0915538985256 1.27831621068e-20)
(-0.114875932526 -0.0820551600434 5.81629396552e-21)
(-0.00530631813587 -0.100353539168 -1.10977428079e-20)
(-0.204058743593 -0.0473992521872 4.73575310931e-20)
(-0.245107455613 -0.0802460882457 -1.87711325303e-20)
(-0.193064444202 -0.0463980503869 4.23527234463e-20)
(0.074846207171 -0.00522596228804 3.44303415842e-23)
(0.0772643012844 -0.00287794559927 3.56598953431e-22)
(0.0747080834629 -0.0104679423986 3.98737467321e-23)
(0.0776099445945 -0.00793733105454 1.26462883129e-22)
(0.0741178991209 -0.0158113147582 1.12252657524e-22)
(0.0770233863812 -0.0132854032016 2.10242014938e-22)
(0.0734386298137 -0.0212611101758 5.00323452008e-24)
(0.0765122200081 -0.0188502244452 2.03392719743e-23)
(0.0724739908007 -0.0268418498311 -7.82868870954e-24)
(0.0757871485705 -0.0244914424655 -6.59271580996e-25)
(0.0711270197753 -0.0325825189248 -9.1856200961e-24)
(0.0747344569474 -0.0303281935587 -1.42249170105e-24)
(0.0692954862557 -0.0385004812772 -2.4918667042e-24)
(0.0732618072704 -0.0363888107025 -8.96451169666e-24)
(0.0668543768589 -0.0446177480925 8.38634495438e-24)
(0.0712579041523 -0.0427009132445 6.2622388037e-24)
(0.0636386593881 -0.0509454718449 -6.71592426298e-24)
(0.0685775312213 -0.0493033374059 -1.40664821085e-23)
(0.0594529167779 -0.0574545825542 -3.03777284637e-23)
(0.065047413699 -0.0562092401271 -2.85383558461e-23)
(0.0540496472947 -0.064211321334 1.72908612729e-24)
(0.0604212649868 -0.0634526140319 -3.84882845219e-23)
(0.0471124242892 -0.0711565696292 -2.41863589714e-22)
(0.0544115023027 -0.071055934062 2.56200636711e-23)
(0.0382231300152 -0.0782432771297 -1.18671059705e-21)
(0.0466687991922 -0.0789953309169 -3.8054181783e-22)
(0.0265233338923 -0.0854510284006 -2.00930208787e-21)
(0.0366934671095 -0.0875307007253 -1.68401284303e-21)
(0.0112646130188 -0.0928235248865 1.7957525153e-21)
(0.0234707485066 -0.0952972542202 -2.17365180681e-21)
(-0.00640925570029 -0.099625562621 1.27266321729e-20)
(0.00598108654424 -0.108953184435 1.7817897877e-21)
(-0.0109219680325 -0.10523054169 4.9464753791e-21)
(-0.012612911749 -0.113796774172 7.8782590397e-21)
(-0.135017563001 -0.104337687588 -3.56851693037e-20)
(-0.00619901239801 -0.117122312364 -9.10500387757e-21)
(-0.231696277711 -0.06860387237 -2.37759401771e-20)
(-0.280797981227 -0.110581890548 -2.30974692667e-20)
(-0.206015921181 -0.0740606213226 1.09817522963e-20)
(0.0801596676248 -0.00535448549342 4.48631494975e-22)
(0.0826079861542 -0.00292170505557 3.9756716096e-22)
(0.0800927464737 -0.0108023796837 2.96831151334e-22)
(0.0830461685226 -0.00813541569595 2.07109830504e-22)
(0.079603180335 -0.0163301293871 1.18328629388e-22)
(0.0825388790958 -0.0136328331763 6.99677373302e-23)
(0.0790762403123 -0.0220177211278 1.46767658733e-23)
(0.0821882735569 -0.019390452405 -3.44854165751e-23)
(0.0783065311897 -0.027908711889 5.7469254275e-24)
(0.0816685605651 -0.0252863971112 1.20424410735e-24)
(0.077186340669 -0.0340559988392 -1.20138330161e-24)
(0.0808750436273 -0.0314602471112 -1.26002316811e-23)
(0.075612718776 -0.0404962314355 -2.10406188761e-25)
(0.0796988386861 -0.0379653893293 -1.910411739e-24)
(0.0734621069755 -0.0472848966295 -1.61905882592e-23)
(0.0780470522547 -0.0448510346063 5.53251055546e-25)
(0.0705703641155 -0.0544582227265 -3.58889136916e-23)
(0.0757546751275 -0.0521919542047 -2.70163030957e-23)
(0.0667197785368 -0.0620703231142 -3.66489119043e-23)
(0.0726658011539 -0.0600512264614 -2.93273971642e-23)
(0.0616573131414 -0.0701591576108 -1.45973069782e-23)
(0.068517599792 -0.0684960060607 -2.65837387215e-23)
(0.0550662410884 -0.0787896453998 -1.13058164445e-22)
(0.0630492482978 -0.0775976479338 -3.62723540576e-23)
(0.0465209070485 -0.0879880089846 -8.77844063809e-22)
(0.0558727896348 -0.0874294333311 -2.87167688734e-22)
(0.0352823328675 -0.0977575163883 -1.84836256197e-21)
(0.0464659024823 -0.0982853819519 -1.28088036948e-21)
(0.0198853391323 -0.108224719375 -2.18761453442e-21)
(0.0339377699873 -0.109423915097 -1.81441482818e-21)
(0.00167479542669 -0.118256839833 -3.06658334549e-21)
(0.016010583837 -0.125732130161 -1.58132384786e-21)
(-0.00657628468202 -0.128658398217 -6.17322021696e-21)
(-0.00221365437267 -0.138447588174 -1.89679243154e-22)
(-0.155501254411 -0.130708948331 3.4826961594e-21)
(-0.00414693268883 -0.137868054453 -4.88881973295e-21)
(-0.259839607452 -0.0972986633202 1.16602232067e-20)
(-0.314446889113 -0.156457758946 -1.55321421028e-20)
(-0.206189996151 -0.156352393727 -1.04718766556e-20)
(0.0856027473344 -0.00547922810057 1.56045496489e-22)
(0.088078449657 -0.00293550047149 1.82101732271e-22)
(0.0856273733297 -0.0110124973599 -1.97535835003e-23)
(0.0885701575382 -0.00824502971062 -1.11549757698e-22)
(0.085284024718 -0.016685113569 -8.28463086334e-23)
(0.0882019602181 -0.0138299944224 -1.37625943795e-22)
(0.0849680617655 -0.0225618077592 -4.7957938341e-23)
(0.0880559199142 -0.0197203700571 -5.68226289703e-23)
(0.0844609591563 -0.0287130590552 -1.71429130012e-23)
(0.0878122140098 -0.0258172723268 -2.58557308901e-23)
(0.0836701414681 -0.0352365515799 -1.33092601184e-23)
(0.0873932438892 -0.0322628669263 -4.64465416277e-23)
(0.0824973322674 -0.0421468543783 -1.14675449469e-24)
(0.0866066779703 -0.0391443921051 -6.75228692425e-24)
(0.0808020846944 -0.0495611479803 -1.0272463781e-23)
(0.0854616429191 -0.0465481531718 2.91217799418e-24)
(0.0784227371248 -0.0575570832479 -2.04547865683e-23)
(0.0837528856571 -0.054568674325 9.89271212573e-24)
(0.0751590064319 -0.06620261307 -1.92622239813e-23)
(0.0813142321942 -0.0633090187038 9.96691735063e-24)
(0.0707598800457 -0.0756071482868 -4.8258785801e-23)
(0.0779240716774 -0.0728804835921 -1.40504867691e-23)
(0.0649121363789 -0.0858803769887 -2.10381878347e-22)
(0.0733220019097 -0.0833997931558 -5.2816280793e-23)
(0.0571937442158 -0.0971854115088 -6.90203994408e-22)
(0.0671740473694 -0.0950365830553 -2.88867198905e-22)
(0.0470441986877 -0.109785464323 -1.24693263569e-21)
(0.0590588006351 -0.108114778181 -8.23746812624e-22)
(0.0331084347914 -0.124221773229 -1.20812414163e-21)
(0.0483644913561 -0.122537863922 -1.54482257821e-21)
(0.0163162122254 -0.14202061378 1.29558025447e-21)
(0.0337997925248 -0.141204646495 2.62252945674e-22)
(0.0066435199403 -0.16160089126 1.09472124086e-21)
(0.0173608510059 -0.16270187575 1.11262196601e-20)
(-0.148626076617 -0.181541881397 -2.39036579952e-20)
(0.0157927809764 -0.156474359893 -3.79347995992e-21)
(-0.256048172476 -0.213576703822 -3.76642419651e-20)
(-0.282401181223 -0.202518324016 -7.3546381543e-21)
(-0.198819617903 -0.256759396385 2.35685395803e-21)
(0.0911220130964 -0.00548502613411 -8.54935219152e-23)
(0.0935561736108 -0.00291181607144 6.13880910336e-23)
(0.0912615122208 -0.0110811389584 -2.29422117993e-22)
(0.0941586921042 -0.00824501765296 -2.1119671362e-22)
(0.0911095314079 -0.0168327582686 -1.11602264132e-22)
(0.093945880412 -0.0138365714649 -8.02650105073e-23)
(0.0910659145115 -0.0228435025599 -3.47204215194e-23)
(0.0940594225292 -0.0197819611536 -3.24064666318e-23)
(0.0909108671078 -0.0292024149307 -5.51593595166e-23)
(0.0941651721702 -0.0259995715487 -2.70312055624e-23)
(0.0905537426123 -0.035970138952 -3.98895684335e-23)
(0.0941570341867 -0.0326337833389 -2.85784512591e-23)
(0.0898976153875 -0.0432971951035 -2.69335443537e-24)
(0.0939320151079 -0.0398062348783 3.14013711244e-24)
(0.088815265906 -0.0512606071487 2.30773539009e-23)
(0.0934247652542 -0.0476317271914 1.66922472857e-23)
(0.0871534575832 -0.059979456613 4.03144160447e-23)
(0.0924713491339 -0.0562281925885 2.52860825152e-23)
(0.0847166950697 -0.0695709580309 1.51786545629e-23)
(0.0909028480346 -0.0657398033615 3.26587936652e-23)
(0.0812719296879 -0.0801835101184 -1.86079817611e-23)
(0.0885289139217 -0.0763109845077 2.77839821769e-23)
(0.076542338432 -0.0919761939732 -1.31301601351e-22)
(0.0851007124614 -0.0880870562952 1.1160016825e-23)
(0.0701856229641 -0.105169994453 -4.2241001712e-22)
(0.0803477805521 -0.10128454228 -1.82548943441e-22)
(0.0618634505427 -0.120124864514 -1.12163675514e-21)
(0.0739892962723 -0.116203943355 -7.11972225535e-22)
(0.0510330875134 -0.137730101464 -7.44454909108e-23)
(0.0659442944069 -0.133072533532 -8.60633252031e-22)
(0.0374984785958 -0.15976371684 1.00928923513e-20)
(0.0558115331215 -0.153533404194 7.85458740714e-22)
(0.030362237644 -0.185586664903 6.23801845936e-21)
(0.04317092897 -0.180341704843 1.1554935292e-20)
(-0.110316266904 -0.215237017915 1.2755539881e-20)
(0.0454363796615 -0.167264153232 -5.82599232389e-21)
(-0.230167302315 -0.274927558114 3.26664577688e-20)
(-0.222439740524 -0.229150835769 2.25439259716e-20)
(-0.193299430615 -0.381123589557 8.11922020789e-20)
(0.0966372545774 -0.00542749127096 -6.43151006714e-23)
(0.0989776950734 -0.00283523506773 8.06625128085e-24)
(0.0969262122964 -0.0109872354589 -6.2039606135e-23)
(0.0997122411899 -0.00810408341923 -1.68415988533e-22)
(0.0969938805058 -0.0167342461092 -1.06921300707e-24)
(0.0996866102716 -0.0136259725118 5.71367175735e-23)
(0.0972805076804 -0.0227770248936 -2.47172506748e-23)
(0.100096482281 -0.0195218773894 -1.76165915119e-23)
(0.0975634407578 -0.029230960847 -4.50297304956e-25)
(0.100614785441 -0.0257505795007 -2.98757388393e-25)
(0.0977391957669 -0.0362024336911 1.44512542868e-23)
(0.101126059465 -0.0324736412471 1.35326717876e-23)
(0.0977252280028 -0.0438268678793 2.25257388335e-23)
(0.101555255699 -0.0398265255789 3.54805407752e-24)
(0.0974152315367 -0.052218818762 1.89009759e-23)
(0.101814903381 -0.0479449132478 2.63791695191e-23)
(0.0966522711331 -0.061537009335 1.76304601357e-23)
(0.101784153195 -0.056989762987 9.59834180968e-24)
(0.0952535557761 -0.0719363653948 4.52641212791e-23)
(0.101289423058 -0.0671321232626 1.51609960353e-23)
(0.0930141847343 -0.0835902970176 5.75519807629e-23)
(0.100159710613 -0.0785348363495 5.22739926759e-23)
(0.0896956896333 -0.0966605822646 -4.00873252649e-23)
(0.0981371314032 -0.091367859859 8.19317972989e-23)
(0.0850523724062 -0.111378526509 -4.72111151855e-22)
(0.0950233401493 -0.105830144828 -5.68265443241e-23)
(0.0790234786123 -0.128099967235 -4.50968722422e-22)
(0.0906645195732 -0.122074803065 -6.50366247579e-22)
(0.0719849298729 -0.147615299414 -7.29020405191e-25)
(0.0854153733112 -0.140267814986 -3.08643453e-22)
(0.0645364070806 -0.172430926574 2.24750168133e-21)
(0.0805917672628 -0.16018858227 6.4796438888e-22)
(0.0636928640083 -0.207868378383 -5.09075491296e-22)
(0.0785917098107 -0.185205127775 1.66502087885e-20)
(-0.0448649459202 -0.249932524075 3.96239376672e-21)
(0.0874981496473 -0.166228577805 -1.05298732454e-21)
(-0.154155365324 -0.374643361524 7.10696702817e-20)
(-0.0978950911046 -0.217834987673 2.62533254346e-21)
(-0.0743843689848 -0.396190199542 1.64105736856e-19)
(0.102052614899 -0.00531741649063 -9.60346365803e-23)
(0.102498130126 -0.010713171173 -4.92396648241e-23)
(0.102835984184 -0.0163382754105 4.05893390686e-23)
(0.103503714039 -0.0223102667045 6.80190177456e-24)
(0.104282799761 -0.0287496863498 1.36842117042e-23)
(0.105088216402 -0.0357844811719 2.62947157835e-24)
(0.105848734903 -0.0435669208 7.40148476317e-24)
(0.10645848026 -0.0522591033035 1.70765354288e-23)
(0.106773663425 -0.062038502482 7.12887770925e-24)
(0.106625681205 -0.0730867379817 2.2170867432e-23)
(0.105808426146 -0.0855805650313 7.66538092118e-23)
(0.104070800491 -0.0996931516836 6.51925782396e-23)
(0.101218881641 -0.115612808715 -2.35081640048e-22)
(0.0973532239937 -0.133282019091 -5.08040978157e-22)
(0.0933192199188 -0.152802495318 3.40049956285e-22)
(0.0909523371811 -0.174273202091 1.50506714961e-20)
(0.0929996725989 -0.197641884014 1.61062969553e-20)
(0.00288291725275 -0.214798375102 -2.3900485478e-21)
(-0.043281245328 -0.229183274657 9.56613991179e-20)
)
;

boundaryField
{
    back
    {
        type            calculated;
        value           uniform (0 0 0);
    }
    sides
    {
        type            calculated;
        value           nonuniform List<vector> 0();
    }
    bottom
    {
        type            calculated;
        value           uniform (0 0 0);
    }
    front
    {
        type            calculated;
        value           uniform (0 0 0);
    }
    atmosphere
    {
        type            calculated;
        value           nonuniform List<vector> 9((2.72296581214e-05 0.00264926908278 2.5862764428e-23) (-0.000418433987038 -0.0493208920822 6.55630718579e-22) (0.000492200200432 -0.0326530968286 -1.8725192959e-22) (-0.000737130703898 -0.0556866323284 -7.33677070154e-22) (0.000139253920065 -0.0969160437998 2.93259479937e-23) (8.59538342062e-06 -0.220968127828 4.43654462284e-25) (3.52291076055e-07 -0.280706284881 8.98269385245e-27) (-4.83444099915e-10 -0.493444785608 -1.31049426139e-29) (1.49848114682 -0.127100475738 -1.81466132097e-19));
    }
    floatingObject
    {
        type            calculated;
        value           nonuniform List<vector> 0();
    }
    procBoundary0to1
    {
        type            processor;
        value           nonuniform List<vector> 10((0.0410599655623 -0.0427362008066 9.09940736711e-24) (0.0361313054568 -0.0447984770991 -3.58255378137e-23) (0.0299268083007 -0.045927168502 -1.67804306409e-22) (0.021898801364 -0.0454473967182 -6.32796839265e-22) (0.0115504331312 -0.042771939368 1.8854650223e-21) (-0.00106639790265 -0.0428375817885 1.0033350305e-21) (-0.014630332896 -0.0326842770175 -6.17556906127e-22) (-0.0084737851269 -0.0587197139371 1.91182430412e-20) (-0.226665991313 -0.0332669754654 -2.03173770497e-20) (-0.101609151687 0.0896907107074 -1.0328203393e-20));
    }
    procBoundary0to2
    {
        type            processor;
        value           nonuniform List<vector> 
14
(
(0.0507350074359 -0.0327562345672 -3.43978280296e-24)
(0.0481776194432 -0.0365226546348 -9.64354531312e-24)
(0.0449959679716 -0.0399093867669 -1.3628490103e-23)
(0.0588496828519 -0.0259548508981 -2.35762096927e-23)
(0.0539190149662 -0.0318370155921 -1.57785873739e-23)
(0.0571340736238 -0.0305964016562 -1.13803987244e-23)
(0.0670536234549 -0.00273533660991 -1.7889803719e-22)
(0.067334552165 -0.00736915464981 -4.94179486358e-22)
(0.0619627274569 -0.0242860159115 -1.02614123405e-23)
(0.0650141042668 -0.0223993468845 -2.70244499419e-23)
(0.0695441675042 -0.0101124922162 -2.91798007793e-22)
(0.0717108929003 -0.0128321199702 4.59967038591e-23)
(0.0681025490058 -0.0203694337612 -7.26985162663e-23)
(0.0710887636845 -0.0181594711572 -3.81861953152e-23)
)
;
    }
    procBoundary0to4
    {
        type            processor;
        value           nonuniform List<vector> 8((0.104290525807 -0.0027136775702 2.57620706268e-23) (0.105103247534 -0.0078106006691 -9.37820696429e-23) (0.10530702726 -0.0131486454672 9.48630668495e-23) (0.106064498252 -0.0188849937742 1.41424217634e-24) (0.107051678602 -0.0250070675676 2.3197994179e-23) (0.108159848699 -0.0316862967798 1.4160156295e-23) (0.109336575245 -0.03907392879 -4.64377095453e-24) (0.110503115748 -0.0473372357215 8.41105422543e-24));
    }
    procBoundary0to5
    {
        type            processor;
        value           nonuniform List<vector> 
12
(
(0.111552666401 -0.0566732070079 -7.2785293012e-24)
(0.11231428373 -0.0672758776907 -2.59299280786e-24)
(0.11261921084 -0.0793431053887 2.48493343733e-23)
(0.112203351613 -0.0930763955495 7.54838236051e-23)
(0.11088800642 -0.108601427831 -3.63260977318e-23)
(0.108276062402 -0.125874224413 -3.36013283461e-22)
(0.104882178781 -0.144713042163 -4.14256463625e-22)
(0.102022048434 -0.162042974295 1.06849902548e-21)
(0.101941537994 -0.179442662024 1.19492024771e-20)
(0.104662268452 -0.151605600574 -1.54714778907e-22)
(-0.084261330115 -0.172299077274 -2.92710040589e-20)
(-0.175865873465 -0.228250643532 9.19051160105e-20)
)
;
    }
}


// ************************************************************************* //
