/*--------------------------------*- C++ -*----------------------------------*\
| =========                 |                                                 |
| \\      /  F ield         | OpenFOAM: The Open Source CFD Toolbox           |
|  \\    /   O peration     | Version:  v2012                                 |
|   \\  /    A nd           | Website:  www.openfoam.com                      |
|    \\/     M anipulation  |                                                 |
\*---------------------------------------------------------------------------*/
FoamFile
{
    version     2.0;
    format      ascii;
    class       surfaceScalarField;
    location    "2.9";
    object      alphaPhi0.water;
}
// * * * * * * * * * * * * * * * * * * * * * * * * * * * * * * * * * * * * * //

dimensions      [0 3 -1 0 0 0 0];
oriented        oriented;


internalField   nonuniform List<scalar> 
300
(
-1.13619239137e-06
0.00015486966057
-2.50058661763e-06
0.000162742049448
-4.00240035827e-06
0.000169953193584
-5.52839000977e-06
0.000174393278189
-6.98340686044e-06
0.000177536216828
-8.2975773457e-06
0.000180618738152
-9.39539838353e-06
0.000184103681022
0.000188081143728
-5.35302250157e-07
0.000155404240534
-1.29972188342e-06
0.000163505864643
-2.21999549923e-06
0.000170873175761
-3.16113942789e-06
0.000175334574387
-4.04164004361e-06
0.000178417347449
-4.78496834204e-06
0.000181363261946
-5.31944938059e-06
0.000184639664206
0.000188351793469
-2.50512288377e-09
0.000155406054513
-1.88783012918e-07
0.000163691570878
-5.37556223912e-07
0.000171221674332
-9.21720953967e-07
0.000175718870931
-1.26586082443e-06
0.000178762039349
-1.51066254056e-06
0.000181608983352
-1.58614729382e-06
0.000184716320006
-1.39172884201e-06
0.000188158421023
-8.16503629587e-07
0.000191885749673
0.00019582835731
5.22621261346e-07
0.000154882750147
8.71866641463e-07
0.000163341770789
1.08122925232e-06
0.0001710120507
1.23651178725e-06
0.000175563713154
1.38826354713e-06
0.000178610792451
1.58852238155e-06
0.0001814095067
1.89224579541e-06
0.0001844134921
2.38584796806e-06
0.000187665412749
3.19961827708e-06
0.000191071787728
0.000194504964963
1.09208351169e-06
0.000153790004609
1.94512482733e-06
0.000162488197476
2.6917446122e-06
0.000170265181037
3.35332245693e-06
0.000174902244563
3.96093453556e-06
0.000178003629317
4.55912761692e-06
0.000180811986428
5.16291644677e-06
0.000183810407399
5.8366682945e-06
0.000186991993832
6.70860384616e-06
0.000190199428947
0.000193237552015
1.60888174678e-06
0.000152180487256
3.07067548294e-06
0.000161025887618
4.34887154905e-06
0.000168986727832
5.53084659538e-06
0.000173720335662
6.61467393583e-06
0.000176920165678
7.53291307692e-06
0.0001798942987
8.34170109401e-06
0.000183002163204
9.06063312536e-06
0.000186273236025
9.75057577638e-06
0.000189509002952
0.000192425776156
2.19919997718e-06
0.000149980670314
4.16819163934e-06
0.000159056380975
6.02288777841e-06
0.00016713174411
7.72527513264e-06
0.000172017940601
9.25127034629e-06
0.000175394416527
1.05545800579e-05
0.000178591390046
1.15940422199e-05
0.000181963079418
1.23251440384e-05
0.000185542197535
1.26602325492e-05
0.000189173434678
0.000192340080389
2.78661320956e-06
0.000147193446951
5.42020133704e-06
0.000156422263108
7.92082341864e-06
0.000164630781674
1.0212493463e-05
0.00016972616163
1.21977867652e-05
0.000173409222356
1.38665060983e-05
0.000176922887259
1.51346504267e-05
0.000180695140337
1.58566474917e-05
0.000184820166815
1.59665621943e-05
0.000189063044327
0.000193186368779
3.43586086277e-06
0.000143756969892
6.74789576391e-06
0.000153109669604
9.89454408571e-06
0.000161483724226
1.28228642136e-05
0.000166797614219
1.54469573792e-05
0.00017078505819
1.76446232535e-05
0.000174725249141
1.92084378104e-05
0.000179131370949
2.00002590738e-05
0.000184028202277
1.98259086165e-05
0.000189236880638
0.00019460056095
4.1271580899e-06
0.000139629187261
8.18739029865e-06
0.000149048853689
1.21201151607e-05
0.000157550522441
1.58195700865e-05
0.00016309781728
1.91453411406e-05
0.000167459074267
2.19654540309e-05
0.000171905026615
2.40579980273e-05
0.000177038735213
2.52175762316e-05
0.000182868356868
2.5055456321e-05
0.000189398401027
0.000196394129861
4.89257195625e-06
0.000134735994981
9.77457430712e-06
0.000144166264202
1.45931816207e-05
0.000152731402033
1.91797392155e-05
0.000158510860067
2.33711410337e-05
0.000163267391118
2.6996329648e-05
0.000168279638379
2.98787048541e-05
0.000174156152573
3.17102149344e-05
0.000181036468944
3.22111918637e-05
0.000188896692036
0.00019784370825
5.76279482017e-06
0.000128972613733
1.15289897056e-05
0.000138399509278
1.7305494073e-05
0.00014695441271
2.28916542408e-05
0.000152924303009
2.81408207669e-05
0.000158017914434
3.28261118911e-05
0.000163594093342
3.67570719996e-05
0.000170224908645
3.96691093552e-05
0.000178123984791
4.11863181384e-05
0.000187378624121
0.000198038665882
6.63833854511e-06
0.000122333782288
1.34180560589e-05
0.000131619315285
2.02823505835e-05
0.000140089699011
2.70269783291e-05
0.000146179316747
3.34688230888e-05
0.00015157577018
3.94625665055e-05
0.000157600062385
4.47105184235e-05
0.000164976645938
4.90024235651e-05
0.000173831643794
5.19288363546e-05
0.000184451209198
0.000196916306377
7.54293640885e-06
0.000114790460368
1.53705220159e-05
0.000123791358572
2.34207367081e-05
0.000132039135365
3.1460273189e-05
0.000138139470043
3.93223138241e-05
0.000143713444438
4.68017007643e-05
0.000150120405837
5.37487517475e-05
0.000158029316276
5.97566339837e-05
0.000167823127597
6.43981083468e-05
0.000179808566335
0.000194052656023
8.51464120159e-06
0.000106275572076
1.75129540539e-05
0.000114792777761
2.67132108688e-05
0.000122838568282
3.61430632141e-05
0.000128709206948
4.55509638324e-05
0.000134305242256
5.48317804422e-05
0.000140839232623
6.37365873816e-05
0.000149123950154
7.19204385497e-05
0.000159638548339
7.89851004414e-05
0.000172742054341
0.000188719593542
9.47731323025e-06
9.67980677371e-05
1.95237360939e-05
0.000104746068306
3.01062354627e-05
0.000112255508182
4.08841148683e-05
0.000117930961034
5.1995824731e-05
0.000123192729982
6.32704265697e-05
0.000129563912565
7.44879518932e-05
0.000137906089268
8.54140273085e-05
9.54730778829e-05
1.03897984975e-05
2.13959654626e-05
3.30946072331e-05
4.54407557009e-05
5.83246946565e-05
0.000110308379746
7.18195983848e-05
)
;

boundaryField
{
    back
    {
        type            calculated;
        value           uniform 0;
    }
    sides
    {
        type            calculated;
        value           nonuniform List<scalar> 0();
    }
    bottom
    {
        type            calculated;
        value           uniform 0;
    }
    front
    {
        type            calculated;
        value           uniform 0;
    }
    atmosphere
    {
        type            calculated;
        value           nonuniform List<scalar> 0();
    }
    floatingObject
    {
        type            calculated;
        value           nonuniform List<scalar> 0();
    }
    procBoundary4to0
    {
        type            processor;
        value           nonuniform List<scalar> 8(-0.000153734480906 -0.000161378462474 -0.000168451678308 -0.000172866871697 -0.000176079997697 -0.000179302572445 -0.000183003243573 -0.000187314438888);
    }
    procBoundary4to3
    {
        type            processor;
        value           nonuniform List<scalar> 
13
(
0.000148711254592
0.000162682168685
0.000180099168811
8.64080926668e-05
9.37395567359e-05
0.000100556594868
0.000105583729669
0.000116068396277
8.57688437326e-05
0.000123956266681
-4.94969977945e-05
6.42074574343e-05
9.55967281345e-05
)
;
    }
    procBoundary4to5
    {
        type            processor;
        value           nonuniform List<scalar> 
18
(
-1.01593232713e-05
-5.58853657567e-06
-0.000192459989923
-0.000196954169086
3.08757147496e-07
4.52202933037e-06
7.97486543916e-06
1.0561243223e-05
1.27449694595e-05
1.51194424846e-05
1.84109396174e-05
2.32611589583e-05
3.07608130677e-05
4.09902855092e-05
5.30499230011e-05
6.72601144906e-05
8.43169360871e-05
0.00010409224558
)
;
    }
}


// ************************************************************************* //
