/*--------------------------------*- C++ -*----------------------------------*\
| =========                 |                                                 |
| \\      /  F ield         | OpenFOAM: The Open Source CFD Toolbox           |
|  \\    /   O peration     | Version:  v2012                                 |
|   \\  /    A nd           | Website:  www.openfoam.com                      |
|    \\/     M anipulation  |                                                 |
\*---------------------------------------------------------------------------*/
FoamFile
{
    version     2.0;
    format      ascii;
    class       volVectorField;
    location    "2.9";
    object      U_0;
}
// * * * * * * * * * * * * * * * * * * * * * * * * * * * * * * * * * * * * * //

dimensions      [0 1 -1 0 0 0 0];


internalField   nonuniform List<vector> 
164
(
(0.0236392845996 8.43795087473e-05 -3.04040363729e-22)
(0.0251362784761 0.000131032755633 -4.9443335332e-23)
(0.0265421086184 9.8794939872e-05 -9.08456238604e-23)
(0.0273683861383 0.000149322520607 7.23703469022e-23)
(0.0279277874966 0.000195899862621 3.77459543427e-24)
(0.0284703781468 0.000287334488158 -1.06634337861e-23)
(0.0290917284936 0.000443747565806 -8.55390262084e-24)
(0.0298190602429 0.000684967906845 -7.50469169311e-24)
(0.0235079657612 0.000129143454792 -2.51776133231e-22)
(0.0250470679891 0.000276456718656 6.97695313063e-23)
(0.026473207216 0.000344122628624 -7.29629130636e-23)
(0.0272870844025 0.000489780358396 -9.60175636138e-24)
(0.0278094146412 0.000634116881327 -7.54737016222e-24)
(0.028294710401 0.00082485547517 1.02400493809e-23)
(0.0288373445801 0.00108152119615 4.34375084405e-24)
(0.0294646916152 0.00142975091535 -5.36129327876e-25)
(0.0232831099679 0.000153669836849 -2.65239667591e-22)
(0.0248650949305 0.00039725894397 9.66702125504e-23)
(0.0263105650479 0.000556695058307 7.01271226274e-23)
(0.0271125539055 0.000786791647018 2.42788563253e-23)
(0.0276002070674 0.00101643753176 2.38103803282e-24)
(0.0280302053625 0.00129013715146 1.84215937169e-23)
(0.0284960791653 0.00162848263231 -7.4053434554e-25)
(0.0290213350469 0.00205596781149 -6.17139144282e-25)
(0.0296031662039 0.00260453700566 3.8773033989e-23)
(0.0302393386353 0.00331357734557 4.03678269039e-23)
(0.0229827642314 0.000180102646737 -2.03930046482e-22)
(0.0246018871191 0.000505235104135 1.76584434065e-22)
(0.0260626435415 0.000745008606018 1.07685653252e-22)
(0.0268553096024 0.0010473118087 1.21817712132e-22)
(0.027313835344 0.00134895915259 5.10283164422e-23)
(0.0276940772171 0.00168780573672 1.41593503907e-23)
(0.0280893066305 0.00208285029078 -5.6824593747e-24)
(0.0285137958074 0.00255714647113 -9.72928899728e-24)
(0.0289582794353 0.00314366837773 5.84388056445e-23)
(0.0294100855064 0.00388702604112 4.375057772e-23)
(0.0226258894107 0.00021393550471 7.61438522667e-23)
(0.0242725358559 0.000607295634983 4.94708668027e-22)
(0.0257460880797 0.000915794836442 2.11450299057e-22)
(0.0265311260794 0.00127892593761 1.50808404926e-22)
(0.0269661747941 0.00163830603347 8.15532803866e-23)
(0.0273053323969 0.00202479355915 5.16420018037e-23)
(0.0276411136462 0.00245364901332 -3.47800491106e-25)
(0.0279794962987 0.00294246601422 -5.14530910663e-23)
(0.0282999922071 0.0035218829562 5.0194455645e-23)
(0.0285706565185 0.00423491687165 5.37116268929e-23)
(0.0222068539035 0.000226015191019 9.2304607416e-23)
(0.0238791600325 0.000694699719588 2.82723324215e-22)
(0.0253672625187 0.00107296880472 2.04699698247e-22)
(0.0261484681858 0.00148986238285 1.99334962093e-22)
(0.0265690738086 0.00189682232585 8.9486709277e-23)
(0.0268873054356 0.00231639808751 5.31205896213e-23)
(0.0271850866779 0.00275878798097 2.68038515903e-23)
(0.0274643900194 0.00323056926815 9.4247023186e-24)
(0.0276908230504 0.00375344365761 1.38589679948e-23)
(0.0278074052124 0.0043670802975 1.50789227892e-23)
(0.0217197351219 0.000243896479322 1.61455922522e-22)
(0.023425194372 0.000781832971467 4.56468646886e-22)
(0.024927909012 0.00122674562533 2.06418573949e-22)
(0.0257136313234 0.00169161980839 1.609628938e-22)
(0.0261330853414 0.00214586929203 1.04714309309e-22)
(0.0264503575424 0.0025916155579 1.18445129985e-22)
(0.0267378787755 0.00303012495509 8.01136240431e-23)
(0.0269964673025 0.00346068853045 5.41013476586e-23)
(0.0271827413644 0.00388319561456 3.80688960206e-23)
(0.0272196020229 0.00433318083303 2.64591760267e-23)
(0.0211735793604 0.000265524299851 1.24365133794e-22)
(0.0229100332379 0.000872753380368 2.47043476717e-22)
(0.0244251595221 0.00138349991089 1.46773176407e-22)
(0.0252280790746 0.00189836426749 1.57421193946e-22)
(0.0256689009292 0.00240075742009 1.65786314417e-22)
(0.0260046224102 0.00287184523982 1.44116706511e-22)
(0.0263124615236 0.00330325980704 1.22537445943e-22)
(0.026591153291 0.00368654631011 8.67760481392e-23)
(0.0267993587996 0.00399374876194 7.88297961708e-23)
(0.0268707339482 0.0042475866813 7.16011829918e-23)
(0.0205676770617 0.000290568575533 1.492647685e-22)
(0.0223259260335 0.000968284696757 3.17647516482e-22)
(0.0238591117478 0.00155450931081 1.52824598634e-22)
(0.0246880407067 0.00213534941343 1.6035294212e-22)
(0.0251660111944 0.00269046179118 1.54647093817e-22)
(0.0255436630586 0.00318700675251 1.25763339241e-22)
(0.0259136053307 0.00361566144784 9.37103351705e-23)
(0.0262727360771 0.00395870911587 1.48395522509e-22)
(0.0265751714301 0.00417782436536 2.06374486055e-22)
(0.0267755166552 0.00424002211988 8.94087817037e-23)
(0.0198942255449 0.000315265790948 2.79380527939e-22)
(0.0216679570834 0.00107756820888 1.57986785256e-22)
(0.0232217439804 0.00175013139231 1.95774631296e-22)
(0.0240805206365 0.00240356575602 1.76531863774e-22)
(0.0246054976548 0.00302534476259 1.53512897905e-22)
(0.0250516644781 0.00357302337529 1.19411762437e-22)
(0.0255223398134 0.00403344925317 1.00697225012e-22)
(0.0260161064623 0.00436125781834 6.63538221237e-23)
(0.0264994655515 0.00451132062757 1.41250452495e-22)
(0.0269189023805 0.00443266674311 9.06611980691e-23)
(0.0191407051479 0.000342540567347 2.56641681696e-22)
(0.0209245139574 0.0012003581944 -1.48596561456e-22)
(0.0224925849311 0.00197501751492 3.71573657045e-23)
(0.0233878959337 0.00271755653218 9.66515827467e-23)
(0.0239689587172 0.00342830162701 1.43721226167e-22)
(0.0245095015758 0.00405579845989 9.92857266901e-23)
(0.0251017066558 0.00458234346055 8.28918267914e-23)
(0.0257556698863 0.00495337674624 6.44131680825e-23)
(0.0264683425736 0.00510720421493 5.88277235616e-23)
(0.0272047719197 0.0049958408959 6.11115568917e-23)
(0.0183095750621 0.000384703161285 7.05587893032e-23)
(0.0200883523208 0.00134691571672 -4.19921174313e-22)
(0.0216607045546 0.00223392850675 -3.42840537066e-22)
(0.022591222041 0.0030806801964 -9.36447893679e-24)
(0.0232382244617 0.00391454897368 1.848579838e-22)
(0.02387828697 0.00465984309871 1.67090113522e-22)
(0.024603074642 0.00528671953887 1.24288718496e-22)
(0.0254399240455 0.00575397429569 1.12657977266e-22)
(0.0263930147945 0.0060026291128 1.30673561177e-22)
(0.0274592188035 0.00597396102718 1.56553823083e-22)
(0.0173877668602 0.000417639527624 1.47566135387e-22)
(0.0191476782004 0.00150691041233 -7.86885297222e-22)
(0.0207089871535 0.00252788958823 -5.97621032939e-22)
(0.0216691019177 0.00350463985917 -1.50468296582e-22)
(0.0223806556619 0.00448456820271 1.99041901071e-22)
(0.023112001198 0.00537864376559 1.61706811292e-22)
(0.0239717563004 0.00615625688396 1.52721511109e-22)
(0.0250015956396 0.006771418635 7.38486401863e-23)
(0.0262031034734 0.00716156665581 1.70118137801e-22)
(0.0275748766753 0.00725694931765 1.40168271183e-22)
(0.0163497920127 0.000461429104671 2.85464161827e-22)
(0.0180790455644 0.00168058018 -8.98761633146e-22)
(0.0196101362775 0.00284487165196 -7.98439585558e-22)
(0.0205887835332 0.00397657064887 -1.88859802336e-22)
(0.0213547303114 0.00513279028935 1.69822662288e-22)
(0.0221734185492 0.00621578067504 2.06682288475e-22)
(0.0231673161887 0.00719741509361 2.59443694094e-22)
(0.0243882241813 0.00802556204792 2.13786751407e-22)
(0.0258628684169 0.0086290267938 2.48295849334e-22)
(0.0275933725437 0.0089205297321 1.67374566702e-22)
(0.0151911462572 0.000511165498889 7.54413467759e-22)
(0.0168596482415 0.00186276274781 -7.2979018271e-22)
(0.0183561750997 0.00318358339729 -6.21566880628e-22)
(0.0193271695955 0.00449414892502 -2.03472487419e-22)
(0.0201296599945 0.0058540376605 1.60447898289e-22)
(0.0210149104227 0.00716720852866 1.68720078565e-22)
(0.0221203616393 0.00840642014759 1.65088879446e-22)
(0.0235170237756 0.00952502644186 1.6364903907e-22)
(0.0252580277199 0.010442653558 2.22807753867e-22)
(0.0273646548594 0.0110538414105 2.0773524413e-22)
(0.0139323709765 0.000564969361903 1.75344582959e-21)
(0.0154996714246 0.0020625575583 -7.75339018495e-23)
(0.0169338287742 0.00354230169075 -1.72053117798e-22)
(0.0178761100149 0.00503037580961 4.66662922436e-23)
(0.0186750560973 0.00662218134871 1.89865343784e-22)
(0.0195848759529 0.00819894908327 1.93162532233e-22)
(0.0207555456985 0.00975434206016 2.0884389732e-22)
(0.0222801105928 0.0112446704578 3.44804893489e-22)
(0.0242495494782 0.0125821955676 4.55558195829e-22)
(0.0266999248103 0.0136450565987 4.74317068886e-22)
(0.0125583536278 0.000597394959013 2.01624397565e-21)
(0.0140082971803 0.00223956698295 1.94846951388e-22)
(0.0153365679531 0.0038937262557 -5.42223463876e-24)
(0.0162204736041 0.00556410132462 6.94943523041e-23)
(0.0169660326649 0.00739083962339 2.31975580413e-22)
(0.017841724929 0.00926544972957 3.10962370894e-22)
(0.019019481309 0.0111889151598 7.50557455275e-22)
(0.0149823270386 0.00811290750645 4.58471254808e-22)
)
;

boundaryField
{
    back
    {
        type            noSlip;
    }
    sides
    {
        type            noSlip;
    }
    bottom
    {
        type            noSlip;
    }
    front
    {
        type            noSlip;
    }
    atmosphere
    {
        type            pressureInletOutletVelocity;
        value           nonuniform List<vector> 0();
    }
    floatingObject
    {
        type            movingWallVelocity;
        value           nonuniform List<vector> 0();
    }
    procBoundary4to0
    {
        type            processor;
        value           nonuniform List<vector> 8((0.0236617576972 3.24975395366e-05 -3.02356650832e-22) (0.0251188727164 -2.85304072736e-05 5.4531156291e-23) (0.0265091972782 -0.00016726456164 1.32418627345e-24) (0.0273459294644 -0.000223668501904 9.67166035276e-23) (0.0279393612178 -0.000289610865332 3.04107916198e-23) (0.028533996195 -0.000315974332802 -3.51308043741e-24) (0.0292286046732 -0.000281455881733 -6.75972073964e-24) (0.0300503098453 -0.000169998048781 -2.58059027849e-23));
    }
    procBoundary4to3
    {
        type            processor;
        value           nonuniform List<vector> 
13
(
(0.0206032736292 0.0131332565066 1.51397136118e-21)
(0.022757311822 0.0149776631055 2.4620929272e-21)
(0.0255158481843 0.0165077723259 2.92759240398e-21)
(0.011058610279 0.000631376520042 1.77801482101e-21)
(0.0123864830183 0.00239818971349 7.76778269607e-23)
(0.0135814203155 0.00420629172688 -4.36679398102e-23)
(0.0143509632762 0.00604794033985 1.71528075921e-22)
(0.0157332263454 0.0103150623276 1.23449254065e-21)
(0.0206032736292 0.0131332565066 1.51397136118e-21)
(0.0168196140015 0.0126582806102 3.92668698625e-21)
(0.0143509632762 0.00604794033985 1.71528075921e-22)
(0.0157332263454 0.0103150623276 1.23449254065e-21)
(0.0127374789286 0.00869287864535 1.78399682384e-21)
)
;
    }
    procBoundary4to5
    {
        type            processor;
        value           nonuniform List<vector> 
18
(
(0.0306695937546 0.00104543370277 1.09294204266e-23)
(0.030185673154 0.00190156573697 2.41184544208e-23)
(0.030185673154 0.00190156573697 2.41184544208e-23)
(0.0309990487622 0.00252590862782 2.30713214291e-23)
(0.0309372548507 0.00423431776803 2.17773525537e-23)
(0.0298570775099 0.00485116749213 1.24996388107e-23)
(0.028760313418 0.00515238064577 2.23329623807e-23)
(0.027767317038 0.00513197246299 5.73484152363e-23)
(0.0270422897297 0.00484365634426 7.24475388936e-23)
(0.0266903191808 0.004438393363 -8.14688522489e-23)
(0.0267485149117 0.00409841890703 -9.57722373728e-23)
(0.0272228028133 0.0040294002144 -3.67753546914e-23)
(0.0279336749191 0.00451791996562 1.80284248346e-22)
(0.0286197995489 0.00560760006707 5.22948013218e-22)
(0.0290947350027 0.00699273967782 -1.9017350527e-23)
(0.029568446602 0.00880017100605 3.22995781498e-22)
(0.0298360628713 0.0112599646659 2.5239376932e-22)
(0.0295935404812 0.014373903135 7.63460424495e-22)
)
;
    }
}


// ************************************************************************* //
