/*--------------------------------*- C++ -*----------------------------------*\
| =========                 |                                                 |
| \\      /  F ield         | OpenFOAM: The Open Source CFD Toolbox           |
|  \\    /   O peration     | Version:  v2012                                 |
|   \\  /    A nd           | Website:  www.openfoam.com                      |
|    \\/     M anipulation  |                                                 |
\*---------------------------------------------------------------------------*/
FoamFile
{
    version     2.0;
    format      ascii;
    class       volScalarField;
    location    "0.5";
    object      ddt0(k);
}
// * * * * * * * * * * * * * * * * * * * * * * * * * * * * * * * * * * * * * //

dimensions      [0 2 -3 0 0 0 0];


internalField   nonuniform List<scalar> 
166
(
-0.0541288857179
-0.0595167696752
-0.0593402244933
-0.0591101636662
-0.0590416356351
-0.0590123478833
-0.0589855271506
-0.0589550395834
-0.0589200885679
-0.0588805450502
-0.0588363171499
-0.0587868812657
-0.0587278120275
-0.0586268733847
-0.0582916468004
-0.0568194052647
-0.0511260891782
-0.0349211364851
-0.00702857463043
0.00732936565288
-0.0541287112674
-0.0595324622506
-0.0593623989862
-0.0591344882966
-0.0590669666006
-0.0590386448989
-0.0590129977611
-0.0589839569649
-0.0589507694891
-0.0589133546489
-0.0588716815535
-0.0588253588407
-0.0587706095832
-0.0586789638234
-0.0583760897258
-0.0570198770884
-0.0516247098208
-0.0357606223361
-0.00751915504208
0.00734101260004
-0.0541348198641
-0.0595527978638
-0.0593883978799
-0.0591622972899
-0.0590956293816
-0.059068148884
-0.0590435345214
-0.0590157742399
-0.0589841542404
-0.0589486356554
-0.0589092383172
-0.05886568314
-0.0588147604667
-0.058731382371
-0.0584579127001
-0.0572106705718
-0.0521099536527
-0.0366263859351
-0.00812069212861
0.00720860285007
-0.0541466362996
-0.0595772462067
-0.059417753725
-0.0591931493075
-0.0591271826679
-0.0591004088809
-0.0590766728611
-0.0590500101215
-0.0590197413988
-0.0589858640328
-0.0589484412197
-0.0589072889434
-0.058859688319
-0.0587835494118
-0.0585364376075
-0.0573899946136
-0.0525739406516
-0.0374930988323
-0.00884103315553
0.00683038734169
-0.0541635839589
-0.0596052991237
-0.0594500209813
-0.0592266213411
-0.0591612023291
-0.0591349915324
-0.0591119676074
-0.0590862062835
-0.0590570592159
-0.0590245559852
-0.0589887967081
-0.0589496787888
-0.0589049046082
-0.0588350158161
-0.0586112824612
-0.057557077512
-0.0530124169779
-0.0383476369497
-0.00958088092835
0.0065072089127
-0.0541850942621
-0.0596364734948
-0.0594847795922
-0.0592623161163
-0.0591972917744
-0.0591714927187
-0.0591490052822
-0.0591239406288
-0.0590956782778
-0.059064276679
-0.0590298676894
-0.0589924242001
-0.0589500039709
-0.0588854382375
-0.0586822576917
-0.0577117129956
-0.0534225663961
-0.0391759382479
-0.0103317519113
0.00624452101804
-0.0542106173105
-0.0596703187965
-0.0595216466577
-0.0592998721859
-0.0592350872125
-0.059209542296
-0.0591874110807
-0.0591628326957
-0.0591352167333
-0.0591046412491
-0.0590712883771
-0.0590351601172
-0.0589946475341
-0.0589345488121
-0.0587493030505
-0.0578540915893
-0.0538030747271
-0.0399683376988
-0.0110852948863
0.00601914786693
-0.0542396400479
-0.0597064306307
-0.0595602703822
-0.0593389574186
-0.0592742569992
-0.0592488073539
-0.059226845655
-0.059202545285
-0.0591753325682
-0.0591453353605
-0.0591127057048
-0.0590775801554
-0.0590385456515
-0.0589821490035
-0.0588124436139
-0.0579847091667
-0.0541539057695
-0.040718932147
-0.0118345065944
0.00581128394628
-0.0542716761716
-0.0597444226579
-0.0596003337502
-0.0543062751729
-0.0543430305901
-0.0543815760642
)
;

boundaryField
{
    back
    {
        type            calculated;
        value           nonuniform List<scalar> 
166
(
-0.0541288857179
-0.0595167696752
-0.0593402244933
-0.0591101636662
-0.0590416356351
-0.0590123478833
-0.0589855271506
-0.0589550395834
-0.0589200885679
-0.0588805450502
-0.0588363171499
-0.0587868812657
-0.0587278120275
-0.0586268733847
-0.0582916468004
-0.0568194052647
-0.0511260891782
-0.0349211364851
-0.00702857463043
0.00732936565288
-0.0541287112674
-0.0595324622506
-0.0593623989862
-0.0591344882966
-0.0590669666006
-0.0590386448989
-0.0590129977611
-0.0589839569649
-0.0589507694891
-0.0589133546489
-0.0588716815535
-0.0588253588407
-0.0587706095832
-0.0586789638234
-0.0583760897258
-0.0570198770884
-0.0516247098208
-0.0357606223361
-0.00751915504208
0.00734101260004
-0.0541348198641
-0.0595527978638
-0.0593883978799
-0.0591622972899
-0.0590956293816
-0.059068148884
-0.0590435345214
-0.0590157742399
-0.0589841542404
-0.0589486356554
-0.0589092383172
-0.05886568314
-0.0588147604667
-0.058731382371
-0.0584579127001
-0.0572106705718
-0.0521099536527
-0.0366263859351
-0.00812069212861
0.00720860285007
-0.0541466362996
-0.0595772462067
-0.059417753725
-0.0591931493075
-0.0591271826679
-0.0591004088809
-0.0590766728611
-0.0590500101215
-0.0590197413988
-0.0589858640328
-0.0589484412197
-0.0589072889434
-0.058859688319
-0.0587835494118
-0.0585364376075
-0.0573899946136
-0.0525739406516
-0.0374930988323
-0.00884103315553
0.00683038734169
-0.0541635839589
-0.0596052991237
-0.0594500209813
-0.0592266213411
-0.0591612023291
-0.0591349915324
-0.0591119676074
-0.0590862062835
-0.0590570592159
-0.0590245559852
-0.0589887967081
-0.0589496787888
-0.0589049046082
-0.0588350158161
-0.0586112824612
-0.057557077512
-0.0530124169779
-0.0383476369497
-0.00958088092835
0.0065072089127
-0.0541850942621
-0.0596364734948
-0.0594847795922
-0.0592623161163
-0.0591972917744
-0.0591714927187
-0.0591490052822
-0.0591239406288
-0.0590956782778
-0.059064276679
-0.0590298676894
-0.0589924242001
-0.0589500039709
-0.0588854382375
-0.0586822576917
-0.0577117129956
-0.0534225663961
-0.0391759382479
-0.0103317519113
0.00624452101804
-0.0542106173105
-0.0596703187965
-0.0595216466577
-0.0592998721859
-0.0592350872125
-0.059209542296
-0.0591874110807
-0.0591628326957
-0.0591352167333
-0.0591046412491
-0.0590712883771
-0.0590351601172
-0.0589946475341
-0.0589345488121
-0.0587493030505
-0.0578540915893
-0.0538030747271
-0.0399683376988
-0.0110852948863
0.00601914786693
-0.0542396400479
-0.0597064306307
-0.0595602703822
-0.0593389574186
-0.0592742569992
-0.0592488073539
-0.059226845655
-0.059202545285
-0.0591753325682
-0.0591453353605
-0.0591127057048
-0.0590775801554
-0.0590385456515
-0.0589821490035
-0.0588124436139
-0.0579847091667
-0.0541539057695
-0.040718932147
-0.0118345065944
0.00581128394628
-0.0542716761716
-0.0597444226579
-0.0596003337502
-0.0543062751729
-0.0543430305901
-0.0543815760642
)
;
    }
    sides
    {
        type            calculated;
        value           nonuniform List<scalar> 0();
    }
    bottom
    {
        type            calculated;
        value           nonuniform List<scalar> 
12
(
-0.0541288857179
-0.0541287112674
-0.0541348198641
-0.0541466362996
-0.0541635839589
-0.0541850942621
-0.0542106173105
-0.0542396400479
-0.0542716761716
-0.0543062751729
-0.0543430305901
-0.0543815760642
)
;
    }
    front
    {
        type            calculated;
        value           nonuniform List<scalar> 
166
(
-0.0541288857179
-0.0595167696752
-0.0593402244933
-0.0591101636662
-0.0590416356351
-0.0590123478833
-0.0589855271506
-0.0589550395834
-0.0589200885679
-0.0588805450502
-0.0588363171499
-0.0587868812657
-0.0587278120275
-0.0586268733847
-0.0582916468004
-0.0568194052647
-0.0511260891782
-0.0349211364851
-0.00702857463043
0.00732936565288
-0.0541287112674
-0.0595324622506
-0.0593623989862
-0.0591344882966
-0.0590669666006
-0.0590386448989
-0.0590129977611
-0.0589839569649
-0.0589507694891
-0.0589133546489
-0.0588716815535
-0.0588253588407
-0.0587706095832
-0.0586789638234
-0.0583760897258
-0.0570198770884
-0.0516247098208
-0.0357606223361
-0.00751915504208
0.00734101260004
-0.0541348198641
-0.0595527978638
-0.0593883978799
-0.0591622972899
-0.0590956293816
-0.059068148884
-0.0590435345214
-0.0590157742399
-0.0589841542404
-0.0589486356554
-0.0589092383172
-0.05886568314
-0.0588147604667
-0.058731382371
-0.0584579127001
-0.0572106705718
-0.0521099536527
-0.0366263859351
-0.00812069212861
0.00720860285007
-0.0541466362996
-0.0595772462067
-0.059417753725
-0.0591931493075
-0.0591271826679
-0.0591004088809
-0.0590766728611
-0.0590500101215
-0.0590197413988
-0.0589858640328
-0.0589484412197
-0.0589072889434
-0.058859688319
-0.0587835494118
-0.0585364376075
-0.0573899946136
-0.0525739406516
-0.0374930988323
-0.00884103315553
0.00683038734169
-0.0541635839589
-0.0596052991237
-0.0594500209813
-0.0592266213411
-0.0591612023291
-0.0591349915324
-0.0591119676074
-0.0590862062835
-0.0590570592159
-0.0590245559852
-0.0589887967081
-0.0589496787888
-0.0589049046082
-0.0588350158161
-0.0586112824612
-0.057557077512
-0.0530124169779
-0.0383476369497
-0.00958088092835
0.0065072089127
-0.0541850942621
-0.0596364734948
-0.0594847795922
-0.0592623161163
-0.0591972917744
-0.0591714927187
-0.0591490052822
-0.0591239406288
-0.0590956782778
-0.059064276679
-0.0590298676894
-0.0589924242001
-0.0589500039709
-0.0588854382375
-0.0586822576917
-0.0577117129956
-0.0534225663961
-0.0391759382479
-0.0103317519113
0.00624452101804
-0.0542106173105
-0.0596703187965
-0.0595216466577
-0.0592998721859
-0.0592350872125
-0.059209542296
-0.0591874110807
-0.0591628326957
-0.0591352167333
-0.0591046412491
-0.0590712883771
-0.0590351601172
-0.0589946475341
-0.0589345488121
-0.0587493030505
-0.0578540915893
-0.0538030747271
-0.0399683376988
-0.0110852948863
0.00601914786693
-0.0542396400479
-0.0597064306307
-0.0595602703822
-0.0593389574186
-0.0592742569992
-0.0592488073539
-0.059226845655
-0.059202545285
-0.0591753325682
-0.0591453353605
-0.0591127057048
-0.0590775801554
-0.0590385456515
-0.0589821490035
-0.0588124436139
-0.0579847091667
-0.0541539057695
-0.040718932147
-0.0118345065944
0.00581128394628
-0.0542716761716
-0.0597444226579
-0.0596003337502
-0.0543062751729
-0.0543430305901
-0.0543815760642
)
;
    }
    atmosphere
    {
        type            calculated;
        value           uniform 0;
    }
    floatingObject
    {
        type            calculated;
        value           nonuniform List<scalar> 0();
    }
    procBoundary9to6
    {
        type            processor;
        value           nonuniform List<scalar> 4(-0.0506231112566 -0.0341273882431 -0.00666863135032 0.00731259042153);
    }
    procBoundary9to7
    {
        type            processor;
        value           nonuniform List<scalar> 
16
(
-0.0541358773145
-0.0595062470934
-0.0593223546333
-0.0590897940118
-0.059020127865
-0.0589897812453
-0.0589616815853
-0.0589296164927
-0.0588927395147
-0.0588508674847
-0.0588038362894
-0.0587509675073
-0.0586871072511
-0.0585758946787
-0.0582056154936
-0.0566119461637
)
;
    }
    procBoundary9to10
    {
        type            processor;
        value           nonuniform List<scalar> 
15
(
-0.0593792928151
-0.059314508961
-0.0592889860484
-0.0592670090253
-0.0592427732162
-0.0592157443796
-0.0591860386609
-0.0591539111744
-0.0597839903552
-0.0593792928151
-0.0596415578118
-0.0597839903552
-0.0598247724759
-0.059866529058
-0.0544215804715
)
;
    }
    procBoundary9to11
    {
        type            processor;
        value           nonuniform List<scalar> 9(-0.0591194421421 -0.0590815176669 -0.0590281220201 -0.0588718285553 -0.0581042414773 -0.0544759091076 -0.0414245808126 -0.0125714158707 0.00561132554311);
    }
}


// ************************************************************************* //
