/*--------------------------------*- C++ -*----------------------------------*\
| =========                 |                                                 |
| \\      /  F ield         | OpenFOAM: The Open Source CFD Toolbox           |
|  \\    /   O peration     | Version:  v2012                                 |
|   \\  /    A nd           | Website:  www.openfoam.com                      |
|    \\/     M anipulation  |                                                 |
\*---------------------------------------------------------------------------*/
FoamFile
{
    version     2.0;
    format      ascii;
    class       surfaceScalarField;
    location    "0.5";
    object      phi;
}
// * * * * * * * * * * * * * * * * * * * * * * * * * * * * * * * * * * * * * //

dimensions      [0 3 -1 0 0 0 0];
oriented        oriented;


internalField   nonuniform List<scalar> 
300
(
-2.11734503995e-05
-0.000551827571015
-4.31479975072e-05
-0.000563852070411
-6.57248150589e-05
-0.000567226507452
-8.91284128751e-05
-0.000570415326223
-0.000113626257695
-0.000574351463289
-0.00013948692392
-0.000579015079174
-0.000166973352161
-0.000584243693783
-0.000196338741278
-0.000589824721992
-0.000227821457292
-0.000595500515095
-0.000261638304668
-0.000600965661676
-0.000297975790274
-0.0006058642132
-0.000336979470067
-0.000609787700939
-0.000378740541722
-0.000612274132894
-0.000423278598834
-0.000612807361068
-0.000470526495312
-0.000610817765211
-0.000520307774722
-0.000605617498052
-0.000572288291636
-0.000596373997412
-0.000625811796227
-0.000582035016631
-0.000680717617634
-0.000547435560709
-0.000585065911998
-2.22106609792e-05
-0.00052961690973
-4.51991418323e-05
-0.000540863586438
-6.87281019231e-05
-0.00054369753818
-9.29864569455e-05
-0.000546156955413
-0.00011820587919
-0.000549132021635
-0.000144616860833
-0.000552604080751
-0.000172441403003
-0.000556419146176
-0.000201888715246
-0.000560377424841
-0.000233150160348
-0.000564239112342
-0.00026639282023
-0.000567723072434
-0.00030175162088
-0.000570505504497
-0.000339319862589
-0.000572219558205
-0.000379137961282
-0.000572456123409
-0.000421179643911
-0.000570765744878
-0.00046533969485
-0.000566657751984
-0.000511417588081
-0.000559539622003
-0.000559088268142
-0.000548703327424
-0.000607795329388
-0.000533327962532
-0.000656437237066
-0.000498793640817
-0.000504559325062
-2.30106863355e-05
-0.000506606226956
-4.67724040747e-05
-0.000517101870877
-7.10146281112e-05
-0.000519455311416
-9.58928727738e-05
-0.000521278702497
-0.000121605203038
-0.000523419680566
-0.000148346960655
-0.000525862315882
-0.00017630309543
-0.000528463015957
-0.000205643825206
-0.000531036720029
-0.000236519772821
-0.000533363216253
-0.000269056066061
-0.000535186858566
-0.000303345310828
-0.000536216361314
-0.000339439443389
-0.000536125538148
-0.000377340430866
-0.000534555245444
-0.000416989437315
-0.000531116833718
-0.000458256555536
-0.000525390707934
-0.000500928622797
-0.000516867609289
-0.000544680120934
-0.000504951866532
-0.000589004213787
-0.000489003892733
-0.000633314017883
-0.000454483848761
-0.000435119713891
-2.36032691039e-05
-0.000483002967346
-4.79285551973e-05
-0.000492776594015
-7.26771890713e-05
-0.000494706682497
-9.79737941758e-05
-0.000495982097234
-0.000123985344808
-0.00049740812765
-0.000150875141087
-0.00049897252143
-0.000178794942051
-0.000500543229109
-0.000207880756546
-0.00050195094071
-0.000238248282236
-0.000502995752866
-0.00026998758834
-0.000503447643873
-0.000303156966237
-0.000503047098785
-0.000337776022741
-0.000501506611129
-0.000373818096653
-0.000498513301374
-0.000411201906798
-0.000493733142773
-0.000449783312382
-0.000486809400708
-0.000489345610049
-0.000477305387031
-0.000529590460154
-0.000464707066396
-0.000570113758313
-0.000448480620831
-0.000609650948269
-0.000414946659119
-0.000378026764621
-2.40167018742e-05
-0.000458986282768
-4.8725164361e-05
-0.000468068149233
-7.38033004106e-05
-0.00046962855976
-9.93475353505e-05
-0.000470437869993
-0.000125496437125
-0.000471259230962
-0.000152384401514
-0.000472084565848
-0.000180133769466
-0.000472793882084
-0.00020885081453
-0.000473233937959
-0.000238621556609
-0.000473225081235
-0.000269507034761
-0.000472562267139
-0.000301538003316
-0.000471016257792
-0.000334709128211
-0.000468335629794
-0.000368972819783
-0.000464249754084
-0.000404232775319
-0.000458473320618
-0.000440337409558
-0.000450704874519
-0.000477071012527
-0.000440571863108
-0.000514151053872
-0.000427627070624
-0.000551224536491
-0.00041140715681
-0.0005867977596
-0.000379373427006
-0.000331265094602
-2.42774146311e-05
-0.000434708894057
-4.92159127777e-05
-0.00044312967716
-7.4474307511e-05
-0.000444370185615
-0.000100123573469
-0.000444788622579
-0.000126276603734
-0.000445106213115
-0.000153041993376
-0.000445319189301
-0.000180516240436
-0.000445319656769
-0.000208779984168
-0.000444970239752
-0.000237894225615
-0.000444110915596
-0.000267896172969
-0.000442560433664
-0.000298794743201
-0.00044011782318
-0.000330565670672
-0.000436564883557
-0.000363146466719
-0.000431669141391
-0.000396431466452
-0.000425188481813
-0.000430266366313
-0.000416870090753
-0.000464439446137
-0.000406398851278
-0.000498678607215
-0.000393387927762
-0.000532661327261
-0.000377424424783
-0.000565026466859
-0.000347008253695
-0.000292251971054
-2.44098168384e-05
-0.000410299110611
-4.94502680094e-05
-0.000418089267391
-7.47649185718e-05
-0.000419055584988
-0.000100402026774
-0.000419151542186
-0.000126451535027
-0.000419056722185
-0.000152999203191
-0.000418771528257
-0.000180119004298
-0.000418199879777
-0.00020786963972
-0.000417219646822
-0.000236291178466
-0.00041568946926
-0.0002654014864
-0.000413450237744
-0.000295192313301
-0.000410327248632
-0.000325625264124
-0.00040613216094
-0.00035662798173
-0.000400666652804
-0.000388089917932
-0.000393726707553
-0.000419858119695
-0.000385102006872
-0.00045172879816
-0.000374528186924
-0.000483444157069
-0.00036167255074
-0.000514710680706
-0.000346157824689
-0.000544385901924
-0.000317332962904
-0.000259098282328
-2.44362096858e-05
-0.000385862976617
-4.94732507339e-05
-0.00039305230883
-7.47429554991e-05
-0.000393785931614
-0.000100273533327
-0.000126134509427
-0.000152391612719
-0.000179099323427
-0.00020629771818
-0.000234009508864
-0.000262236862153
-0.000290958313373
-0.000320125589278
-0.000349659873972
-0.000379449589918
-0.000409346425178
-0.000439158429324
-0.000468646978096
-0.000497546697586
-0.000524893960842
-2.43766454118e-05
-0.000361486429159
-4.93254678982e-05
-0.000337237229472
-0.000313167352831
)
;

boundaryField
{
    back
    {
        type            calculated;
        value           uniform 0;
    }
    sides
    {
        type            calculated;
        value           nonuniform List<scalar> 0();
    }
    bottom
    {
        type            calculated;
        value           uniform 0;
    }
    front
    {
        type            calculated;
        value           uniform 0;
    }
    atmosphere
    {
        type            calculated;
        value           nonuniform List<scalar> 8(-0.000776215717294 -0.000736944005638 -0.000702753554107 -0.000666743980833 -0.000633559474343 -0.000604039610007 -0.000577539587479 -0.000553466587598);
    }
    floatingObject
    {
        type            calculated;
        value           nonuniform List<scalar> 0();
    }
    procBoundary9to6
    {
        type            processor;
        value           nonuniform List<scalar> 4(0.000648354603593 0.000635558568626 0.000602341400647 0.000680563959781);
    }
    procBoundary9to7
    {
        type            processor;
        value           nonuniform List<scalar> 
16
(
0.000573001026831
0.00058582662976
0.000589803348943
0.000593818960913
0.00059884935331
0.000604875788892
0.000611730148694
0.000619190104342
0.000626983177488
0.000634782405162
0.000642201556787
0.000648791229422
0.000654035080854
0.000657345354267
0.000658065686672
0.000655398858779
)
;
    }
    procBoundary9to10
    {
        type            processor;
        value           nonuniform List<scalar> 
15
(
-0.000393621008025
-0.000393195759296
-0.000392514436301
-0.000391492179815
-0.00039002130437
-0.000387977755634
-0.000385223127244
-0.000381605989171
-0.000368103568286
-7.44695609733e-05
-0.000368641911634
-2.42493109434e-05
-2.40699690308e-05
-2.38529907767e-05
-0.000289314457005
)
;
    }
    procBoundary9to11
    {
        type            processor;
        value           nonuniform List<scalar> 9(-0.000376965233331 -0.000371132593401 -0.000363937181698 -0.000355205232942 -0.000344716194811 -0.000332183898399 -0.00031725800267 -0.000289985603005 -0.00023052564464);
    }
}


// ************************************************************************* //
