/*--------------------------------*- C++ -*----------------------------------*\
| =========                 |                                                 |
| \\      /  F ield         | OpenFOAM: The Open Source CFD Toolbox           |
|  \\    /   O peration     | Version:  v2012                                 |
|   \\  /    A nd           | Website:  www.openfoam.com                      |
|    \\/     M anipulation  |                                                 |
\*---------------------------------------------------------------------------*/
FoamFile
{
    version     2.0;
    format      ascii;
    class       surfaceScalarField;
    location    "2.8";
    object      alphaPhi0.water;
}
// * * * * * * * * * * * * * * * * * * * * * * * * * * * * * * * * * * * * * //

dimensions      [0 3 -1 0 0 0 0];
oriented        oriented;


internalField   nonuniform List<scalar> 
300
(
2.95724082296e-06
-8.01282337683e-06
6.62537170885e-06
-1.14401225417e-05
1.04235355895e-05
-1.33628074155e-05
1.41869275947e-05
-1.38664422307e-05
1.8313667877e-05
-1.37716512536e-05
2.3881661172e-05
-1.53865088443e-05
3.58085744471e-05
-1.26685930221e-05
7.82210408529e-05
1.03779365193e-05
0.000103518161254
-2.53005116821e-05
0.000171376990683
-6.78632184576e-05
0.000230181763302
-5.88136117452e-05
0.000208695207865
2.14695987221e-05
0.000187285141969
3.97480834268e-05
-9.11401866374e-05
3.75664814116e-06
-1.17695591937e-05
8.27106876147e-06
-1.59549665763e-05
1.37729272758e-05
-1.88653824791e-05
1.96686911389e-05
-1.9763256871e-05
2.4916936348e-05
-1.9021313023e-05
2.65078291509e-05
-1.69793103357e-05
2.88197399966e-05
-1.49829027045e-05
5.04492414006e-05
-1.12544559421e-05
5.8128322306e-05
-3.29832269294e-05
5.76895974253e-05
-6.74287863311e-05
7.51272475854e-05
-7.62578611055e-05
0.000136189628905
-3.96031159267e-05
0.00017167151099
4.25386797956e-06
-0.000107903079998
4.1553319107e-06
-1.59258238876e-05
8.98655521907e-06
-2.07874737842e-05
1.46381419967e-05
-2.45184900047e-05
2.08119329884e-05
-2.59387734309e-05
2.76576013721e-05
-2.58688777107e-05
3.55982559958e-05
-2.49220370359e-05
4.55531714826e-05
-2.49400825507e-05
6.14577585377e-05
-2.71613951273e-05
6.89237559219e-05
-4.04516509128e-05
6.53371179145e-05
-6.38449124539e-05
6.33909952652e-05
-7.43149174237e-05
8.6302836108e-05
-6.2519260445e-05
0.000146451445337
-5.58988579786e-05
-0.000130165306069
4.29224659874e-06
-2.02197441503e-05
9.24008980438e-06
-2.57373078262e-05
1.49582638485e-05
-3.02388149001e-05
2.13469732584e-05
-3.23296906034e-05
2.87219468205e-05
-3.32459844735e-05
3.77152055873e-05
-3.39173029276e-05
4.85737268743e-05
-3.58003508522e-05
6.1115172948e-05
-3.97042163912e-05
7.00884841096e-05
-4.94257533049e-05
7.13393351338e-05
-6.50962454257e-05
7.35137262099e-05
-7.64897245334e-05
8.96514878452e-05
-7.86572807373e-05
0.000123557881757
-8.98043819003e-05
-0.000136684269546
4.2675979492e-06
-2.44895909805e-05
9.17603009737e-06
-3.06482336535e-05
1.47723160989e-05
-3.58376439252e-05
2.10051535825e-05
-3.85649745204e-05
2.80060169606e-05
-4.02490778575e-05
3.60691426047e-05
-4.19821621584e-05
4.509875792e-05
-4.48310600616e-05
5.47268897117e-05
-4.93326681482e-05
6.25454257539e-05
-5.72436851475e-05
6.64856031856e-05
-6.90350291255e-05
7.00132351977e-05
-8.00153965121e-05
8.00438173931e-05
-8.86849644497e-05
9.44854415759e-05
-0.000104240878516
-0.000135265051852
4.11814615252e-06
-2.86102858335e-05
8.82610051366e-06
-3.53588789653e-05
1.41280983554e-05
-4.11422945811e-05
1.99017967018e-05
-4.43411317821e-05
2.61185363935e-05
-4.6467885278e-05
3.28346665439e-05
-4.8699805047e-05
3.99087980963e-05
-5.19058145623e-05
4.70255821716e-05
-5.64490853596e-05
5.31181396239e-05
-6.33347941826e-05
5.68194390492e-05
-7.2733751434e-05
5.95521888195e-05
-8.27448923474e-05
6.40816574607e-05
-9.32102354323e-05
6.80157220466e-05
-0.000108168510042
-0.000131363995352
3.90285188596e-06
-3.25156921352e-05
8.30428554928e-06
-3.97629122095e-05
1.31986710603e-05
-4.6039190403e-05
1.8418049393e-05
-4.95627898891e-05
2.37533767748e-05
-5.1805076493e-05
2.92349218846e-05
-5.41825628862e-05
3.46939569946e-05
-5.73653216192e-05
3.98773075761e-05
-6.16318447303e-05
4.40386582814e-05
-6.74944736661e-05
4.64220803871e-05
-7.51143728025e-05
4.74729664095e-05
-8.37921525857e-05
4.80066190942e-05
-9.37393313183e-05
4.65437296947e-05
-0.000106698935877
-0.00012375436538
3.63989263876e-06
-3.61578737653e-05
7.79974423528e-06
-4.39250311707e-05
1.23442708769e-05
-5.05859026756e-05
1.684136747e-05
-5.40618914469e-05
2.14201650841e-05
-5.63855557774e-05
2.58702361902e-05
-5.86338068182e-05
2.99830959534e-05
-6.14787207333e-05
3.35656245465e-05
-6.52140227038e-05
3.61644415232e-05
-7.00919496647e-05
3.72787888649e-05
-7.62264169673e-05
3.69789305499e-05
-8.34894279742e-05
3.54139966256e-05
-9.21703474321e-05
3.1310105675e-05
-0.000102589475227
-0.000113146349989
3.41931857818e-06
-3.95789878005e-05
7.28628227583e-06
-4.77937854976e-05
1.12575158391e-05
-5.45589447375e-05
1.53442447972e-05
-5.81504211711e-05
1.92512494845e-05
-6.02942747858e-05
2.28803810192e-05
-6.22644313431e-05
2.599811795e-05
-6.45976494424e-05
2.83232598823e-05
-6.75397201085e-05
2.95019258421e-05
-7.12701726095e-05
2.90227958862e-05
-7.57461684133e-05
2.64427514307e-05
-8.09076525271e-05
2.11794508507e-05
-8.69042761602e-05
1.23159477008e-05
-9.37221476517e-05
-9.99058824775e-05
3.22954808711e-06
-4.28097531336e-05
6.71669529674e-06
-5.1282266269e-05
1.04128342503e-05
-5.82566370384e-05
1.40448478255e-05
-6.1784265132e-05
1.74432382538e-05
-6.36947387005e-05
2.04133713475e-05
-6.52367579715e-05
2.28545619798e-05
-6.70409363224e-05
2.43994364417e-05
-6.90861984991e-05
2.46865946126e-05
-7.15582929428e-05
2.33615679938e-05
-7.44213299041e-05
1.98406999358e-05
-7.73861649127e-05
1.34816046492e-05
-8.05437659958e-05
3.83793317414e-06
-8.40765384598e-05
-8.74280634505e-05
3.13205505048e-06
6.40588744411e-06
9.77709257728e-06
1.3042112924e-05
1.60324413918e-05
1.8640232943e-05
2.06003215891e-05
2.17767732674e-05
2.18199098215e-05
-7.16032847714e-05
2.03587707934e-05
-7.29607405641e-05
1.71432559508e-05
-7.41703712161e-05
1.19559218834e-05
-7.53550190633e-05
4.32314129214e-06
-7.6441022364e-05
-7.75714397814e-05
2.04101251774e-05
1.92156271512e-05
1.63983698511e-05
1.16318368676e-05
-7.05860477505e-05
4.11315436609e-06
-6.8918479921e-05
-6.69763009336e-05
1.13182219603e-05
2.72238734465e-06
-5.44609311802e-05
)
;

boundaryField
{
    back
    {
        type            calculated;
        value           uniform 0;
    }
    sides
    {
        type            calculated;
        value           nonuniform List<scalar> 0();
    }
    bottom
    {
        type            calculated;
        value           uniform 0;
    }
    front
    {
        type            calculated;
        value           uniform 0;
    }
    atmosphere
    {
        type            calculated;
        value           nonuniform List<scalar> 0();
    }
    floatingObject
    {
        type            calculated;
        value           uniform 0;
    }
    procBoundary8to3
    {
        type            processor;
        value           nonuniform List<scalar> 8(5.05696697042e-06 7.77304498102e-06 9.56527353683e-06 1.01030459327e-05 9.64411350694e-06 9.81666824738e-06 7.38868774354e-07 -5.2794102008e-05);
    }
    procBoundary8to6
    {
        type            processor;
        value           nonuniform List<scalar> 
16
(
-1.83722476485e-05
9.42921424285e-05
0.00018410265279
0.000188425336848
0.000168710996607
0.000130078440747
9.30719764913e-05
6.41233932828e-05
3.89384930556e-05
2.07075604157e-05
-9.21509014616e-07
-8.63700998307e-06
-5.53047672531e-06
-6.47689254191e-06
-9.78636151568e-06
-8.90397171872e-07
)
;
    }
    procBoundary8to7
    {
        type            processor;
        value           nonuniform List<scalar> 
17
(
-4.59425752766e-05
-5.45571047584e-05
-6.16292286299e-05
-6.50511414927e-05
-6.66873859065e-05
-6.7847194177e-05
-6.90038584105e-05
-7.02651368628e-05
-2.03634981266e-05
-7.16531321554e-05
-7.17668557304e-05
-7.13520627256e-05
-1.6590029704e-05
-6.53093502643e-05
-6.03151738719e-05
-9.67427131365e-06
-4.38834832876e-05
)
;
    }
}


// ************************************************************************* //
