/*--------------------------------*- C++ -*----------------------------------*\
| =========                 |                                                 |
| \\      /  F ield         | OpenFOAM: The Open Source CFD Toolbox           |
|  \\    /   O peration     | Version:  v2012                                 |
|   \\  /    A nd           | Website:  www.openfoam.com                      |
|    \\/     M anipulation  |                                                 |
\*---------------------------------------------------------------------------*/
FoamFile
{
    version     2.0;
    format      ascii;
    class       volScalarField;
    location    "2.8";
    object      k;
}
// * * * * * * * * * * * * * * * * * * * * * * * * * * * * * * * * * * * * * //

dimensions      [0 2 -2 0 0 0 0];


internalField   nonuniform List<scalar> 
164
(
0.00356394095695
0.00445443669818
0.00473566050273
0.00484366112643
0.00487961022699
0.00485534081319
0.00473184568697
0.00446479563081
0.00409242084904
0.00412428006866
0.00426130397135
0.00453895123697
0.00501328586573
0.00598147493863
0.00358270663851
0.00447285156126
0.00475459215056
0.00486598581685
0.00491428792004
0.00493076584254
0.00491761427628
0.00487124006685
0.00482938220656
0.00488447101545
0.00495346509816
0.00500608068883
0.00521872162356
0.00592947323535
0.00360306825709
0.00449395402368
0.00477601872757
0.00488884029437
0.00494236991172
0.0049742826747
0.00499643315666
0.0050126921872
0.00503290012866
0.00508217107008
0.00513784374839
0.00518662133287
0.00531284829351
0.00577410264608
0.00362424336902
0.00451673296755
0.00479893394967
0.00491177633408
0.004966344219
0.00500219465271
0.00503338348359
0.00506481877081
0.00510001515181
0.00514538925312
0.00519648993006
0.00525009942118
0.00534542074584
0.0056586139501
0.00364534786744
0.00454011729797
0.00482235826201
0.00493441334123
0.00498813620102
0.00502362933721
0.0050554373246
0.00508864286933
0.00512517962356
0.00516684135346
0.00521332113085
0.00526552717594
0.00534730801467
0.0055838604018
0.00366567199449
0.00456321008001
0.00484545332583
0.00495631522061
0.00500842747251
0.00504213970285
0.00507206756288
0.00510333746869
0.00513756975095
0.0051755049533
0.00521750662731
0.00526599363393
0.00534047977034
0.00554055168043
0.00368470292586
0.00458532700299
0.00486756921339
0.00497704651153
0.00502727540623
0.00505886421131
0.00508642324379
0.00511505843311
0.00514637856063
0.00518092238449
0.0052193216592
0.00526538250384
0.00534080717621
0.0055442650696
0.00370213431366
0.00460599775928
0.00488823394442
0.00499625542866
0.00504453577084
0.00507400907584
0.005099294116
0.00512544496949
0.00515406879517
0.0051857458129
0.00522155441494
0.00526751113372
0.00535319810816
0.00559758953927
0.00371791045285
0.00462495801162
0.0049071850245
0.00501372180316
0.00506010119538
0.00508758157771
0.00511079078011
0.00513475100689
0.0051610939252
0.00519058006783
0.00522524463692
0.00527568395662
0.00539012491704
0.00573654683251
0.00373178723006
0.00464196690405
0.0049242210441
0.00502934621975
0.00507391727479
0.00509956372212
0.00512091871351
0.00514294173911
0.00516726676185
0.00519466285005
0.0052271539744
0.0052750840793
0.00538640472729
0.00573358467922
0.00374382578336
0.0046570005711
0.00493930223341
0.00504308933861
0.00508596270389
0.00510993106382
0.00512964057066
0.00514995547374
0.0051724733347
0.00519790802752
0.00522792809191
0.00527065719322
0.00536372425237
0.00565079452091
0.00517669525752
0.00520041670714
0.00522857305357
0.00526872844248
0.00535488103755
0.00561530009148
0.00526990391335
0.00536100650336
0.00563330840769
0.00561329809411
)
;

boundaryField
{
    back
    {
        type            kqRWallFunction;
        value           nonuniform List<scalar> 
164
(
0.00356394095695
0.00445443669818
0.00473566050273
0.00484366112643
0.00487961022699
0.00485534081319
0.00473184568697
0.00446479563081
0.00409242084904
0.00412428006866
0.00426130397135
0.00453895123697
0.00501328586573
0.00598147493863
0.00358270663851
0.00447285156126
0.00475459215056
0.00486598581685
0.00491428792004
0.00493076584254
0.00491761427628
0.00487124006685
0.00482938220656
0.00488447101545
0.00495346509816
0.00500608068883
0.00521872162356
0.00592947323535
0.00360306825709
0.00449395402368
0.00477601872757
0.00488884029437
0.00494236991172
0.0049742826747
0.00499643315666
0.0050126921872
0.00503290012866
0.00508217107008
0.00513784374839
0.00518662133287
0.00531284829351
0.00577410264608
0.00362424336902
0.00451673296755
0.00479893394967
0.00491177633408
0.004966344219
0.00500219465271
0.00503338348359
0.00506481877081
0.00510001515181
0.00514538925312
0.00519648993006
0.00525009942118
0.00534542074584
0.0056586139501
0.00364534786744
0.00454011729797
0.00482235826201
0.00493441334123
0.00498813620102
0.00502362933721
0.0050554373246
0.00508864286933
0.00512517962356
0.00516684135346
0.00521332113085
0.00526552717594
0.00534730801467
0.0055838604018
0.00366567199449
0.00456321008001
0.00484545332583
0.00495631522061
0.00500842747251
0.00504213970285
0.00507206756288
0.00510333746869
0.00513756975095
0.0051755049533
0.00521750662731
0.00526599363393
0.00534047977034
0.00554055168043
0.00368470292586
0.00458532700299
0.00486756921339
0.00497704651153
0.00502727540623
0.00505886421131
0.00508642324379
0.00511505843311
0.00514637856063
0.00518092238449
0.0052193216592
0.00526538250384
0.00534080717621
0.0055442650696
0.00370213431366
0.00460599775928
0.00488823394442
0.00499625542866
0.00504453577084
0.00507400907584
0.005099294116
0.00512544496949
0.00515406879517
0.0051857458129
0.00522155441494
0.00526751113372
0.00535319810816
0.00559758953927
0.00371791045285
0.00462495801162
0.0049071850245
0.00501372180316
0.00506010119538
0.00508758157771
0.00511079078011
0.00513475100689
0.0051610939252
0.00519058006783
0.00522524463692
0.00527568395662
0.00539012491704
0.00573654683251
0.00373178723006
0.00464196690405
0.0049242210441
0.00502934621975
0.00507391727479
0.00509956372212
0.00512091871351
0.00514294173911
0.00516726676185
0.00519466285005
0.0052271539744
0.0052750840793
0.00538640472729
0.00573358467922
0.00374382578336
0.0046570005711
0.00493930223341
0.00504308933861
0.00508596270389
0.00510993106382
0.00512964057066
0.00514995547374
0.0051724733347
0.00519790802752
0.00522792809191
0.00527065719322
0.00536372425237
0.00565079452091
0.00517669525752
0.00520041670714
0.00522857305357
0.00526872844248
0.00535488103755
0.00561530009148
0.00526990391335
0.00536100650336
0.00563330840769
0.00561329809411
)
;
    }
    sides
    {
        type            kqRWallFunction;
        value           nonuniform List<scalar> 0();
    }
    bottom
    {
        type            kqRWallFunction;
        value           nonuniform List<scalar> 
11
(
0.00356394095695
0.00358270663851
0.00360306825709
0.00362424336902
0.00364534786744
0.00366567199449
0.00368470292586
0.00370213431366
0.00371791045285
0.00373178723006
0.00374382578336
)
;
    }
    front
    {
        type            kqRWallFunction;
        value           nonuniform List<scalar> 
164
(
0.00356394095695
0.00445443669818
0.00473566050273
0.00484366112643
0.00487961022699
0.00485534081319
0.00473184568697
0.00446479563081
0.00409242084904
0.00412428006866
0.00426130397135
0.00453895123697
0.00501328586573
0.00598147493863
0.00358270663851
0.00447285156126
0.00475459215056
0.00486598581685
0.00491428792004
0.00493076584254
0.00491761427628
0.00487124006685
0.00482938220656
0.00488447101545
0.00495346509816
0.00500608068883
0.00521872162356
0.00592947323535
0.00360306825709
0.00449395402368
0.00477601872757
0.00488884029437
0.00494236991172
0.0049742826747
0.00499643315666
0.0050126921872
0.00503290012866
0.00508217107008
0.00513784374839
0.00518662133287
0.00531284829351
0.00577410264608
0.00362424336902
0.00451673296755
0.00479893394967
0.00491177633408
0.004966344219
0.00500219465271
0.00503338348359
0.00506481877081
0.00510001515181
0.00514538925312
0.00519648993006
0.00525009942118
0.00534542074584
0.0056586139501
0.00364534786744
0.00454011729797
0.00482235826201
0.00493441334123
0.00498813620102
0.00502362933721
0.0050554373246
0.00508864286933
0.00512517962356
0.00516684135346
0.00521332113085
0.00526552717594
0.00534730801467
0.0055838604018
0.00366567199449
0.00456321008001
0.00484545332583
0.00495631522061
0.00500842747251
0.00504213970285
0.00507206756288
0.00510333746869
0.00513756975095
0.0051755049533
0.00521750662731
0.00526599363393
0.00534047977034
0.00554055168043
0.00368470292586
0.00458532700299
0.00486756921339
0.00497704651153
0.00502727540623
0.00505886421131
0.00508642324379
0.00511505843311
0.00514637856063
0.00518092238449
0.0052193216592
0.00526538250384
0.00534080717621
0.0055442650696
0.00370213431366
0.00460599775928
0.00488823394442
0.00499625542866
0.00504453577084
0.00507400907584
0.005099294116
0.00512544496949
0.00515406879517
0.0051857458129
0.00522155441494
0.00526751113372
0.00535319810816
0.00559758953927
0.00371791045285
0.00462495801162
0.0049071850245
0.00501372180316
0.00506010119538
0.00508758157771
0.00511079078011
0.00513475100689
0.0051610939252
0.00519058006783
0.00522524463692
0.00527568395662
0.00539012491704
0.00573654683251
0.00373178723006
0.00464196690405
0.0049242210441
0.00502934621975
0.00507391727479
0.00509956372212
0.00512091871351
0.00514294173911
0.00516726676185
0.00519466285005
0.0052271539744
0.0052750840793
0.00538640472729
0.00573358467922
0.00374382578336
0.0046570005711
0.00493930223341
0.00504308933861
0.00508596270389
0.00510993106382
0.00512964057066
0.00514995547374
0.0051724733347
0.00519790802752
0.00522792809191
0.00527065719322
0.00536372425237
0.00565079452091
0.00517669525752
0.00520041670714
0.00522857305357
0.00526872844248
0.00535488103755
0.00561530009148
0.00526990391335
0.00536100650336
0.00563330840769
0.00561329809411
)
;
    }
    atmosphere
    {
        type            inletOutlet;
        inletValue      nonuniform List<scalar> 0();
        value           nonuniform List<scalar> 0();
    }
    floatingObject
    {
        type            kqRWallFunction;
        value           nonuniform List<scalar> 4(0.00409242084904 0.00412428006866 0.00426130397135 0.00453895123697);
    }
    procBoundary8to3
    {
        type            processor;
        value           nonuniform List<scalar> 8(0.00354782567225 0.0044394469209 0.00471971076606 0.00482270996224 0.00484615422642 0.00479490236312 0.00460400527203 0.00393986525872);
    }
    procBoundary8to6
    {
        type            processor;
        value           nonuniform List<scalar> 
16
(
0.00480695591042
0.00633749338976
0.00815237757381
0.00775275248011
0.00717052581931
0.00674825704771
0.0064489423418
0.00626055967539
0.00624383676296
0.00638175857681
0.00671193570809
0.00673064978187
0.00652793427919
0.00641047000753
0.00642186235412
0.00635868408602
)
;
    }
    procBoundary8to7
    {
        type            processor;
        value           nonuniform List<scalar> 
17
(
0.00375412271248
0.00467007261554
0.00495244075635
0.00505496251471
0.00509626969644
0.00511872324614
0.00513695988835
0.00515577100532
0.00515577100532
0.00517994420379
0.00520230212966
0.00522938804198
0.00522938804198
0.00526744315225
0.00535441542839
0.00535441542839
0.00555543310379
)
;
    }
}


// ************************************************************************* //
