/*--------------------------------*- C++ -*----------------------------------*\
| =========                 |                                                 |
| \\      /  F ield         | OpenFOAM: The Open Source CFD Toolbox           |
|  \\    /   O peration     | Version:  v2012                                 |
|   \\  /    A nd           | Website:  www.openfoam.com                      |
|    \\/     M anipulation  |                                                 |
\*---------------------------------------------------------------------------*/
FoamFile
{
    version     2.0;
    format      ascii;
    class       volVectorField;
    location    "2.4";
    object      ddt0(rho,U);
}
// * * * * * * * * * * * * * * * * * * * * * * * * * * * * * * * * * * * * * //

dimensions      [1 -2 -2 0 0 0 0];


internalField   nonuniform List<vector> 
167
(
(7.50468491695 -93.3172379028 -8.41904069485e-19)
(8.46686150507 -108.884404181 -2.26500523424e-18)
(9.73585515544 -126.382275913 -7.86435499533e-20)
(11.5713315549 -146.289856093 -4.0674830184e-19)
(14.153569787 -167.924193047 -2.19962238673e-19)
(16.1874551379 -191.427363069 -2.92825993578e-19)
(16.1704187393 -218.131171086 -7.59564790826e-19)
(14.7941779877 -252.803189746 -1.65918513997e-19)
(9.26058241597 -352.852210905 1.30348124449e-17)
(37.4599913844 -379.870957904 1.82794814811e-17)
(8.26220799192 -149.525627552 7.29757561152e-17)
(12.6255982806 -12.7758249177 -5.03863513798e-18)
(21.7602981562 -90.9967436777 -2.72693899031e-19)
(24.2029401089 -106.024053834 1.00491492678e-18)
(27.269200968 -122.705961106 1.02501327836e-19)
(31.2212988528 -141.316072932 5.69722831034e-19)
(36.2825687781 -163.095196584 2.64455484104e-19)
(41.2827137365 -189.300177805 -1.13679550315e-18)
(46.1064850182 -217.994436347 -2.52859511228e-18)
(50.4921943997 -259.076904065 5.44333338232e-19)
(48.2178001494 -356.37339147 5.40725090076e-18)
(86.8567228448 -355.132892759 7.53855994802e-18)
(44.5469619477 -112.559667665 -4.77101645704e-17)
(17.7686826328 -5.32841281514 8.90439959176e-20)
(34.8352960962 -88.0785200942 -4.38041485344e-19)
(38.5664837398 -102.44399258 5.9196223541e-19)
(43.1653871623 -118.402082409 9.54549400292e-20)
(48.8201668267 -136.304688784 -6.41553413862e-19)
(55.7309652713 -156.975290684 -6.26587696299e-19)
(64.8452304657 -180.773048484 1.05500962371e-18)
(77.3664287726 -207.43830031 -5.83566491138e-18)
(92.2810899465 -246.895750333 7.45176461295e-19)
(108.161006352 -326.148504419 9.21541353826e-17)
(137.018072443 -298.031663726 -9.51798918366e-18)
(61.0042282124 -64.0494003306 -1.6752147502e-16)
(10.6729264048 5.94839023959 3.05958490111e-19)
(52.6240114001 -97.6101638358 -2.80399396059e-19)
(58.7784016086 -112.387162929 -2.62056314549e-19)
(66.4262737948 -128.725653189 -5.77876532802e-19)
(76.2310165054 -147.013262744 1.96334469824e-19)
(88.8961964052 -168.069056532 -6.29534151676e-19)
(105.454846464 -190.599348761 9.96516370958e-19)
(127.627281458 -222.901748668 -8.32414951413e-18)
(155.030521394 -279.942143862 -3.08379505034e-19)
(176.897816842 -249.742488876 -8.50276574976e-18)
(66.1693165831 -56.8490080981 -1.09857965492e-17)
(1.78508917137 0.434170388891 3.23306953801e-19)
(72.6092193172 -104.728068729 -2.76182238285e-21)
(81.7875492253 -119.05134358 -6.40527585408e-20)
(93.5253448021 -134.601776844 -4.55706036163e-19)
(108.42214853 -152.291461139 -3.02774508009e-19)
(129.028390458 -169.134909438 -4.00223702691e-19)
(153.442858871 -192.875812124 -8.46299183479e-19)
(183.772123588 -228.773298925 2.92678637743e-17)
(193.525271218 -194.232766341 -1.60657100098e-18)
(61.6840954899 -40.8686113161 -2.07628504657e-17)
(0.580373716759 -0.0422434374231 -1.05503881302e-19)
(84.4880328664 -95.8800330563 -1.58425528088e-21)
(94.6019672777 -107.938432649 -9.30604830995e-20)
(107.368987112 -120.349869763 -4.44455144381e-19)
(123.295356981 -133.279163802 -7.18860611451e-19)
(144.928485489 -146.035258588 -1.30458457649e-18)
(169.290200016 -163.241613746 3.16845568876e-18)
(197.614626186 -180.865966374 4.29174751881e-17)
(196.410048154 -141.950046111 -3.06022272395e-18)
(51.4640958821 -23.4300078089 -7.2704141732e-18)
(0.753300185011 -0.368343135973 -3.94450100911e-20)
(94.3864453887 -86.4999951723 -1.58119495027e-20)
(104.804335977 -96.2686276053 -1.84987238216e-19)
(117.783207986 -105.817814014 -1.6376384588e-19)
(133.595927941 -115.476258099 -1.35081822577e-18)
(153.942482133 -123.608349595 -7.98091541456e-20)
(177.539856498 -135.091403677 1.32035627913e-17)
(204.564543872 -146.852384119 1.91158075952e-17)
(200.16881842 -114.733341435 -3.54660249814e-18)
(47.4564446763 -20.0825879215 -9.96319278407e-18)
(1.88197786897 -1.17835177332 -5.83963238042e-20)
(102.291013859 -77.060884743 -2.05480347485e-20)
(112.492572714 -84.6294194122 -1.29759867162e-19)
(125.091812994 -91.4606543462 -3.88645629467e-19)
(140.44993008 -97.9084516852 3.25224553405e-19)
(160.768223953 -102.523906401 -1.98045887762e-18)
(185.350736056 -107.695667931 5.48917969975e-18)
(209.712462647 -108.971549931 2.88124855901e-17)
(207.9111864 -77.5959114594 -3.22967828071e-18)
(54.4956924837 -8.07043433565 -7.63164194346e-18)
(6.99459021976 -3.80656830896 -3.40088788193e-19)
(108.313795456 -67.9939060201 1.65353845451e-20)
(117.82155949 -73.5521441639 7.12252701121e-21)
(129.399398315 -77.7874510817 6.43742644113e-20)
(143.383554165 -80.6317161444 -7.68573202623e-19)
(161.862884044 -79.096812736 7.15398648275e-19)
(184.117323291 -81.366156672 -5.29357068492e-18)
(206.442447179 -73.1507094771 -1.51485561174e-18)
(202.908866404 -35.5783559746 -7.29201417013e-18)
(52.579913334 3.78211781729 -7.72435286537e-18)
(10.2947833429 2.25755698066 -1.8494628604e-19)
(112.695203155 -59.7015421947 4.60980560452e-22)
(121.112641186 -63.6271604089 -1.84901738484e-21)
(131.096016523 -65.8586234258 -2.02772428919e-19)
(142.766113931 -66.2746402364 -5.21028919427e-19)
(157.479912121 -62.1491811011 2.97583766742e-19)
(172.901277182 -58.636046445 6.71740920393e-19)
(192.744932219 -39.674253014 7.74321641172e-18)
(175.026511908 4.61684416289 -3.70889498606e-18)
(26.4602284577 16.6054814137 9.81103436723e-18)
(-3.31900021394 16.5961681091 -6.65430136581e-19)
(115.795840186 -52.4662466978 4.6265220687e-21)
(122.881732364 -55.2329982597 3.61697077153e-20)
(130.954565935 -56.1392442964 -2.6092372278e-19)
(139.964135895 -55.02814973 -5.08691796723e-19)
(150.836887199 -49.2578139278 3.00554713989e-19)
(161.511202849 -42.3165845542 -4.96670913709e-18)
(173.907602207 -22.6592701411 7.45988363184e-18)
(144.962273023 26.0069520501 -6.73563178592e-18)
(10.7527527059 20.2849103153 -1.1402635558e-17)
(-11.8718028571 -5.64292710135 -1.48723856257e-19)
(118.051486831 -46.4366174486 -4.25594430155e-20)
(123.733064876 -48.5477717887 2.0965436271e-19)
(129.79127897 -48.8403294484 -2.54501278416e-19)
(136.025610436 -47.0734875925 1.6988816216e-19)
(142.881915501 -40.766999744 -2.07931068348e-19)
(148.420460503 -32.1758914368 4.52186701557e-18)
(153.050251921 -7.37391260279 2.74942422511e-18)
(127.387643179 47.762367843 -8.94869865169e-18)
(15.7668142328 25.4214892111 -6.8102087678e-18)
(-6.80312352223 -2.04312769854 -5.99832226216e-20)
(119.911870688 -41.5935208777 5.45038041764e-21)
(124.284782523 -43.5624736585 4.18667834694e-19)
(128.458912657 -43.9647428408 -1.18268693453e-19)
(132.042637665 -42.4841750936 6.77011998942e-19)
(134.853776512 -36.9794651138 2.05805031941e-18)
(134.661030286 -28.4205224582 9.46964360812e-18)
(130.199199077 0.552982786279 -4.12168885953e-17)
(100.236358745 70.4471473345 -1.61328395449e-17)
(13.6722167522 36.3965518583 -2.39830233698e-17)
(-11.7740433525 3.26066089865 2.75528833765e-20)
(121.805980624 -37.7959686425 -9.92744712268e-20)
(125.119892533 -40.0578168228 3.5681069069e-20)
(127.787358349 -41.2287932004 -7.88056697637e-19)
(129.24620268 -41.0917533113 1.09792205095e-19)
(128.74378373 -38.3444850778 -1.00406732683e-18)
(123.486580375 -33.6853458526 -3.58895625634e-18)
(109.145775805 -4.5565644058 1.8597158542e-17)
(55.3032843434 85.7155208902 4.32880208323e-18)
(-4.45069477483 42.2782558544 -4.26571466821e-18)
(-20.8673038893 7.36487640312 -1.28083855377e-18)
(124.064982187 -34.7599407311 -1.0842971041e-19)
(126.697505624 -37.6260048687 3.94477814021e-19)
(128.420899191 -39.9897292111 -1.31781537127e-19)
(128.702973992 -41.8516626128 2.8385890811e-19)
(126.804452261 -43.1916056006 -1.15512845659e-18)
(120.974099401 -46.6432768689 2.34918441679e-18)
(110.578226251 -37.130709931 1.52300896577e-17)
(39.8306518997 51.5192889457 1.6880210164e-17)
(-0.630448921887 56.780761394 1.3130670451e-16)
(-4.56296826228 -38.5949921332 1.27181580184e-18)
(126.904736868 -32.1518875747 -7.10378127342e-20)
(129.25990325 -35.7462908317 2.07595230336e-20)
(130.634925049 -39.3744539698 -3.19695685605e-19)
(130.569020409 -43.0113414895 -2.10608112006e-19)
(128.559291354 -46.6322234718 6.61205421291e-19)
(123.877266151 -50.5370236333 -6.08249163394e-19)
(119.484026071 -30.5069589301 1.08010930389e-17)
(30.1786346731 79.2757565208 2.65719637282e-17)
(5.69079446545 39.5253006331 1.21728136338e-17)
(21.7638613962 5.41884589001 3.87867983486e-19)
)
;

boundaryField
{
    back
    {
        type            calculated;
        value           uniform (0 0 0);
    }
    sides
    {
        type            calculated;
        value           uniform (0 0 0);
    }
    bottom
    {
        type            calculated;
        value           nonuniform List<vector> 0();
    }
    front
    {
        type            calculated;
        value           uniform (0 0 0);
    }
    atmosphere
    {
        type            calculated;
        value           nonuniform List<vector> 
16
(
(12.6255982806 -12.7758249177 -5.03863513798e-18)
(-8.5874765093 -3.45992937018 -1.2915392182e-18)
(-1.08993613515 5.9910888385 -4.60531741387e-20)
(-0.0751212824394 0.543030643644 1.2630777675e-21)
(-0.107751242561 -0.0422431159267 -1.48176759714e-20)
(-0.0913933909635 -0.36834260795 3.74595099524e-21)
(-0.0862137659255 -1.17835167823 -1.02317287905e-20)
(-1.88509882471 -3.80656829219 1.61233021694e-18)
(8.64528068853 2.25755698689 1.18390560481e-19)
(-5.99654263676 16.5961606504 2.64045913826e-21)
(-0.637647759498 -5.64292710135 5.89271608669e-21)
(1.10980823013 -2.04312769854 -2.84926184052e-19)
(-14.2025366052 3.26066089865 7.39161823087e-20)
(54.3212444242 7.36487639295 -1.19734152211e-18)
(-3.70872039745 -38.5949921332 9.70314932127e-19)
(21.8154436438 5.41884589001 5.29976437427e-19)
)
;
    }
    floatingObject
    {
        type            calculated;
        value           nonuniform List<vector> 0();
    }
    procBoundary1to0
    {
        type            processor;
        value           nonuniform List<vector> 10((130.341198799 -29.5837838124 1.20668191692e-20) (132.814987548 -33.9507717775 3.52917857325e-19) (134.361667283 -38.8627794393 -6.88682528903e-20) (134.471941249 -44.3385995894 1.81738280958e-20) (132.564596756 -50.3709444086 -2.77318015521e-18) (127.786211538 -57.1056214251 -3.36757130957e-19) (117.797405117 -44.8816290769 -2.61623996327e-18) (3.01252139141 63.3011670307 -6.82144090002e-18) (-12.179261258 42.045391223 -5.92882100968e-18) (11.5423635741 5.12469815901 -6.12606009823e-19));
    }
    procBoundary1to2
    {
        type            processor;
        value           nonuniform List<vector> 
18
(
(6.74287605721 -79.3412986252 -1.41319506256e-18)
(19.8305627614 -77.4460846787 9.99676262155e-19)
(31.8049260654 -75.1000788592 -5.6870336314e-19)
(47.6373509389 -84.1494586429 3.35634115385e-19)
(47.6373509389 -84.1494586429 3.35634115385e-19)
(65.2122876488 -91.4099175178 -4.02436813356e-20)
(65.2122876488 -91.4099175178 -4.02436813356e-20)
(76.3342840613 -84.3645463049 -6.79869605655e-20)
(85.9595451751 -76.8242128149 -1.33266601191e-19)
(93.9621240889 -69.1602847515 1.33218791631e-21)
(100.43777367 -61.7109597357 -1.56872313255e-20)
(105.559749663 -54.7693945675 4.42326635722e-21)
(109.59208043 -48.5565190749 1.52388652353e-20)
(112.838169666 -43.183673756 8.92400746393e-20)
(115.626363104 -38.6527300606 6.52897287342e-21)
(118.273084897 -34.8557778476 1.15738126716e-19)
(121.042737002 -31.6073272514 7.07904414328e-20)
(124.068174697 -28.6531609895 1.32910969218e-19)
)
;
    }
}


// ************************************************************************* //
