/*--------------------------------*- C++ -*----------------------------------*\
| =========                 |                                                 |
| \\      /  F ield         | OpenFOAM: The Open Source CFD Toolbox           |
|  \\    /   O peration     | Version:  v2012                                 |
|   \\  /    A nd           | Website:  www.openfoam.com                      |
|    \\/     M anipulation  |                                                 |
\*---------------------------------------------------------------------------*/
FoamFile
{
    version     2.0;
    format      ascii;
    class       volScalarField;
    location    "2.4";
    object      epsilon_0;
}
// * * * * * * * * * * * * * * * * * * * * * * * * * * * * * * * * * * * * * //

dimensions      [0 2 -3 0 0 0 0];


internalField   nonuniform List<scalar> 
167
(
0.00359219329837
0.00362358465161
0.00366109683489
0.00371660842676
0.00382261594085
0.00405224994272
0.00452995042152
0.00545340421823
0.00711005638871
0.0103403224293
0.0213760932074
0.0989615665525
0.00370845855918
0.00373500495448
0.0037691881603
0.0038257596167
0.00394220837086
0.00419668460443
0.00471605207113
0.00566501030622
0.00724476685403
0.0104069590207
0.0236191484077
0.119929372535
0.00404096755928
0.00406807332493
0.0041038474133
0.00416462341611
0.004291120277
0.00456699359464
0.00512678617027
0.00614631126791
0.00782467840942
0.011187796197
0.0262334488977
0.153881359235
0.0041911445606
0.00422701568234
0.0042883246472
0.00441610621648
0.00469482628528
0.00526125256353
0.00629896777704
0.00801931562225
0.0114650061925
0.0270168862357
0.15165917552
0.004274330913
0.00433481282173
0.00446099758292
0.00473704063235
0.00530071245578
0.00634109454004
0.00808284631268
0.0115295652697
0.0261741736598
0.145650124997
0.00429590767762
0.00435492713873
0.00447847127893
0.00475007926539
0.00530832143642
0.00634650572213
0.00809524789639
0.011439980067
0.0246177211334
0.139556560251
0.00430942332794
0.00436669491741
0.00448712742505
0.00475352802903
0.00530516345026
0.00633965902451
0.00810369108936
0.0115401450773
0.025120438122
0.137853819572
0.00432082171502
0.00437618323747
0.00449319163801
0.00475380834824
0.00529797707804
0.00632748133578
0.00811081538624
0.0117506398157
0.026780417558
0.120546603045
0.00433190068081
0.00438525681343
0.00449859632263
0.0047528820716
0.00528860096173
0.00631136026559
0.0081103642825
0.0118942213141
0.0280347180501
0.133552612637
0.00434310061059
0.00439438667241
0.00450384381781
0.0047512539054
0.00527744319699
0.00629131927583
0.00809579879298
0.0118510411314
0.0270460198984
0.130379695861
0.0043544519037
0.00440362857201
0.00450902636682
0.00474904819224
0.00526459613905
0.00626762143903
0.00807603418213
0.0117803595383
0.0250243665939
0.129641087899
0.00436588146384
0.00441294812293
0.00451414920696
0.00474633585127
0.00525016120048
0.00624033526245
0.0080566084327
0.0118523911894
0.0239675822063
0.111224682818
0.00437729179831
0.00442230247842
0.00451931367661
0.00474342629312
0.00523462779944
0.00620949265813
0.00803167731333
0.01208900536
0.0263961978146
0.112835123491
0.00438862706221
0.00443169652701
0.00452471002774
0.0047411079684
0.005219955991
0.00617788618373
0.00799236385115
0.0122244334843
0.02903471248
0.1049279196
0.00439985557335
0.00444119001652
0.00453070879089
0.00474069586141
0.00521005466139
0.00615527006378
0.0079440664893
0.0120254773442
0.0281123758332
0.0973793686052
0.00441093577319
0.00445079769853
0.00453754550662
0.00474316644461
0.00520894152709
0.00615875825902
0.00794442284082
0.0116711624273
0.024580895694
0.0869987550258
)
;

boundaryField
{
    back
    {
        lowReCorrection 0;
        blending        stepwise;
        n               2;
        type            epsilonWallFunction;
        value           nonuniform List<scalar> 
167
(
0.00359219329837
0.00362358465161
0.00366109683489
0.00371660842676
0.00382261594085
0.00405224994272
0.00452995042152
0.00545340421823
0.00711005638871
0.0103403224293
0.0213760932074
0.0989615665525
0.00370845855918
0.00373500495448
0.0037691881603
0.0038257596167
0.00394220837086
0.00419668460443
0.00471605207113
0.00566501030622
0.00724476685403
0.0104069590207
0.0236191484077
0.119929372535
0.00404096755928
0.00406807332493
0.0041038474133
0.00416462341611
0.004291120277
0.00456699359464
0.00512678617027
0.00614631126791
0.00782467840942
0.011187796197
0.0262334488977
0.153881359235
0.0041911445606
0.00422701568234
0.0042883246472
0.00441610621648
0.00469482628528
0.00526125256353
0.00629896777704
0.00801931562225
0.0114650061925
0.0270168862357
0.15165917552
0.004274330913
0.00433481282173
0.00446099758292
0.00473704063235
0.00530071245578
0.00634109454004
0.00808284631268
0.0115295652697
0.0261741736598
0.145650124997
0.00429590767762
0.00435492713873
0.00447847127893
0.00475007926539
0.00530832143642
0.00634650572213
0.00809524789639
0.011439980067
0.0246177211334
0.139556560251
0.00430942332794
0.00436669491741
0.00448712742505
0.00475352802903
0.00530516345026
0.00633965902451
0.00810369108936
0.0115401450773
0.025120438122
0.137853819572
0.00432082171502
0.00437618323747
0.00449319163801
0.00475380834824
0.00529797707804
0.00632748133578
0.00811081538624
0.0117506398157
0.026780417558
0.120546603045
0.00433190068081
0.00438525681343
0.00449859632263
0.0047528820716
0.00528860096173
0.00631136026559
0.0081103642825
0.0118942213141
0.0280347180501
0.133552612637
0.00434310061059
0.00439438667241
0.00450384381781
0.0047512539054
0.00527744319699
0.00629131927583
0.00809579879298
0.0118510411314
0.0270460198984
0.130379695861
0.0043544519037
0.00440362857201
0.00450902636682
0.00474904819224
0.00526459613905
0.00626762143903
0.00807603418213
0.0117803595383
0.0250243665939
0.129641087899
0.00436588146384
0.00441294812293
0.00451414920696
0.00474633585127
0.00525016120048
0.00624033526245
0.0080566084327
0.0118523911894
0.0239675822063
0.111224682818
0.00437729179831
0.00442230247842
0.00451931367661
0.00474342629312
0.00523462779944
0.00620949265813
0.00803167731333
0.01208900536
0.0263961978146
0.112835123491
0.00438862706221
0.00443169652701
0.00452471002774
0.0047411079684
0.005219955991
0.00617788618373
0.00799236385115
0.0122244334843
0.02903471248
0.1049279196
0.00439985557335
0.00444119001652
0.00453070879089
0.00474069586141
0.00521005466139
0.00615527006378
0.0079440664893
0.0120254773442
0.0281123758332
0.0973793686052
0.00441093577319
0.00445079769853
0.00453754550662
0.00474316644461
0.00520894152709
0.00615875825902
0.00794442284082
0.0116711624273
0.024580895694
0.0869987550258
)
;
    }
    sides
    {
        lowReCorrection 0;
        blending        stepwise;
        n               2;
        type            epsilonWallFunction;
        value           nonuniform List<scalar> 
12
(
0.00359219329837
0.00362358465161
0.00366109683489
0.00371660842676
0.00382261594085
0.00405224994272
0.00452995042152
0.00545340421823
0.00711005638871
0.0103403224293
0.0213760932074
0.0989615665525
)
;
    }
    bottom
    {
        lowReCorrection 0;
        blending        stepwise;
        n               2;
        type            epsilonWallFunction;
        value           nonuniform List<scalar> 0();
    }
    front
    {
        lowReCorrection 0;
        blending        stepwise;
        n               2;
        type            epsilonWallFunction;
        value           nonuniform List<scalar> 
167
(
0.00359219329837
0.00362358465161
0.00366109683489
0.00371660842676
0.00382261594085
0.00405224994272
0.00452995042152
0.00545340421823
0.00711005638871
0.0103403224293
0.0213760932074
0.0989615665525
0.00370845855918
0.00373500495448
0.0037691881603
0.0038257596167
0.00394220837086
0.00419668460443
0.00471605207113
0.00566501030622
0.00724476685403
0.0104069590207
0.0236191484077
0.119929372535
0.00404096755928
0.00406807332493
0.0041038474133
0.00416462341611
0.004291120277
0.00456699359464
0.00512678617027
0.00614631126791
0.00782467840942
0.011187796197
0.0262334488977
0.153881359235
0.0041911445606
0.00422701568234
0.0042883246472
0.00441610621648
0.00469482628528
0.00526125256353
0.00629896777704
0.00801931562225
0.0114650061925
0.0270168862357
0.15165917552
0.004274330913
0.00433481282173
0.00446099758292
0.00473704063235
0.00530071245578
0.00634109454004
0.00808284631268
0.0115295652697
0.0261741736598
0.145650124997
0.00429590767762
0.00435492713873
0.00447847127893
0.00475007926539
0.00530832143642
0.00634650572213
0.00809524789639
0.011439980067
0.0246177211334
0.139556560251
0.00430942332794
0.00436669491741
0.00448712742505
0.00475352802903
0.00530516345026
0.00633965902451
0.00810369108936
0.0115401450773
0.025120438122
0.137853819572
0.00432082171502
0.00437618323747
0.00449319163801
0.00475380834824
0.00529797707804
0.00632748133578
0.00811081538624
0.0117506398157
0.026780417558
0.120546603045
0.00433190068081
0.00438525681343
0.00449859632263
0.0047528820716
0.00528860096173
0.00631136026559
0.0081103642825
0.0118942213141
0.0280347180501
0.133552612637
0.00434310061059
0.00439438667241
0.00450384381781
0.0047512539054
0.00527744319699
0.00629131927583
0.00809579879298
0.0118510411314
0.0270460198984
0.130379695861
0.0043544519037
0.00440362857201
0.00450902636682
0.00474904819224
0.00526459613905
0.00626762143903
0.00807603418213
0.0117803595383
0.0250243665939
0.129641087899
0.00436588146384
0.00441294812293
0.00451414920696
0.00474633585127
0.00525016120048
0.00624033526245
0.0080566084327
0.0118523911894
0.0239675822063
0.111224682818
0.00437729179831
0.00442230247842
0.00451931367661
0.00474342629312
0.00523462779944
0.00620949265813
0.00803167731333
0.01208900536
0.0263961978146
0.112835123491
0.00438862706221
0.00443169652701
0.00452471002774
0.0047411079684
0.005219955991
0.00617788618373
0.00799236385115
0.0122244334843
0.02903471248
0.1049279196
0.00439985557335
0.00444119001652
0.00453070879089
0.00474069586141
0.00521005466139
0.00615527006378
0.0079440664893
0.0120254773442
0.0281123758332
0.0973793686052
0.00441093577319
0.00445079769853
0.00453754550662
0.00474316644461
0.00520894152709
0.00615875825902
0.00794442284082
0.0116711624273
0.024580895694
0.0869987550258
)
;
    }
    atmosphere
    {
        type            inletOutlet;
        inletValue      uniform 0.1;
        value           nonuniform List<scalar> 
16
(
0.0989615665525
0.1
0.1
0.1
0.1
0.1
0.1
0.1
0.133552612637
0.130379695861
0.1
0.1
0.1
0.1049279196
0.0973793686052
0.0869987550258
)
;
    }
    floatingObject
    {
        lowReCorrection 0;
        blending        stepwise;
        n               2;
        type            epsilonWallFunction;
        value           nonuniform List<scalar> 0();
    }
    procBoundary1to0
    {
        type            processor;
        value           nonuniform List<scalar> 10(0.00442181715752 0.00446041585465 0.00454481490539 0.00474703618382 0.00521306781482 0.00619297541664 0.00811487780253 0.0119934821768 0.0221136712421 0.0795067542133);
    }
    procBoundary1to2
    {
        type            processor;
        value           nonuniform List<scalar> 
18
(
0.00356319403946
0.00368457991725
0.00401691884518
0.00416424484768
0.00416424484768
0.00423908445874
0.00423908445874
0.00426164043711
0.00427627676143
0.00428887101971
0.00430118027397
0.00431360814548
0.00432618028402
0.00433878451423
0.00435132013011
0.00436370904167
0.0043758895563
0.00438779204529
)
;
    }
}


// ************************************************************************* //
