/*--------------------------------*- C++ -*----------------------------------*\
| =========                 |                                                 |
| \\      /  F ield         | OpenFOAM: The Open Source CFD Toolbox           |
|  \\    /   O peration     | Version:  v2012                                 |
|   \\  /    A nd           | Website:  www.openfoam.com                      |
|    \\/     M anipulation  |                                                 |
\*---------------------------------------------------------------------------*/
FoamFile
{
    version     2.0;
    format      ascii;
    class       volScalarField;
    location    "2.4";
    object      p;
}
// * * * * * * * * * * * * * * * * * * * * * * * * * * * * * * * * * * * * * //

dimensions      [1 -1 -2 0 0 0 0];


internalField   nonuniform List<scalar> 
167
(
4600.562902
4115.70399416
3631.55454486
3148.20013364
2665.5740865
2184.01487241
1703.6624681
1224.89161491
747.30374951
307.294061435
43.8665837501
-12.2560122979
4599.84014273
4114.89404066
3630.60866992
3147.03720744
2664.41093721
2182.7067411
1702.08617782
1222.80602146
744.420319245
300.318318849
40.0839541747
-10.5054498435
4598.53211824
4113.46479123
3629.02439569
3145.27898834
2662.33317912
2180.23890801
1699.11184067
1219.1504693
740.320308105
294.56910689
36.3560417668
-9.92360757444
4111.36996792
3626.70300804
3142.66498349
2659.32825677
2176.70270852
1694.9080444
1214.10805342
734.476467001
287.666463681
33.1508046302
-9.73912436287
3623.69713439
3139.28284422
2655.45347564
2172.24562004
1689.66725875
1207.83640836
726.86051442
279.562228695
29.6389828405
-9.66907487591
3620.08857553
3135.26464522
2650.90927449
2167.07483297
1683.6429277
1200.69428981
718.235821496
271.211184874
26.4554110171
-9.65069310641
3615.96822847
3130.72507127
2645.85708437
2161.40143936
1677.09078687
1193.0729194
709.305155514
263.14691263
23.6422661163
-9.6797113462
3611.41685249
3125.75412632
2640.34570908
2155.11427411
1670.18720465
1185.22149387
700.264901495
255.258360053
20.9754260198
-9.74068380438
3606.51400809
3120.46824112
2634.59871491
2148.8374002
1663.14107339
1177.36242654
691.279883321
247.480792864
18.1521201756
-9.83139136455
3601.3215053
3114.94166906
2628.67884718
2142.44949198
1656.15579412
1169.73880503
682.555153605
239.849548301
14.5541672898
-10.7232212471
3595.8848114
3109.2298167
2622.65546538
2136.06199939
1649.30470071
1162.13334493
674.575671323
234.30494313
14.3841347335
-9.91004091838
3590.23088741
3103.36529425
2616.57630667
2129.76722187
1642.79924231
1155.44979162
667.416582176
228.980118432
12.7903395213
-9.7253407586
3584.36772849
3097.35095937
2610.43833892
2123.55451473
1636.58582034
1149.31566614
661.325943171
224.329619624
11.3671879646
-9.65529091064
3578.28454658
3091.16020349
2604.19256492
2117.34597757
1630.57339832
1143.78221171
656.748804551
222.162775206
10.8639581104
-9.67237240415
3571.95996882
3084.744854
2597.74887471
2110.97901669
1624.47274697
1138.35658915
653.110618411
224.25766859
14.4092768858
-9.31233387863
3565.36407261
3078.04792209
2591.00268129
2104.26344582
1617.87978047
1131.92568631
646.377759791
216.890304949
10.2043455527
-9.40282690529
)
;

boundaryField
{
    back
    {
        type            calculated;
        value           nonuniform List<scalar> 
167
(
4600.562902
4115.70399416
3631.55454486
3148.20013364
2665.5740865
2184.01487241
1703.6624681
1224.89161491
747.30374951
307.294061435
43.8665837501
-12.2560122979
4599.84014273
4114.89404066
3630.60866992
3147.03720744
2664.41093721
2182.7067411
1702.08617782
1222.80602146
744.420319245
300.318318849
40.0839541747
-10.5054498435
4598.53211824
4113.46479123
3629.02439569
3145.27898834
2662.33317912
2180.23890801
1699.11184067
1219.1504693
740.320308105
294.56910689
36.3560417668
-9.92360757444
4111.36996792
3626.70300804
3142.66498349
2659.32825677
2176.70270852
1694.9080444
1214.10805342
734.476467001
287.666463681
33.1508046302
-9.73912436287
3623.69713439
3139.28284422
2655.45347564
2172.24562004
1689.66725875
1207.83640836
726.86051442
279.562228695
29.6389828405
-9.66907487591
3620.08857553
3135.26464522
2650.90927449
2167.07483297
1683.6429277
1200.69428981
718.235821497
271.211184874
26.4554110171
-9.65069310641
3615.96822847
3130.72507127
2645.85708437
2161.40143936
1677.09078687
1193.0729194
709.305155514
263.14691263
23.6422661163
-9.6797113462
3611.41685249
3125.75412632
2640.34570908
2155.11427411
1670.18720465
1185.22149387
700.264901495
255.258360053
20.9754260198
-9.74068380438
3606.51400809
3120.46824112
2634.59871491
2148.8374002
1663.14107339
1177.36242654
691.279883321
247.480792864
18.1521201756
-9.83139136455
3601.3215053
3114.94166906
2628.67884718
2142.44949198
1656.15579412
1169.73880503
682.555153605
239.849548301
14.5541672898
-10.7232212471
3595.8848114
3109.2298167
2622.65546538
2136.06199939
1649.30470071
1162.13334493
674.575671323
234.30494313
14.3841347335
-9.91004091838
3590.23088741
3103.36529425
2616.57630667
2129.76722187
1642.79924231
1155.44979162
667.416582176
228.980118432
12.7903395213
-9.7253407586
3584.36772849
3097.35095937
2610.43833892
2123.55451473
1636.58582034
1149.31566614
661.325943171
224.329619624
11.3671879646
-9.65529091064
3578.28454658
3091.16020349
2604.19256492
2117.34597757
1630.57339832
1143.78221171
656.748804551
222.162775206
10.8639581104
-9.67237240415
3571.95996882
3084.744854
2597.74887471
2110.97901669
1624.47274697
1138.35658915
653.110618411
224.25766859
14.4092768858
-9.31233387863
3565.36407261
3078.04792209
2591.00268129
2104.26344582
1617.87978047
1131.92568631
646.377759791
216.890304949
10.2043455527
-9.40282690529
)
;
    }
    sides
    {
        type            calculated;
        value           nonuniform List<scalar> 
12
(
4600.562902
4115.70399416
3631.55454486
3148.20013364
2665.5740865
2184.01487241
1703.6624681
1224.89161491
747.30374951
307.294061435
43.8665837501
-12.2560122979
)
;
    }
    bottom
    {
        type            calculated;
        value           nonuniform List<scalar> 0();
    }
    front
    {
        type            calculated;
        value           nonuniform List<scalar> 
167
(
4600.562902
4115.70399416
3631.55454486
3148.20013364
2665.5740865
2184.01487241
1703.6624681
1224.89161491
747.30374951
307.294061435
43.8665837501
-12.2560122979
4599.84014273
4114.89404066
3630.60866992
3147.03720744
2664.41093721
2182.7067411
1702.08617782
1222.80602146
744.420319245
300.318318849
40.0839541747
-10.5054498435
4598.53211824
4113.46479123
3629.02439569
3145.27898834
2662.33317912
2180.23890801
1699.11184067
1219.1504693
740.320308105
294.56910689
36.3560417668
-9.92360757444
4111.36996792
3626.70300804
3142.66498349
2659.32825677
2176.70270852
1694.9080444
1214.10805342
734.476467001
287.666463681
33.1508046302
-9.73912436287
3623.69713439
3139.28284422
2655.45347564
2172.24562004
1689.66725875
1207.83640836
726.86051442
279.562228695
29.6389828405
-9.66907487591
3620.08857553
3135.26464522
2650.90927449
2167.07483297
1683.6429277
1200.69428981
718.235821496
271.211184874
26.4554110171
-9.65069310641
3615.96822847
3130.72507127
2645.85708437
2161.40143936
1677.09078687
1193.0729194
709.305155514
263.14691263
23.6422661163
-9.6797113462
3611.41685249
3125.75412632
2640.34570908
2155.11427411
1670.18720465
1185.22149387
700.264901495
255.258360053
20.9754260198
-9.74068380438
3606.51400809
3120.46824112
2634.59871491
2148.8374002
1663.14107339
1177.36242654
691.279883321
247.480792864
18.1521201756
-9.83139136455
3601.3215053
3114.94166906
2628.67884718
2142.44949198
1656.15579412
1169.73880503
682.555153605
239.849548301
14.5541672898
-10.7232212471
3595.8848114
3109.2298167
2622.65546538
2136.06199939
1649.30470071
1162.13334493
674.575671323
234.30494313
14.3841347335
-9.91004091838
3590.23088741
3103.36529425
2616.57630667
2129.76722187
1642.79924231
1155.44979162
667.416582176
228.980118432
12.7903395213
-9.7253407586
3584.36772849
3097.35095937
2610.43833892
2123.55451473
1636.58582034
1149.31566614
661.325943171
224.329619624
11.3671879646
-9.65529091064
3578.28454658
3091.16020349
2604.19256492
2117.34597757
1630.57339832
1143.78221171
656.748804551
222.162775206
10.8639581104
-9.67237240415
3571.95996882
3084.744854
2597.74887471
2110.97901669
1624.47274697
1138.35658915
653.110618411
224.25766859
14.4092768858
-9.31233387863
3565.36407261
3078.04792209
2591.00268129
2104.26344582
1617.87978047
1131.92568631
646.377759791
216.890304949
10.2043455527
-9.40282690529
)
;
    }
    atmosphere
    {
        type            calculated;
        value           nonuniform List<scalar> 
16
(
-13.964604218
-9.8329816513
-9.8140786064
-9.81138539469
-9.81051679922
-9.81019871419
-9.81036129116
-9.81052701419
-9.81
-12.2005989635
-10.0313832487
-9.810015292
-9.81017318869
-9.81054351919
-9.81074072503
-10.8603436538
)
;
    }
    floatingObject
    {
        type            calculated;
        value           nonuniform List<scalar> 0();
    }
    procBoundary1to0
    {
        type            processor;
        value           nonuniform List<scalar> 10(3558.47616113 3071.02229256 2583.88275458 2097.10927073 1610.76564386 1124.91673596 639.497838911 212.223883571 8.85128901268 -9.24034522342);
    }
    procBoundary1to2
    {
        type            processor;
        value           nonuniform List<scalar> 
18
(
5086.05958826
5085.39567621
5084.18643632
4596.616931
4596.616931
4108.64995751
4108.64995751
4105.35689614
4101.57050266
4097.35335928
4092.76500214
4087.85559151
4082.66262066
4077.211685
4071.5142847
4065.57175902
4059.37688795
4052.92341199
)
;
    }
}


// ************************************************************************* //
