/*--------------------------------*- C++ -*----------------------------------*\
| =========                 |                                                 |
| \\      /  F ield         | OpenFOAM: The Open Source CFD Toolbox           |
|  \\    /   O peration     | Version:  v2012                                 |
|   \\  /    A nd           | Website:  www.openfoam.com                      |
|    \\/     M anipulation  |                                                 |
\*---------------------------------------------------------------------------*/
FoamFile
{
    version     2.0;
    format      ascii;
    class       volVectorField;
    location    "2.4";
    object      U;
}
// * * * * * * * * * * * * * * * * * * * * * * * * * * * * * * * * * * * * * //

dimensions      [0 1 -1 0 0 0 0];


internalField   nonuniform List<vector> 
167
(
(-0.000608012680145 0.0114184871491 1.11853740566e-21)
(-0.000467439885387 0.0119960945669 9.09512803098e-22)
(-0.000274740305359 0.0122424852258 3.5838707557e-22)
(-3.51670448848e-06 0.0120955813783 3.69103756682e-25)
(0.000302316449374 0.0114188276125 1.23208988355e-22)
(0.000585860911782 0.0103110079987 -6.80511523868e-22)
(0.00138014749419 0.00725945917578 -6.6302383682e-22)
(0.00369799428621 0.00584655828499 -3.55617924639e-21)
(0.00421869112805 -0.00865504390483 -5.63090591355e-21)
(0.00122742987414 0.000529206195055 -6.0987397067e-21)
(-0.0385289709502 -0.0208636042551 1.19649078681e-19)
(-0.375034649365 0.269763325469 8.33300138088e-20)
(-0.00108670162993 0.0108786363188 1.91939458791e-22)
(-0.000658235368903 0.0114470688173 -1.32671155503e-22)
(-0.000110675343655 0.0117333213595 -5.0222658566e-22)
(0.00059347467645 0.0116516701063 -4.29062871118e-22)
(0.0014453542996 0.0111201634835 -2.24164242143e-23)
(0.00256102073027 0.0101684410395 -1.97739065468e-22)
(0.00415848852323 0.00774057472598 -1.78254793504e-21)
(0.00729614253029 0.00741376498255 -7.82601804784e-21)
(0.00968732983926 -0.00219139536302 -1.13129922372e-20)
(0.00993638336549 0.0120607326352 -1.19356990749e-20)
(-0.00873557952922 -0.00628312280421 -4.7128886923e-20)
(-0.354973818521 -0.172239858593 -3.10794978662e-20)
(-0.00171036393404 0.010740469877 3.17468203177e-22)
(-0.0010567637546 0.0113607409708 -2.90797908679e-22)
(-0.000242965271223 0.0117279343824 -2.88368038435e-22)
(0.000763889545788 0.0117847603955 -2.99400910112e-24)
(0.00201240690002 0.0114590861693 9.01216782823e-23)
(0.00362377630404 0.0108314117724 -2.00359619163e-21)
(0.00551950023144 0.00893413694237 2.03027542625e-21)
(0.00885309654858 0.00922993480456 -7.21036355913e-21)
(0.012140289696 0.00223205310086 -7.1042656231e-21)
(0.0075194966304 0.0182222576206 -2.13253157879e-20)
(-0.00465444793523 0.00586371087794 -1.18569249198e-19)
(-0.125383617041 -0.0807074219221 -9.14936031559e-20)
(-0.0017259527655 0.0119816262762 -1.28056257368e-22)
(-0.000655688545135 0.0125282938097 -4.27911978687e-24)
(0.000660876452314 0.0128126765552 -6.14239823722e-23)
(0.00226414806682 0.0127815968254 -5.63493595598e-23)
(0.00429203052771 0.0125685459235 -3.79084283431e-22)
(0.00642561022357 0.0111911192697 4.69062281595e-22)
(0.00987518521355 0.0120866645965 1.46404353748e-21)
(0.0134346333899 0.00668047548095 -4.18378837164e-21)
(0.0080590204412 0.022615857575 -6.62392617964e-21)
(0.013935798119 0.00835084986229 -1.23055319946e-20)
(-0.0407432126647 -0.0504139403422 -6.48824637361e-21)
(-0.00121898380479 0.0137893060966 9.61558846504e-25)
(0.000351933650209 0.01436961076 -5.21984711483e-23)
(0.00224612943164 0.0146760721956 1.10002001053e-22)
(0.00458803706267 0.014908174931 -1.39337838369e-21)
(0.00696792034077 0.0140016107351 -7.64912682043e-22)
(0.0105240744154 0.0153831861611 -2.01198882822e-21)
(0.0144209930678 0.0108260393347 -6.15021935015e-21)
(0.00890089081457 0.0249210727746 -1.04373936552e-20)
(0.0310466771449 0.00917468836452 -2.81797957094e-20)
(0.00162994179104 -0.0318097882466 -2.31319192972e-20)
(-0.00207532224091 0.0153083527478 -5.02062766823e-24)
(-0.000310142138218 0.0162272435598 -1.01454680036e-22)
(0.00180123730921 0.0169193845577 1.268703963e-22)
(0.00439432833865 0.0176603399823 -1.53426054666e-21)
(0.00699819380721 0.0171976667631 -1.45190772793e-21)
(0.0108035943602 0.0190319867511 -7.1710261047e-21)
(0.0152829062561 0.0155968338892 -9.67983354874e-21)
(0.0107337944553 0.0277353024002 -1.28830251339e-20)
(0.0476059654144 0.0128835893376 -2.22467219169e-20)
(0.0338220563991 -0.0209192448748 -1.89810683193e-20)
(-0.00325201816163 0.0169915309609 6.25469830992e-25)
(-0.00135017983879 0.0182742243521 -7.91056882221e-23)
(0.000926906109563 0.0193867604717 1.08177058994e-22)
(0.00373175831871 0.020639339322 -1.87761530907e-21)
(0.0065023435956 0.0207176323267 -1.55574037053e-21)
(0.0106093288176 0.0230621447596 -1.46232392627e-20)
(0.0158257775864 0.020630297615 -1.54013055222e-20)
(0.0125171700147 0.0308611422248 -1.7675674809e-20)
(0.0623232152967 0.0179901354904 -2.83427335545e-20)
(0.0701980533703 -0.0311753039513 -2.54555263046e-20)
(-0.00477599527929 0.0187754690271 -2.22796784133e-23)
(-0.00280215176985 0.02045532156 -1.85408308224e-22)
(-0.000426006622316 0.0220565908149 -7.15200453771e-23)
(0.00249407204937 0.0238113198119 -2.47271770606e-21)
(0.00550378803198 0.0244726606511 2.33945778952e-22)
(0.00999091448774 0.0274149188444 -8.62606936408e-21)
(0.0161442560426 0.0261154584453 -1.2229371991e-20)
(0.0140977358776 0.034586646864 -1.94940356096e-20)
(0.0756002153365 0.0250006562572 -5.35140023755e-20)
(0.158586839273 -0.0484991803205 -4.69326925112e-20)
(-0.00666500002808 0.0205909364998 -1.07849640282e-24)
(-0.00469405320318 0.0226811548851 -8.48405408085e-23)
(-0.0023128544625 0.0247771174574 -2.14872706275e-22)
(0.000590223359497 0.0271415507759 -4.41406160597e-22)
(0.00375392952662 0.0286490080949 -2.58467239849e-22)
(0.008434138714 0.0323328083783 3.80602273175e-23)
(0.0155626044067 0.0327923920985 -5.48644048803e-21)
(0.0147965556592 0.0397280106908 -8.74214382411e-21)
(0.0838408948592 0.034309077182 -1.46694657634e-20)
(0.283737929312 -0.00373921359495 -2.38033021968e-20)
(-0.00892194211771 0.0223664187172 -4.55648925735e-24)
(-0.00703269434572 0.0248679112346 -9.21506780258e-23)
(-0.00474273612972 0.0274697211123 -9.65509237729e-23)
(-0.00195558314791 0.0304308155126 -9.56360038746e-22)
(0.00113241202704 0.0327825375833 -1.11469756652e-21)
(0.0057123349324 0.0373615576542 -1.01643154762e-21)
(0.0131050209034 0.0394816871722 -7.63649173856e-21)
(0.0129175365903 0.0448873418697 -1.19901685489e-20)
(0.0755906628964 0.0454095692696 -2.95794175308e-20)
(0.0220027425765 0.328974439122 -2.88939974232e-20)
(-0.0115393300905 0.0240295754373 -8.54271770565e-24)
(-0.0098109847676 0.0269210715341 -1.10710770946e-22)
(-0.00771398435621 0.0300110014638 -3.12430760709e-22)
(-0.00517352094965 0.0335411129199 -1.20134142281e-22)
(-0.00232993657016 0.0367777876863 -1.56537881404e-21)
(0.00191916799984 0.0420264229897 8.83186825981e-22)
(0.00886602231816 0.0450028615662 -6.2240095631e-21)
(0.00941202333969 0.0483622549346 -1.1514935698e-20)
(0.0653528086534 0.0521578755816 -1.93933044196e-20)
(-0.193237795274 -0.02372221115 -2.17750790543e-20)
(-0.0144925415012 0.0255101285694 -5.61239889993e-24)
(-0.0130019582409 0.0287528592647 -1.47688144393e-22)
(-0.0111866460333 0.0322852086153 3.01514101029e-23)
(-0.00900182516633 0.0363149034735 -3.39383898445e-22)
(-0.00655849619478 0.0403310693881 -5.40118405067e-22)
(-0.00287076804508 0.0461190900709 -3.41684178285e-21)
(0.0033328334452 0.0502261223246 -1.34620824378e-20)
(0.00605471085323 0.0521048147926 -1.27832512149e-20)
(0.0664808843919 0.0568634758633 -1.0882151166e-20)
(0.0144280059043 -0.0119260059253 -2.30442817684e-21)
(-0.0177374608194 0.026738146719 -2.41175705594e-23)
(-0.0165541796903 0.0302845842915 -1.04958631538e-22)
(-0.0151067572774 0.0342020914214 -2.0412066153e-23)
(-0.0133772262446 0.0386630847692 -6.90499700115e-22)
(-0.0114680703113 0.0434323163256 -3.63821920343e-22)
(-0.00855418796633 0.0497890816189 -5.57263312553e-21)
(-0.00375274157616 0.0557553316748 -2.15961295786e-20)
(0.000593483787537 0.0575787429628 -1.5661035507e-20)
(0.0612562049528 0.0682848325355 -2.42147024942e-20)
(0.0581673911295 0.0456625212017 -1.5490045713e-20)
(-0.0212194112954 0.027658635375 -2.55721324825e-23)
(-0.020403160668 0.031439929841 -4.43337251016e-23)
(-0.0194072956872 0.0356575230727 -1.21783262948e-22)
(-0.0182460998517 0.0404641748092 -1.39353072838e-22)
(-0.017041790692 0.0458539979432 -9.89871413439e-22)
(-0.015264431767 0.0526874544273 1.14136793823e-21)
(-0.0129783154771 0.0604594324651 -1.39432737001e-21)
(-0.00923462402568 0.0628015495988 -1.12892773786e-20)
(0.0479178140241 0.0788048404648 -8.75146409102e-21)
(0.134799260422 0.116866471422 -1.68619849598e-20)
(-0.0248709732713 0.0282266799427 -1.10662142717e-23)
(-0.0244664670935 0.0321541286291 1.10074001902e-23)
(-0.0239839859148 0.0365584607686 4.33198762302e-23)
(-0.0234899156855 0.0415779574553 9.07955465464e-23)
(-0.0231556940888 0.0473479339528 -3.05680972166e-22)
(-0.0227165180885 0.0544655822661 4.47308512951e-22)
(-0.0228976215704 0.0623537499737 -1.31683384643e-20)
(-0.0218862328113 0.063838537544 -1.25502392391e-20)
(0.00849121343997 0.0790635201432 3.8352531169e-20)
(0.287809935711 0.0834347375305 -3.98164201616e-21)
(-0.0286075882109 0.0284098428245 -2.22370431625e-23)
(-0.0286283194115 0.0323867624323 -2.20107837532e-23)
(-0.0286783548877 0.0368425893234 -6.81487765066e-23)
(-0.0288800835048 0.0419086324135 -7.88395550081e-23)
(-0.0295081181516 0.0478031323768 -1.05585348592e-21)
(-0.030673140005 0.055307285065 1.01054187142e-22)
(-0.0327522627191 0.0634020124666 1.37542884229e-21)
(-0.0352778038471 0.0663746668935 -3.90178678258e-21)
(-0.0454801967907 0.0855085090122 -9.50455596982e-21)
(0.086710901414 0.316293516179 -2.06357639712e-21)
)
;

boundaryField
{
    back
    {
        type            noSlip;
    }
    sides
    {
        type            noSlip;
    }
    bottom
    {
        type            noSlip;
    }
    front
    {
        type            noSlip;
    }
    atmosphere
    {
        type            pressureInletOutletVelocity;
        value           nonuniform List<vector> 
16
(
(-0.375034649365 0.269763325469 8.33300138088e-20)
(0 -0.172239858593 0)
(0 -0.0807074219221 0)
(0 -0.0504139403422 0)
(0 -0.0318097882466 0)
(0 -0.0209192448748 0)
(0 -0.0311753039513 0)
(0 -0.0484991803205 0)
(0 -0.00373921359495 0)
(0.0220027425765 0.328974439122 -2.88939974232e-20)
(0 -0.02372221115 0)
(0 -0.0119260059253 0)
(0.0581673911295 0.0456625212017 -1.5490045713e-20)
(0.134799260422 0.116866471422 -1.68619849598e-20)
(0.287809935711 0.0834347375305 -3.98164201616e-21)
(0.086710901414 0.316293516179 -2.06357639712e-21)
)
;
    }
    floatingObject
    {
        type            movingWallVelocity;
        value           nonuniform List<vector> 0();
    }
    procBoundary1to0
    {
        type            processor;
        value           nonuniform List<vector> 10((-0.0323478732165 0.0282075571911 -1.04737699295e-23) (-0.0327786613953 0.0321424623025 -1.37007468082e-24) (-0.0333330656284 0.0365279912261 5.18122045687e-23) (-0.0341537484962 0.0414649468706 1.05619795205e-22) (-0.0356334875991 0.047074311801 -1.35595449403e-21) (-0.0384222173266 0.0542189209797 -1.09477903536e-21) (-0.0429639616299 0.061064480851 -2.59193058634e-21) (-0.0489685064603 0.0658301691086 -5.80366930535e-21) (-0.0653823545584 0.0808505488064 2.64425329875e-21) (-0.209038704573 0.13607950305 -1.4024848546e-20));
    }
    procBoundary1to2
    {
        type            processor;
        value           nonuniform List<vector> 
18
(
(-0.00071300644955 0.0105873795649 3.45888518545e-22)
(-0.00142365109744 0.0100822904727 -3.74376626118e-22)
(-0.00223231496444 0.0099145182438 1.47898356391e-22)
(-0.00259154455994 0.0112172307475 1.42760709811e-22)
(-0.00259154455994 0.0112172307475 1.42760709811e-22)
(-0.00250316617548 0.012998259853 2.20922289557e-23)
(-0.00250316617548 0.012998259853 2.20922289557e-23)
(-0.00352363099001 0.0142343882087 1.14660146589e-23)
(-0.00481204477021 0.0156083201817 1.05929021008e-23)
(-0.00639112991583 0.0170613808095 -4.15755237344e-26)
(-0.00827298992614 0.0185361771783 1.32669305359e-23)
(-0.0104584608475 0.0199733539413 1.54687375057e-23)
(-0.0129414767537 0.0213181965088 1.16664287298e-23)
(-0.0156970722787 0.0225107713807 1.16834574948e-23)
(-0.0186890736441 0.0234976073454 -1.2753277153e-23)
(-0.0218762031025 0.0242313919866 -1.81317627123e-23)
(-0.0251999189036 0.0246820046053 1.60996033807e-24)
(-0.0285915788056 0.0248226695478 3.57887030328e-23)
)
;
    }
}


// ************************************************************************* //
