/*--------------------------------*- C++ -*----------------------------------*\
| =========                 |                                                 |
| \\      /  F ield         | OpenFOAM: The Open Source CFD Toolbox           |
|  \\    /   O peration     | Version:  v2012                                 |
|   \\  /    A nd           | Website:  www.openfoam.com                      |
|    \\/     M anipulation  |                                                 |
\*---------------------------------------------------------------------------*/
FoamFile
{
    version     2.0;
    format      ascii;
    class       volScalarField;
    location    "0.1";
    object      ddt0(k);
}
// * * * * * * * * * * * * * * * * * * * * * * * * * * * * * * * * * * * * * //

dimensions      [0 2 -3 0 0 0 0];


internalField   nonuniform List<scalar> 
164
(
-0.213011023103
-0.183974584229
-0.180313484203
-0.179968195668
-0.179829433643
-0.179670588577
-0.179479113885
-0.179254066304
-0.213008139571
-0.184015005955
-0.180371324538
-0.180041388584
-0.17992237817
-0.179788941119
-0.179629044641
-0.179442332135
-0.179229388317
-0.178991508879
-0.178730449801
-0.213044976567
-0.184082747315
-0.180452813279
-0.180135933065
-0.180033952892
-0.179922312627
-0.179789302139
-0.179634883877
-0.179459907046
-0.179265777889
-0.179054433733
-0.178828633631
-0.178591943347
-0.213114413911
-0.184171338525
-0.180552378995
-0.180246647744
-0.180159235715
-0.180066135643
-0.179955827361
-0.179828436588
-0.179684924206
-0.179526722101
-0.179355745221
-0.179174539463
-0.178986341858
-0.178795177898
-0.213210141036
-0.184275764917
-0.180665295613
-0.180369018585
-0.180293973159
-0.180216515404
-0.180125231494
-0.180020304175
-0.179902727727
-0.179773884477
-0.179635564658
-0.1794900549
-0.179340187052
-0.179189400829
-0.213326250645
-0.184391739504
-0.180787558114
-0.180499209165
-0.180434575349
-0.180370216967
-0.180294758241
-0.180208391945
-0.180112085614
-0.180007122815
-0.179895124532
-0.17977810003
-0.179658481519
-0.179539163524
-0.213457444076
-0.184515579918
-0.180915797079
-0.1806340248
-0.180578083861
-0.180524610382
-0.180462231309
-0.180391115624
-0.18031216475
-0.180226542725
-0.180135686081
-0.180041331728
-0.179945543791
-0.17985072278
-0.213599144754
-0.184644191052
-0.181047224952
-0.180770851307
-0.180722107442
-0.180677614079
-0.180625977719
-0.180567319628
-0.180502459228
-0.180432434283
-0.180358499383
-0.180282141828
-0.180205099581
-0.180129336672
-0.213747498153
-0.18477502978
-0.181179578707
-0.180907587314
-0.180864753713
-0.180827616797
-0.180784745861
-0.180736204241
-0.180682724915
-0.180625222551
-0.180564782916
-0.180502674361
-0.180440347943
-0.180379404648
-0.213899333652
-0.184906046432
-0.181311052318
-0.18104257818
-0.181004560016
-0.18097340498
-0.180937636949
-0.180897259382
-0.180852921639
-0.180805424462
-0.180755705415
-0.180704842696
-0.180654042294
-0.180604613061
-0.180557777121
-0.18051132527
-0.214052049628
-0.185035613701
-0.181440239433
-0.181174555711
-0.181140427403
-0.181114097081
-0.1810840412
-0.181050206354
-0.181013165332
-0.180973618582
-0.180932376688
-0.180890353656
-0.180848554238
-0.180808055554
-0.180769840533
-0.180731978268
-0.214203610299
-0.18516248612
-0.181566081873
-0.181302578872
-0.181271560959
-0.181249085531
-0.181223583013
-0.181194948768
-0.181163688613
-0.181130418161
-0.181095838997
-0.181060728574
-0.181025932764
-0.180992347086
-0.180960769677
-0.180929487962
)
;

boundaryField
{
    back
    {
        type            calculated;
        value           nonuniform List<scalar> 
164
(
-0.213011023103
-0.183974584229
-0.180313484203
-0.179968195668
-0.179829433643
-0.179670588577
-0.179479113885
-0.179254066304
-0.213008139571
-0.184015005955
-0.180371324538
-0.180041388584
-0.17992237817
-0.179788941119
-0.179629044641
-0.179442332135
-0.179229388317
-0.178991508879
-0.178730449801
-0.213044976567
-0.184082747315
-0.180452813279
-0.180135933065
-0.180033952892
-0.179922312627
-0.179789302139
-0.179634883877
-0.179459907046
-0.179265777889
-0.179054433733
-0.178828633631
-0.178591943347
-0.213114413911
-0.184171338525
-0.180552378995
-0.180246647744
-0.180159235715
-0.180066135643
-0.179955827361
-0.179828436588
-0.179684924206
-0.179526722101
-0.179355745221
-0.179174539463
-0.178986341858
-0.178795177898
-0.213210141036
-0.184275764917
-0.180665295613
-0.180369018585
-0.180293973159
-0.180216515404
-0.180125231494
-0.180020304175
-0.179902727727
-0.179773884477
-0.179635564658
-0.1794900549
-0.179340187052
-0.179189400829
-0.213326250645
-0.184391739504
-0.180787558114
-0.180499209165
-0.180434575349
-0.180370216967
-0.180294758241
-0.180208391945
-0.180112085614
-0.180007122815
-0.179895124532
-0.17977810003
-0.179658481519
-0.179539163524
-0.213457444076
-0.184515579918
-0.180915797079
-0.1806340248
-0.180578083861
-0.180524610382
-0.180462231309
-0.180391115624
-0.18031216475
-0.180226542725
-0.180135686081
-0.180041331728
-0.179945543791
-0.17985072278
-0.213599144754
-0.184644191052
-0.181047224952
-0.180770851307
-0.180722107442
-0.180677614079
-0.180625977719
-0.180567319628
-0.180502459228
-0.180432434283
-0.180358499383
-0.180282141828
-0.180205099581
-0.180129336672
-0.213747498153
-0.18477502978
-0.181179578707
-0.180907587314
-0.180864753713
-0.180827616797
-0.180784745861
-0.180736204241
-0.180682724915
-0.180625222551
-0.180564782916
-0.180502674361
-0.180440347943
-0.180379404648
-0.213899333652
-0.184906046432
-0.181311052318
-0.18104257818
-0.181004560016
-0.18097340498
-0.180937636949
-0.180897259382
-0.180852921639
-0.180805424462
-0.180755705415
-0.180704842696
-0.180654042294
-0.180604613061
-0.180557777121
-0.18051132527
-0.214052049628
-0.185035613701
-0.181440239433
-0.181174555711
-0.181140427403
-0.181114097081
-0.1810840412
-0.181050206354
-0.181013165332
-0.180973618582
-0.180932376688
-0.180890353656
-0.180848554238
-0.180808055554
-0.180769840533
-0.180731978268
-0.214203610299
-0.18516248612
-0.181566081873
-0.181302578872
-0.181271560959
-0.181249085531
-0.181223583013
-0.181194948768
-0.181163688613
-0.181130418161
-0.181095838997
-0.181060728574
-0.181025932764
-0.180992347086
-0.180960769677
-0.180929487962
)
;
    }
    sides
    {
        type            calculated;
        value           nonuniform List<scalar> 0();
    }
    bottom
    {
        type            calculated;
        value           nonuniform List<scalar> 
12
(
-0.213011023103
-0.213008139571
-0.213044976567
-0.213114413911
-0.213210141036
-0.213326250645
-0.213457444076
-0.213599144754
-0.213747498153
-0.213899333652
-0.214052049628
-0.214203610299
)
;
    }
    front
    {
        type            calculated;
        value           nonuniform List<scalar> 
164
(
-0.213011023103
-0.183974584229
-0.180313484203
-0.179968195668
-0.179829433643
-0.179670588577
-0.179479113885
-0.179254066304
-0.213008139571
-0.184015005955
-0.180371324538
-0.180041388584
-0.17992237817
-0.179788941119
-0.179629044641
-0.179442332135
-0.179229388317
-0.178991508879
-0.178730449801
-0.213044976567
-0.184082747315
-0.180452813279
-0.180135933065
-0.180033952892
-0.179922312627
-0.179789302139
-0.179634883877
-0.179459907046
-0.179265777889
-0.179054433733
-0.178828633631
-0.178591943347
-0.213114413911
-0.184171338525
-0.180552378995
-0.180246647744
-0.180159235715
-0.180066135643
-0.179955827361
-0.179828436588
-0.179684924206
-0.179526722101
-0.179355745221
-0.179174539463
-0.178986341858
-0.178795177898
-0.213210141036
-0.184275764917
-0.180665295613
-0.180369018585
-0.180293973159
-0.180216515404
-0.180125231494
-0.180020304175
-0.179902727727
-0.179773884477
-0.179635564658
-0.1794900549
-0.179340187052
-0.179189400829
-0.213326250645
-0.184391739504
-0.180787558114
-0.180499209165
-0.180434575349
-0.180370216967
-0.180294758241
-0.180208391945
-0.180112085614
-0.180007122815
-0.179895124532
-0.17977810003
-0.179658481519
-0.179539163524
-0.213457444076
-0.184515579918
-0.180915797079
-0.1806340248
-0.180578083861
-0.180524610382
-0.180462231309
-0.180391115624
-0.18031216475
-0.180226542725
-0.180135686081
-0.180041331728
-0.179945543791
-0.17985072278
-0.213599144754
-0.184644191052
-0.181047224952
-0.180770851307
-0.180722107442
-0.180677614079
-0.180625977719
-0.180567319628
-0.180502459228
-0.180432434283
-0.180358499383
-0.180282141828
-0.180205099581
-0.180129336672
-0.213747498153
-0.18477502978
-0.181179578707
-0.180907587314
-0.180864753713
-0.180827616797
-0.180784745861
-0.180736204241
-0.180682724915
-0.180625222551
-0.180564782916
-0.180502674361
-0.180440347943
-0.180379404648
-0.213899333652
-0.184906046432
-0.181311052318
-0.18104257818
-0.181004560016
-0.18097340498
-0.180937636949
-0.180897259382
-0.180852921639
-0.180805424462
-0.180755705415
-0.180704842696
-0.180654042294
-0.180604613061
-0.180557777121
-0.18051132527
-0.214052049628
-0.185035613701
-0.181440239433
-0.181174555711
-0.181140427403
-0.181114097081
-0.1810840412
-0.181050206354
-0.181013165332
-0.180973618582
-0.180932376688
-0.180890353656
-0.180848554238
-0.180808055554
-0.180769840533
-0.180731978268
-0.214203610299
-0.18516248612
-0.181566081873
-0.181302578872
-0.181271560959
-0.181249085531
-0.181223583013
-0.181194948768
-0.181163688613
-0.181130418161
-0.181095838997
-0.181060728574
-0.181025932764
-0.180992347086
-0.180960769677
-0.180929487962
)
;
    }
    atmosphere
    {
        type            calculated;
        value           nonuniform List<scalar> 0();
    }
    floatingObject
    {
        type            calculated;
        value           nonuniform List<scalar> 0();
    }
    procBoundary7to6
    {
        type            processor;
        value           nonuniform List<scalar> 
11
(
-0.178605172777
-0.179041244458
-0.179423063715
-0.179759221183
-0.180056740406
-0.180321358371
-0.180321358371
-0.180263682521
-0.180403218652
-0.180639946728
-0.180850163468
)
;
    }
    procBoundary7to8
    {
        type            processor;
        value           nonuniform List<scalar> 
17
(
-0.21305340971
-0.183979510012
-0.180286524882
-0.179921966147
-0.179760517713
-0.179572454187
-0.179344442131
-0.179074138461
-0.178995631081
-0.178995631081
-0.178704757369
-0.178382728032
-0.17844907889
-0.17844907889
-0.178151162913
-0.178348934718
-0.178348934718
)
;
    }
    procBoundary7to9
    {
        type            processor;
        value           nonuniform List<scalar> 
16
(
-0.214352447149
-0.185285743859
-0.181687813264
-0.181425980201
-0.181397417502
-0.181377985458
-0.181356072002
-0.181331528918
-0.181304806216
-0.181276447908
-0.181247063909
-0.181217323732
-0.181187948074
-0.18115968709
-0.181133201113
-0.18110695671
)
;
    }
}


// ************************************************************************* //
