/*--------------------------------*- C++ -*----------------------------------*\
| =========                 |                                                 |
| \\      /  F ield         | OpenFOAM: The Open Source CFD Toolbox           |
|  \\    /   O peration     | Version:  v2012                                 |
|   \\  /    A nd           | Website:  www.openfoam.com                      |
|    \\/     M anipulation  |                                                 |
\*---------------------------------------------------------------------------*/
FoamFile
{
    version     2.0;
    format      ascii;
    class       surfaceVectorField;
    location    "1.1";
    object      ddtCorrDdt0(Uf);
}
// * * * * * * * * * * * * * * * * * * * * * * * * * * * * * * * * * * * * * //

dimensions      [0 1 -2 0 0 0 0];


internalField   nonuniform List<vector> 
300
(
(0.138149987661 0.00378123487102 -1.97466921809e-22)
(0.136747588721 0.00277593461074 3.77935137355e-22)
(0.137900515723 0.00774593841742 2.10138825002e-22)
(0.135560333686 0.00613525114242 3.13376912248e-23)
(0.139264320147 0.0117777253367 5.29218065177e-22)
(0.136220727075 0.0103262467349 2.79841720396e-22)
(0.141914840488 0.0159267483004 2.50024673475e-22)
(0.138224351929 0.0150969744985 3.1520281941e-22)
(0.145590640011 0.020499345092 6.97931013542e-24)
(0.141251862005 0.0198792957459 3.60694972263e-23)
(0.150182929228 0.0255204809602 -2.20944889498e-24)
(0.145150504643 0.0250832694997 9.30752375077e-23)
(0.155780135637 0.0311025353611 -1.36998802058e-23)
(0.149949582187 0.030830692388 9.33464783329e-23)
(0.162490543032 0.0373993927786 -3.64264957937e-24)
(0.155729348386 0.0372605358909 -3.7368089681e-24)
(0.170444865654 0.0445984573373 -1.4198119705e-23)
(0.162590648837 0.0445495092697 9.36085660605e-23)
(0.179800940016 0.0529424906207 -1.67416817212e-22)
(0.170650762501 0.052920280995 8.36277293815e-23)
(0.190743216058 0.062749809062 -8.72140208039e-23)
(0.180045319955 0.0626594361469 -1.90699369759e-22)
(0.203470659813 0.0744589805929 -1.250619422e-22)
(0.190914424942 0.074147408957 1.83744422944e-22)
(0.218142085799 0.0887104674651 -2.3854804765e-22)
(0.203360426192 0.0878762899341 -1.22687520851e-22)
(0.234542980319 0.106456460704 -1.26339469087e-21)
(0.217341945066 0.104348931166 4.87660817947e-23)
(0.251308869365 0.12817299285 -1.12534618339e-20)
(0.232515373289 0.123495094296 -2.54645972093e-21)
(0.279135687139 0.148203889018 -2.89737409001e-21)
(0.24974716113 0.142421457725 -1.70570845854e-20)
(0.300609506341 0.179182604951 -3.48095688459e-21)
(0.28404696696 0.192565988008 -9.32766906506e-21)
(0.401220820863 0.210514001996 -3.12616488423e-20)
(0.287002017318 0.215668454733 -1.63919813591e-20)
(0.441922814355 0.24407563028 -4.40287078051e-20)
(0.481780745329 0.29405040166 -7.10951456465e-21)
(0.384405003724 0.261606419372 -1.25013168641e-20)
(0.133895986736 0.00454568263475 6.06739750389e-22)
(0.132200001748 0.00306861329265 4.68822633858e-22)
(0.133537564697 0.00916802159296 1.01040586618e-22)
(0.130935674469 0.00721932721661 2.28986174652e-22)
(0.134760520944 0.0139413047459 6.58264746286e-23)
(0.131444078541 0.0120753791055 -1.33778436462e-22)
(0.13710880409 0.0189503901665 1.01247643161e-22)
(0.133210541671 0.0175451398973 -2.42361955021e-23)
(0.140337427023 0.0243524254907 1.22165424599e-22)
(0.135843656929 0.0231058814942 6.46743994498e-24)
(0.144385768137 0.0302642589591 1.88631164736e-22)
(0.139231021439 0.0291142328648 1.41026648838e-22)
(0.149296071021 0.03682081433 1.03309549571e-22)
(0.143383710666 0.0357233441749 1.11298945633e-22)
(0.155140395024 0.0441890985344 9.35144066718e-23)
(0.14834967653 0.0430884696851 2.91820566025e-23)
(0.162004857983 0.0525754188344 1.91434415147e-22)
(0.154190423595 0.0513987964214 -1.01881242045e-23)
(0.169985684184 0.0622365219209 6.03451768348e-23)
(0.160973135883 0.0608871570751 -4.77388819001e-23)
(0.17918173451 0.073497403664 8.02590739891e-23)
(0.168765881866 0.0718423178625 -2.86026778087e-23)
(0.189668763918 0.0867682601176 1.86118844293e-22)
(0.177624194374 0.084624611141 2.06721073961e-22)
(0.201454263618 0.102554332729 1.64626608593e-22)
(0.187555588455 0.0996463415036 1.20891669905e-22)
(0.214482203517 0.12136438499 -1.23429894827e-21)
(0.198515061957 0.117218823826 6.40743242441e-22)
(0.229303740389 0.143186032258 -8.35008247248e-21)
(0.21068020558 0.137457122654 -2.18266478748e-21)
(0.251820240364 0.167144195985 -2.34873795605e-20)
(0.225779617803 0.162230394075 -1.23829170512e-20)
(0.267362282219 0.201387338011 -2.22386935396e-20)
(0.249800223125 0.209681907978 -5.47694748774e-20)
(0.364132163772 0.237753524144 7.76015291849e-21)
(0.250636305563 0.223378769924 1.55131806493e-21)
(0.417907201678 0.284514459322 2.44178763764e-20)
(0.434662366649 0.31368602909 7.57323452431e-20)
(0.365087962365 0.305793684343 5.97017676794e-20)
(0.128976255826 0.00519104781127 9.10690581211e-23)
(0.127008272234 0.00331035670722 -8.66636405263e-23)
(0.128499156868 0.010454992421 -5.83284842815e-24)
(0.125670709703 0.00816273264733 4.8739611617e-23)
(0.129516800256 0.015880439304 -2.23841106592e-22)
(0.126016533902 0.0135995746249 -3.76837267713e-22)
(0.131533722047 0.0215838592075 -1.19016398718e-22)
(0.127503540172 0.0196635286121 -1.51462427359e-22)
(0.134292326779 0.0277019246332 2.53286641846e-23)
(0.12972040396 0.0258688748327 -5.94181620786e-23)
(0.137738082568 0.0343678845736 6.36944297357e-23)
(0.132558274219 0.0325475971768 5.32076518566e-23)
(0.141889286079 0.0417300126804 3.7171452665e-23)
(0.136013151984 0.0398597114005 5.03434710461e-23)
(0.146784169009 0.0499639504003 -7.45204742738e-23)
(0.140105524549 0.0479682845379 -5.98924227201e-24)
(0.152466222307 0.059281439013 -2.49361421252e-22)
(0.144860761363 0.0570660124126 -1.599923181e-23)
(0.158977438727 0.069939206039 -1.36686736544e-22)
(0.150301298155 0.0673842626165 -5.88955507315e-23)
(0.166350001202 0.0822494324987 9.78593221631e-23)
(0.156440147253 0.0792009659228 -1.66758937316e-23)
(0.17458617633 0.0965851907422 1.41493899573e-22)
(0.163272379506 0.0928492725599 2.49896748965e-22)
(0.183654016864 0.113372964795 5.97008303753e-22)
(0.170752231329 0.108693764007 9.92588122295e-23)
(0.193662105516 0.133035348518 -3.07622596768e-22)
(0.178838595034 0.127010225233 6.21120447768e-22)
(0.205545609933 0.155812642691 -6.21549936623e-21)
(0.187891461724 0.148294422798 -2.406945953e-21)
(0.222099333444 0.182131577819 -4.36650123681e-20)
(0.199453134102 0.17610387188 -8.66029575135e-21)
(0.231960238263 0.216376745983 -3.09794632728e-20)
(0.215552683067 0.21848668978 -6.45364741396e-20)
(0.320796436515 0.252894133845 6.95235103895e-20)
(0.214118953741 0.224823645946 2.15692382074e-20)
(0.380507755062 0.305638262525 1.11016236546e-19)
(0.381632199725 0.319390305794 1.03573443887e-19)
(0.336502193612 0.332200311888 9.62345920077e-20)
(0.123463120325 0.00573721903532 -1.2899308703e-22)
(0.121271803179 0.00350093917266 -2.4388651842e-23)
(0.122864853301 0.0115530233253 -3.22264807668e-22)
(0.119855340342 0.00895719353381 -1.79108847367e-22)
(0.123657376158 0.0175317023282 -3.0445858848e-22)
(0.120037197557 0.0148700458176 -4.93315856647e-22)
(0.12531899816 0.0238051350797 -9.18641907191e-23)
(0.121227920749 0.0214213798875 -9.69750950931e-23)
(0.12758568615 0.0305085413141 -3.15391744066e-23)
(0.123013174234 0.0281435964592 -2.96344545679e-24)
(0.130396469639 0.0377794175729 3.98566931669e-23)
(0.125282039796 0.0353504950523 3.47878504015e-23)
(0.133749428303 0.0457701920534 7.18277610904e-24)
(0.128015618664 0.04320127839 9.50429199464e-23)
(0.13765305255 0.0546576466685 5.25320001919e-23)
(0.131210082854 0.0518590586521 -1.02699150509e-22)
(0.142113168338 0.0646500805621 1.7446663871e-22)
(0.134859233095 0.0615125138343 1.80232622948e-22)
(0.147125905497 0.0759944926404 6.11152920804e-23)
(0.138946988535 0.0723835384698 1.66166803799e-22)
(0.152671071916 0.0889833854265 1.3536153307e-22)
(0.143440925089 0.0847320817796 -1.20094710892e-22)
(0.158698077765 0.10395823207 2.07661661621e-22)
(0.148287379613 0.0988627240515 2.13319270751e-22)
(0.165139575408 0.121307968236 1.23370956245e-22)
(0.153393020397 0.115109157411 -7.10662557804e-23)
(0.172145499464 0.14146031422 -1.47820290846e-21)
(0.158678102213 0.1337427606 8.56267102882e-23)
(0.18058176353 0.164824755032 -4.85174233811e-21)
(0.164520683748 0.155522780802 -3.04270018212e-21)
(0.191681279462 0.192160362879 -2.95317575229e-20)
(0.172113907738 0.184430542919 -4.36081615747e-21)
(0.196848327714 0.225881422565 -1.19877726594e-20)
(0.181831184394 0.220315972517 -3.66449095103e-20)
(0.274632209954 0.261706485626 5.5619171705e-20)
(0.178292994686 0.221142779581 2.19450742239e-20)
(0.337715421962 0.320581974024 8.87917993486e-20)
(0.322669279142 0.313925520653 9.64347533858e-20)
(0.306209486762 0.346220482526 8.32251365732e-20)
(0.117454988409 0.00618402072383 -7.45044121781e-23)
(0.115089895186 0.00363898197964 3.13234701394e-22)
(0.116734529514 0.0124474857416 -3.50159896345e-22)
(0.113593653264 0.00959812562863 1.86721783269e-22)
(0.117296489595 0.0188719109168 -2.8583236326e-22)
(0.11361345402 0.015878805948 -3.2594939944e-22)
(0.1185929802 0.0255951663004 -8.0743498308e-24)
(0.114503846996 0.0228058080147 3.27483185949e-23)
(0.120358801578 0.0327506209341 6.33635793513e-23)
(0.11585537297 0.0299183837495 7.1066725347e-24)
(0.122524693587 0.0404745130076 8.9974077181e-23)
(0.117554494898 0.0375114170566 5.02777610613e-23)
(0.125070305415 0.0489170475695 -1.48390066717e-23)
(0.119568469079 0.0457383507757 8.28255846781e-23)
(0.1279782847 0.0582497045624 2.5001472247e-23)
(0.121872324061 0.0547564525141 -8.27242370802e-23)
(0.131222278621 0.0686707312407 1.71932788037e-22)
(0.124433057213 0.0647444683542 1.13135515071e-22)
(0.134760014556 0.0804107474218 -1.50431991734e-23)
(0.127202303529 0.0759090352235 9.23079219164e-23)
(0.13852809706 0.0937379352159 -4.21369732117e-23)
(0.130109865136 0.0884866450537 -1.49972785947e-22)
(0.142430138877 0.108961523312 -6.54086466512e-23)
(0.133060964912 0.10274893734 1.12542454844e-23)
(0.146350542606 0.126435514768 -1.08810501737e-22)
(0.135917154299 0.118997059173 -2.50892801779e-22)
(0.150411807485 0.146574895183 -1.47887056337e-21)
(0.138537954351 0.137477965809 -2.01712857545e-22)
(0.15529598662 0.169837466508 -2.55177400148e-21)
(0.141258046653 0.159069754871 -1.98115536896e-21)
(0.161519501675 0.197053901027 -1.14739681449e-20)
(0.14489829978 0.187744892201 1.94561336883e-21)
(0.162901990689 0.229483940623 -2.71206262702e-21)
(0.149403428006 0.216522717519 -2.3402021663e-21)
(0.227122804171 0.263273614083 6.27606559047e-20)
(0.144503789975 0.213811690952 7.86119555422e-21)
(0.291413888896 0.323514920389 9.08680906104e-20)
(0.261828836491 0.300493157307 5.56430170614e-20)
(0.272957821813 0.350747870438 1.92391867529e-20)
(0.111053897666 0.0065304327886 5.74460896841e-22)
(0.108562586302 0.00372476186951 4.96473418954e-22)
(0.1102145592 0.0131354745278 2.10932280174e-22)
(0.106991278345 0.0100853024648 7.89520767144e-22)
(0.110548325892 0.0198959090182 -7.36871758507e-24)
(0.10685456728 0.0166277282155 3.72909230866e-22)
(0.11148215873 0.0269498889157 4.79293409604e-23)
(0.107450552694 0.0238185310591 1.03363612401e-22)
(0.112753212499 0.034425612365 -5.97914575534e-24)
(0.1083787854 0.031197822138 -8.59204788962e-23)
(0.114284662607 0.0424538178317 4.31292685584e-23)
(0.109524310758 0.0390394489404 4.94046522597e-23)
(0.116040072914 0.051177551019 1.49403542696e-23)
(0.110842030214 0.0474872188182 2.87716228601e-23)
(0.117980218264 0.0607579464671 5.40980574388e-24)
(0.112289783801 0.0566879291997 -6.5959285568e-23)
(0.120052018668 0.0713780498133 3.35106489507e-23)
(0.113811881759 0.0668058582963 -5.69813702239e-24)
(0.122181454727 0.0832471470661 -4.26216648574e-23)
(0.115334423785 0.0780279007314 4.11003601525e-23)
(0.124270666943 0.0966043483196 -9.65815672511e-23)
(0.1167553361 0.0905635800987 -1.07706060102e-22)
(0.126185287012 0.11172093076 -1.74229909644e-22)
(0.117952199767 0.104645048913 -2.46109349026e-23)
(0.127761277123 0.128899817401 -3.43795157587e-22)
(0.118748160013 0.120533700167 -1.0855898611e-22)
(0.129074212627 0.14849780236 -7.03997663136e-22)
(0.118950428392 0.13842474289 -5.12800189242e-22)
(0.130604529251 0.170916736693 2.51623200135e-21)
(0.118848304292 0.159164009308 -1.27089035259e-21)
(0.132366591169 0.196889469285 1.10793793475e-20)
(0.118932850572 0.186504325483 1.65174981688e-21)
(0.13028864119 0.227931093171 8.23305601494e-21)
(0.118366504879 0.208295291811 1.10065577107e-20)
(0.179511319868 0.261707316689 7.43556710965e-22)
(0.110728101216 0.203905917119 -4.69477208545e-21)
(0.245565138252 0.320482278407 -1.5985886796e-20)
(0.202822074441 0.286539015438 -1.52672326301e-20)
(0.248789715103 0.336969348629 -2.75712070831e-20)
(0.104361667528 0.00677784846368 7.11533289256e-22)
(0.101788205166 0.003760382538 -1.55191613087e-22)
(0.103411644561 0.0136207339525 9.51497717835e-22)
(0.100151894319 0.0104232713716 -5.13314755936e-23)
(0.103525927034 0.0206103000628 4.83641560852e-22)
(0.0998692426148 0.0171258927149 3.77412618458e-22)
(0.104109704292 0.0278792076911 -3.04862074552e-23)
(0.100183234024 0.0244724365525 -1.23596683604e-22)
(0.104905636317 0.0355486725872 -3.05366808812e-23)
(0.100709648913 0.0320009658556 -6.93952667761e-23)
(0.105830858043 0.0437399045863 3.50470065614e-23)
(0.101331628229 0.039961986277 4.57257372059e-23)
(0.10683548275 0.0525858630794 -5.21280169774e-23)
(0.101995530458 0.0484866439864 1.0562130665e-23)
(0.107862510584 0.0622322336897 -7.70672283343e-23)
(0.102643370733 0.0577078638616 -1.81821876072e-23)
(0.108837196351 0.0728442570284 1.8915741794e-24)
(0.103203820409 0.0677717562732 3.33387055865e-23)
(0.109662015145 0.0846042415694 -2.39840350924e-23)
(0.103579807004 0.0788441753433 4.9804414448e-23)
(0.110211909227 0.0977249290018 -3.57354277538e-23)
(0.103655338844 0.0911029961894 -4.93265097253e-23)
(0.110326463589 0.1124257815 4.1059988631e-23)
(0.103272090432 0.104737455443 5.61764527868e-23)
(0.10981131381 0.128948366973 -2.77564017765e-22)
(0.102249510997 0.119970951316 1.03493370134e-22)
(0.108717957834 0.147555442672 -1.07969287869e-21)
(0.10036447018 0.136940871798 -4.74929376442e-23)
(0.107459914874 0.168489897267 -2.13537253706e-21)
(0.0979335310923 0.156377765639 -1.02116216267e-21)
(0.105808305339 0.191907201727 1.57892818009e-21)
(0.095527209917 0.181677972201 -4.98657534691e-21)
(0.101179842734 0.217823013665 -1.92127038971e-21)
(0.0924578300252 0.197995856208 -2.82127723495e-20)
(0.136982528166 0.243248855822 -2.07055614265e-20)
(0.0853024808075 0.190280232532 -1.01604152202e-20)
(0.205011906402 0.294343204967 -2.68525529171e-20)
(0.151506429259 0.27186228916 -3.63464546534e-21)
(0.22055492603 0.311770529986 -6.10194346247e-22)
(0.0974777709855 0.0069308132621 -9.18056377937e-22)
(0.0948632897519 0.00374919442581 -1.08540693401e-23)
(0.0964286303103 0.0139137538066 -6.25416574972e-22)
(0.0931751343458 0.0106198230664 -4.1749666165e-22)
(0.096337195509 0.0210288261264 -2.29825625998e-22)
(0.0927572894293 0.0173879520395 -2.06430277525e-22)
(0.0965922285311 0.0284048049295 -1.62505742924e-22)
(0.0969442378954 0.0361495406139 6.86715131097e-24)
(0.0973060426757 0.0443748499241 2.12408613095e-23)
(0.0976173357939 0.0531979910678 4.45079600352e-23)
(0.0978073114766 0.0627496170067 9.22237463135e-23)
(0.0977858699445 0.0731697844113 8.12515458551e-23)
(0.0974359056734 0.0846237883081 2.4461939815e-23)
(0.0966145370018 0.0972741750403 4.25853708152e-23)
(0.0951494406526 0.111314486003 1.1860983429e-22)
(0.0928320478178 0.126909331828 3.33564450255e-22)
(0.0897105042449 0.144262877796 1.10377783757e-23)
(0.0862458006356 0.16356686226 -3.87236497253e-21)
(0.082431622468 0.184944428665 -3.47782758765e-20)
(0.0764259244005 0.208175101391 -3.645191718e-20)
(0.10047188351 0.23238947185 6.91050074098e-21)
(0.167766920537 0.276145496368 2.26077131055e-20)
(0.0904943670742 0.00699540392123 4.89705646947e-22)
(0.0878731614985 0.00369515617664 9.4275684388e-22)
(0.0893608732576 0.0140259798642 1.48963579661e-24)
(0.080897283953 0.00360394739859 5.24514996074e-22)
(0.0740031050984 0.00348150255233 3.88768432437e-22)
)
;

boundaryField
{
    back
    {
        type            calculated;
        value           uniform (0 0 0);
    }
    sides
    {
        type            calculated;
        value           nonuniform List<vector> 0();
    }
    bottom
    {
        type            calculated;
        value           uniform (0 0 0);
    }
    front
    {
        type            calculated;
        value           uniform (0 0 0);
    }
    atmosphere
    {
        type            calculated;
        value           nonuniform List<vector> 8((0 0.240840763689 0) (0 0.304180459004 0) (0 0.334503533254 0) (0 0.350976882707 0) (0 0.357348415428 0) (0 0.344885044412 0) (0 0.322787802633 0) (0 0.302677207477 0));
    }
    floatingObject
    {
        type            calculated;
        value           nonuniform List<vector> 0();
    }
    procBoundary9to6
    {
        type            processor;
        value           nonuniform List<vector> 4((0.315022583104 0.166438471904 1.60564323064e-20) (0.318330303722 0.200515383243 -1.62584661867e-20) (0.515733975135 0.258407639628 -3.37665735173e-20) (0.380808193887 0.198814850148 -3.16039216968e-20));
    }
    procBoundary9to7
    {
        type            processor;
        value           nonuniform List<vector> 
16
(
(0.140531882425 0.00242452534744 -3.38702269961e-22)
(0.139529026636 0.00495199683264 -4.18783950924e-22)
(0.140258024067 0.00844091542043 1.74245376244e-22)
(0.142380608176 0.0123543618786 8.10360103743e-22)
(0.145833381456 0.0162097161767 6.91560438412e-23)
(0.150182187872 0.0205108219876 8.99385742114e-23)
(0.155544123467 0.0252515397268 7.49873839953e-23)
(0.162041405124 0.0305659676145 -1.48821692164e-23)
(0.169808520459 0.0366091388172 1.53459543234e-22)
(0.179017538477 0.0435770031196 -3.40197953124e-23)
(0.189878232459 0.0517290827897 -2.45238824284e-22)
(0.202649217331 0.0614287438313 1.71301269679e-22)
(0.217633797396 0.07321651009 -3.00925142413e-22)
(0.235101712054 0.0880302044899 -1.54604603716e-23)
(0.254235579541 0.10738212605 -1.31542209513e-21)
(0.269778015229 0.117349103883 -1.55320138081e-20)
)
;
    }
    procBoundary9to10
    {
        type            processor;
        value           nonuniform List<vector> 
15
(
(0.0928104883285 0.0247895578712 -1.7028052326e-22)
(0.0929651358511 0.0323589446122 -1.40241920722e-23)
(0.0931064538978 0.040321447391 8.80724809673e-24)
(0.0931718605903 0.0487936543032 1.60747788067e-23)
(0.093094887882 0.0578919938551 5.72168542901e-23)
(0.0927887066779 0.0677429751194 8.78833962869e-23)
(0.0921487533258 0.0784878010161 3.72453045745e-23)
(0.091024917885 0.0902733552184 1.70301975281e-23)
(0.0861485729841 0.0106858807681 -8.01614670001e-23)
(0.0890828722687 0.0211740408174 -1.46885174787e-22)
(0.0856138699362 0.0174341392522 4.33603011091e-22)
(0.0834957725948 0.00697847803835 3.72889729933e-22)
(0.0765559653351 0.00689325152083 4.71329176778e-23)
(0.069739370681 0.00674799108301 7.98881220472e-22)
(0.0672531532639 0.00333322833696 9.32715192224e-22)
)
;
    }
    procBoundary9to11
    {
        type            processor;
        value           nonuniform List<vector> 9((0.0892712381531 0.103245748127 5.16091872858e-23) (0.0866854674907 0.117596462759 1.57998705754e-22) (0.0830416955143 0.133420845009 8.2839692227e-22) (0.0786511727186 0.151299102243 -6.32058209661e-22) (0.0741663004931 0.174297468325 -6.24397742579e-21) (0.0692350302398 0.186887716036 -5.21549033752e-20) (0.0610883659414 0.173656065206 -7.28184668308e-21) (0.107537349563 0.252500740894 1.07219598601e-20) (0.194222112487 0.293146528071 1.37312896835e-20));
    }
}


// ************************************************************************* //
