/*--------------------------------*- C++ -*----------------------------------*\
| =========                 |                                                 |
| \\      /  F ield         | OpenFOAM: The Open Source CFD Toolbox           |
|  \\    /   O peration     | Version:  v2012                                 |
|   \\  /    A nd           | Website:  www.openfoam.com                      |
|    \\/     M anipulation  |                                                 |
\*---------------------------------------------------------------------------*/
FoamFile
{
    version     2.0;
    format      ascii;
    class       volScalarField;
    location    "1.1";
    object      p;
}
// * * * * * * * * * * * * * * * * * * * * * * * * * * * * * * * * * * * * * //

dimensions      [1 -1 -2 0 0 0 0];


internalField   nonuniform List<scalar> 
166
(
8669.07112811
8179.11872516
7689.06680574
7198.71519889
6708.10007506
6217.20694651
5726.00704727
5234.470032
4742.55805462
4250.22348848
3757.40563628
3264.02683277
2769.98563899
2275.14748826
1779.33279635
1282.38427242
785.0989854
305.538929556
35.1522437482
-9.55937256942
8662.60691797
8172.60506643
7682.47050458
7192.00907681
6701.241277
6210.15001915
5718.70629318
5226.87422866
4734.60948417
4241.85667356
3748.54635204
3254.59079783
2759.87874058
2264.2717243
1767.61608425
1269.81589735
770.668972551
293.470585137
30.8503946402
-9.55815351005
8656.41246301
8166.36545658
7676.15825434
7185.59731614
6694.69380997
6203.4284042
5711.77045787
5219.68076461
4727.11070136
4233.99999693
3740.27393036
3245.83957581
2750.58209637
2254.36492128
1757.04395085
1258.48158136
758.028299919
283.251642579
27.3945653054
-9.560972473
8650.51735063
8160.42925505
7670.1598481
7179.51283436
6688.49278827
6197.07902237
5705.23968455
5212.93371165
4720.11021646
4226.70655324
3732.64579872
3237.83344939
2742.15482505
2245.47647713
1747.65556327
1248.50877226
747.216494936
274.852130035
24.6726688041
-9.56552635589
8644.94566536
8154.82120814
7664.49994531
7173.78160126
6682.66560748
6191.13068327
5699.14459617
5206.66574951
4713.64275735
4220.01277642
3725.69926295
3230.60904694
2734.6305977
2237.63574648
1739.48364649
1239.95951511
738.201512878
268.172917213
22.5900325183
-9.57079862395
8639.71599143
8149.56032099
7659.19745651
7168.42296947
6677.23216296
6185.60380796
5693.50613606
5200.89819131
4707.72961008
4213.93919173
3719.45293476
3224.18145936
2728.01932023
2230.84687401
1732.52928081
1232.83467396
730.904301332
263.050446096
21.0477281541
-9.57630597098
8634.84129826
8144.6596879
7654.26524541
7163.44981125
6672.20516124
6180.51075211
5688.33597595
5195.64162728
4702.37952026
4208.4917094
3713.90827175
3218.54627201
2722.30846762
2225.08722033
1726.75785604
1227.08654906
725.24065185
259.350897958
19.9695176284
-9.58176708114
8630.32900908
8140.12673054
7649.71066292
7158.86877496
6667.59049193
6175.85614195
5683.63715408
5190.8966313
4697.58986225
4203.66289675
3709.05238201
3213.68157517
2717.46507842
2220.30868869
1722.10041806
1222.61676627
721.115446733
256.982194498
19.2798900476
-9.58734619876
8626.18164558
8135.96384322
7645.53508685
8622.39653942
8618.96659921
8615.88012762
)
;

boundaryField
{
    back
    {
        type            calculated;
        value           nonuniform List<scalar> 
166
(
8669.07112811
8179.11872516
7689.06680574
7198.71519889
6708.10007506
6217.20694651
5726.00704727
5234.470032
4742.55805462
4250.22348848
3757.40563628
3264.02683277
2769.98563899
2275.14748826
1779.33279635
1282.38427242
785.0989854
305.538929556
35.1522437482
-9.55937256942
8662.60691797
8172.60506643
7682.47050458
7192.00907681
6701.241277
6210.15001915
5718.70629318
5226.87422866
4734.60948417
4241.85667356
3748.54635204
3254.59079783
2759.87874058
2264.2717243
1767.61608425
1269.81589735
770.668972551
293.470585137
30.8503946402
-9.55815351005
8656.41246301
8166.36545658
7676.15825434
7185.59731614
6694.69380997
6203.4284042
5711.77045787
5219.68076461
4727.11070136
4233.99999693
3740.27393036
3245.83957581
2750.58209637
2254.36492128
1757.04395085
1258.48158136
758.028299919
283.251642579
27.3945653054
-9.560972473
8650.51735063
8160.42925505
7670.1598481
7179.51283436
6688.49278827
6197.07902237
5705.23968455
5212.93371165
4720.11021646
4226.70655324
3732.64579872
3237.83344939
2742.15482505
2245.47647713
1747.65556327
1248.50877226
747.216494936
274.852130035
24.6726688041
-9.56552635589
8644.94566536
8154.82120814
7664.49994531
7173.78160126
6682.66560748
6191.13068327
5699.14459617
5206.66574951
4713.64275735
4220.01277642
3725.69926295
3230.60904694
2734.6305977
2237.63574648
1739.48364649
1239.95951511
738.201512878
268.172917213
22.5900325183
-9.57079862395
8639.71599143
8149.56032099
7659.19745651
7168.42296947
6677.23216296
6185.60380796
5693.50613606
5200.89819131
4707.72961008
4213.93919173
3719.45293476
3224.18145936
2728.01932023
2230.84687401
1732.52928081
1232.83467396
730.904301332
263.050446096
21.0477281541
-9.57630597098
8634.84129826
8144.6596879
7654.26524541
7163.44981125
6672.20516124
6180.51075211
5688.33597595
5195.64162728
4702.37952026
4208.4917094
3713.90827175
3218.54627201
2722.30846762
2225.08722033
1726.75785604
1227.08654906
725.24065185
259.350897958
19.9695176284
-9.58176708114
8630.32900908
8140.12673054
7649.71066292
7158.86877496
6667.59049193
6175.85614195
5683.63715408
5190.8966313
4697.58986225
4203.66289675
3709.05238201
3213.68157517
2717.46507842
2220.30868869
1722.10041806
1222.61676627
721.115446733
256.982194498
19.2798900476
-9.58734619876
8626.18164558
8135.96384322
7645.53508685
8622.39653942
8618.96659921
8615.88012762
)
;
    }
    sides
    {
        type            calculated;
        value           nonuniform List<scalar> 0();
    }
    bottom
    {
        type            calculated;
        value           nonuniform List<scalar> 
12
(
8913.87969489
8907.41548736
8901.22103596
8895.32592737
8889.75424636
8884.52457828
8879.64989545
8875.13762562
8870.99027884
8867.20519365
8863.77526475
8860.68880339
)
;
    }
    front
    {
        type            calculated;
        value           nonuniform List<scalar> 
166
(
8669.07112811
8179.11872516
7689.06680574
7198.71519889
6708.10007506
6217.20694651
5726.00704727
5234.470032
4742.55805462
4250.22348848
3757.40563628
3264.02683277
2769.98563899
2275.14748826
1779.33279635
1282.38427242
785.0989854
305.538929556
35.1522437482
-9.55937256942
8662.60691797
8172.60506643
7682.47050458
7192.00907681
6701.241277
6210.15001915
5718.70629318
5226.87422866
4734.60948417
4241.85667356
3748.54635204
3254.59079783
2759.87874058
2264.2717243
1767.61608425
1269.81589735
770.668972551
293.470585137
30.8503946402
-9.55815351005
8656.41246301
8166.36545658
7676.15825434
7185.59731614
6694.69380997
6203.4284042
5711.77045787
5219.68076461
4727.11070136
4233.99999693
3740.27393036
3245.83957581
2750.58209637
2254.36492128
1757.04395085
1258.48158136
758.028299919
283.251642579
27.3945653054
-9.560972473
8650.51735063
8160.42925505
7670.1598481
7179.51283436
6688.49278827
6197.07902237
5705.23968455
5212.93371165
4720.11021646
4226.70655324
3732.64579872
3237.83344939
2742.15482505
2245.47647713
1747.65556327
1248.50877226
747.216494936
274.852130035
24.6726688041
-9.56552635589
8644.94566536
8154.82120814
7664.49994531
7173.78160126
6682.66560748
6191.13068327
5699.14459617
5206.66574951
4713.64275735
4220.01277642
3725.69926295
3230.60904694
2734.6305977
2237.63574648
1739.48364649
1239.95951511
738.201512878
268.172917213
22.5900325183
-9.57079862395
8639.71599143
8149.56032099
7659.19745651
7168.42296947
6677.23216296
6185.60380796
5693.50613606
5200.89819131
4707.72961008
4213.93919173
3719.45293476
3224.18145936
2728.01932023
2230.84687401
1732.52928081
1232.83467396
730.904301332
263.050446096
21.0477281541
-9.57630597098
8634.84129826
8144.6596879
7654.26524541
7163.44981125
6672.20516124
6180.51075211
5688.33597595
5195.64162728
4702.37952026
4208.4917094
3713.90827175
3218.54627201
2722.30846762
2225.08722033
1726.75785604
1227.08654906
725.24065185
259.350897958
19.9695176284
-9.58176708114
8630.32900908
8140.12673054
7649.71066292
7158.86877496
6667.59049193
6175.85614195
5683.63715408
5190.8966313
4697.58986225
4203.66289675
3709.05238201
3213.68157517
2717.46507842
2220.30868869
1722.10041806
1222.61676627
721.115446733
256.982194498
19.2798900476
-9.58734619876
8626.18164558
8135.96384322
7645.53508685
8622.39653942
8618.96659921
8615.88012762
)
;
    }
    atmosphere
    {
        type            calculated;
        value           nonuniform List<scalar> 8(-9.81006868438 -9.81026766241 -9.81065579688 -9.8112461096 -9.81203130567 -9.81298289669 -9.81406698016 -9.81524336818);
    }
    floatingObject
    {
        type            calculated;
        value           nonuniform List<scalar> 0();
    }
    procBoundary9to6
    {
        type            processor;
        value           nonuniform List<scalar> 4(800.973477618 319.288873525 40.3507758873 -9.56980087671);
    }
    procBoundary9to7
    {
        type            processor;
        value           nonuniform List<scalar> 
16
(
8675.77027555
8185.87648728
7695.91041856
7205.6739719
6715.22654483
6224.5551536
5733.62362757
5242.41346659
4750.89480186
4259.0314568
3766.77431559
3274.0621359
2780.81240883
2286.91880697
1792.21916374
1296.06695417
)
;
    }
    procBoundary9to10
    {
        type            processor;
        value           nonuniform List<scalar> 
15
(
7154.68042109
6663.38730453
6171.63738247
5679.40439212
5186.65477746
4693.34761514
4199.43473989
3704.85810111
8132.16758578
7154.68042109
7641.73493805
8132.16758578
8128.73118773
8125.64216076
8613.12308551
)
;
    }
    procBoundary9to11
    {
        type            processor;
        value           nonuniform List<scalar> 9(3209.55145471 2713.43940161 2216.44358095 1718.46154976 1219.2793999 718.254641899 255.527708885 18.9196706589 -9.59246248548);
    }
}


// ************************************************************************* //
