/*--------------------------------*- C++ -*----------------------------------*\
| =========                 |                                                 |
| \\      /  F ield         | OpenFOAM: The Open Source CFD Toolbox           |
|  \\    /   O peration     | Version:  v2012                                 |
|   \\  /    A nd           | Website:  www.openfoam.com                      |
|    \\/     M anipulation  |                                                 |
\*---------------------------------------------------------------------------*/
FoamFile
{
    version     2.0;
    format      ascii;
    class       volScalarField;
    location    "1.9";
    object      epsilon;
}
// * * * * * * * * * * * * * * * * * * * * * * * * * * * * * * * * * * * * * //

dimensions      [0 2 -3 0 0 0 0];


internalField   nonuniform List<scalar> 
167
(
0.00467835187767
0.00515776330683
0.00545976193076
0.00556283891108
0.00561368201559
0.00565330871937
0.00569151355561
0.00573048334356
0.00519245989675
0.00523109615952
0.00562280202298
0.00575131916445
0.00580467894908
0.0058398105283
0.00587153126517
0.00590333045674
0.00553610977139
0.00567424707712
0.00612978590428
0.00627776386051
0.00633581258197
0.00637191408051
0.00640407480561
0.00643649029736
0.0056663586166
0.00584178878464
0.00632294401405
0.00647791222255
0.00653666426282
0.00657209367196
0.00660364931063
0.00663581888998
0.00667005396254
0.00572596471716
0.00591294102107
0.00640350656546
0.00656009560712
0.00661785616708
0.0066518353289
0.00668214929999
0.00671340318048
0.00674702618814
0.00678595060012
0.00576326046141
0.00595237706943
0.00644610235867
0.00660226654298
0.00665842805989
0.00669065767166
0.00671940206134
0.00674934027206
0.00678186741411
0.00681978164918
0.00579351290523
0.00598184514439
0.00647663943651
0.00663180314134
0.00668626955024
0.00671673595851
0.00674383759907
0.00677230588492
0.00680351217442
0.00684011348548
0.00582127763559
0.0060081513564
0.00650353518926
0.00665766942515
0.0067105697104
0.0067393777561
0.0067648993799
0.00679188899524
0.00682171042766
0.00685688230538
0.00584779431531
0.00603337882341
0.00652925262114
0.00668252021547
0.00673403611753
0.00676135109078
0.00678540086383
0.00681098186024
0.00683944336698
0.00687317145746
0.00587332078467
0.00605800557095
0.00655444426442
0.0067069655109
0.00675730076558
0.00678329980381
0.00680601334359
0.00683028968782
0.00685746334615
0.00688977084139
0.00589786458524
0.00608204626627
0.00657916444491
0.00673109444742
0.00678040162329
0.0068052429256
0.00682676673744
0.00684985476463
0.00687583619689
0.00690679289689
0.00592138739994
0.00610546314312
0.00660333150789
0.00675480322928
0.00680323284004
0.00682706226042
0.00684753325321
0.00686955366617
0.00689442080038
0.00692411028563
0.00594384240856
0.00612814319225
0.0066268686696
0.00677799301323
0.00682566441614
0.00684860757268
0.00686814184133
0.00688919945933
0.00691305086706
0.00694156009845
0.00596519133725
0.00615004495553
0.00664965670122
0.00680054570774
0.00684758026379
0.00686975051976
0.00688845692569
0.00690864424489
0.00693159300922
0.00695901658799
0.00598542619602
0.00617106173259
0.00667155397851
0.00682236179349
0.00686887771201
0.00689039016357
0.00690837419969
0.00692780189921
0.00694993520678
0.00697636284707
0.00600457137203
0.00619102582891
0.00669254127559
0.00684336404216
0.00688947724196
0.00691044472768
0.00692780989706
0.00694656669055
0.00696796405581
0.00699349365501
0.00602271674706
0.00620991897555
0.00671252256237
0.0068635003535
0.00690933053974
0.00692984885229
0.00694668798316
0.00603993563401
0.00622761479568
0.00673146245469
0.00688272394978
0.0069283892062
0.0067492490939
0.00690095188932
)
;

boundaryField
{
    back
    {
        lowReCorrection 0;
        blending        stepwise;
        n               2;
        type            epsilonWallFunction;
        value           nonuniform List<scalar> 
167
(
0.00467835187767
0.00515776330683
0.00545976193076
0.00556283891108
0.00561368201559
0.00565330871937
0.00569151355561
0.00573048334356
0.00519245989675
0.00523109615952
0.00562280202298
0.00575131916445
0.00580467894908
0.0058398105283
0.00587153126517
0.00590333045674
0.00553610977139
0.00567424707712
0.00612978590428
0.00627776386051
0.00633581258197
0.00637191408051
0.00640407480561
0.00643649029736
0.0056663586166
0.00584178878464
0.00632294401405
0.00647791222255
0.00653666426282
0.00657209367196
0.00660364931063
0.00663581888998
0.00667005396254
0.00572596471716
0.00591294102107
0.00640350656546
0.00656009560712
0.00661785616708
0.0066518353289
0.00668214929999
0.00671340318048
0.00674702618814
0.00678595060012
0.00576326046141
0.00595237706943
0.00644610235867
0.00660226654298
0.00665842805989
0.00669065767166
0.00671940206134
0.00674934027206
0.00678186741411
0.00681978164918
0.00579351290523
0.00598184514439
0.00647663943651
0.00663180314134
0.00668626955024
0.00671673595851
0.00674383759907
0.00677230588492
0.00680351217442
0.00684011348548
0.00582127763559
0.0060081513564
0.00650353518926
0.00665766942515
0.0067105697104
0.0067393777561
0.0067648993799
0.00679188899524
0.00682171042766
0.00685688230538
0.00584779431531
0.00603337882341
0.00652925262114
0.00668252021547
0.00673403611753
0.00676135109078
0.00678540086383
0.00681098186024
0.00683944336698
0.00687317145746
0.00587332078467
0.00605800557095
0.00655444426442
0.0067069655109
0.00675730076558
0.00678329980381
0.00680601334359
0.00683028968782
0.00685746334615
0.00688977084139
0.00589786458524
0.00608204626627
0.00657916444491
0.00673109444742
0.00678040162329
0.0068052429256
0.00682676673744
0.00684985476463
0.00687583619689
0.00690679289689
0.00592138739994
0.00610546314312
0.00660333150789
0.00675480322928
0.00680323284004
0.00682706226042
0.00684753325321
0.00686955366617
0.00689442080038
0.00692411028563
0.00594384240856
0.00612814319225
0.0066268686696
0.00677799301323
0.00682566441614
0.00684860757268
0.00686814184133
0.00688919945933
0.00691305086706
0.00694156009845
0.00596519133725
0.00615004495553
0.00664965670122
0.00680054570774
0.00684758026379
0.00686975051976
0.00688845692569
0.00690864424489
0.00693159300922
0.00695901658799
0.00598542619602
0.00617106173259
0.00667155397851
0.00682236179349
0.00686887771201
0.00689039016357
0.00690837419969
0.00692780189921
0.00694993520678
0.00697636284707
0.00600457137203
0.00619102582891
0.00669254127559
0.00684336404216
0.00688947724196
0.00691044472768
0.00692780989706
0.00694656669055
0.00696796405581
0.00699349365501
0.00602271674706
0.00620991897555
0.00671252256237
0.0068635003535
0.00690933053974
0.00692984885229
0.00694668798316
0.00603993563401
0.00622761479568
0.00673146245469
0.00688272394978
0.0069283892062
0.0067492490939
0.00690095188932
)
;
    }
    sides
    {
        lowReCorrection 0;
        blending        stepwise;
        n               2;
        type            epsilonWallFunction;
        value           nonuniform List<scalar> 8(0.00467835187767 0.00515776330683 0.00545976193076 0.00556283891108 0.00561368201559 0.00565330871937 0.00569151355561 0.00573048334356);
    }
    bottom
    {
        lowReCorrection 0;
        blending        stepwise;
        n               2;
        type            epsilonWallFunction;
        value           nonuniform List<scalar> 
18
(
0.00467835187767
0.00519245989675
0.00553610977139
0.0056663586166
0.00572596471716
0.00576326046141
0.00579351290523
0.00582127763559
0.00584779431531
0.00587332078467
0.00589786458524
0.00592138739994
0.00594384240856
0.00596519133725
0.00598542619602
0.00600457137203
0.00602271674706
0.00603993563401
)
;
    }
    front
    {
        lowReCorrection 0;
        blending        stepwise;
        n               2;
        type            epsilonWallFunction;
        value           nonuniform List<scalar> 
167
(
0.00467835187767
0.00515776330683
0.00545976193076
0.00556283891108
0.00561368201559
0.00565330871937
0.00569151355561
0.00573048334356
0.00519245989675
0.00523109615952
0.00562280202298
0.00575131916445
0.00580467894908
0.0058398105283
0.00587153126517
0.00590333045674
0.00553610977139
0.00567424707712
0.00612978590428
0.00627776386051
0.00633581258197
0.00637191408051
0.00640407480561
0.00643649029736
0.0056663586166
0.00584178878464
0.00632294401405
0.00647791222255
0.00653666426282
0.00657209367196
0.00660364931063
0.00663581888998
0.00667005396254
0.00572596471716
0.00591294102107
0.00640350656546
0.00656009560712
0.00661785616708
0.0066518353289
0.00668214929999
0.00671340318048
0.00674702618814
0.00678595060012
0.00576326046141
0.00595237706943
0.00644610235867
0.00660226654298
0.00665842805989
0.00669065767166
0.00671940206134
0.00674934027206
0.00678186741411
0.00681978164918
0.00579351290523
0.00598184514439
0.00647663943651
0.00663180314134
0.00668626955024
0.00671673595851
0.00674383759907
0.00677230588492
0.00680351217442
0.00684011348548
0.00582127763559
0.0060081513564
0.00650353518926
0.00665766942515
0.0067105697104
0.0067393777561
0.0067648993799
0.00679188899524
0.00682171042766
0.00685688230538
0.00584779431531
0.00603337882341
0.00652925262114
0.00668252021547
0.00673403611753
0.00676135109078
0.00678540086383
0.00681098186024
0.00683944336698
0.00687317145746
0.00587332078467
0.00605800557095
0.00655444426442
0.0067069655109
0.00675730076558
0.00678329980381
0.00680601334359
0.00683028968782
0.00685746334615
0.00688977084139
0.00589786458524
0.00608204626627
0.00657916444491
0.00673109444742
0.00678040162329
0.0068052429256
0.00682676673744
0.00684985476463
0.00687583619689
0.00690679289689
0.00592138739994
0.00610546314312
0.00660333150789
0.00675480322928
0.00680323284004
0.00682706226042
0.00684753325321
0.00686955366617
0.00689442080038
0.00692411028563
0.00594384240856
0.00612814319225
0.0066268686696
0.00677799301323
0.00682566441614
0.00684860757268
0.00686814184133
0.00688919945933
0.00691305086706
0.00694156009845
0.00596519133725
0.00615004495553
0.00664965670122
0.00680054570774
0.00684758026379
0.00686975051976
0.00688845692569
0.00690864424489
0.00693159300922
0.00695901658799
0.00598542619602
0.00617106173259
0.00667155397851
0.00682236179349
0.00686887771201
0.00689039016357
0.00690837419969
0.00692780189921
0.00694993520678
0.00697636284707
0.00600457137203
0.00619102582891
0.00669254127559
0.00684336404216
0.00688947724196
0.00691044472768
0.00692780989706
0.00694656669055
0.00696796405581
0.00699349365501
0.00602271674706
0.00620991897555
0.00671252256237
0.0068635003535
0.00690933053974
0.00692984885229
0.00694668798316
0.00603993563401
0.00622761479568
0.00673146245469
0.00688272394978
0.0069283892062
0.0067492490939
0.00690095188932
)
;
    }
    atmosphere
    {
        type            inletOutlet;
        inletValue      nonuniform List<scalar> 0();
        value           nonuniform List<scalar> 0();
    }
    floatingObject
    {
        lowReCorrection 0;
        blending        stepwise;
        n               2;
        type            epsilonWallFunction;
        value           nonuniform List<scalar> 0();
    }
    procBoundary2to0
    {
        type            processor;
        value           nonuniform List<scalar> 
14
(
0.00696486463444
0.00698560465855
0.00701035635843
0.00694854886807
0.00696486463444
0.00696493487998
0.00605596527531
0.00624400086672
0.00694854886807
0.00694659542461
0.00624400086672
0.00676586277172
0.00694659542461
0.00691818900193
)
;
    }
    procBoundary2to1
    {
        type            processor;
        value           nonuniform List<scalar> 
18
(
0.00577106921032
0.00593648311762
0.00647061955556
0.00647061955556
0.00670942230064
0.00670942230064
0.00684102425638
0.00687348532956
0.0068920309201
0.00690681752596
0.00692105099746
0.00693559363194
0.00695058018215
0.00696593906658
0.00698152482667
0.00699720987307
0.00701292008391
0.00702861479312
)
;
    }
}


// ************************************************************************* //
