/*--------------------------------*- C++ -*----------------------------------*\
| =========                 |                                                 |
| \\      /  F ield         | OpenFOAM: The Open Source CFD Toolbox           |
|  \\    /   O peration     | Version:  v2012                                 |
|   \\  /    A nd           | Website:  www.openfoam.com                      |
|    \\/     M anipulation  |                                                 |
\*---------------------------------------------------------------------------*/
FoamFile
{
    version     2.0;
    format      ascii;
    class       surfaceVectorField;
    location    "5";
    object      Uf;
}
// * * * * * * * * * * * * * * * * * * * * * * * * * * * * * * * * * * * * * //

dimensions      [0 1 -1 0 0 0 0];


internalField   nonuniform List<vector> 
296
(
(0.0113750077364 0.0146076786407 1.12361381591e-20)
(0.0104133226637 0.0135304056167 2.78039073152e-20)
(0.0112297208626 0.0165595136976 1.4148180232e-20)
(0.0103406101222 0.015508010017 3.99115139987e-20)
(0.0109422045302 0.018465025718 1.58091286857e-20)
(0.0102028299906 0.017270704005 4.56792300546e-20)
(0.0104381894976 0.0205518305007 1.80571629e-20)
(0.00967506743235 0.0190335036345 5.10244667307e-20)
(0.00989615448166 0.0230332055308 1.96408094879e-20)
(0.00880971819464 0.0212813838067 6.11240644578e-20)
(0.00950781270471 0.0257413046854 1.80484471268e-20)
(0.00814537862779 0.0242126954478 6.1240139078e-20)
(0.00901368570123 0.0279334425344 1.22646231604e-20)
(0.00816940437912 0.0270736954281 5.01418249731e-20)
(0.00861882613521 0.0289594693208 5.79373822844e-21)
(0.00820570348666 0.0285582337955 2.26526433539e-20)
(0.00855857804246 0.0287746551666 4.51463581031e-21)
(0.00877068004689 0.0294460274933 1.06677922257e-20)
(0.0082813972147 0.0282987175186 8.22516159753e-21)
(0.00881196539757 0.0239786693786 9.24819301075e-21)
(0.0124042835481 0.0281603427755 1.11063759682e-20)
(0.00810257122069 0.0236823128796 1.1987623886e-20)
(0.0074131087969 0.0397817470967 1.35419444488e-20)
(0.0109953767343 0.0308556834745 1.20676522281e-20)
(-0.0238830266196 0.055686710452 1.05879959014e-20)
(0.00890719499425 0.00150456666495 9.83180830226e-22)
(0.00779499898848 0.000654857435019 1.38432158527e-21)
(0.00957613246029 0.00309750744794 5.04236205833e-22)
(0.00847489680095 0.0022741383341 7.96593235529e-22)
(0.0100212867692 0.00478183628956 6.52348746161e-22)
(0.00904796944024 0.00383461247783 7.55964452519e-22)
(0.00927109089333 0.00553988804993 2.3141281668e-21)
(0.00973922890056 0.01038723569 1.67130078878e-20)
(0.00889588517921 0.00924526007585 2.5741351927e-20)
(0.00950258954764 0.0124178913603 3.51492484618e-20)
(0.00858104372677 0.0112543031064 6.53945463206e-20)
(0.00939667220735 0.0144684545214 5.64792831548e-20)
(0.00836345580884 0.0133527142236 1.26788899632e-19)
(0.00935796881706 0.0162833617855 7.14425638214e-20)
(0.00852690159056 0.0152665134078 1.81744179114e-19)
(0.00901358000023 0.0179027144905 8.08945680996e-20)
(0.00858497479187 0.0166741413294 2.07691679566e-19)
(0.00815081153932 0.0198121902106 9.40913682885e-20)
(0.00776748387578 0.0179438387178 2.37313068551e-19)
(0.0071866872191 0.0224509137109 1.02723394048e-19)
(0.00617305879533 0.0200571542393 3.01107211322e-19)
(0.00696508147952 0.0256412011132 9.33335169244e-20)
(0.00495732071803 0.0236095698362 2.95597740547e-19)
(0.00754779615507 0.0279077800004 6.05298451666e-20)
(0.00590491147376 0.0270687404311 2.22913124967e-19)
(0.0085572087117 0.0284369288986 2.75266973511e-20)
(0.00767835552427 0.028359893716 9.73308955317e-20)
(0.00923365840094 0.0275269577237 1.54013494261e-20)
(0.00968176736505 0.0284451526516 3.80585020826e-20)
(0.00886514234943 0.0265979399223 1.30106552992e-20)
(0.00974134687455 0.0226376096157 2.65489143456e-20)
(0.00773544825806 0.025929689028 1.29489001459e-20)
(0.00877225984876 0.0221403825468 2.98734100167e-20)
(-0.0132300025964 0.0336271657375 9.11370368065e-21)
(0.00330105092217 0.0282293526372 2.92007973571e-20)
(-0.0437948408754 0.0180353973031 1.25857941245e-20)
(0.00739070357235 0.00142922608486 1.19773399058e-21)
(0.00636600884124 0.000616025122786 1.59065066591e-21)
(0.00797038437884 0.00294830482297 1.04832148221e-21)
(0.00695596294562 0.00214874774385 1.26936453538e-21)
(0.00831639341168 0.00456702202689 2.41774387316e-21)
(0.0074293442113 0.00362483485811 2.3410088629e-21)
(0.00832500704983 0.00628930292151 8.49831562805e-21)
(0.00754919497571 0.00525725945001 8.59133270417e-21)
(0.00807456424562 0.0081241728864 2.76392014058e-20)
(0.00734079384518 0.00699157181072 3.17214821632e-20)
(0.00771241906594 0.0100850518253 7.44228903598e-20)
(0.00693538556777 0.00883537978398 1.01592876896e-19)
(0.00742216106706 0.0121703596991 1.57034197491e-19)
(0.00649627818433 0.0108216179084 2.59243513554e-19)
(0.00748136263935 0.0142231248699 2.52053795592e-19)
(0.00631143714516 0.0129956242234 4.99844279466e-19)
(0.00774609822256 0.0157737331487 3.17993294859e-19)
(0.00697739530864 0.0148027247039 6.99411568092e-19)
(0.00733726678013 0.0167938025163 3.64110180018e-19)
(0.00756635601007 0.0155840189085 7.71254367331e-19)
(0.00581011771972 0.0182957818849 4.44328911585e-19)
(0.0062672828654 0.0160496936623 8.89231804863e-19)
(0.00399345410552 0.0211778481592 4.93981557821e-19)
(0.00329298650005 0.0177955547095 1.18650526741e-18)
(0.00402504710311 0.0252507756819 4.2517734859e-19)
(0.0008864690015 0.0224373150761 1.13013194849e-18)
(0.00624666481273 0.027649770334 2.59714175332e-19)
(0.00350789818607 0.0269244880877 8.07987903873e-19)
(0.00901965872289 0.0277607803425 1.07862700263e-19)
(0.00756899683844 0.0278228211287 3.53129856491e-19)
(0.0104034484709 0.0262596043818 4.92060670021e-20)
(0.0111839604687 0.0272738246947 1.31382987054e-19)
(0.00982215751955 0.0249814065657 4.34116690631e-20)
(0.0110198665321 0.0212738333016 8.36861767398e-20)
(0.00704427530666 0.0240112802737 4.61253072278e-20)
(0.00974311233603 0.0206718044244 8.02154837959e-20)
(-0.00808558113955 0.0208728047517 3.26728878009e-20)
(0.00644127079368 0.0255991215011 7.86031100937e-20)
(0.00566264666056 -0.00475890058284 2.30019973427e-20)
(0.00596070135215 0.00134284016945 1.66228121072e-21)
(0.00502337825379 0.000566730914903 1.80163694017e-21)
(0.0064473049534 0.00276348825619 2.56205191607e-21)
(0.00553551817539 0.00199149439019 2.29625616261e-21)
(0.00668746440722 0.00428739305132 8.51459769391e-21)
(0.00590559413152 0.00335723266566 7.00008621289e-21)
(0.00657896716081 0.00591181904489 3.18144992393e-20)
(0.00592497990409 0.00487587129635 2.81955143776e-20)
(0.00618590329825 0.00764378913512 1.05675157653e-19)
(0.0056090870073 0.00647301600722 1.05463142867e-19)
(0.00566751722354 0.00952257935993 2.8641350009e-19)
(0.00505696031021 0.00813967365913 3.41551016931e-19)
(0.00532601093488 0.0115898990886 6.02053595529e-19)
(0.00442952999544 0.0099594122179 8.72695215595e-19)
(0.00581867418547 0.0137224870245 9.47202051966e-19)
(0.00417966299088 0.0122656021362 1.66696361743e-18)
(0.00690226690526 0.0147911363941 1.15267264056e-18)
(0.00590991045353 0.014095829509 2.26327372993e-18)
(0.00666486870572 0.014827206115 1.29637599218e-18)
(0.00753178484376 0.014274281234 2.38912743995e-18)
(0.00398089185232 0.0156720308834 1.63140816068e-18)
(0.00542429534565 0.013887185657 2.5547404319e-18)
(0.000378627813066 0.0189649395217 1.82265565808e-18)
(2.10402849265e-06 0.0150346893779 3.26644743423e-18)
(0.000520670412855 0.024481291753 1.51294250377e-18)
(-0.00462778453324 0.0207737142162 3.10258367059e-18)
(0.00505424148342 0.0271122147469 9.01403585032e-19)
(0.000878947297544 0.0264128077165 2.13959224959e-18)
(0.0100108421977 0.0267557003179 3.76650143282e-19)
(0.00792711691251 0.0264260010515 9.45282878979e-19)
(0.0120384567044 0.0246895468369 1.65863096792e-19)
(0.0132510833359 0.0254375830492 3.7372491407e-19)
(0.0109668063821 0.023197392026 1.20489991473e-19)
(0.0125123192063 0.0196658141436 2.31684945981e-19)
(0.0100239563173 0.0226233304597 1.12693286662e-19)
(0.0103175581903 0.0191985988747 2.05458402302e-19)
(0.0178438257737 0.0165445120503 6.89322196354e-20)
(0.0125202691413 0.0227923896104 2.03210587668e-19)
(0.0322301353241 0.0304878128959 5.72340670949e-20)
(0.0046354904595 0.00122764175655 2.43561189207e-21)
(0.0037959130301 0.000498968579982 1.99882829096e-21)
(0.00503940677782 0.00253750382377 6.73429045944e-21)
(0.00422584498497 0.00180687433662 4.64001215915e-21)
(0.00520784224542 0.00392029691758 2.66810028966e-20)
(0.00452297584826 0.00305144286829 1.85841417956e-20)
(0.00503450636729 0.00537818914032 1.01844158005e-19)
(0.00446728612897 0.00441280127073 7.69900851342e-20)
(0.00455524942639 0.00687776000995 3.41339002144e-19)
(0.00410977839541 0.0057890160324 2.88157753053e-19)
(0.00382237849812 0.00845779559259 9.27832732435e-19)
(0.00347731113329 0.00705384362198 9.3998053882e-19)
(0.00312093732044 0.0104614277701 1.9376052375e-18)
(0.00242649120861 0.00825440095931 2.39782939005e-18)
(0.00407320101201 0.0129433654488 2.98303529539e-18)
(0.00169859275725 0.010991542154 4.49370822549e-18)
(0.00637837916742 0.0138083171585 3.49972852931e-18)
(0.00504620611748 0.0136528910569 6.03613856782e-18)
(0.00606678296829 0.0131786142375 3.64749187968e-18)
(0.00816310580618 0.0139368395264 6.0360775797e-18)
(0.00110114720073 0.0134849750741 4.18977970544e-18)
(0.00511986534527 0.0138100731124 5.49839578846e-18)
(-0.0050634967577 0.0166806102683 4.54637544674e-18)
(-0.00319140165207 0.015144077933 6.63863660955e-18)
(-0.00407571153773 0.0232364340217 3.72923341641e-18)
(-0.0111812953595 0.0204840541831 5.55745040236e-18)
(0.00392922524495 0.0255761743896 2.18347154354e-18)
(-0.00145855882553 0.025117649853 3.80978282763e-18)
(0.0114268283474 0.0245778941614 9.42357649767e-19)
(0.00892718390666 0.023258329703 1.78855067036e-18)
(0.0139149895176 0.0223910513145 4.39546763259e-19)
(0.0154389851839 0.0223775452317 7.84248945036e-19)
(0.0117979328907 0.021224790627 3.1665335681e-19)
(0.0136789136074 0.0176505603806 5.10726776404e-19)
(0.00858984438131 0.0218548175937 2.95975703308e-19)
(0.00968757851165 0.0178961440241 4.36772527385e-19)
(0.013472825393 0.0334606888761 1.91512435127e-19)
(0.000912163601512 0.0207963012262 4.34377471017e-19)
(0.000262983946661 0.0500114601374 1.47645571392e-19)
(0.00341950522095 0.00109812463291 4.20322855804e-21)
(0.00269793927611 0.000415375594857 2.50646863882e-21)
(0.00372894402572 0.00227505975139 1.64898634953e-20)
(0.00304906549741 0.00158536310616 9.47130171143e-21)
(0.00380187308045 0.00354290802653 6.88932240333e-20)
(0.00325528247463 0.00267525138254 4.10216610967e-20)
(0.00357016237125 0.00478597601859 2.63303680182e-19)
(0.00322439610552 0.00384785998304 1.67054675927e-19)
(0.00306909351128 0.00588419271609 8.86799289729e-19)
(0.00301180398655 0.00501644229375 6.10846335211e-19)
(0.00224300393165 0.00671720125541 2.40997719644e-18)
(0.0026446687555 0.00607345407257 1.94665926491e-18)
(0.00127371666357 0.00842487045367 4.95393237805e-18)
(0.000719389974776 0.0070461839422 4.92827301573e-18)
(0.00296218515401 0.0123658538547 7.54681149792e-18)
(-0.00224145480417 0.0107449548566 9.34318600145e-18)
(0.00709401300053 0.0138812440568 8.5724876182e-18)
(0.00353216959206 0.0154101466405 1.41939581008e-17)
(0.00748062385658 0.0143473074866 7.88698148848e-18)
(0.0076987545438 0.0175814371087 1.39938120432e-17)
(0.00146359082642 0.0156620609154 7.94725269257e-18)
(0.00380712596123 0.0237965303747 1.01157129881e-17)
(-0.00832752230526 0.0194075328391 7.64971156516e-18)
(-0.00693437307538 0.0216072083078 1.1319604161e-17)
(-0.00789538439976 0.0229059978138 5.63799981357e-18)
(-0.0146768541735 0.0196199381933 6.7404210648e-18)
(0.00375120266373 0.0222934021871 3.41486195445e-18)
(-0.000843284431405 0.0208334133428 4.60890187402e-18)
(0.0129725112273 0.0205773643402 1.63044196563e-18)
(0.0106452746108 0.0170713669608 2.38680478229e-18)
(0.0152332597171 0.0192554463003 8.55428958181e-19)
(0.0167620881808 0.0178720069519 1.21610012465e-18)
(0.0116492628146 0.0191888473633 6.30845946979e-19)
(0.0137458773953 0.0153615091171 8.52625164824e-19)
(0.00345013008479 0.0208499192331 5.75174295095e-19)
(0.0080256729191 0.0169804792246 7.32402722374e-19)
(-0.00993865134618 0.0261378856676 3.90510607282e-19)
(-0.00438264679224 0.020459709819 7.27123295988e-19)
(-0.0100081417641 0.021411143659 2.05885903973e-19)
(0.00238704899844 0.000923891311456 7.77454179222e-21)
(0.00177416676802 0.000350602685457 3.80814969905e-21)
(0.00265659508794 0.00194051169132 3.40030993128e-20)
(0.00203255888049 0.00142287982773 1.73328920846e-20)
(0.00277649355408 0.00299502716864 1.39183112991e-19)
(0.00220087877694 0.00241631773593 7.37532773923e-20)
(0.0027097648185 0.00403421220349 5.14597330957e-19)
(0.00218534006473 0.00347962409349 2.83391222351e-19)
(0.00239681933191 0.00510061650263 1.67070631039e-18)
(0.00194557995748 0.00458254685985 9.61982913798e-19)
(0.000714978478671 0.0063521434078 4.46495508421e-18)
(0.00139343104394 0.00534292188795 2.88152396143e-18)
(-0.00361271699703 0.00857720096088 9.31752663914e-18)
(-0.00150512324047 0.0064817159964 6.77539977464e-18)
(-0.00232221159034 0.0152274540654 1.59903326043e-17)
(-0.0088908991222 0.00669416865761 1.23064075914e-17)
(0.00387861893598 0.0187604132578 1.96152825258e-17)
(0.00356539890988 0.0264601279774 1.62225435428e-17)
(-0.00565568327391 0.0302684931106 1.34880644565e-17)
(-0.012554361679 0.0233357118684 1.04103136607e-17)
(-0.00563820550762 0.0180443505702 5.71132312524e-18)
(0.00636866371439 0.0146228424967 3.58084470186e-18)
(0.0140628720024 0.01394485288 1.97246294132e-18)
(0.0150595032935 0.0154638338974 1.2132963313e-18)
(0.0105160415365 0.0174218928093 9.54181940219e-19)
(0.00215565464897 0.0192240474852 8.84351723268e-19)
(-0.00503384347435 0.0161549577381 5.42498592679e-19)
(0.0014390088765 0.000870635893409 1.33664999914e-20)
(0.000903606750655 0.000302393296538 5.95238471678e-21)
(0.0016183681105 0.00186752570161 5.70830701641e-20)
(0.00103573203448 0.0013154904793 2.67731385841e-20)
(0.0017198622664 0.00296271834946 2.17961386753e-19)
(0.00110573917609 0.00226422247615 1.1238408903e-19)
(0.00169852267022 0.00403095088496 7.30776805193e-19)
(0.00111716294735 0.00326740638787 4.12696177396e-19)
(0.00144274647398 0.00490610959123 2.17280056483e-18)
(0.00107050845396 0.00434428020023 1.30360136731e-18)
(-7.25654662858e-05 0.00541253177684 5.19196865186e-18)
(0.000887192326495 0.00488138038981 3.81264222351e-18)
(-0.00463541412834 0.00444525895842 9.76428072691e-18)
(-0.000537573697916 0.00575049588839 8.93433358301e-18)
(-0.00444553727296 0.00264340255167 1.83500179263e-17)
(0.000533645671133 0.000775825286704 1.93590233095e-20)
(0.000127795900056 0.000274757008306 7.47639575008e-21)
(0.000568373897259 0.00168797080254 8.20741574496e-20)
(0.000123583275848 0.00124819292918 3.17798697574e-20)
(0.000557029145446 0.00267349937961 3.07118879673e-19)
(0.00012018632618 0.0021534421648 1.32647637348e-19)
(0.000487366685147 0.00366549707004 9.85520739517e-19)
(0.000125127831957 0.00310436458641 4.81623554213e-19)
(0.000358252797027 0.00460279665116 2.94344302599e-18)
(0.000133179220506 0.00414225097269 1.48996878059e-18)
(0.000137852858834 0.00534117666144 7.55500715466e-18)
(0.000148838507819 0.00481708076046 4.39837932271e-18)
(-0.00126862723925 0.00464304114397 1.75200707824e-17)
(0.000160677643235 0.00550797451747 1.07145510868e-17)
(0.000197559609055 0.00318422797663 2.4329725537e-17)
(-0.0002806019431 0.000779100290393 1.9897242198e-20)
(-0.000651352990869 0.00030812620229 6.91629945735e-21)
(-0.000321106962651 0.00169438352424 8.23533496562e-20)
(-0.000791773017737 0.00132395133955 2.72123363478e-20)
(-0.000308168070235 0.00267740024577 3.07152311889e-19)
(-0.000862935445702 0.00227207556339 1.12563319927e-19)
(-0.000227694358922 0.00366860320072 9.86071595291e-19)
(-0.000866195339831 0.00327300650293 4.12668021734e-19)
(-7.49279290908e-05 0.00460770347947 2.94490507731e-18)
(-0.000806039746512 0.00434870686331 1.3048135093e-18)
(0.000188834089266 0.00533081842801 7.55792325484e-18)
(-0.000574298120958 0.00488903458903 3.81491949451e-18)
(0.00165972365061 0.00463937077658 1.75242058414e-17)
(0.000852195513552 0.00576248912184 8.93969955663e-18)
(0.00483706169077 0.00263598902722 1.83613568723e-17)
(-0.00119075581157 0.00088252541685 1.42313936071e-20)
(-0.00137115195351 0.00187691660439 5.74223066183e-20)
(-0.00146847947376 0.0029714143276 2.18079029773e-19)
(-0.00143503126958 0.00403581169761 7.3140993574e-19)
(-0.00116202399346 0.00490980212018 2.1748279265e-18)
(0.000389180015834 0.00546674964355 5.1966957963e-18)
(0.00500420774819 0.00445096179801 9.77685058752e-18)
)
;

boundaryField
{
    back
    {
        type            calculated;
        value           uniform (0 0 0);
    }
    sides
    {
        type            calculated;
        value           nonuniform List<vector> 0();
    }
    bottom
    {
        type            calculated;
        value           uniform (0 0 0);
    }
    front
    {
        type            calculated;
        value           uniform (0 0 0);
    }
    atmosphere
    {
        type            calculated;
        value           nonuniform List<vector> 7((-0.00196417943694 0.0871243209077 1.57156089834e-20) (-0.0334938126411 0.0535414954772 5.46038281935e-21) (0 -0.0285845977005 0) (0 -0.0100237180906 0) (0.020029041507 0.0654233204731 8.81753449342e-20) (-0.0175889268151 0.0364029628752 2.0711579785e-19) (-0.00677888575768 0.000791905120706 2.04656010097e-19));
    }
    floatingObject
    {
        type            calculated;
        value           nonuniform List<vector> 8((0 -1.66533453694e-15 2.08166817117e-16) (0 0 2.08166817117e-16) (0 0 0) (0 -3.33066907388e-15 2.08166817117e-16) (4.16333634234e-16 0 0) (0 0 2.08166817117e-16) (0 0 2.08166817117e-16) (0 0 0));
    }
    procBoundary3to4
    {
        type            processor;
        value           nonuniform List<vector> 
13
(
(0.0124380638209 0.0136624819726 5.50480302056e-21)
(0.0122893949846 0.0156667577778 7.8648992003e-21)
(0.0121057214697 0.017609488352 8.92862267047e-21)
(0.00929913278766 0.000693070265347 1.27213106425e-21)
(0.0100675866503 0.00237585070115 5.71622812349e-22)
(0.0107314934104 0.00399988540295 2.4597354624e-22)
(0.0110476498335 0.00575426878891 5.81971240576e-22)
(0.0108580668452 0.00949870432134 5.73848353069e-21)
(0.0115364867417 0.0125815655582 7.0264188703e-21)
(0.0106109529725 0.011483499077 1.4371760017e-20)
(0.0101307006797 0.00655780785775 2.03146855675e-21)
(0.00998987860825 0.00842471474354 6.31780653916e-21)
(0.00917587289389 0.00734190795117 8.215656018e-21)
)
;
    }
    procBoundary3to5
    {
        type            processor;
        value           nonuniform List<vector> 10((0.0117575439202 0.0195961040058 9.83824211263e-21) (0.0112870925372 0.0218526808699 1.16040362338e-20) (0.0108490097051 0.0244210317264 1.19171463441e-20) (0.0103576771716 0.0269475778081 1.01868370176e-20) (0.00922800108901 0.0285746816201 5.92935727785e-21) (0.00858353345782 0.0304387089088 2.68565316244e-21) (0.00833509536399 0.0254530538456 5.66554951408e-21) (0.0079615217395 0.0255291453703 1.31088038376e-20) (0.0226049186384 0.0319255084601 1.32048467119e-20) (0.023447275876 0.0355673568957 1.27182836835e-20));
    }
    procBoundary3to6
    {
        type            processor;
        value           nonuniform List<vector> 8((-0.00938239243536 0.00651959570181 5.58177416873e-18) (0.0025810448103 0.00969202615143 4.04493491288e-18) (0.0113253940419 0.00683866045958 2.4571510483e-18) (0.0152443203141 0.0121592489519 1.53493473957e-18) (0.0117881394442 0.0131281120273 1.17162918307e-18) (0.00622156161554 0.0164734676578 1.04369093521e-18) (-0.00132098490891 0.0194929163068 1.03317329967e-18) (0.00534902699212 0.00457911872802 2.28087028876e-19));
    }
    procBoundary3to8
    {
        type            processor;
        value           nonuniform List<vector> 8((-0.00153396417863 0.000359754626458 4.88897644361e-21) (-0.00178628623996 0.00143624088464 1.7747320872e-20) (-0.00195757750087 0.00242842337047 7.38938675369e-20) (-0.00193075474811 0.00348936671754 2.83205470506e-19) (-0.00168013327914 0.00458498633507 9.63331470585e-19) (-0.00113127161745 0.00534688042042 2.88612834054e-18) (0.00186819689933 0.00647470820431 6.79224935506e-18) (0.0092881924437 0.00671508639519 1.23279057483e-17));
    }
}


// ************************************************************************* //
