/*--------------------------------*- C++ -*----------------------------------*\
| =========                 |                                                 |
| \\      /  F ield         | OpenFOAM: The Open Source CFD Toolbox           |
|  \\    /   O peration     | Version:  v2012                                 |
|   \\  /    A nd           | Website:  www.openfoam.com                      |
|    \\/     M anipulation  |                                                 |
\*---------------------------------------------------------------------------*/
FoamFile
{
    version     2.0;
    format      ascii;
    class       volVectorField;
    location    "0.3";
    object      U_0;
}
// * * * * * * * * * * * * * * * * * * * * * * * * * * * * * * * * * * * * * //

dimensions      [0 1 -1 0 0 0 0];


internalField   nonuniform List<vector> 
164
(
(0.0749463499684 -0.00227293733058 -4.81290766459e-23)
(0.0762026456359 -0.0055594954419 -9.88635011441e-23)
(0.0763920710288 -0.00957913913824 -9.60312269361e-23)
(0.0765021868843 -0.0136424033223 -4.96320999354e-23)
(0.0766026220341 -0.0178092982362 -4.46613559174e-24)
(0.0766661323142 -0.0221588676279 3.72765530979e-24)
(0.0766507507285 -0.0267206202544 -1.59930715681e-25)
(0.0765056537639 -0.0315195174768 3.35367724484e-25)
(0.0786988112843 -0.00224273386119 -2.89110019676e-22)
(0.0800649357368 -0.00546251430437 2.68006708477e-22)
(0.080349753419 -0.00943498079222 -1.24867307365e-22)
(0.0805963553335 -0.0134696595769 -3.71024986292e-23)
(0.0808750254373 -0.0176388474152 -7.74891736149e-24)
(0.0811548673117 -0.0220308392401 -1.28895507892e-23)
(0.0813886550037 -0.0266845201059 -1.16717298634e-23)
(0.0815185415982 -0.0316343314962 -1.13389790141e-25)
(0.0823652665242 -0.00218339882413 -3.34385536536e-22)
(0.08384842064 -0.00529162232951 2.1231973084e-22)
(0.0842459994723 -0.00916644713158 5.3949117627e-23)
(0.0846563748334 -0.0131244279159 -1.78459717387e-24)
(0.0851503249511 -0.0172513487719 -2.8347332911e-24)
(0.0856935807384 -0.0216456284064 -8.7757753516e-24)
(0.0862339134518 -0.0263572378819 -1.46093247693e-24)
(0.0867065048562 -0.031432189265 4.55332684796e-25)
(0.0870335157778 -0.0369089668159 -5.57569981427e-24)
(0.0871238273768 -0.0428150804537 -1.58181116303e-24)
(0.0858916291082 -0.00208940928073 -2.9634219058e-22)
(0.0874986449535 -0.00503329050955 3.54250988491e-23)
(0.0880277312148 -0.0087500452719 5.55452564739e-24)
(0.0886314963648 -0.0125730091981 -4.04183674236e-23)
(0.0893813105642 -0.0166025263394 -1.51975832263e-23)
(0.0902401638879 -0.0209479283172 -3.30647490429e-24)
(0.0911514904665 -0.0256721042373 -1.98785557066e-25)
(0.0920439936889 -0.0308350046332 2.86867706705e-25)
(0.0928305541519 -0.0364897511144 -1.78234091462e-23)
(0.0934072507166 -0.0426786941637 -7.42609248599e-24)
(0.0892142961747 -0.0019546546425 -9.86398424619e-23)
(0.0909512706237 -0.00467290170456 9.69256564901e-22)
(0.091631474032 -0.00816045930862 -1.3841193381e-24)
(0.0924600815142 -0.0117790033846 -3.19420643149e-23)
(0.0935092652513 -0.0156439945393 -1.98128321353e-23)
(0.09474040225 -0.0198764527006 -2.21108160096e-23)
(0.0960938425365 -0.0245541179209 4.81603529625e-25)
(0.0974929126168 -0.0297534866716 2.83977900778e-23)
(0.0988420088828 -0.0355457050649 -2.53220205848e-23)
(0.100024660503 -0.0419922080571 -3.08562297641e-23)
(0.0922599998477 -0.00177289367907 -2.90970338857e-22)
(0.0941317314465 -0.00419567717913 1.38000016507e-22)
(0.0949827013863 -0.00737143293118 -6.82224412165e-23)
(0.0960683839511 -0.0107038996882 -8.72784349522e-23)
(0.0974622824134 -0.0143239626349 -1.52370892793e-23)
(0.0991258091966 -0.0183645958034 -1.32983050614e-23)
(0.10099817375 -0.0229203463708 -9.48409485558e-24)
(0.102999262612 -0.0280870855427 2.06314923396e-24)
(0.105026675655 -0.0339577639101 -4.41748426898e-24)
(0.106952593161 -0.0406178516324 -7.87420963223e-24)
(0.0949455163628 -0.00153778855597 -1.22178083099e-22)
(0.0969548012257 -0.00358700542109 6.2983167715e-22)
(0.0979952205905 -0.00635679227624 3.72069270412e-23)
(0.099369503529 -0.00930852250415 -4.0812339285e-23)
(0.101153561886 -0.0125884924536 -1.44894938749e-23)
(0.103311305875 -0.0163416487254 -3.7607092626e-23)
(0.105783374261 -0.0206810076731 -2.85836657015e-23)
(0.108489236629 -0.0257246708932 -4.25543397841e-23)
(0.111322550163 -0.0315914744594 -2.06316185294e-23)
(0.114146682153 -0.0383964900886 -2.44278282295e-25)
(0.0971783722308 -0.00124347842536 -2.25016063631e-22)
(0.0993245692836 -0.00283358882112 4.02203573338e-22)
(0.100570316065 -0.00509152369787 2.87222596219e-23)
(0.102262298336 -0.00755436026034 -5.38493821297e-23)
(0.104479914122 -0.0103832849912 -4.00651497042e-23)
(0.107192839041 -0.0137347232737 -5.3623173145e-23)
(0.110346820899 -0.0177414516809 -4.41859338159e-23)
(0.113864837977 -0.0225462251567 -1.7091377435e-23)
(0.117641159358 -0.0282980419412 -5.09516311253e-23)
(0.121534604201 -0.0351475207818 -4.85247363609e-23)
(0.0988579002627 -0.000885848514322 -5.32129880038e-23)
(0.101134255777 -0.00192503473592 7.73529535478e-22)
(0.102596016603 -0.00355294521665 5.16336895102e-23)
(0.104630756506 -0.00540492322423 -6.22089479505e-23)
(0.107320621796 -0.00765605427904 -4.39243350977e-23)
(0.110645346612 -0.0104717123286 -6.60970766443e-23)
(0.114560819158 -0.0140053079266 -2.89646831878e-23)
(0.118999187244 -0.0184261550642 -6.75424872599e-23)
(0.123861079476 -0.0239170922334 -8.68348080213e-23)
(0.129007648896 -0.030670593598 -4.88509820127e-23)
(0.099873743302 -0.00046381403651 -1.33174399147e-22)
(0.102266044066 -0.00085199201709 2.97413605002e-22)
(0.103946521496 -0.00172010245522 -8.20506522591e-23)
(0.106345218316 -0.00282761411423 -5.54244022786e-23)
(0.109537099488 -0.00436036208081 -4.56694295643e-23)
(0.113521361879 -0.00648638260645 -6.66554725235e-23)
(0.11826954727 -0.00937969917584 -7.53774446505e-23)
(0.12373145784 -0.0132381572602 -6.06440692272e-24)
(0.129820809755 -0.0182816544762 -1.04071854206e-22)
(0.136410978071 -0.0247496820336 -9.09108994064e-23)
(0.100073362394 5.78287716077e-05 -1.80669406092e-22)
(0.102577754963 0.00040163896579 5.42600100636e-24)
(0.104494136676 0.000423267855177 -6.95942816428e-23)
(0.107258986016 0.000200724521804 -6.05283646517e-23)
(0.110972582469 -0.000463353856007 -2.68540254834e-23)
(0.115649429523 -0.00172530171591 -1.52450114389e-23)
(0.121285781769 -0.00378271453969 -2.6015567107e-23)
(0.12786259249 -0.00686310567337 -8.04750824508e-24)
(0.135311087472 -0.0112259148252 -4.17251189246e-23)
(0.143533014253 -0.017160562157 -7.31143062333e-23)
(0.099330522775 0.000612670030576 -1.62205926882e-22)
(0.101944009339 0.00182883000865 -1.11123341342e-22)
(0.10409979513 0.00287239878645 -4.26306690434e-23)
(0.107226125729 0.00367241416843 -4.9647630626e-23)
(0.11145997326 0.00405027993889 -4.27064757504e-23)
(0.116839726258 0.00384343578838 -6.62821773781e-23)
(0.123394805269 0.00284830449416 -6.36863739768e-23)
(0.131142337677 0.000801635170184 -8.45421873937e-23)
(0.14006436988 -0.00259629386239 -6.22153981822e-23)
(0.150093852765 -0.00768171793806 -8.06766247954e-24)
(0.0975811461091 0.00124749241009 -1.4496709699e-22)
(0.100275635033 0.00341156677626 -1.95941386347e-22)
(0.102630302028 0.0056001046332 -4.83148918094e-23)
(0.106095100827 0.00757154822175 -5.12407078734e-23)
(0.110815372085 0.00916327307303 -5.65345262181e-23)
(0.116871056372 0.0102220578809 -5.59222446228e-23)
(0.124339091762 0.0105331472843 -4.76263802726e-23)
(0.133286567886 0.00982125061931 -3.51599875626e-24)
(0.14376430248 0.00774126263637 -1.01715405859e-22)
(0.155739251268 0.00389306762615 -1.3145879451e-22)
(0.0947646012245 0.0019463199719 1.70218268864e-22)
(0.0974747088616 0.00512799717792 -3.46675372487e-22)
(0.0999697607888 0.00856648880208 -7.1365279972e-23)
(0.103704453678 0.0118467025785 -4.80888944552e-23)
(0.108839494468 0.0148246959886 -5.43717079737e-23)
(0.115500681692 0.0173709472001 -6.9850009089e-23)
(0.123830158263 0.0192710798632 -3.77501951032e-23)
(0.133962429247 0.0202360873482 -1.75361663487e-23)
(0.146012248171 0.0198697738488 -1.20132957945e-22)
(0.160026721339 0.017718576491 -1.00838895582e-22)
(0.090775050093 0.00268825022398 1.46902997962e-22)
(0.0934426058753 0.00693973406398 -3.37202941145e-22)
(0.0960047664331 0.0117127483137 -5.02780367392e-23)
(0.0999093308541 0.0164192491191 5.71238626221e-24)
(0.105338232572 0.0209446840501 -2.74584585258e-23)
(0.112475771844 0.0252043954509 -6.05068810822e-23)
(0.121542753423 0.0289932799462 -7.81225576561e-23)
(0.132764793064 0.0320107326762 -2.88606780697e-23)
(0.146350882529 0.0338188463148 -6.77136999388e-23)
(0.162441730072 0.0339152058711 -2.5688694256e-23)
(0.0855255111172 0.00343898327877 6.63234480406e-22)
(0.0881018114332 0.00878960674499 -1.91885023011e-22)
(0.0906445404948 0.0149456226406 2.73813077823e-23)
(0.0945810041651 0.0211639680768 -1.89611003523e-23)
(0.100124636706 0.0273740195149 -2.63652174354e-23)
(0.107531275148 0.033561454721 -3.57595271302e-23)
(0.117120593137 0.0395517391808 -6.41723178759e-23)
(0.129242823525 0.0450460157883 -6.10401218893e-23)
(0.144250478792 0.0495566844926 -8.22475954012e-23)
(0.162373035436 0.0524998828242 -7.5041542771e-23)
(0.079010325957 0.00417314260839 9.23323587252e-22)
(0.0814289590541 0.0106013707566 -2.96621520987e-22)
(0.0838394234094 0.0181320599163 5.24636491626e-23)
(0.0876223559352 0.0258956970509 5.66974413295e-23)
(0.0930302461734 0.0338860189066 -1.97055506184e-23)
(0.100402434806 0.0421911524166 -1.6829086464e-23)
(0.110187381708 0.0506996484963 -6.05322268591e-23)
(0.0839298512307 0.0401563922281 1.26846268106e-23)
)
;

boundaryField
{
    back
    {
        type            noSlip;
    }
    sides
    {
        type            noSlip;
    }
    bottom
    {
        type            noSlip;
    }
    front
    {
        type            noSlip;
    }
    atmosphere
    {
        type            pressureInletOutletVelocity;
        value           nonuniform List<vector> 0();
    }
    floatingObject
    {
        type            movingWallVelocity;
        value           nonuniform List<vector> 0();
    }
    procBoundary4to0
    {
        type            processor;
        value           nonuniform List<vector> 8((0.0711530327486 -0.00227910457159 -2.46958637104e-22) (0.0723068383817 -0.00559506291399 3.00028817914e-22) (0.0724167194299 -0.00962043246628 -3.46611800093e-23) (0.0724150058713 -0.0136732322141 -3.26465694932e-23) (0.0723704038977 -0.0178024623528 -6.13310405922e-24) (0.0722593633613 -0.0220788105438 -3.50882903011e-25) (0.0720451370029 -0.0265239539415 -4.265645828e-24) (0.0716836670932 -0.0311551697078 3.26654791318e-24));
    }
    procBoundary4to3
    {
        type            processor;
        value           nonuniform List<vector> 
13
(
(0.122897907999 0.0591447587246 -1.3747690194e-22)
(0.139114217322 0.0669517676828 -6.64492937617e-24)
(0.15912079286 0.0734062720495 -1.1106297694e-22)
(0.0712942269004 0.00485453355063 1.18871397488e-22)
(0.0734694374927 0.0122715898027 -3.52130116567e-22)
(0.0756047904689 0.0210960071465 -1.84164878064e-23)
(0.0789947591757 0.0303612166561 6.60172314817e-24)
(0.0908377315654 0.0507195796186 -3.4006620959e-23)
(0.122897907999 0.0591447587246 -1.3747690194e-22)
(0.10033197623 0.0620525117312 2.09950541986e-23)
(0.0789947591757 0.0303612166561 6.60172314817e-24)
(0.0908377315654 0.0507195796186 -3.4006620959e-23)
(0.0727757803435 0.0457421344986 1.18505971892e-22)
)
;
    }
    procBoundary4to5
    {
        type            processor;
        value           nonuniform List<vector> 
18
(
(0.0761715569861 -0.0365731363393 -3.86889237373e-24)
(0.0814761164012 -0.0369070658991 -5.47964656029e-24)
(0.0814761164012 -0.0369070658991 -5.47964656029e-24)
(0.0811826501538 -0.0425188802082 -2.5996830511e-24)
(0.0868734183354 -0.0491634261798 5.25582293869e-24)
(0.0936530360112 -0.0494291085822 8.75414057565e-24)
(0.100902125187 -0.0491396795226 1.12738624411e-23)
(0.108620932174 -0.0481396433415 2.98505714815e-24)
(0.116790035931 -0.0462449826668 -1.83230928118e-23)
(0.125361961319 -0.0432412387262 2.88175830963e-23)
(0.134250663332 -0.0388834883842 -8.05157362893e-23)
(0.143318829175 -0.0328987705269 1.98717299908e-23)
(0.152363362756 -0.0249925768806 -2.75697750384e-24)
(0.161100189872 -0.0148602704237 -2.06525922834e-22)
(0.169144116785 -0.00220357580761 -2.3265144163e-23)
(0.176021587727 0.0132390329721 -1.97409368015e-22)
(0.181117082432 0.0316741194875 -6.81825191791e-23)
(0.183734564924 0.0532047896497 8.1432333599e-23)
)
;
    }
}


// ************************************************************************* //
