/*--------------------------------*- C++ -*----------------------------------*\
| =========                 |                                                 |
| \\      /  F ield         | OpenFOAM: The Open Source CFD Toolbox           |
|  \\    /   O peration     | Version:  v2012                                 |
|   \\  /    A nd           | Website:  www.openfoam.com                      |
|    \\/     M anipulation  |                                                 |
\*---------------------------------------------------------------------------*/
FoamFile
{
    version     2.0;
    format      ascii;
    class       volScalarField;
    location    "0.9";
    object      nut;
}
// * * * * * * * * * * * * * * * * * * * * * * * * * * * * * * * * * * * * * //

dimensions      [0 2 -1 0 0 0 0];


internalField   nonuniform List<scalar> 
1984
(
0.000878651886818
0.00105286239676
0.0010665623492
0.00107005550828
0.00107168854821
0.0010730445424
0.00107436741365
0.0010756873654
0.00107700633135
0.00107832344312
0.00107964182636
0.00108099128855
0.00108257050774
0.00108545157162
0.00109439722943
0.0011260735885
0.00122223445878
0.00144379106463
0.00182490884247
0.0023523659293
0.00105425661817
0.00153819603009
0.0015661456539
0.00157295884647
0.00157534545757
0.00157697218909
0.00157849664982
0.00158001393122
0.00158153352493
0.00158305510916
0.00158458759209
0.00158619428311
0.00158825256457
0.00159261746701
0.001606798999
0.00165469981268
0.00179006610593
0.00208064123305
0.0025472813787
0.00317054351799
0.00107091068966
0.00157175399305
0.00160275921168
0.00161022826605
0.0016126500179
0.00161420890232
0.00161566785989
0.00161713360876
0.00161861255201
0.00162010077634
0.00162160542985
0.00162319239565
0.001625253326
0.00162967755212
0.00164398068183
0.00169170955785
0.00182515480613
0.00211007728693
0.00256983710711
0.00317999616362
0.00107577270516
0.00158143829005
0.00161334257718
0.00162093999556
0.00162328949485
0.00162475486409
0.00162613516351
0.00162753849905
0.00162896772023
0.00163041438407
0.00163188305542
0.00163343984314
0.0016354783401
0.00163989300648
0.00165417993905
0.0017017011202
0.00183416222699
0.00211688595211
0.0025739497304
0.00318107343717
0.00107776931183
0.00158477730511
0.00161685836022
0.00162440672953
0.0016266501974
0.00162801222093
0.00162930434541
0.00163063490908
0.00163200395347
0.00163340182621
0.00163482800029
0.00163634866411
0.00163836085558
0.00164276833869
0.00165708477691
0.00170465190891
0.00183699102389
0.00211917152821
0.00257556947035
0.00318296273245
0.00107913301368
0.00158658509924
0.00161864828216
0.00162610962755
0.00162824765701
0.00162950936574
0.00163071302792
0.00163196739309
0.0016332717522
0.00163461489588
0.00163599647431
0.00163747990051
0.00163946671175
0.00164387752071
0.00165826983557
0.00170604110263
0.00183864404605
0.00212082179971
0.00257682669818
0.00318420423848
0.00108037002116
0.00158806485314
0.00162007523749
0.00162745468836
0.00162949933619
0.00163066958757
0.00163178941305
0.00163296939757
0.00163420902746
0.00163549655264
0.00163683110292
0.00163827628885
0.00164023909502
0.00164466256192
0.00165916588656
0.0017072396967
0.00184029035622
0.00212261293409
0.00257775358256
0.00318373798766
0.00108158317102
0.00158948640325
0.00162144808672
0.00162875973
0.00163072501439
0.0016318145036
0.00163285759154
0.00163396742162
0.00163514450474
0.00163637730112
0.00163766496643
0.00163907217944
0.00164101279369
0.00164545692857
0.00166009793786
0.00170853817102
0.00184211872734
0.00212455908146
0.0025788895015
0.00318397299813
0.00108279003482
0.00159090271431
0.00162282642342
0.00163008395363
0.00163198279945
0.00163300219494
0.00163397661743
0.00163502202272
0.00163614042326
0.00163732103128
0.00163856350349
0.00163993423049
0.00164185519787
0.00164632744827
0.00166112795854
0.00170998246578
0.00184415470861
0.00212675504238
0.00258039472801
0.00318526599065
0.00108399162197
0.00159232111514
0.00162421723826
0.00163143226061
0.00163327586133
0.00163423507522
0.00163514904585
0.00163613650659
0.00163720118883
0.00163833336089
0.00163953356881
0.00164087038463
0.00164277498521
0.00164728232077
0.00166225949515
0.00171155971619
0.00184633896518
0.00212896131297
0.00258121889457
0.00318471683697
0.00108518590682
0.00159374026409
0.00162561798162
0.0016328001804
0.00163459810014
0.00163550608568
0.001636367544
0.00163730381585
0.00163832037537
0.00163940873395
0.00164057053403
0.0016418769263
0.00164376907614
0.00164831803473
0.00166348518834
0.00171325054903
0.00184863122762
0.00213122303115
0.00258247569688
0.0031848050888
0.00108637021444
0.00159515735789
0.00162702494546
0.00163418255276
0.00163594300527
0.00163680777721
0.00163762421704
0.00163851604722
0.00163949043049
0.00164054014902
0.00164166811842
0.00164294827615
0.00164483232453
0.00164942863475
0.00166479425294
0.00171503069613
0.00185099037853
0.00213344875809
0.0025833082746
0.00318463967162
0.00108754153194
0.00159656930413
0.00162843454286
0.00163557476382
0.00163730489928
0.00163813364691
0.00163891207465
0.00163976607179
0.00164070435982
0.00164172100829
0.0016428202205
0.00164407888442
0.00164595943219
0.00165060768303
0.00166617458736
0.00171687189498
0.00185335166991
0.00213549922727
0.00258367852793
0.00318430715312
0.00108869648436
0.00159797279033
0.00162984330534
0.00163697265263
0.00163867880956
0.00163947803415
0.00164022500465
0.00164104758278
0.00164195592819
0.00164294530011
0.00164402125283
0.00164526357332
0.0016471453103
0.00165184862926
0.00166761324772
0.00171874410343
0.0018556623961
0.00213739064013
0.00258404413151
0.00318388489836
0.00108983127652
0.00159936419451
0.00163124771691
0.00163837226833
0.00164006018449
0.00164083584366
0.0016415575482
0.00164235504635
0.00164323956183
0.0016442076462
0.00164526613331
0.00164649758772
0.00164838514082
0.001653144766
0.00166909591649
0.00172061183584
0.00185784105145
0.0021389351638
0.00258388407944
0.00318333392395
0.00109094164908
0.00160073949545
0.00163264406762
0.00163976967045
0.00164144465682
0.00164220246249
0.00164290522874
0.00164368379832
0.00164455061559
0.00164550354958
0.00164655085901
0.00164777718243
0.00164967498997
0.0016544898547
0.00167060718694
0.00172243599107
0.00185980821083
0.00214000547106
0.00258304068308
0.00318244959564
0.00109202284973
0.00160209428282
0.00163402836457
0.00164116077326
0.00164282844002
0.00164357407882
0.00164426319407
0.00164503016681
0.00164588519553
0.00164683000945
0.00164787216853
0.00164909994845
0.00165101231456
0.00165587819343
0.00167212989464
0.00172417102807
0.00186147338857
0.00214048331778
0.00258143918818
0.00318123014686
0.00109306966555
0.00160342354583
0.00163539637579
0.0016425420251
0.00164420670753
0.00164494501439
0.00164562512188
0.00164638028683
0.00164722979108
0.00164817112141
0.00164921411771
0.00165044865781
0.00165237850877
0.0016572890784
0.00167363679771
0.00172576936919
0.00186274332369
0.00214022676085
0.00257897710361
0.00317965684614
0.0010940762904
0.00160472242688
0.00163674378382
0.00164390713201
0.0016455745436
0.00164630602546
0.00164698276239
0.00164773821177
0.00164858852697
0.0016495335782
0.00165058435317
0.00165183184438
0.0016537823614
0.00165872690267
0.00167511540438
0.00172717792463
0.0018634968124
0.00213902231325
0.00257533644831
0.0031776070958
0.00109503471133
0.00160598164787
0.00163806408869
0.00164525231506
0.00164692230538
0.00164765755237
0.0016483366487
0.00164909675821
0.00164995419972
0.00165090986362
0.00165197541969
0.00165324224605
0.00165521588042
0.00166018013532
0.00167654172464
0.00172834011159
0.00186362113277
0.0021367019531
0.00257031857098
0.00317499757463
0.00109593895416
0.00160719562576
0.0016393478972
0.00164656754778
0.00164825013284
0.00164899253409
0.00164967932008
0.00165044974113
0.00165132081165
0.00165229407767
0.00165338163131
0.00165467432386
0.00165667286542
0.00166163877172
0.00167789217884
0.00172919844881
0.00186300888242
0.0021331604305
0.00256388928671
0.00317179359174
0.00109678092285
0.00160835736558
0.00164059323629
0.0016478512225
0.00164955020016
0.00165030428163
0.00165100421035
0.00165179102116
0.00165268244553
0.00165368055543
0.00165479762453
0.00165612292217
0.00165814763698
0.00166309352829
0.00167914391323
0.00172969160969
0.00186150652987
0.00212803454394
0.0025554815031
0.00316783290632
0.0010975516973
0.00160945756282
0.00164179113895
0.00164909484818
0.00165081506741
0.00165158580122
0.0016523045045
0.00165311404194
0.0016540328266
0.00165506336231
0.00165621784995
0.00165758280661
0.00165963465627
0.00166453574405
0.00168027545204
0.00172976061082
0.00185898301177
0.00212114618063
0.00254483678595
0.00316301986
0.00109824163804
0.00161048641041
0.00164293282241
0.00165029019909
0.00165203699183
0.00165282961464
0.00165357297438
0.00165441186834
0.0016553654039
0.00165643634007
0.00165763659964
0.00165904869529
0.00166112869778
0.00166595840885
0.00168127171242
0.00172936694592
0.00185534902057
0.00211230502666
0.00253174311511
0.00315726402431
0.00109884033573
0.00161143328792
0.00164400890803
0.00165142856189
0.00165320766923
0.00165402774116
0.00165480196291
0.00165567733728
0.00165667350854
0.00165779319721
0.00165904811684
0.00166051543016
0.00166262509286
0.00166735626627
0.00168212218525
0.00172848117003
0.00185052327718
0.00210131330227
0.00251566098071
0.0031503815732
0.00109933665807
0.00161228674682
0.00164500914083
0.00165250039233
0.0016543179631
0.00165517139187
0.00165598318055
0.00165690271191
0.00165795024828
0.00165912750823
0.00166044666389
0.00166197818355
0.0016641201707
0.00166872669918
0.00168282231031
0.00172708128398
0.00184441764732
0.00208792716359
0.00249616732824
0.00314224149283
0.00109971665741
0.00161303010327
0.00164591787666
0.00165349083782
0.00165535335803
0.00165624626165
0.00165710237609
0.00165807361936
0.00165918060455
0.0016604251039
0.00166181794145
0.00166342241414
0.00166559992588
0.00167005803619
0.0016833650183
0.00172515922933
0.00183696869316
0.0020719243995
0.00247270607681
0.00313275074104
0.0010999717004
0.00161365022397
0.00164672524751
0.00165439182035
0.00165630653222
0.00165724576662
0.00165815392289
0.00165918567274
0.00166036290006
0.00166168506877
0.00166316173641
0.00166484985217
0.00166706923932
0.001671361327
0.00168377405386
0.00172276273996
0.00182820797777
0.0020532437343
0.00244485811781
0.00312194773579
0.00110016219863
0.00161407370583
0.00164738624988
0.00165517966475
0.00165716195231
0.00165815664942
0.00165912501308
0.00166022536893
0.0016614802752
0.00166289195081
0.00166446721714
0.00166625222778
0.0016685226853
0.00167263887036
0.00168406997999
0.00171996051041
0.00181824975899
0.00203207623675
0.00241266970201
0.00311017301102
0.00110029797204
0.00161427735996
0.00164787463785
0.00165583231558
0.00165790395334
0.00165896626684
0.00166000494419
0.00166118507153
0.00166253016751
0.0016640427301
0.0016657279032
0.00166762363342
0.00166996444751
0.00167392817086
0.00168436326837
0.00171687239853
0.00180739819227
0.00200892171316
0.00237673051353
0.00309518628984
0.00110034726839
0.00161425700225
0.00164817581644
0.00165633543676
0.00165851723278
0.00165965982581
0.00166077976105
0.00166205141752
0.00166349939573
0.00166512650762
0.00166693675679
0.0016689607911
0.00167139869443
0.00167527436222
0.00168489586646
0.00171445883436
0.00179762247109
0.00198576917407
0.00233617594036
0.00289717959636
0.00110028654038
0.0016139958622
0.00164826973029
0.00165666992037
0.00165898449728
0.00166022154637
0.00166143507192
0.00166281086806
0.00166437583362
0.00166613277331
0.00166808407586
0.00167025422076
0.00167281278357
0.0016766445239
0.00168554899962
0.00171232231418
0.00178822274881
0.00196269597838
0.00229044949867
0.00280798670078
0.00110009467058
0.0016134762396
0.00164813589614
0.00165681521202
0.00165928680076
0.00166063410541
0.00166195493018
0.00166344921504
0.00166514685054
0.00166705027692
0.00166916054207
0.00167149635254
0.00167419998899
0.00167803058836
0.00168631363043
0.00171048549137
0.00177929503382
0.00193993802337
0.00225607691755
0.00301032242026
0.00109975097736
0.00161267634747
0.00164775020659
0.0016567483777
0.00165940337496
0.00166087866432
0.00166232224077
0.0016639511773
0.00166579904166
0.00166786781835
0.00167015722322
0.00167268019188
0.00167555486063
0.00167942676728
0.00168718126544
0.00170895147116
0.00177092790228
0.00191803051872
0.00222496135215
0.00311841363648
0.00109923407641
0.00161157459579
0.00164708796888
0.00165644488499
0.00165931176332
0.00166093492392
0.00166251872534
0.00166430055613
0.00166631842859
0.00166857393311
0.00167106502072
0.00167379932882
0.00167687327852
0.00168083000941
0.00168814864736
0.00170772234554
0.00176321189133
0.00189756019897
0.00220394780416
0.0032698961372
0.00109852158359
0.00161014992697
0.00164612377572
0.00165587879362
0.00165898789267
0.00166078120856
0.00166252506401
0.00166448032326
0.00166669039403
0.00166915677822
0.00167187509834
0.00167484799472
0.00167815231408
0.00168223943487
0.00168921535506
0.00170679458321
0.00175611391763
0.00187672505285
0.00214837241182
0.00306596126166
0.00109759019
0.0016083822139
0.00164483286913
0.00165502330792
0.00165840641812
0.00166039451752
0.00166232067854
0.00166447241798
0.00166689989834
0.00166960454467
0.00167257905695
0.00167582090826
0.0016793892423
0.00168365388116
0.00169038187703
0.00170618341619
0.00174992170531
0.0018614578206
0.00217323130363
0.00326090889048
0.00109641650937
0.00160625587856
0.00164319352358
0.00165385255366
0.00165754144908
0.00165975076399
0.00166188392326
0.00166425835127
0.00166693221199
0.00166990630244
0.00167316962345
0.00167671391894
0.00168058215974
0.00168507237075
0.00169164917498
0.00170590145752
0.00174451358764
0.00184841952785
0.0022076494321
0.00336028681437
0.00109497931631
0.00160376317503
0.00164118959309
0.00165234305844
0.00165636760781
0.00165882566583
0.0016611930007
0.00166381979879
0.00166677316281
0.00167005253098
0.00167364172522
0.00167752544593
0.00168173056646
0.00168648984207
0.00169299554045
0.00170588460827
0.00173981752107
0.00183821907289
0.00225177252481
0.00341569772112
0.00109326129918
0.00160090568352
0.00163881284743
0.00165047618878
0.00165486182979
0.00165759594642
0.0016602267898
0.00166313947282
0.00166641049482
0.00167003676845
0.00167399459441
0.00167825924911
0.00168284093956
0.00168791065346
0.00169440513074
0.00170605705669
0.00173462635218
0.00181618013219
0.00213604441862
0.00314280312815
0.00109125054515
0.00159769665543
0.00163606632371
0.0016482417662
0.00165300610399
0.00165604155089
0.00165896654841
0.0016622025094
0.00166583596397
0.00166985862039
0.00167423529438
0.00167892758041
0.00168393049747
0.00168935518392
0.00169589257145
0.00170642105581
0.00173089051572
0.0018049082661
0.00213266943369
0.00326909936411
0.00108894544072
0.0015941678531
0.00163297078405
0.00164564234225
0.00165079272814
0.00165414822067
0.0016573972475
0.0016609998316
0.00166504892397
0.00166952805748
0.00167437996343
0.00167955308978
0.00168503167553
0.00169089002576
0.0016976767588
0.00170766964729
0.00173011760944
0.00180864552106
0.00231545792533
0.00337002107754
0.00108636182206
0.00159038164127
0.0016295728208
0.00164270361795
0.00164822603048
0.00165191287795
0.00165551215748
0.00165952488712
0.00166405944958
0.00166906732236
0.00167445960388
0.0016801689619
0.0016861786452
0.00169254905258
0.00169975441879
0.0017095871036
0.00173044244996
0.00180859438895
0.00233965180418
0.00341540947777
0.0010835374407
0.00158643800415
0.00162595508202
0.00163947446145
0.00164533398844
0.00164933801152
0.00165330930058
0.00165778793331
0.00166289271785
0.0016685147542
0.00167451286116
0.00168080462351
0.00168738506594
0.00169430043246
0.00170197587221
0.00171177322393
0.00173099532302
0.00180725380452
0.00237899625225
0.00348239045225
0.0010805416259
0.0015824892468
0.00162224889858
0.00163605226614
0.00164216996545
0.00164645095816
0.00165077178719
0.00165572123525
0.00166144828301
0.00166774010217
0.00167438975573
0.00168131721988
0.00168851826151
0.00169598251942
0.00170408257576
0.00171395592487
0.00173073743695
0.00178975982739
0.00220269247063
0.00333827121838
0.00107747360764
0.00157873013021
0.00161863173909
0.00163257559194
0.00163882100361
0.00164323195107
0.0016476399601
0.00165249249478
0.00165837190652
0.00166500852648
0.00167220206062
0.00167992281388
0.00168812952692
0.00169651755266
0.00170523600461
0.00171501694159
0.0017290960837
0.00177040303561
0.00200421416825
0.00294817564329
0.0010744626382
0.00157538296106
0.00161531937414
0.00162922382986
0.00163535965924
0.00163940673467
0.00164227788891
0.00164153894616
0.00164436506981
0.00164916643787
0.00165619486169
0.00166550830805
0.00167733728364
0.00168975342036
0.00170134358133
0.00171241655873
0.00172560499012
0.00176763274182
0.00207117964228
0.00326359264449
0.00107165505324
0.00157264678955
0.0016125309734
0.00162618767474
0.00163178017267
0.00163401386145
0.00162856247323
0.00159674082545
0.00116749081797
0.0011585757259
0.0011617463844
0.00117474680169
0.00161788074466
0.00165582326617
0.00168182566769
0.00170161482214
0.00172112878722
0.00178738274615
0.00238752323253
0.003484712612
0.00106923047445
0.00157069176119
0.00161049748046
0.00162367164876
0.0016279764356
0.00162618454943
0.0016063654569
0.00112067474913
0.00117748620002
0.00162853655295
0.00166329658581
0.00168953442505
0.00171410954787
0.00177051529928
0.00217284128905
0.00343989829915
0.0010675060112
0.00156948489094
0.00160940588883
0.00162243545818
0.00162621410639
0.00162251829323
0.0015963331641
0.00109585771634
0.0011160707164
0.00161090767352
0.00165031662363
0.00167838399434
0.00170534703575
0.00175192419882
0.00199403611055
0.00307450404285
0.00106750610046
0.00156948494861
0.00160940583001
0.00162243528292
0.00162621385656
0.00162251806258
0.00159633315245
0.00109585775437
0.00111607274383
0.00161091384012
0.00165032879075
0.00167839574993
0.0017053611162
0.0017519393733
0.00199406001387
0.00307452072876
0.00106923071938
0.00157069197478
0.00161049742571
0.00162367133171
0.001627975924
0.00162618404546
0.00160636519743
0.00112067491507
0.00117748850242
0.00162854395875
0.00166331736526
0.00168955270734
0.00171412971456
0.00177053634172
0.00217286117188
0.00343988142865
0.00107165524654
0.00157264691586
0.00161253072973
0.0016261870909
0.00163177936232
0.00163401304378
0.00162856197969
0.001596740989
0.0011674916015
0.00115857734116
0.00116174884562
0.00117475046784
0.00161788883808
0.00165583780254
0.0016818602723
0.00170164025411
0.00172115386077
0.00178740647732
0.00238752924907
0.00348469775887
0.00107446260959
0.00157538282822
0.00161531905961
0.00162922341433
0.00163535925793
0.0016394065013
0.00164227802338
0.00164153972764
0.00164436672008
0.00164916904653
0.00165619869087
0.00166551309346
0.0016773447445
0.00168976840347
0.00170138319965
0.00171244715694
0.00172563614749
0.00176765706177
0.00207117792409
0.00326357922857
0.00107747341298
0.00157872983919
0.00161863137732
0.00163257526472
0.00163882085556
0.00164323222388
0.00164764087253
0.00165249426246
0.00165837478928
0.00166501261643
0.00167220758346
0.0016799306777
0.00168814110132
0.00169653701961
0.00170528170396
0.00171505305908
0.00172913407073
0.0017704279905
0.0020041761607
0.00294816650527
0.00108054137422
0.00158248895025
0.00162224860514
0.00163605208134
0.00164216993119
0.00164645165654
0.0016507733794
0.00165572394563
0.00166145233559
0.00166774569943
0.0016743971579
0.0016813275313
0.00168853312627
0.0016960055302
0.00170413205673
0.00171399433994
0.00173077698528
0.00178978925117
0.00220266698804
0.00333827855734
0.00108353725008
0.00158643781667
0.00162595491149
0.00163947426
0.00164533222992
0.00164933878756
0.00165331133401
0.00165779140209
0.00166289779269
0.00166852165815
0.00167452191761
0.00168081698071
0.00168740205156
0.00169432523758
0.00170202586699
0.00171181075008
0.00173103231233
0.00180728178131
0.00237900296808
0.00348239053654
0.00108636135564
0.00159038095793
0.00162957251813
0.00164270280786
0.00164822580128
0.00165191182154
0.00165551361675
0.00165952868047
0.00166406518715
0.00166907497457
0.00167446953342
0.00168018247927
0.00168619659587
0.00169257428179
0.00169980275749
0.00170962219309
0.00173047570092
0.00180862429091
0.00233966874711
0.00341540861094
0.0010889459891
0.00159416906178
0.00163297203882
0.00164564433726
0.00165079432263
0.00165415068255
0.00165740060482
0.00166100274751
0.00166505453933
0.00166953506636
0.00167438889825
0.00167956632649
0.00168504905486
0.00169091405592
0.00169772170729
0.00170770140701
0.00173014773956
0.00180867376081
0.00231547234907
0.00337001991415
0.00109125196614
0.00159769942867
0.00163606937645
0.00164824499342
0.00165301000992
0.00165604583886
0.00165897152826
0.00166220847062
0.00166584359041
0.00166986787724
0.00167424575534
0.00167894221008
0.0016839490942
0.00168938012941
0.00169593735246
0.00170645401134
0.00173092294763
0.00180493894598
0.00213267252147
0.00326907255943
0.00109326359215
0.0016009099468
0.00163881735357
0.00165048097358
0.00165486701275
0.00165760175346
0.00166023342492
0.00166314713279
0.00166641974353
0.00167004720807
0.00167400658302
0.00167827479509
0.00168285989924
0.00168793573465
0.0016944487208
0.00170609034048
0.00173466084787
0.00181621235932
0.00213597556084
0.00314270824772
0.00109498260185
0.0016037691988
0.00164119589561
0.00165234960763
0.00165637454831
0.0016588331939
0.00166120134679
0.00166382929687
0.00166678509216
0.00167006398783
0.00167365437659
0.00167754174261
0.00168174969595
0.00168651470512
0.0016930375534
0.00170591698682
0.00173985162035
0.00183825013608
0.00225176138519
0.00341568371805
0.00109642058911
0.00160626324416
0.00164320121044
0.00165386050034
0.00165754978229
0.00165975965675
0.0016618935828
0.00166426943501
0.00166694631155
0.00166991911963
0.00167318352602
0.00167673288645
0.00168060187708
0.00168509756856
0.00169168969199
0.00170593273995
0.00174454697915
0.00184845237625
0.00220765250035
0.00336027752301
0.00109759479075
0.00160839047364
0.00164484147718
0.00165503217102
0.00165841563554
0.00166040422718
0.00166233107811
0.00166448413221
0.00166691522818
0.00166961808744
0.00167259408591
0.00167584188043
0.0016794102367
0.00168368185545
0.00169042154961
0.00170621376732
0.00174995435923
0.00186148895513
0.00217321193833
0.00326088946336
0.00109852604186
0.00161015773124
0.00164613192
0.00165588721112
0.00165899666697
0.0016607904352
0.00166253487429
0.00166449100294
0.00166670325748
0.00166917026857
0.00167189015401
0.00167486977111
0.00167817428808
0.00168226915304
0.00168925565641
0.00170682426566
0.0017561459771
0.00187675471107
0.0021483590937
0.00306592817319
0.00109923877997
0.00161158277843
0.00164709654441
0.00165645377611
0.00165932104175
0.00166094466569
0.00166252900591
0.0016643113916
0.00166632989111
0.00166858615795
0.00167107842378
0.00167381753981
0.00167689478046
0.00168085986223
0.00168818716893
0.00170775115591
0.00176324365766
0.00189759539393
0.00220397818078
0.00326994475675
0.00109975585282
0.00161268480658
0.00164775910217
0.0016567576286
0.00165941304963
0.00166088883426
0.00166233296655
0.00166396244274
0.00166581084207
0.00166788033595
0.00167017058367
0.00167269648818
0.00167557419456
0.00167945245602
0.00168721646085
0.0017089793088
0.00177095903346
0.00191806829633
0.00222501535184
0.00311845675829
0.00110009964894
0.00161348486416
0.00164814498805
0.00165682469015
0.00165929673587
0.00166064457008
0.0016619659842
0.00166346083014
0.00166515901248
0.00166706316857
0.00166917427916
0.00167151279543
0.00167421911287
0.00167805374234
0.00168634660823
0.00171051240939
0.00177932497772
0.00193997594035
0.00225612389457
0.0030103321511
0.00110029156621
0.00161400456307
0.00164827891547
0.0016566795115
0.00165899457061
0.00166023217948
0.00166144632633
0.00166282271911
0.00166438826108
0.00166614597132
0.00166809818187
0.00167027090047
0.00167283202813
0.00167666738145
0.00168558043949
0.00171234839612
0.00178825101641
0.00196273003691
0.00229047531489
0.00280799434295
0.00110035229891
0.00161426570868
0.00164818501351
0.00165634505404
0.00165852735086
0.00165967052879
0.00166079111463
0.00166206340446
0.00166351200173
0.00166513995746
0.00166695123103
0.0016689777435
0.00167141813436
0.00167529717129
0.00168492628635
0.001714484747
0.00179764982229
0.00198579729818
0.00233619701423
0.00289718528967
0.00110030298078
0.00161428604604
0.00164788382031
0.00165584193352
0.00165791409605
0.00165897702719
0.00166001638993
0.00166119718537
0.00166254292802
0.00166405646549
0.0016657428757
0.001667641033
0.00166998427902
0.00167395129756
0.00168439327158
0.00171689951042
0.00180742627404
0.00200894746379
0.00237674777466
0.00309518964636
0.0011001671825
0.00161408238389
0.00164739544186
0.00165518931945
0.00165717216728
0.00165816752677
0.00165913659085
0.00166023755201
0.00166149287297
0.00166290575755
0.0016644827611
0.00166627022711
0.00166854298016
0.00167266236
0.00168409917864
0.00171998845024
0.00181827856663
0.00203209981907
0.00241268409539
0.0031101756491
0.00109997669284
0.00161365896357
0.00164673452633
0.00165440158899
0.00165631689546
0.00165725683783
0.00165816562069
0.00165919755103
0.00166037394326
0.00166169786116
0.00166317769301
0.00166486839318
0.00166708997454
0.00167138468018
0.00168380147802
0.0017227907265
0.00182823647076
0.00205326411155
0.00244487022773
0.00312195021824
0.00109972174893
0.00161303913905
0.00164592748019
0.00165350094342
0.00165536407203
0.00165625772398
0.00165711463696
0.00165808641925
0.00165919387419
0.0016604402814
0.00166183502802
0.0016634415277
0.00166562101037
0.00167008100058
0.001683389116
0.00172518337474
0.00183699283165
0.00207194129569
0.00247271620457
0.00313275319152
0.00109934111052
0.00161229458589
0.00164501752056
0.00165250926992
0.00165432743695
0.0016551815806
0.00165599415133
0.00165691431472
0.00165796233356
0.00165914146586
0.00166046213088
0.00166199522146
0.00166413884042
0.00166874676194
0.00168284266341
0.00172709994216
0.00184443405928
0.00208793816112
0.00249617365343
0.00314224247532
0.0010988453354
0.00161144217616
0.00164401841274
0.00165143861648
0.00165321837521
0.00165403923418
0.0016548144165
0.00165569083866
0.00165668819485
0.00165780959032
0.00165906629011
0.00166053557564
0.00166264723627
0.00166737986843
0.00168214558475
0.00172850166698
0.00185053913635
0.00210132366157
0.00251566609692
0.00315038288953
0.00109824605902
0.00161049417945
0.00164294121048
0.00165029917925
0.00165204665922
0.00165284008437
0.00165358437373
0.00165442435117
0.00165537909744
0.00165645147688
0.00165765336353
0.0016590672617
0.00166114903105
0.00166597981524
0.00168129219707
0.00172938345585
0.00185535994444
0.00211231111879
0.0025317455835
0.00315726409605
0.0010975559726
0.00160946510674
0.00164179929703
0.00164910360636
0.00165082451709
0.0016515960524
0.00165231568679
0.00165312630369
0.00165404633739
0.00165507831188
0.00165623443426
0.0016576011723
0.00165965469937
0.00166455662304
0.00168029488873
0.00172977522086
0.0018589911789
0.00212114966782
0.00254483809526
0.00316301991744
0.00109678497686
0.0016083645318
0.00164060098025
0.00164785959109
0.00164955930353
0.0016503141909
0.00165101504316
0.00165180292655
0.00165269559187
0.00165369513152
0.00165481381726
0.00165614084363
0.00165816710958
0.00166311359167
0.00167916207451
0.00172970425824
0.00186151216032
0.00212803578056
0.00255548176925
0.00316783311839
0.00109594270364
0.00160720220932
0.00163935481483
0.00164657516045
0.00164825878015
0.00164900205705
0.00164968976487
0.00165046125277
0.001651333549
0.00165230822746
0.00165339736907
0.00165469171717
0.00165669163233
0.00166165787012
0.00167790896548
0.001729209173
0.00186301221601
0.00213315982003
0.0025638888177
0.00317179372879
0.00109503798119
0.00160598701935
0.00163806855029
0.00164525767164
0.00164693006029
0.00164766662377
0.00164834666385
0.00164910788487
0.0016499665504
0.00165092363486
0.00165199079697
0.00165325928694
0.0016552340264
0.00166019835063
0.00167655728786
0.00172834918817
0.00186362259213
0.00213669995957
0.00257031761454
0.00317499769145
0.00109407886444
0.00160472703124
0.00163674920778
0.00164391433453
0.00164557991933
0.00164631459883
0.00164699235846
0.00164774930437
0.00164860088273
0.00164954739031
0.00165059999359
0.00165184958058
0.00165380043959
0.00165874469678
0.00167513030039
0.001727185993
0.00186349701562
0.00213901932811
0.00257533513709
0.00317760716807
0.00109307268106
0.00160342994431
0.00163540362311
0.00164254982396
0.00164421362974
0.00164495129246
0.0016456321452
0.00164639072338
0.0016472415852
0.00164818442258
0.00164922981086
0.00165046692459
0.0016523962868
0.00165730581918
0.00167365060074
0.00172577653012
0.0018627426509
0.0021402231285
0.00257897567932
0.0031796569628
0.00109202614316
0.00160210139848
0.00163403545756
0.00164116935531
0.00164283599913
0.00164358148591
0.00164427074402
0.0016450367289
0.00164589309672
0.00164683867329
0.00164788356389
0.00164911510352
0.00165102559417
0.00165588950119
0.0016721395234
0.00172417644951
0.00186147314711
0.00214048040804
0.00258143814062
0.00318123037922
0.00109094474959
0.00160074660298
0.00163265032581
0.00163977542525
0.00164145085343
0.00164220908701
0.00164291202525
0.00164369103907
0.00164455869909
0.00164551298163
0.00164656256845
0.00164779377354
0.00164969014515
0.0016545016761
0.00167061605554
0.00172243893416
0.00185980526405
0.00214000190334
0.00258303973185
0.00318244976622
0.00108983393958
0.0015993692685
0.0016312524001
0.00163837733607
0.00164006577665
0.00164084203596
0.0016415643928
0.00164236252698
0.00164324781636
0.00164421718558
0.00164527836645
0.00164651271619
0.00164839932875
0.00165315665826
0.00166910474289
0.00172061446292
0.0018578374322
0.00213893098421
0.00258388284154
0.00318333407475
0.00108869877621
0.00159797687588
0.00162984739408
0.00163697717847
0.00163868385284
0.00163948366169
0.00164023129074
0.00164105461333
0.0016419637379
0.00164295460518
0.00164403315352
0.00164527892721
0.00164715703373
0.00165185958696
0.00166762131632
0.00171874624331
0.00185565864716
0.00213738641618
0.0025840429021
0.00318388503571
0.00108754350816
0.00159657247775