/*--------------------------------*- C++ -*----------------------------------*\
| =========                 |                                                 |
| \\      /  F ield         | OpenFOAM: The Open Source CFD Toolbox           |
|  \\    /   O peration     | Version:  v2012                                 |
|   \\  /    A nd           | Website:  www.openfoam.com                      |
|    \\/     M anipulation  |                                                 |
\*---------------------------------------------------------------------------*/
FoamFile
{
    version     2.0;
    format      ascii;
    class       surfaceVectorField;
    location    "0.9";
    object      Uf;
}
// * * * * * * * * * * * * * * * * * * * * * * * * * * * * * * * * * * * * * //

dimensions      [0 1 -1 0 0 0 0];


internalField   nonuniform List<vector> 
3840
(
(0.00450072011542 -0.00726201403717 4.82808626043e-22)
(0.00726200409547 -0.00448692888452 1.15000500333e-22)
(0.00488726181913 -0.0152735106152 3.18850102012e-22)
(0.00801148810802 -0.011342094462 6.15374700654e-22)
(0.00490003381971 -0.0233517269654 -1.35084311998e-22)
(0.00807821269857 -0.0195811571427 -9.16918551811e-23)
(0.00487670709609 -0.0314021071323 -1.66023961001e-22)
(0.00805038358733 -0.0277360306336 -2.18229354484e-22)
(0.00487837636546 -0.0394693147007 -2.1877505155e-22)
(0.00806721862827 -0.0358547269416 -1.13673133082e-21)
(0.00489853848651 -0.047589078893 -2.79303151927e-22)
(0.00811978501914 -0.0440237973382 -5.31302688599e-22)
(0.00493049507816 -0.0557840647845 2.63313513219e-22)
(0.00819501578075 -0.052266007543 -8.37345832612e-22)
(0.00497090222839 -0.0640705823201 8.3522351928e-22)
(0.00828654838053 -0.0605949367091 2.34226434666e-22)
(0.00501785760843 -0.0724616354806 1.08861393514e-21)
(0.00839109358861 -0.0690231280998 7.41859720808e-22)
(0.00506994050624 -0.0809681137051 6.91770379421e-22)
(0.00850648534069 -0.0775612477128 1.08109134383e-22)
(0.00512592943219 -0.0895990593517 1.11925168975e-22)
(0.00863093565812 -0.0862179364196 -1.89089611816e-22)
(0.005183258172 -0.0983626343809 1.33795846941e-22)
(0.00876354781966 -0.0950069949829 -1.67191408952e-22)
(0.0052227783875 -0.10726538268 2.10245290852e-22)
(0.00890270610939 -0.103939201203 -2.28429123984e-22)
(0.00516868172168 -0.116285132344 2.13098518949e-22)
(0.00901969657635 -0.112941176113 2.81410041924e-22)
(0.00490654516657 -0.125310495366 8.83155435117e-23)
(0.00902530696584 -0.121988385768 8.75160631512e-23)
(0.00454052595261 -0.134245167459 2.65115898294e-22)
(0.00893462158657 -0.131732260958 -1.49583257911e-22)
(0.00524583761206 -0.143302428081 -1.41102850195e-21)
(0.00905722758752 -0.142117133101 8.39234918823e-22)
(0.0154334253758 -0.152529284506 -1.16323049315e-20)
(0.00922684564707 -0.148866255739 -2.1802594977e-22)
(0.0645689287339 -0.168804187037 -2.20395850375e-20)
(0.0162748894323 -0.149478358096 -1.42232035294e-20)
(0.0343502146785 -0.182484837458 -1.64507718852e-20)
(0.0113784580748 -0.00798735431402 2.47566574945e-22)
(0.0152493487867 -0.00487650185591 1.56930031757e-22)
(0.0118256752278 -0.0159561133684 2.04832743461e-22)
(0.0159802402265 -0.0117340316798 1.48469435448e-21)
(0.0118824361299 -0.0240053148844 -1.74836897667e-22)
(0.0161274130846 -0.0199095798348 1.60101383698e-22)
(0.0119119717994 -0.0321396812656 -1.18893672431e-21)
(0.0161847564638 -0.0280934278898 -2.06568726425e-22)
(0.0119856379692 -0.0403451482162 -1.44925896787e-21)
(0.0162726997411 -0.0362624033489 -1.1626448451e-21)
(0.0120952041039 -0.0486247021707 -1.08934536928e-21)
(0.0163993610231 -0.0445008944004 -4.75663573939e-22)
(0.0122306609069 -0.0569879901798 -8.66432911165e-22)
(0.016558331137 -0.0528221057681 -7.40540768888e-22)
(0.012386510042 -0.0654460402928 1.40862636194e-22)
(0.0167446275213 -0.0612344447615 -1.4450426149e-22)
(0.0125593773332 -0.0740094299443 -2.38645079951e-22)
(0.0169545120943 -0.0697482778044 4.35081243081e-22)
(0.0127466757181 -0.082687715881 -7.72750856854e-22)
(0.017184767883 -0.0783733038051 -7.10354705323e-22)
(0.0129463726841 -0.0914890559222 -4.68206189743e-22)
(0.0174322558081 -0.0871172533778 -1.95334423355e-22)
(0.0131565727679 -0.100419500826 -5.29416379876e-22)
(0.0176939557493 -0.0959933104603 -2.55476222402e-22)
(0.0133677390629 -0.109482572619 -1.57264372913e-22)
(0.0179657265842 -0.105016960924 -2.16581095005e-22)
(0.0135537420309 -0.118698642966 1.55827586126e-22)
(0.0182357083768 -0.114115110778 3.46876610777e-22)
(0.0137230424862 -0.128164500012 -1.50382738272e-22)
(0.0184911060919 -0.123223670633 8.19370931963e-23)
(0.0139045538023 -0.137981921083 4.24535762618e-22)
(0.0187519949632 -0.133127992626 -7.06750124094e-22)
(0.0137231688009 -0.147917335831 2.032237471e-21)
(0.0189926128423 -0.144421049589 5.55646469652e-22)
(0.01273303005 -0.158111256526 -2.80892454772e-21)
(0.0194207561984 -0.15152850531 -1.3390880177e-21)
(0.00625920291719 -0.163211328949 -8.63439037718e-21)
(0.0213750316316 -0.150922438123 -7.01895078394e-21)
(0.0290032776399 -0.169012977817 -7.57280922474e-21)
(0.0195216361416 -0.00802047287543 1.3940578113e-21)
(0.023269813003 -0.00487387316757 3.93583600398e-22)
(0.0199384926819 -0.016013328355 1.43996299472e-21)
(0.0239730903614 -0.0116929804584 1.96536768648e-21)
(0.0200683345172 -0.0240528904538 1.28369554939e-22)
(0.0241669759939 -0.0198768405449 2.7700406309e-22)
(0.0201782941102 -0.0321714739538 -1.8027684722e-22)
(0.0243033483389 -0.0280468551904 -1.78116712095e-23)
(0.0203222474101 -0.0403662866559 -1.89049451168e-22)
(0.024467527952 -0.0361924530126 -1.57693389774e-22)
(0.0205042290914 -0.048640221821 -1.26858973544e-22)
(0.0246733173147 -0.044408831268 3.37533141582e-23)
(0.0207207110621 -0.057001580045 -1.86121192132e-23)
(0.0249197135631 -0.0527109849442 -5.3859856849e-24)
(0.0209679340684 -0.0654604106169 1.49714345397e-22)
(0.0252034724884 -0.0611073428863 4.39726621758e-23)
(0.021242285584 -0.0740268742974 -3.66283822914e-23)
(0.0255209951313 -0.0696081911126 4.35007639488e-23)
(0.021540090785 -0.0827103870328 -1.32938271824e-22)
(0.0258682613319 -0.0782232312199 -3.73971089424e-23)
(0.0218576511897 -0.0915190608456 1.73955439855e-23)
(0.026240898454 -0.0869602278143 -4.37750120154e-23)
(0.0221909700033 -0.100459648186 5.73590624686e-23)
(0.0266344973196 -0.0958327668255 6.31876672786e-23)
(0.0225333418003 -0.1095375918 2.87559888685e-22)
(0.0270436139713 -0.104858353096 5.22855924123e-24)
(0.0228771550971 -0.118761572962 2.72986117848e-22)
(0.0274596293847 -0.113962681246 3.18091536532e-22)
(0.0232344336923 -0.128147007479 -4.74430292626e-22)
(0.0278764858415 -0.123058218272 6.23526284469e-23)
(0.0236497638459 -0.137677040404 -5.7563941706e-22)
(0.0282819854061 -0.132858774734 -2.87125072138e-22)
(0.0241725183836 -0.147291070496 -2.81567901905e-21)
(0.0286066188239 -0.143828952772 -1.45913089267e-22)
(0.025693914799 -0.156703995335 -5.54911425392e-21)
(0.028833674193 -0.150549277828 -3.0540959046e-21)
(0.03049015112 -0.165094388012 -5.9573696315e-21)
(0.0297654095525 -0.150461201443 -3.2930524838e-21)
(0.0296450921587 -0.172003796716 -3.81394111303e-21)
(0.0276099681941 -0.00791072012848 9.64893475579e-22)
(0.0311805259904 -0.0048078050521 4.99387967199e-23)
(0.0280799172296 -0.0159049802242 8.02408754848e-22)
(0.0319673469374 -0.0115636366089 1.90264412824e-21)
(0.028268946906 -0.02393574462 1.30822836941e-22)
(0.0321977430362 -0.0197392319876 3.74167396209e-22)
(0.0284520333976 -0.0320251211939 4.77178623585e-24)
(0.032392734753 -0.027877739984 3.96754969822e-23)
(0.0286739619087 -0.0401842402285 6.51093755522e-23)
(0.032626663052 -0.0359818020109 -2.9327087516e-24)
(0.0289414021873 -0.0484227434057 1.55226302017e-22)
(0.032911839631 -0.0441548141272 8.486280479e-23)
(0.0292529258474 -0.056751201562 5.71987957041e-23)
(0.0332481879607 -0.0524153869052 9.86843223308e-23)
(0.0296052237392 -0.0651805308271 -6.22409192724e-23)
(0.0336328131032 -0.0607734045376 -3.0170137054e-23)
(0.0299942291211 -0.0737211302065 4.27320372978e-23)
(0.0340615844514 -0.0692399004754 -3.90675500245e-23)
(0.0304153193773 -0.0823826547048 5.17661508664e-23)
(0.0345297603371 -0.0778250205482 9.06632517133e-23)
(0.0308635092192 -0.0911737004357 2.01711127771e-24)
(0.0350318975018 -0.0865368394326 -2.89423871413e-23)
(0.03133335513 -0.100101398748 1.10571640512e-23)
(0.0355621423355 -0.0953894081751 3.19315304943e-23)
(0.0318174235407 -0.109171908221 3.57602070882e-23)
(0.0361140644053 -0.104400879408 -9.34627144345e-24)
(0.032306507968 -0.118390079413 1.07458047131e-22)
(0.0366777430421 -0.11349439478 1.27973168133e-22)
(0.0327820696599 -0.12775434752 2.49657848935e-22)
(0.0372407050462 -0.122576551611 7.47072673826e-23)
(0.0331723327932 -0.137236475488 1.42601255655e-22)
(0.0377640791878 -0.132356660979 2.52185126163e-22)
(0.0334068427383 -0.146732368417 -3.84329974811e-22)
(0.0381024941741 -0.143257278942 -3.38730889751e-23)
(0.033692543728 -0.156094458917 -7.98034134482e-22)
(0.0381957603053 -0.149923793273 -1.20594059778e-21)
(0.031082950928 -0.164611929597 -1.14962396533e-21)
(0.0382828990633 -0.15014574384 -4.10445319467e-21)
(0.0310387474204 -0.17274313183 -4.8275501694e-21)
(0.0355305704346 -0.00780798660079 9.87689449376e-22)
(0.0389885073733 -0.00474873619478 -3.81074103763e-22)
(0.0360792885591 -0.0157584471587 1.4744027696e-21)
(0.0399178060322 -0.0114277370563 2.12902266532e-21)
(0.0363148052489 -0.0237503601604 2.8302005625e-22)
(0.040189660547 -0.0195571026845 4.67377325434e-22)
(0.0365587253041 -0.0317930700011 3.19710019947e-23)
(0.0404354557074 -0.027640930782 5.47866823728e-23)
(0.036854523475 -0.0399018117935 1.68207204863e-23)
(0.0407354210573 -0.0356872140344 1.11991703071e-23)
(0.0372077749436 -0.0480903375659 2.83208251037e-23)
(0.0411003831064 -0.0438024218309 1.18416918013e-23)
(0.0376167300042 -0.056371503954 1.13153895728e-23)
(0.0415293680098 -0.0520075472249 1.82667538781e-23)
(0.0380775786874 -0.0647574521565 -6.99676780606e-24)
(0.042018759656 -0.0603139645104 -4.91701612685e-24)
(0.0385854343905 -0.0732595097093 8.86366439102e-24)
(0.0425636155669 -0.0687337803291 -5.91688218083e-24)
(0.0391346229759 -0.0818877876052 9.95471370568e-24)
(0.0431579782462 -0.0772779438304 1.12929733051e-23)
(0.0397188640699 -0.0906511073143 9.72032075315e-25)
(0.0437951439847 -0.0859550468402 -1.46847542423e-24)
(0.0403311925806 -0.0995568367618 1.15280949997e-23)
(0.0444678133323 -0.0947795962047 -1.28203944179e-24)
(0.0409621609237 -0.108610222247 8.28666896016e-23)
(0.0451673914545 -0.10377020793 2.27121290158e-23)
(0.0415979756113 -0.11781308519 9.52223883849e-23)
(0.0458805533377 -0.112847129324 1.4938095542e-22)
(0.0422029175584 -0.127159699473 7.72345446105e-23)
(0.0465872790243 -0.121911484152 3.22613123401e-23)
(0.042653677213 -0.13661507823 7.57107815329e-23)
(0.0472194330355 -0.131681258252 9.4295607877e-23)
(0.0428248250155 -0.14607450019 -8.55483711941e-22)
(0.0475619052608 -0.142574512443 6.25573835252e-23)
(0.0427222192659 -0.155445046125 -4.51235965796e-21)
(0.0475663039912 -0.149280060787 -1.87536937441e-21)
(0.0378299651009 -0.164342681558 -7.78237939873e-21)
(0.0471805504446 -0.149640289717 -8.50436658388e-21)
(0.0379139735356 -0.174872060339 -8.95966177998e-21)
(0.0433646747501 -0.00771207832391 7.60259112177e-22)
(0.0467005825973 -0.00469390798299 -1.54549309158e-22)
(0.0440116811749 -0.0155908602062 1.12199722115e-21)
(0.0477965886232 -0.0112834413613 1.14075747985e-21)
(0.0442940689651 -0.0235172227381 2.39143951557e-22)
(0.048116029453 -0.0193386875546 2.20571170573e-22)
(0.0445957092089 -0.0314941312845 3.40148506852e-23)
(0.0484123765306 -0.0273466767277 3.22038204844e-23)
(0.0449645671619 -0.039537257252 6.22014162222e-24)
(0.0487785631829 -0.0353182885211 2.17830550838e-24)
(0.0454051725612 -0.0476621663721 1.78762057578e-24)
(0.04922530831 -0.0433609110626 5.53889571235e-25)
(0.0459147219133 -0.0558833012983 2.03434817852e-24)
(0.0497505135219 -0.0514969901574 8.07552178778e-25)
(0.046488445422 -0.0642140676026 -3.83713050162e-24)
(0.0503495178626 -0.0597391979098 -3.75275595029e-24)
(0.0471203458841 -0.0726667806464 -3.48757326676e-24)
(0.0510162932467 -0.0681008069997 -7.58779756839e-25)
(0.0478034283885 -0.0812524756112 -1.30215824813e-25)
(0.0517436163252 -0.0765938253816 -4.98618445395e-24)
(0.0485298730161 -0.0899806194907 -3.72254694133e-24)
(0.0525232024741 -0.085227730171 1.72467028658e-24)
(0.0492906447397 -0.0988587535374 9.90199457437e-24)
(0.0533458875223 -0.0940178274053 -3.91459308198e-24)
(0.0500731148464 -0.10789179824 8.9226394834e-23)
(0.054200380573 -0.102983599902 2.75528180877e-23)
(0.0508577022767 -0.117080411085 8.64198793749e-23)
(0.0550691204239 -0.112043743468 1.42027708526e-22)
(0.0515910534076 -0.126417742651 4.93223756066e-23)
(0.0559245792116 -0.121097622732 -9.24928093266e-23)
(0.0521095931246 -0.135869455639 8.11422098693e-23)
(0.0566711297206 -0.130876294965 -4.95022954319e-22)
(0.0522710185588 -0.145351478519 -9.57328278939e-22)
(0.0570439228632 -0.141791112606 1.05895525648e-21)
(0.0520189115787 -0.154792823462 -5.86737630032e-21)
(0.0570076483253 -0.148579044359 5.21666506414e-22)
(0.0477886806184 -0.164092685276 -9.68164896513e-21)
(0.0564804417518 -0.149164157609 -8.23158424673e-21)
(0.050162540593 -0.174932874618 -7.873226642e-21)
(0.0511142351857 -0.00760995574892 2.2594905852e-22)
(0.0543105374224 -0.00463619446584 -4.93475755346e-23)
(0.051871440706 -0.0153972713616 2.39331429273e-22)
(0.0555839071772 -0.0111214542076 1.33583321629e-21)
(0.052204514925 -0.0232370091494 1.36310395001e-23)
(0.0559557755109 -0.0190815885432 2.09363327199e-22)
(0.0525654119309 -0.0311297190739 3.67275307536e-25)
(0.0563050999321 -0.0269944774109 2.58887636322e-23)
(0.0530094389393 -0.0390911076656 -3.48794654261e-24)
(0.0567399680669 -0.0348741274236 -3.71658317253e-24)
(0.0535408202725 -0.0471377744324 -4.26178825767e-25)
(0.0572719899249 -0.0428283758304 3.81159733442e-25)
(0.0541556843034 -0.0552854099144 -4.97955195003e-24)
(0.0578981569801 -0.0508808044211 -2.448233154e-24)
(0.0548481604888 -0.0635486610341 -6.74405205508e-25)
(0.0586127573055 -0.0590453202925 -8.28035541896e-24)
(0.0556110273995 -0.0719410301252 -2.25739094404e-24)
(0.0594086228714 -0.0673364729864 5.56121832425e-24)
(0.0564358144915 -0.0804746617271 -3.13129834256e-24)
(0.0602771877377 -0.0757675400613 -5.42494361053e-24)
(0.0573129247174 -0.0891600730122 1.53262414593e-24)
(0.0612085240508 -0.0843492378499 1.29763514967e-24)
(0.0582309456866 -0.0980057160238 1.37362304313e-23)
(0.0621914723648 -0.0930981970235 -7.68501896747e-24)
(0.0591737297769 -0.107017272402 8.03541317796e-23)
(0.0632118861948 -0.102035307555 3.55731130991e-23)
(0.0601160322244 -0.116196357694 -3.68849801756e-23)
(0.0642481670515 -0.111079251538 1.76227192201e-22)
(0.0609877414687 -0.125538156779 -6.36838139253e-22)
(0.0652663548005 -0.120131640213 -2.82887865199e-22)
(0.0615924076814 -0.135012925199 4.8279009229e-22)
(0.0661458885028 -0.129935649767 -1.39415379725e-21)
(0.0617847678369 -0.144557574429 2.53795004183e-21)
(0.0665885706511 -0.140889547167 1.50792202635e-22)
(0.0614313427977 -0.154150770073 -1.84254144e-21)
(0.0666008440527 -0.14778857187 -2.68270744116e-21)
(0.0594006260114 -0.163452336686 -6.4231619236e-21)
(0.0657820587344 -0.148663933511 -1.10924348634e-20)
(0.0628455389581 -0.173546847529 -1.01980403949e-20)
(0.0587601846526 -0.00749520689196 1.06053658223e-21)
(0.0618057456631 -0.00457180221679 3.22430047139e-23)
(0.0596336875708 -0.0151729321944 1.30586511421e-21)
(0.0632616378332 -0.0109363853859 1.71181738045e-21)
(0.0600211982797 -0.0229069756859 2.21621051331e-22)
(0.0636898293869 -0.0187824457296 3.18611012431e-22)
(0.0604444998863 -0.0306973525088 2.18049051521e-23)
(0.0640954917177 -0.0265814003315 1.26826678657e-24)
(0.0609673540737 -0.038560121149 1.52523103515e-25)
(0.0646027536581 -0.0343512482979 6.36144832062e-25)
(0.0615942187301 -0.0465128184872 -1.64089459479e-24)
(0.0652247018408 -0.0422003107682 4.64044194012e-24)
(0.0623203306948 -0.054572332703 -5.74903662292e-24)
(0.0659576780513 -0.0501532940424 -8.4216843548e-24)
(0.0631387556975 -0.0627546207885 -2.04473188921e-24)
(0.0667950328637 -0.0582253971696 -2.86839484269e-24)
(0.0640410490389 -0.07107455095 2.39366565775e-24)
(0.0677285132879 -0.0664325968659 1.82033731268e-24)
(0.0650172623445 -0.0795456751611 -9.96010118305e-25)
(0.0687482538922 -0.0747896813727 -1.97979768886e-24)
(0.0660559940057 -0.0881799789008 -7.92000796373e-24)
(0.0698427401674 -0.0833089683308 2.51108948666e-24)
(0.0671434441165 -0.0969874397731 1.41518637003e-23)
(0.0709988791225 -0.0920088899796 -1.07863552656e-23)
(0.0682601115941 -0.1059754053 1.3144617352e-22)
(0.0721998064115 -0.100912170359 2.8800539764e-23)
(0.0693758364806 -0.115147434179 -6.97756928228e-23)
(0.073420163471 -0.109938723676 1.32607318757e-22)
(0.0704063759335 -0.124501645964 -1.04020352319e-21)
(0.0746205488498 -0.118995316453 -1.5672115049e-22)
(0.0711272423918 -0.134016383177 -1.7261516869e-21)
(0.0756606202211 -0.128834064403 -7.07551320466e-22)
(0.0713818735978 -0.143636263431 -5.06986528036e-21)
(0.0762084514117 -0.13983473153 -1.20904653011e-21)
(0.0709002194774 -0.153293334934 -1.19326008646e-20)
(0.0762579164141 -0.146873352553 -5.14214465106e-21)
(0.0692013811182 -0.162623638686 -1.48673133347e-20)
(0.0751123695139 -0.148057671272 -9.32877957189e-21)
(0.0720307657158 -0.173550758498 -8.67797248042e-21)
(0.0662852576849 -0.00736444841176 6.83523802931e-22)
(0.0691701980406 -0.00449860601648 5.9707699875e-23)
(0.0672786611554 -0.0149142356149 7.24563278669e-22)
(0.0708114332868 -0.0107248343648 1.76861158146e-21)
(0.0677241626192 -0.0225237139799 9.8258227887e-23)
(0.0712993208122 -0.0184378797387 3.55556235451e-22)
(0.0682137221517 -0.0301932637684 -1.99004935335e-23)
(0.0717650586094 -0.0261036677537 -2.54599440752e-24)
(0.0688200190627 -0.0379396674218 5.12406366867e-24)
(0.0723491757714 -0.033745077645 2.55696434466e-25)
(0.0695480839049 -0.0457815241989 -2.14034781989e-24)
(0.0730665741493 -0.0414710385031 4.57935965933e-24)
(0.0703924592143 -0.0537370108583 -5.54104257457e-24)
(0.0739131722561 -0.0493074874503 -8.88258576467e-24)
(0.071345267526 -0.0618235294109 9.96674359195e-25)
(0.0748815403204 -0.05727103945 3.26266392336e-24)
(0.0723969317404 -0.0700575192309 -2.55312603393e-24)
(0.0759624678618 -0.0653792768431 1.42390006858e-24)
(0.0735361274946 -0.078454235883 1.52730191611e-24)
(0.0771449177397 -0.0736487438223 -3.25521736751e-24)
(0.0747497734319 -0.0870275189025 -3.55257815169e-25)
(0.0784159440809 -0.082093698204 3.30659288341e-24)
(0.0760218570117 -0.0957893919824 3.86232079813e-24)
(0.0797607039563 -0.0907347770625 -8.08251614342e-24)
(0.0773298456285 -0.104749510828 2.99616850007e-23)
(0.0811598855039 -0.0995968442718 1.84452143215e-23)
(0.0786394848804 -0.113914276768 4.566186109e-23)
(0.0825849017507 -0.108602019159 8.46723511533e-23)
(0.0798549715308 -0.123286011262 1.75931052237e-22)
(0.0839922690262 -0.117664268259 3.50461385503e-23)
(0.0807267866136 -0.132849861978 -1.90446163676e-22)
(0.0852244671422 -0.127541506368 1.61295905691e-22)
(0.0810843962296 -0.142560528828 -1.28132590082e-21)
(0.0859191190992 -0.138585231257 -5.09456111562e-22)
(0.080522008031 -0.152383819062 -2.53832335837e-21)
(0.0860812071898 -0.145775978648 -2.21398388216e-21)
(0.0777673795427 -0.162094282894 -3.1394387176e-21)
(0.0848228526437 -0.147384953221 -7.47730613329e-21)
(0.0801710240449 -0.172908401119 -7.18494284355e-21)
(0.0736718761098 -0.00721542641338 1.1447954784e-21)
(0.0763856317667 -0.00441519641834 -2.6376845185e-22)
(0.0747878793619 -0.014618057313 1.39960453824e-21)
(0.0782140762055 -0.0104842136675 9.42833323141e-22)
(0.0752948896249 -0.0220835130619 2.54752013156e-22)
(0.0787647932499 -0.018044529539 1.74159055373e-22)
(0.0758549799119 -0.0296129676724 1.76101955604e-23)
(0.0792945335083 -0.0255570500544 -6.07655959299e-23)
(0.076550004287 -0.037224219272 -2.89007574869e-25)
(0.0799604485139 -0.0330503450445 -6.94192731877e-24)
(0.0773858008641 -0.0449371033691 -2.16287828545e-24)
(0.0807794761672 -0.0406340371477 -4.93969500822e-24)
(0.0783564076308 -0.0527712267018 -7.88792667455e-26)
(0.0817473054676 -0.0483354279684 -7.34949575552e-25)
(0.07945316684 -0.060745600526 3.68988963274e-24)
(0.0828559072901 -0.0561726930267 9.92669153501e-25)
(0.0806655264096 -0.0688784500781 7.21808734996e-25)
(0.0840952880245 -0.0641652021352 -1.00848392376e-25)
(0.0819809611076 -0.0771870044422 -1.4759264002e-24)
(0.0854534293169 -0.072331488456 -4.5186031719e-24)
(0.083384919223 -0.085687297887 -4.42066544483e-24)
(0.0869161697893 -0.0806880566195 5.72034244593e-25)
(0.0848594339151 -0.094393812804 6.50037737995e-24)
(0.0884671771149 -0.0892580897139 -1.08467170586e-23)
(0.0863792945801 -0.103318949186 7.31558804741e-23)
(0.0900849869302 -0.0980688194659 1.87590575001e-23)
(0.0879068404419 -0.112472155501 7.40566286136e-23)
(0.0917380834127 -0.107045478185 9.01524642221e-23)
(0.0893365372338 -0.121859322592 2.04109920038e-23)
(0.0933794229027 -0.116110843918 1.08518631846e-22)
(0.0903975497893 -0.131471356156 -1.57714042195e-22)
(0.094836496428 -0.126022977816 2.64304092763e-22)
(0.0909023982109 -0.141274310698 -1.4421140929e-21)
(0.09572207338 -0.137103370062 -1.25351639477e-21)
(0.0902858049166 -0.151215082548 -7.15296665707e-21)
(0.0960219790906 -0.144469589288 -4.574008996e-21)
(0.0869750969699 -0.160783169533 -1.15228102592e-20)
(0.0943909418379 -0.146577408339 -8.50967363545e-21)
(0.0885292879579 -0.171034704969 -8.09682602399e-21)
(0.0809007056088 -0.00704644185294 -4.65730607108e-22)
(0.0834320853563 -0.00432048831987 -6.65541871653e-22)
(0.0821416373799 -0.0142815348435 -2.82612159724e-22)
(0.0854491861225 -0.0102123298996 2.69721580251e-22)
(0.0827136846299 -0.0215825055961 -1.41358553714e-22)
(0.0860657855151 -0.0175990607211 -3.53421069358e-23)
(0.0833488482608 -0.028951523462 -8.53177188091e-23)
(0.0866635761043 -0.0249370506945 -1.27941525425e-22)
(0.0841383590469 -0.0364075965514 -1.15926147521e-23)
(0.0874165467715 -0.0322613056281 -1.45292832623e-23)
(0.0850890527589 -0.0439719568852 -3.51176629832e-24)
(0.0883438581057 -0.0396821504559 -5.61289078204e-24)
(0.08619464854 -0.0516657869449 3.36598844695e-25)
(0.0894411493108 -0.0472283671698 -8.47810778265e-24)
(0.087445900322 -0.0595098663636 -2.79806887161e-24)
(0.0906999847916 -0.0549198270104 -3.98075094383e-24)
(0.0888314866508 -0.0675244026354 -5.34126029927e-24)
(0.0921098047667 -0.0627778530169 -1.23220383012e-23)
(0.090337913033 -0.0757288520167 -2.47064252711e-24)
(0.0936578447056 -0.07082317617 -9.23148265361e-24)
(0.0919494250594 -0.0841417421776 -5.85401736914e-24)
(0.095329007461 -0.0790748205203 3.15797555773e-24)
(0.0936464023092 -0.0927803799462 1.41196306155e-24)
(0.0971057795116 -0.0875588122356 -1.89180279363e-23)
(0.0954012838417 -0.101660306528 3.57556412481e-23)
(0.0989648821468 -0.0963049597225 1.48303789221e-23)
(0.0971736102835 -0.110794514848 1.24614467454e-22)
(0.100872267993 -0.105242391373 7.94743431302e-23)
(0.0988497083352 -0.120193703356 3.52411732605e-22)
(0.102778596873 -0.114304221228 1.70344357221e-22)
(0.100136503629 -0.129856492146 -8.31498259807e-22)
(0.104499278219 -0.124244667864 4.70918877725e-22)
(0.100813797821 -0.139745635839 -4.38541129786e-21)
(0.105611214203 -0.135350145676 -1.49443967115e-21)
(0.100134920996 -0.149780747621 -5.93071597437e-21)
(0.106057089563 -0.142908511313 -4.69378219293e-21)
(0.0963667264524 -0.159673973556 -5.0836894002e-21)
(0.10428418289 -0.145597751717 -6.03298330361e-21)
(0.0984646494693 -0.169437881778 -5.69160014971e-21)
(0.0879509074443 -0.00685604502575 6.9910315707e-23)
(0.0902881476781 -0.00421352309022 -7.69776625053e-22)
(0.0893189108333 -0.0139019315671 5.1699163304e-22)
(0.0924950955616 -0.009907170571 1.65717669846e-21)
(0.0899595487021 -0.0210167301707 -2.1925078647e-23)
(0.0931806115278 -0.0170981485203 2.60493841185e-22)
(0.0906744993621 -0.0282036965941 -5.71530898781e-23)
(0.0938505728351 -0.0242390102137 -3.88288912375e-23)
(0.0915645730806 -0.0354831655055 -8.5495592922e-24)
(0.0946960459625 -0.031371901329 -1.44110953067e-23)
(0.0926377845082 -0.042877880962 -1.05792322664e-23)
(0.0957385999619 -0.038607773496 -6.01294844027e-24)
(0.0938877251306 -0.0504107233444 -1.27954575712e-23)
(0.0969740098823 -0.0459769646622 -1.50893861269e-23)
(0.0953047769092 -0.0581043795421 -1.35047203735e-23)
(0.0983936455664 -0.0535011482134 -1.62151469283e-23)
(0.0968770956487 -0.0659812132469 -1.62122606556e-23)
(0.0999866249461 -0.0612037371239 -2.74952935299e-23)
(0.0985904983365 -0.0740631188362 -3.60286456877e-24)
(0.101739726738 -0.0691078368218 -1.18084451225e-23)
(0.100428345341 -0.0823713889584 -9.90603500943e-24)
(0.103637235668 -0.0772352267186 2.83551759971e-24)
(0.102369705465 -0.0909264603938 -5.49961207578e-24)
(0.105660819117 -0.0856150297618 -2.91635260502e-23)
(0.104385038906 -0.0997473511841 5.85490808042e-23)
(0.107785741857 -0.0942798200085 2.66244526662e-23)
(0.106431698515 -0.108850951782 1.25204232898e-22)
(0.109975842203 -0.103163388482 1.42393583259e-22)
(0.108388916646 -0.118252346215 2.88851502341e-22)
(0.112179972042 -0.112210670735 -5.99548252648e-23)
(0.109940035622 -0.127954410434 -1.92022533617e-22)
(0.114201329751 -0.122169113229 -3.84457346671e-22)
(0.110823582299 -0.137925193754 -1.80281056622e-21)
(0.11558199013 -0.133283051413 -4.52797086888e-22)
(0.110148572372 -0.148074150062 -4.79604952217e-21)
(0.116206042567 -0.141058967711 -3.02501807888e-21)
(0.106092107582 -0.15808426271 -6.64089405312e-21)
(0.114294308267 -0.144501343817 -9.43497564932e-21)
(0.107539860004 -0.167376875152 -8.9670188307e-21)
(0.0948003110465 -0.00664288379275 8.17489757701e-22)
(0.0969310550454 -0.00409338152831 -9.04414889036e-22)
(0.0962973959071 -0.0134765615044 1.40067890661e-21)
(0.0993288026473 -0.0095668129667 1.46580391581e-21)
(0.097010191159 -0.0203821675043 2.43590028594e-22)
(0.10008625137 -0.016538484343 3.26540630574e-22)
(0.0978097257324 -0.0273640711543 3.91310333394e-24)
(0.100832512962 -0.0234581934673 -4.01534064206e-23)
(0.0988066105492 -0.0344439895592 -1.18744844548e-23)
(0.10177600031 -0.0303759030981 -1.7005454942e-23)
(0.100010229275 -0.0416462482946 -1.05231023008e-23)
(0.102940889743 -0.0374030311496 -1.55467593646e-23)
(0.101414251272 -0.0489955059012 -1.85090754841e-23)
(0.104323289731 -0.044571498294 -1.7201548639e-23)
(0.103008928718 -0.0565164601985 -3.02057200847e-23)
(0.105914607601 -0.0519048456941 -1.14178036348e-23)
(0.104782178367 -0.0642337650286 -2.30914779968e-23)
(0.10770392202 -0.0594286735805 -3.2038519799e-23)
(0.10671945588 -0.0721719375206 -5.37006295404e-24)
(0.109677876132 -0.0671685943227 -9.16864823359e-24)
(0.108803603485 -0.080355256303 -1.64219734411e-23)
(0.11182051924 -0.0751493365744 4.66356025808e-24)
(0.111012770629 -0.0888075771827 2.96053869176e-24)
(0.114113106776 -0.0834033361711 -2.15661016924e-23)
(0.113315865797 -0.0975517652792 1.10468955121e-22)
(0.116529893739 -0.0919661297737 3.63001985546e-23)
(0.11566858497 -0.106609039596 -4.27654749036e-23)
(0.119033081879 -0.100777059271 1.55160235862e-22)
(0.117944047037 -0.115999474553 -7.33263674277e-22)
(0.121570377604 -0.109794127231 -5.10030705213e-23)
(0.119804381467 -0.125733641345 -6.45231899942e-22)
(0.123935473676 -0.119753682194 -4.33723096493e-22)
(0.120935602858 -0.135793920092 -1.67500459955e-21)
(0.125642253772 -0.130864469917 -1.05283187195e-21)
(0.1202736894 -0.146072691856 -7.66394420603e-21)
(0.126484807777 -0.138892689399 -3.80598795681e-21)
(0.115682943137 -0.156070921826 -1.17611004269e-20)
(0.124292544513 -0.143138730804 -3.93567840722e-21)
(0.11648706274 -0.164932707592 -3.74966251779e-21)
(0.101425427376 -0.00640565736836 -2.56100730924e-22)
(0.103336742087 -0.00395915535959 -7.68457957413e-22)
(0.103053453313 -0.0130027828788 3.91665639781e-22)
(0.105925963554 -0.00918941108444 9.0912888893e-22)
(0.103841941115 -0.0196747998184 4.27971955594e-23)
(0.106758308199 -0.0159168178894 -9.55846708123e-24)
(0.104730840124 -0.026427171779 -6.10719646965e-23)
(0.10758492722 -0.0225898891267 -1.09391422023e-22)
(0.105840803786 -0.0332830006669 -2.06777298518e-23)
(0.108631869908 -0.0292670636062 -9.64687409253e-24)
(0.107182790299 -0.0402682136829 -2.22252057028e-23)
(0.109926137007 -0.0360599790273 -1.46408460486e-23)
(0.108750769852 -0.0474092830838 -1.01102767896e-23)
(0.11146438248 -0.0430021085592 -1.73551705845e-23)
(0.110535133473 -0.0547329744359 -1.3250603349e-23)
(0.113238307375 -0.050118876709 6.72861018307e-24)
(0.112523878318 -0.0622663304248 -1.81156900358e-23)
(0.115237260142 -0.0574381185059 -1.65272911683e-23)
(0.114702475932 -0.0700365994753 8.64974978534e-25)
(0.117448111574 -0.0649880372543 -8.61636915263e-24)
(0.117053675951 -0.0780712552705 -4.805679933e-25)
(0.119855119469 -0.072796448526 8.92588685334e-24)
(0.119555170664 -0.0863978154315 1.17735581704e-23)
(0.122439609692 -0.0808992474545 -1.95172252621e-23)
(0.122174843713 -0.0950433406809 8.09914792953e-23)
(0.125175354186 -0.0893351376557 3.55566116031e-23)
(0.124867382242 -0.104033942678 1.46922640244e-22)
(0.128023615263 -0.0980499515499 1.48544512419e-22)
(0.127501287758 -0.113395313047 2.48537507263e-22)
(0.130931685282 -0.107015407972 1.44546398074e-22)
(0.129720804269 -0.123145348048 -8.41323068503e-22)
(0.133685454348 -0.116950674593 3.38709456533e-22)
(0.13114127268 -0.133276007109 -3.18381522922e-21)
(0.135772876958 -0.128037829648 -2.53184857636e-21)
(0.130457794867 -0.143645634841 -7.77221579984e-23)
(0.136854420735 -0.136352223057 -6.74049413672e-21)
(0.125177961357 -0.153819341856 4.07575950189e-21)
(0.134466256773 -0.141444446313 -2.66481202902e-21)
(0.125782135044 -0.162091605695 -2.5357802221e-21)
(0.107801468651 -0.00614311549571 3.96771662442e-22)
(0.109479891985 -0.00380995267149 -8.18240354658e-22)
(0.109562092472 -0.0124780305785 5.07904782068e-22)
(0.112260918332 -0.00877323173587 1.03656286802e-22)
(0.11042970788 -0.0188906908839 -1.61747084664e-22)
(0.113171012741 -0.0152300314509 -2.85516383201e-22)