/*--------------------------------*- C++ -*----------------------------------*\
| =========                 |                                                 |
| \\      /  F ield         | OpenFOAM: The Open Source CFD Toolbox           |
|  \\    /   O peration     | Version:  v2012                                 |
|   \\  /    A nd           | Website:  www.openfoam.com                      |
|    \\/     M anipulation  |                                                 |
\*---------------------------------------------------------------------------*/
FoamFile
{
    version     2.0;
    format      ascii;
    class       surfaceScalarField;
    location    "5.8";
    object      alphaPhi0.water;
}
// * * * * * * * * * * * * * * * * * * * * * * * * * * * * * * * * * * * * * //

dimensions      [0 3 -1 0 0 0 0];
oriented        oriented;


internalField   nonuniform List<scalar> 
3840
(
1.05819689475e-05
-1.05839039951e-05
2.00088640523e-05
-9.42895431397e-06
2.91645396479e-05
-9.15760502617e-06
3.84175800451e-05
-9.25470225476e-06
4.79602945135e-05
-9.54405835415e-06
5.79907426135e-05
-1.00318851266e-05
6.85452910743e-05
-1.05561019035e-05
7.95839407028e-05
-1.10403923699e-05
9.14868834063e-05
-1.19049934376e-05
0.000104038922705
-1.25537714268e-05
0.000117595971046
-1.35593635138e-05
0.000132029336797
-1.44365540485e-05
0.000147483943096
-1.54585379978e-05
0.000163816889393
-1.63369465505e-05
0.000178167008046
-1.43531947135e-05
0.000187747367459
-9.58753265962e-06
0.000162023117661
-1.73077608094e-05
1.76574088319e-06
-1.86352752527e-05
-4.27576757795e-09
-1.11224627749e-08
-7.39160047924e-09
9.20063360034e-06
-1.9786566964e-05
1.83235479264e-05
-1.85538735863e-05
2.73032835084e-05
-1.81392422461e-05
3.63534866514e-05
-1.83064107433e-05
4.56877573997e-05
-1.88794795672e-05
5.54042459515e-05
-1.97495497853e-05
6.56291570771e-05
-2.07825616541e-05
7.651831551e-05
-2.19300658019e-05
8.77522706791e-05
-2.3142131003e-05
9.98408639171e-05
-2.46440285592e-05
0.000112967387252
-2.66884125231e-05
0.000127119839417
-2.85927606397e-05
0.000142457683258
-3.08006376688e-05
0.000158188114464
-3.20718877479e-05
0.000176484819444
-3.26533980894e-05
0.000201529418983
-3.4639055073e-05
0.000174377411568
-4.07603526273e-05
1.55534793096e-06
-2.55771380433e-05
9.40612909747e-09
-1.57098228427e-09
-6.91131959565e-10
8.43445241887e-06
-2.82228847554e-05
1.70694697979e-05
-2.719069137e-05
2.57286359618e-05
-2.67999457743e-05
3.44843755812e-05
-2.70633966386e-05
4.34727019611e-05
-2.78686310604e-05
5.28248836141e-05
-2.91025948302e-05
6.26391916201e-05
-3.05971337135e-05
7.30085564995e-05
-3.23018636811e-05
8.41111516188e-05
-3.42452242873e-05
9.60904394933e-05
-3.66269521749e-05
0.000108477076029
-3.90775623112e-05
0.000121978746873
-4.20983188361e-05
0.000136400411132
-4.52277338143e-05
0.000152060631307
-4.77366161363e-05
0.000169228132145
-4.98249169774e-05
0.000192791131791
-5.82073726185e-05
0.000167028185358
-6.49716095399e-05
1.64501451707e-07
-3.38587676012e-05
1.41969652792e-09
-9.30838843614e-09
-1.62366646608e-09
7.98831283205e-06
-3.62127422787e-05
1.61659530783e-05
-3.53697522827e-05
2.44161666691e-05
-3.50513328452e-05
3.2811731206e-05
-3.54597791862e-05
4.14766518222e-05
-3.65339358224e-05
5.03935739144e-05
-3.80196943351e-05
5.978611612e-05
-3.99903538636e-05
6.97841137208e-05
-4.2299740876e-05
8.04508551254e-05
-4.4917407904e-05
9.18544138191e-05
-4.80337260691e-05
0.000104110216618
-5.13385045258e-05
0.000117350985885
-5.53440639973e-05
0.000131246901401
-5.91293582948e-05
0.000145892260252
-6.23871134186e-05
0.000162754849775
-6.66924167905e-05
0.000186735526081
-8.21932455095e-05
0.00016105200612
-8.8614023789e-05
4.79539063965e-07
-3.98779699796e-05
7.04671529965e-09
-2.49256599488e-08
3.64593839491e-09
7.72316460915e-06
-4.39370223366e-05
1.54254179872e-05
-4.30729659091e-05
2.32083662171e-05
-4.28349683863e-05
3.11361222992e-05
-4.33878819007e-05
3.93104563e-05
-4.470819469e-05
4.78999113478e-05
-4.66088002986e-05
5.69165081948e-05
-4.90068957461e-05
6.65467008579e-05
-5.19311763788e-05
7.68651684708e-05
-5.52386400622e-05
8.78673375099e-05
-5.90448402747e-05
9.98703774265e-05
-6.33485910952e-05
0.000112751503418
-6.82304713262e-05
0.000126899455083
-7.32835218418e-05
0.000142545305108
-7.80393512983e-05
0.00016094149009
-8.50943071246e-05
0.000180986315212
-0.000102244515667
0.000153694634839
-0.000108689242697
8.09927822142e-07
-4.75286406379e-05
7.92789848173e-08
5.43784432419e-08
6.49007239551e-09
7.39570604908e-06
-5.13333619469e-05
1.46723005801e-05
-5.0349948251e-05
2.19946674182e-05
-5.01574626552e-05
2.94496365806e-05
-5.08426766346e-05
3.7171302488e-05
-5.24294049814e-05
4.52648647058e-05
-5.47017388189e-05
5.38204597449e-05
-5.75621534321e-05
6.28963643177e-05
-6.1008612848e-05
7.27600412192e-05
-6.51070538534e-05
8.34277907223e-05
-6.97203110644e-05
9.51989887636e-05
-7.51273310734e-05
0.000108051354175
-8.10891472088e-05
0.000122660380973
-8.79000862897e-05
0.000139785387079
-9.51719674241e-05
0.000159504369541
-0.000104819841208
0.000177126048594
-0.000119873633374
0.00014765451668
-0.000124593344703
-9.14422777167e-07
-5.61282657444e-05
-1.20254580745e-07
-6.55828143256e-10
2.92362830969e-09
6.97538038108e-06
-5.83088507933e-05
1.38005857034e-05
-5.71750152198e-05
2.06543314092e-05
-5.70108154746e-05
2.75685483054e-05
-5.77562467736e-05
3.47700713859e-05
-5.96301227861e-05
4.23218046431e-05
-6.22527318279e-05
5.03566731954e-05
-6.55968247422e-05
5.87823878864e-05
-6.94364929398e-05
6.80335519546e-05
-7.43641739085e-05
7.81509847807e-05
-7.98456835609e-05
8.91760776935e-05
-8.61654188635e-05
0.000101731374077
-9.36502536276e-05
0.000116339364152
-0.000102516628207
0.000134023110965
-0.000112864170615
0.000154980453524
-0.000125784648505
0.000171285089773
-0.000136185109983
0.000141291600841
-0.000138947973167
-2.04947290377e-07
-6.29075457238e-05
3.38532334196e-08
-3.46318458208e-08
2.81262245172e-09
6.42349100639e-06
-6.47319631779e-05
1.27743900538e-05
-6.35252790105e-05
1.90529431147e-05
-6.32884987754e-05
2.54859312341e-05
-6.41881706868e-05
3.20486980427e-05
-6.61917801348e-05
3.89393427442e-05
-6.91425649517e-05
4.62241284401e-05
-7.28815655099e-05
5.41527389841e-05
-7.73677439633e-05
6.25427892378e-05
-8.2761307393e-05
7.1798550409e-05
-8.91097761208e-05
8.17664980384e-05
-9.61486785337e-05
9.31861563251e-05
-0.000105076639617
0.000105884509028
-0.000115223786226
0.000121546988825
-0.000128535261722
0.000139364907203
-0.000143612010271
0.000158664053191
-0.000155489417528
0.000132995761059
-0.000157524375928
1.54175424097e-07
-7.00715008034e-05
1.54819585445e-09
-4.92695050642e-09
-8.8646042659e-09
5.94681553698e-06
-7.06779620154e-05
1.16486208474e-05
-6.92260128708e-05
1.73092801808e-05
-6.89478852127e-05
2.30760546199e-05
-6.9953536901e-05
2.90187889546e-05
-7.21331583218e-05
3.51887340644e-05
-7.53116061286e-05
4.17230747914e-05
-7.94160069736e-05
4.87211429886e-05
-8.43688780938e-05
5.61952111159e-05
-9.0243124457e-05
6.41519890676e-05
-9.70747634682e-05
7.30514516522e-05
-0.000105063453138
8.2214630382e-05
-0.00011424859786
9.30524986591e-05
-0.000126071345728
0.000104681233005
-0.0001401733689
0.000118127051526
-0.000157067565168
0.000137095219781
-0.000174462311219
0.000117665755491
-0.000180355706761
1.32750490175e-07
-7.78875262244e-05
6.56148894863e-09
-1.21815655053e-07
-4.45404756406e-09
5.28407847101e-06
-7.59608646456e-05
1.04082942667e-05
-7.43488097271e-05
1.54788807555e-05
-7.40168760632e-05
2.05049912632e-05
-7.49779672959e-05
2.56867607168e-05
-7.73133574416e-05
3.11078024505e-05
-8.07316329267e-05
3.67756079115e-05
-8.50839124221e-05
4.27983512829e-05
-9.03946082284e-05
4.91901476394e-05
-9.66423285981e-05
5.59225284644e-05
-0.000103816714702
6.29794409017e-05
-0.000112135546647
7.07472468833e-05
-0.00012202717511
7.87296260109e-05
-0.000134064498379
8.72350156007e-05
-0.000148688599031
9.70063602012e-05
-0.00016684824637
0.000112348757784
-0.000189811000063
9.64728789351e-05
-0.00020219252283
2.51114320685e-07
-8.79308857637e-05
1.01081874384e-07
-2.98216627879e-07
-7.55468840223e-09
4.64197527861e-06
-8.06014004263e-05
9.06441997041e-06
-7.87695882473e-05
1.33841465253e-05
-7.83347773965e-05
1.77207125517e-05
-7.9312643962e-05
2.21354840703e-05
-8.1726390387e-05
2.66951866298e-05
-8.52900886193e-05
3.14788911337e-05
-8.9867438863e-05
3.64311695791e-05
-9.53494249173e-05
4.15647372808e-05
-0.000101783000533
4.69437058418e-05
-0.000109206721397
5.26851062389e-05
-0.000117892172631
5.85125510015e-05
-0.000127864508864
6.46641360666e-05
-0.000140226240949
7.04068574803e-05
-0.000154440441955
7.61950509016e-05
-0.000172644447758
8.82089999848e-05
-0.000201831513336
7.26615549059e-05
-0.000218025186495
1.22822764919e-07
-9.68346864443e-05
2.92370379912e-08
-3.38209199278e-07
-2.3946434825e-09
3.95146024933e-06
-8.45512679557e-05
7.69186869121e-06
-8.25081999768e-05
1.12976649197e-05
-8.19386115078e-05
1.48597989636e-05
-8.28727385703e-05
1.84492517674e-05
-8.53140038583e-05
2.210913861e-05
-8.89485903312e-05
2.58458108112e-05
-9.36035046662e-05
2.97084933605e-05
-9.92147163221e-05
3.3701685232e-05
-0.000105782194189
3.76998361305e-05
-0.000113213775018
4.19582739373e-05
-0.000122164553665
4.6495510033e-05
-0.00013241116965
5.09003415915e-05
-0.000144640459128
5.5263844527e-05
-0.000158812560279
6.02671892885e-05
-0.000177654429353
6.46751040355e-05
-0.000206244321467
5.30892112838e-05
-0.000228692305287
-7.79040311442e-08
-0.000103037661755
-6.21041159307e-10
-4.41468635795e-07
-1.72740781241e-09
3.24330841479e-06
-8.77930162653e-05
6.28393145797e-06
-8.55470817105e-05
9.12878418894e-06
-8.47815674885e-05
1.18609258184e-05
-8.56028786603e-05
1.46265415124e-05
-8.80776806244e-05
1.73942489657e-05
-9.17146690205e-05
2.01578900895e-05
-9.6366650688e-05
2.29341826265e-05
-0.000101992624027
2.57026379392e-05
-0.000108555281728
2.86520685754e-05
-0.000116169551997
3.15057733343e-05
-0.000125028841269
3.43389180347e-05
-0.000135252167141
3.70949431877e-05
-0.00014740453754
3.99039832231e-05
-0.000161629159853
4.2252099748e-05
-0.000180008258262
4.5069213075e-05
-0.000209063768963
3.2411464678e-05
-0.000231707943358
3.56347324735e-07
-0.000108282262614
7.95857922022e-09
-9.14699184866e-08
3.06761774043e-09
2.52932796306e-06
-9.03207808982e-05
4.83285253742e-06
-8.78489235214e-05
6.98240689623e-06
-8.69292842316e-05
8.98069653114e-06
-8.75992477284e-05
1.08493200773e-05
-8.99443753451e-05
1.26709277167e-05
-9.35347507884e-05
1.44395952618e-05
-9.81344112463e-05
1.61558813871e-05
-0.000103709495786
1.78120937975e-05
-0.000110214105781
1.94050744279e-05
-0.000117767342225
2.08531767924e-05
-0.000126484628173
2.2219427512e-05
-0.000136624997591
2.34585916137e-05
-0.000148650697733
2.48948131844e-05
-0.000163072290715
2.65073709598e-05
-0.000181623753335
2.44790554959e-05
-0.000207036120951
1.33908461445e-05
-0.000231553092239
6.07211716596e-08
-0.000109443832368
-3.4462562914e-08
3.01704854012e-09
4.44417533826e-09
1.85509298593e-06
-9.21746299171e-05
3.42961195148e-06
-8.94220307761e-05
4.80405981447e-06
-8.83021308754e-05
6.02054865239e-06
-8.88140272584e-05
7.07202213409e-06
-9.09941062358e-05
8.02423088451e-06
-9.44854302493e-05
8.88918334298e-06
-9.89977527957e-05
9.58440291077e-06
-0.000104404033421
9.99950929259e-06
-0.0001106308269
1.02885744775e-05
-0.000118058505613
1.03868935098e-05
-0.000126589192264
1.0199598844e-05
-0.000136443127584
9.78930004809e-06
-0.000148247044691
9.23867827276e-06
-0.000162527838281
8.30763096847e-06
-0.000180694286298
6.79992131563e-06
-0.000205528624719
2.26830231983e-06
-0.000227801814352
-4.18478830478e-08
-0.000108055921711
-4.22272266917e-08
8.94839336982e-10
1.11926075196e-08
1.15183888689e-06
-9.33254796865e-05
2.09521738062e-06
-9.03643024744e-05
2.76452449152e-06
-8.89701449402e-05
3.23064412698e-06
-8.92785952426e-05
3.5217440639e-06
-9.12836147837e-05
3.64342334506e-06
-9.46046186704e-05
3.56285720879e-06
-9.8915244509e-05
3.18856134471e-06
-0.000104028670979
2.62588561268e-06
-0.000110067426105
1.61085624159e-06
-0.000117045827634
2.52983753871e-07
-0.000125234136961
-1.45164157617e-06
-0.000134743236987
-3.47756301509e-06
-0.000146225994425
-5.67025758279e-06
-0.000160340878776
-7.88037770504e-06
-0.000178484512911
-1.02411864141e-05
-0.000203167983202
-1.12499559836e-05
-0.000223392696938
-9.55874993623e-08
-0.000104282901657
-8.74480090949e-08
7.2482220416e-10
7.59671566207e-14
5.34534899994e-07
-9.38596150974e-05
8.16319861785e-07
-9.06456430301e-05
8.97948246122e-07
-8.90511109514e-05
7.52276878331e-07
-8.91319309465e-05
3.74929799499e-07
-9.09035423319e-05
-2.98123705369e-07
-9.39286296338e-05
-1.30498632818e-06
-9.79059115068e-05
-2.61630993297e-06
-0.000102713966377
-4.3769821423e-06
-0.000108306776496
-6.52001491537e-06
-0.000114903570486
-9.1675290055e-06
-0.000122590376278
-1.23208869778e-05
-0.000131594710011
-1.603685711e-05
-0.000142516331295
-1.99866659653e-05
-0.000156396870683
-2.41939058594e-05
-0.000174281418104
-2.91339002756e-05
-0.000198229041093
-3.09771247361e-05
-0.000216175410585
7.52132371907e-09
-9.92531992276e-05
-6.94637093659e-13
1.37214283907e-10
-6.11085864157e-13
-5.63262587757e-08
-9.38033478574e-05
-3.46410207398e-07
-9.0355434533e-05
-8.79517448009e-07
-8.85177075402e-05
-1.63287493498e-06
-8.83776669345e-05
-2.66236895933e-06
-8.98735282168e-05
-4.02705733481e-06
-9.25628292409e-05
-5.80583513046e-06
-9.61250107416e-05
-8.03475749822e-06
-0.000100484647739
-1.06781835299e-05
-0.000105663656987
-1.37970934335e-05
-0.000111785627658
-1.75247156175e-05
-0.000118864503997
-2.19366316221e-05
-0.000127185079016
-2.71812796964e-05
-0.000137274240195
-3.31795101046e-05
-0.000150400642712
-3.95454747455e-05
-0.000167916812363
-4.78913550233e-05
-0.000189883201579
-5.21692664852e-05
-0.000205441055659
-1.20128677011e-08
-9.51532051996e-05
-1.08306213364e-10
2.81754129289e-10
2.1348996529e-12
-5.8499203265e-07
-9.32186835483e-05
-1.43813674078e-06
-8.95025742178e-05
-2.55333969481e-06
-8.74025677358e-05
-3.93368309849e-06
-8.69968430251e-05
-5.61891548674e-06
-8.81877563095e-05
-7.69349974443e-06
-9.04877030516e-05
-1.0156244142e-05
-9.36622422703e-05
-1.30006362489e-05
-9.76407192007e-05
-1.63696127171e-05
-0.000102295565668
-2.02681954492e-05
-0.000107888499836
-2.48479216263e-05
-0.000114286754913
-3.03368663837e-05
-0.000121698460967
-3.67978161967e-05
-0.000130815630073
-4.45711674163e-05
-0.000142628783402
-5.36806516682e-05
-0.0001588084948
-6.56723150835e-05
-0.000177891540599
-7.43143499733e-05
-0.00019005757487
1.23851719234e-08
-9.42969409268e-05
-4.30247073331e-09
-2.17935377501e-09
6.74057287639e-11
-1.15081544095e-06
-9.20684925747e-05
-2.56267516577e-06
-8.80913552898e-05
-4.2340904091e-06
-8.57319471423e-05
-6.24154158944e-06
-8.49899549931e-05
-8.5521255005e-06
-8.58776200849e-05
-1.11984162479e-05
-8.78420643305e-05
-1.42194464381e-05
-9.06420488478e-05
-1.76727095394e-05
-9.41883047831e-05
-2.15658259421e-05
-9.8403840473e-05
-2.61483062795e-05
-0.000103307851018
-3.15276444975e-05
-0.000108909651993
-3.77649948795e-05
-0.000115463526387
-4.51951990409e-05
-0.000123387738203
-5.40949699138e-05
-0.000133730243181
-6.51438196166e-05
-0.000147763923765
-8.02852981015e-05
-0.000162750062497
-9.34176093185e-05
-0.000170831082339
-1.51555882552e-07
-9.6185043956e-05
-8.13030014466e-09
1.52895384795e-08
-1.1839280072e-09
-1.70173498092e-06
-9.036735624e-05
-3.64682568233e-06
-8.61469662766e-05
-5.88187722968e-06
-8.34977557601e-05
-8.42264060431e-06
-8.24503588136e-05
-1.12352034964e-05
-8.3066163252e-05
-1.43414871501e-05
-8.47366571369e-05
-1.78092167992e-05
-8.71755575372e-05
-2.17623078814e-05
-9.02364663098e-05
-2.62525935606e-05
-9.39152123818e-05
-3.14115532788e-05
-9.8150894818e-05
-3.73102066186e-05
-0.000103013266417
-4.42057432613e-05
-0.000108570342609
-5.22618822615e-05
-0.000115333745188
-6.1917964008e-05
-0.000124075356289
-7.39744903471e-05
-0.000135706365668
-9.04223098603e-05
-0.000146302280996
-0.000106069639581
-0.000150500436383
-6.93639803977e-07
-9.77018962963e-05
-6.71166626984e-09
1.19147946116e-07
-3.84244150268e-09
-2.16738135615e-06
-8.82006243541e-05
-4.56521786635e-06
-8.37498646698e-05
-7.24586383178e-06
-8.08179336429e-05
-1.02124472664e-05
-7.94845398068e-05
-1.34668996626e-05
-7.98124657405e-05
-1.70117394632e-05
-8.11927852589e-05
-2.09226237233e-05
-8.32660745106e-05
-2.52992797318e-05
-8.5861460705e-05
-3.02885711253e-05
-8.89276108146e-05
-3.59329366202e-05
-9.2508450016e-05
-4.2362326924e-05
-9.65859136753e-05
-4.96642666318e-05
-0.000101270421912
-5.81309386056e-05
-0.000106868828865
-6.83041908436e-05
-0.00011390297775
-8.11106763293e-05
-0.000122902198091
-9.73215690547e-05
-0.000130092082283
-0.000112100238467
-0.000132671824413
-9.54054738063e-07
-9.81113246402e-05
5.56293630027e-09
4.29254926179e-07
4.10926715598e-09
-2.55121290827e-06
-8.56502366351e-05
-5.34040259712e-06
-8.0961493814e-05
-8.38113689595e-06
-7.7778065629e-05
-1.16870857536e-05
-7.61793937623e-05
-1.53035219085e-05
-7.61970212348e-05
-1.92712718403e-05
-7.72260162196e-05
-2.36233793287e-05
-7.89150051739e-05
-2.84096246417e-05
-8.10765603156e-05
-3.37141605656e-05
-8.36246207074e-05
-3.96859740387e-05
-8.65382935755e-05
-4.64581768443e-05
-8.98154134626e-05
-5.41065038576e-05
-9.36236841453e-05
-6.29656374386e-05
-9.80109976839e-05
-7.34939086311e-05
-0.000103375518233
-8.66777472869e-05
-0.000109720099565
-0.00010238570995
-0.000114385691008
-0.000116962884124
-0.000116366907736
9.28363815395e-06
-9.59060218502e-05
-3.4811863785e-09
-2.96421307352e-06
4.17414718901e-11
-2.89378532552e-06
-8.27574927908e-05
-5.98478402072e-06
-7.78715434504e-05
-9.32891768248e-06
-7.44349449142e-05
-1.29556293341e-05
-7.25537292576e-05
-1.68585640808e-05
-7.22949869315e-05
-2.11093274342e-05
-7.2976259882e-05
-2.57529553323e-05
-7.42723003573e-05
-3.08471444525e-05
-7.59833598316e-05
-3.64463910647e-05
-7.80266161328e-05
-4.26619694621e-05
-8.03238777963e-05
-4.96226128391e-05
-8.28559589969e-05
-5.75765036893e-05
-8.56709245579e-05
-6.6662735693e-05
-8.89257881002e-05
-7.74286408193e-05
-9.26103831959e-05
-9.082052842e-05
-9.63293747127e-05
-0.000106727121773
-9.84802563192e-05
-0.000122407009217
-0.000100474454346
-2.90671870599e-05
-8.67970012134e-05
-7.97306325308e-10
-2.33240502154e-06
-5.19144618194e-12
-3.16547932665e-06
-7.95931290813e-05
-6.51530658378e-06
-7.45228571445e-05
-1.010936925e-05
-7.08419891589e-05
-1.3949097082e-05
-6.87150568002e-05
-1.80618408535e-05
-6.81833581862e-05
-2.24530622815e-05
-6.85860789997e-05
-2.72292130635e-05
-6.94968623392e-05
-3.25213350352e-05
-7.06917849747e-05
-3.8384936042e-05
-7.21638555031e-05
-4.48464845239e-05
-7.386336219e-05
-5.20035619743e-05
-7.56996536906e-05
-6.00748963904e-05
-7.76004312589e-05
-6.92494330935e-05
-7.97521100379e-05
-8.000077332e-05
-8.185939097e-05
-9.32842593708e-05
-8.30471067034e-05
-0.000109417007785
-8.23478044396e-05
-0.000126411095017
-8.3479365945e-05
-3.37766208698e-05
-7.28748154299e-05
-2.48550708631e-10
-5.06621032969e-06
-2.65390288258e-10
-3.36214369001e-06
-7.62325269775e-05
-6.92593722266e-06
-7.09606570635e-05
-1.07085393417e-05
-6.70609433443e-05
-1.47275246542e-05
-6.4697550422e-05
-1.9012628778e-05
-6.38996306715e-05
-2.35520095005e-05
-6.40481073951e-05
-2.84368912504e-05
-6.46135408512e-05
-3.37937948663e-05
-6.53359431486e-05
-3.9737905352e-05
-6.62207369588e-05
-4.6278579596e-05
-6.73236029694e-05
-5.34641295641e-05
-6.851508383e-05
-6.14266852484e-05
-6.9638536088e-05
-7.05695533921e-05
-7.06092255439e-05
-8.12121229822e-05
-7.12174840074e-05
-9.41540528644e-05
-7.01066916875e-05
-0.000109696839091
-6.680557298e-05
-0.000127112962018
-6.60651346185e-05
-3.72542003843e-05
-5.49744486815e-05
-1.20714159904e-08
-6.58280509191e-06
-8.93766369279e-10
-3.50751112133e-06
-7.27259116626e-05
-7.22193999677e-06
-6.72471680146e-05
-1.11460332173e-05
-6.3137771114e-05
-1.53016515783e-05
-6.05427933311e-05
-1.97015290219e-05
-5.95005163718e-05
-2.43788888147e-05
-5.93714090226e-05
-2.93700984144e-05
-5.96226965716e-05
-3.47197680045e-05
-5.99868699855e-05
-4.05919116231e-05
-6.03481355204e-05
-4.70927394603e-05
-6.08221392285e-05
-5.41596477054e-05
-6.14475125517e-05
-6.19410835048e-05
-6.18564823505e-05
-7.07103512311e-05
-6.18400193025e-05
-8.09034943329e-05
-6.10235851689e-05
-9.28900964809e-05
-5.81201381269e-05
-0.000106851307337
-5.284263763e-05
-0.000123847423052
-4.90679045202e-05
-3.95507811934e-05
-3.31562194072e-05
-9.10508166932e-09
-7.73566178726e-06
5.96510129325e-12
-3.64175672223e-06
-6.90850144977e-05
-7.43653554059e-06
-6.34532768916e-05
-1.14443362776e-05
-5.91308285396e-05
-1.56709591447e-05
-5.63169537812e-05
-2.01261331759e-05
-5.50460057166e-05
-2.48337334113e-05
-5.46643177135e-05
-2.98162660501e-05
-5.46404462787e-05
-3.50995171141e-05
-5.47037720827e-05
-4.07325645988e-05
-5.47147918648e-05
-4.69332347577e-05
-5.46193046534e-05
-5.3869820833e-05
-5.45082812029e-05
-6.15138108724e-05
-5.42118221082e-05
-7.00237779983e-05
-5.33294367955e-05
-7.9804946181e-05
-5.12418703517e-05
-9.17287160617e-05
-4.6196748238e-05
-0.000106432961388
-3.81383753497e-05
-0.000123740230026
-3.17600778776e-05
-3.9356091627e-05
-1.63931585271e-05
-4.06718510419e-09
-8.72186201318e-06
8.02174779004e-12
-3.71400865496e-06
-6.53718116537e-05
-7.57218840085e-06
-5.95959006606e-05
-1.16179804369e-05
-5.50857939928e-05
-1.58579834442e-05
-5.2077617802e-05
-2.0305925443e-05
-5.05985877481e-05
-2.49768136853e-05
-4.99937597751e-05
-2.98947886071e-05
-4.97225321496e-05
-3.50962576633e-05
-4.95021835023e-05
-4.06403172238e-05
-4.91700212427e-05
-4.65708859827e-05
-4.86872635866e-05
-5.30972057408e-05
-4.79800297241e-05
-6.02473973955e-05
-4.70604851856e-05
-6.81543824124e-05
-4.54224870205e-05
-7.74534847619e-05
-4.19424216058e-05
-8.93886487121e-05
-3.42611478631e-05
-0.000104159181831
-2.3368490525e-05
-0.000121940297589
-1.39781103518e-05
-3.85387336215e-05
-5.082582619e-06
-1.43538535684e-10
-1.0509075333e-05
3.39243685522e-12
-3.74708714394e-06
-6.16254053831e-05
-7.63083373993e-06
-5.57127919442e-05
-1.16703046068e-05
-5.1046895177e-05
-1.58894394612e-05
-4.78589484101e-05
-2.0285516417e-05
-4.62028143756e-05
-2.48750100562e-05
-4.54043502679e-05
-2.96861649617e-05
-4.49111739636e-05
-3.4760205612e-05
-4.442774556e-05
-4.00929904397e-05
-4.38362485711e-05
-4.57164339268e-05
-4.30612589652e-05
-5.16777335816e-05
-4.20168449591e-05
-5.81576916076e-05
-4.05787713893e-05
-6.52439486552e-05
-3.83349447776e-05
-7.35737944111e-05
-3.36120653484e-05
-8.50908943796e-05
-2.27435285995e-05
-0.00010004956457
-8.40980135524e-06
-0.000116944134699
2.91624941023e-06
-3.78847563611e-05
3.42525567629e-06
-1.62012253149e-10
-1.31765331224e-05
-1.3242975718e-11
-3.76487040984e-06
-5.78609939036e-05
-7.63797116879e-06
-5.18400610222e-05
-1.16429285716e-05
-4.70422187101e-05
-1.57936829286e-05
-4.37083536221e-05
-2.00976736799e-05
-4.18988070357e-05
-2.45672536635e-05
-4.09345191376e-05
-2.92207174036e-05
-4.02571836513e-05
-3.40798835917e-05
-3.95678380119e-05
-3.91447206795e-05
-3.87699599535e-05
-4.44473865823e-05
-3.77553829093e-05
-4.99734036092e-05
-3.64889423745e-05
-5.57180704845e-05
-3.48322246733e-05
-6.18066902317e-05
-3.2244332798e-05
-6.89562757459e-05
-2.64603636539e-05
-7.8892552924e-05
-1.28065357058e-05
-9.36214420721e-05
6.31450238075e-06
-0.000109952764848
1.92471350906e-05
-3.74503400849e-05
1.10548313611e-05
-2.89389109877e-10
-1.58180975573e-05
-3.0423142596e-10
-3.77206104018e-06
-5.40890717762e-05
-7.59174685468e-06
-4.80203791055e-05
-1.15185697695e-05
-4.31152879134e-05
-1.55705586265e-05
-3.96561222187e-05
-1.97564481583e-05
-3.77124896293e-05
-2.40884473122e-05
-3.66018546098e-05
-2.85784600443e-05
-3.57662503833e-05
-3.32555288975e-05
-3.4889611654e-05
-3.81082877801e-05
-3.39152912913e-05
-4.31503840766e-05
-3.27105070537e-05
-4.83761926476e-05
-3.12589945663e-05
-5.35782913861e-05
-2.96252582763e-05
-5.90369823114e-05
-2.67841666353e-05
-6.54269181201e-05
-2.00691456011e-05
-7.39449805386e-05
-4.28661465666e-06
-8.64427903689e-05
1.88246057158e-05
-0.000100361787045
3.31667346249e-05
-3.66734667049e-05
1.93571960934e-05
-4.4238346258e-09
-1.75420268276e-05
-1.66424068807e-11
-3.7449757648e-06
-5.0343840691e-05
-7.47577985213e-06
-4.42891477369e-05
-1.12983814932e-05
-3.92921285468e-05
-1.52285405351e-05
-3.5725262324e-05
-1.92737187484e-05
-3.36664253941e-05
-2.34595102353e-05
-3.24149527537e-05
-2.78230900225e-05
-3.1401339796e-05
-3.23317130862e-05
-3.03793817455e-05
-3.70767544296e-05
-2.91679331927e-05
-4.20159781501e-05
-2.77686064713e-05
-4.71337234813e-05
-2.61388047415e-05
-5.24314483406e-05
-2.43248522251e-05
-5.78227146894e-05
-2.13913659498e-05
-6.38553844278e-05
-1.40351847684e-05
-7.10821458727e-05
2.94042018781e-06
-7.89891645449e-05
2.67329972987e-05
-8.83268664477e-05
4.2503031927e-05
-3.64262680579e-05
3.18249833872e-05
-2.20560107854e-10
-1.73316223228e-05
-2.32639929363e-10
-3.61717368553e-06
-4.67259916977e-05
-7.31396220016e-06
-4.05914956225e-05
-1.10286230834e-05
-3.55764671022e-05
-1.47786520568e-05
-3.19740943117e-05
-1.86448487855e-05
-2.97989235113e-05
-2.26461415873e-05
-2.84121692267e-05
-2.68196976319e-05
-2.72261299789e-05
-3.12159110763e-05
-2.59812213886e-05
-3.58794574493e-05
-2.45019209689e-05
-4.08409606907e-05
-2.28046388989e-05
-4.60650519569e-05
-2.09109081269e-05
-5.16872923885e-05
-1.86995151764e-05
-5.79712276652e-05
-1.51052556834e-05
-6.4746253778e-05
-7.26018656618e-06
-7.02031039705e-05
8.39815982385e-06
-7.34387586399e-05
2.99698147955e-05
-7.74783086824e-05
4.65420218774e-05
-3.58701041117e-05
4.7477774173e-05
-2.52785303291e-10
-1.4664924734e-05
-3.63434422669e-10
-3.56195129944e-06
-4.31629917002e-05
-7.06440694671e-06
-3.70878194117e-05
-1.05933040276e-05
-3.20462294354e-05
-1.41885272812e-05
-2.83774230317e-05
-1.78632078582e-05
-2.61226812791e-05
-2.16727813178e-05
-2.46009235828e-05
-2.5620253941e-05
-2.32769181562e-05
-2.98168675127e-05
-2.17826700614e-05
-3.43066373899e-05
-2.0009821075e-05
-3.92030680335e-05
-1.79055694845e-05
-4.46134692836e-05
-1.54964475931e-05
-5.08412965631e-05
-1.24696888281e-05
-5.79024332991e-05
-8.04350432191e-06
-6.48993439328e-05
-2.63530635065e-07
-6.97112645493e-05
1.32127809816e-05
-6.97060796778e-05
2.99615581077e-05
-6.8874683035e-05
4.57109065676e-05
-3.29318573762e-05
6.00849391894e-05
-6.529022926e-11
-9.77764317822e-06
-3.77558336181e-12
-3.42099175134e-06
-3.97407135705e-05
-6.78864557255e-06
-3.37187656929e-05
-1.01334391642e-05
-2.86999680508e-05
-1.35124898946e-05
-2.49968687673e-05
-1.6950802727e-05
-2.26828443271e-05
-2.04835666535e-05
-2.10666409008e-05
-2.41847130809e-05
-1.95743115653e-05
-2.80931042745e-05
-1.78727466293e-05
-3.22917626774e-05
-1.58094288575e-05
-3.69395157649e-05
-1.3255830107e-05
-4.23511724848e-05
-1.00819311898e-05
-4.8696927592e-05
-6.12413560235e-06
-5.58889985774e-05
-8.51485532416e-07
-6.27946019545e-05
6.64243220905e-06
-6.67896260419e-05
1.72097797811e-05
-6.62173126517e-05
2.93914334831e-05
-6.27950356008e-05
4.22869091447e-05
-2.86163716638e-05
6.6154218877e-05
8.17968648839e-10
-5.78401609676e-06
4.12221281532e-11
-3.31515101387e-06
-3.64242627386e-05
-6.49076751736e-06
-3.0541839466e-05
-9.62428518906e-06
-2.5565162643e-05
-1.27457319219e-05
-2.1874208494e-05
-1.59071132524e-05
-1.95203628879e-05
-1.91424398876e-05
-1.78303732012e-05
-2.2496839278e-05
-1.62191977839e-05
-2.60258143305e-05
-1.43431141059e-05
-2.98280887637e-05
-1.20066660952e-05
-3.40712882096e-05
-9.01231228626e-06
-3.88764265487e-05
-5.27676758646e-06
-4.44513105895e-05
-5.49354678973e-07
-5.07430220864e-05
5.44067558368e-06
-5.68911858949e-05
1.27906796894e-05
-6.0395924765e-05
2.07159932477e-05
-6.05189198789e-05
2.95149080402e-05
-5.81042198759e-05
3.98712487958e-05
-2.49456706209e-05
6.71569201486e-05
4.81802049051e-09
-4.21487179061e-06
-1.61435838506e-10
-3.12862929987e-06
-3.32946018743e-05
-6.16562958453e-06
-2.7503940075e-05
-9.07693756976e-06
-2.26530893448e-05
-1.19314463679e-05
-1.9019132303e-05
-1.47829843305e-05
-1.66685067046e-05
-1.76624182916e-05
-1.49509286238e-05
-2.06065066189e-05
-1.32754257686e-05
-2.36647134426e-05
-1.12855431664e-05
-2.69170218067e-05
-8.75559564737e-06
-3.04293672913e-05
-5.50139542452e-06
-3.42981148479e-05
-1.4102344136e-06
-3.86112824159e-05
3.76299589244e-06
-4.3380525185e-05
1.02096622953e-05
-4.79755398415e-05
1.73862879596e-05
-5.11238834565e-05
2.38662323043e-05
-5.20944733527e-05
3.04782269966e-05
-5.38446367271e-05
4.16237017619e-05
-2.56114136132e-05
7.08014001799e-05
3.51710347511e-09
-2.67320630664e-06
-8.47163071205e-10
-3.07498049293e-06
-3.02191395431e-05
-5.87148177096e-06
-2.47072496892e-05
-8.53058686554e-06
-1.9994032593e-05
-1.10998117792e-05
-1.64502270064e-05
-1.36079300079e-05
-1.41609970439e-05
-1.60845243241e-05
-1.24752825758e-05
-1.85487877192e-05
-1.08125213346e-05
-2.10303799154e-05
-8.80569705913e-06
-2.36102597893e-05
-6.17745229839e-06
-2.62647455905e-05
-2.8480548778e-06
-2.90487823377e-05
1.37092493873e-06
-3.19061610416e-05
6.62100524232e-06
-3.4893268538e-05
1.31990780405e-05
-3.76778101818e-05
2.01755849855e-05
-3.97640089847e-05
2.59582702399e-05
-4.17921399655e-05
3.25498968966e-05
-4.30394442358e-05
4.28696002143e-05
-2.30963785369e-05
7.46174943356e-05
1.53403862272e-08
2.56481263019e-07
4.43142959864e-09
-2.92903539314e-06
-2.72912154939e-05
-5.57129451245e-06
-2.20664512216e-05
-8.02040521158e-06
-1.75467149959e-05
-1.02774865694e-05
-1.41953834239e-05
-1.24259502703e-05
-1.20143498705e-05
-1.44723899594e-05
-1.04312218395e-05
-1.64072442499e-05
-8.87979100868e-06
-1.82891753163e-05
-6.92600391823e-06
-2.00852000796e-05
-4.38067487577e-06
-2.18059170538e-05
-1.12939622111e-06
-2.32917291157e-05
2.86142665156e-06
-2.44297503289e-05
7.76460794553e-06
-2.51874836312e-05
1.39675394025e-05
-2.5893147245e-05
2.08926908815e-05
-2.68016461118e-05
2.68827134951e-05
-2.91677604766e-05
3.49461911728e-05
-3.27607562291e-05
4.64573174148e-05
-1.82600586704e-05
7.73056358397e-05
-1.45333156015e-09
4.06386665426e-06
-1.01930286308e-08