/*--------------------------------*- C++ -*----------------------------------*\
| =========                 |                                                 |
| \\      /  F ield         | OpenFOAM: The Open Source CFD Toolbox           |
|  \\    /   O peration     | Version:  v2012                                 |
|   \\  /    A nd           | Website:  www.openfoam.com                      |
|    \\/     M anipulation  |                                                 |
\*---------------------------------------------------------------------------*/
FoamFile
{
    version     2.0;
    format      ascii;
    class       volVectorField;
    location    "5.8";
    object      ddt0(rho,U);
}
// * * * * * * * * * * * * * * * * * * * * * * * * * * * * * * * * * * * * * //

dimensions      [1 -2 -2 0 0 0 0];


internalField   nonuniform List<vector> 
1984
(
(-3.29669974345 3.24803917214 7.00105669822e-21)
(-3.40207061352 9.48872225772 2.92733087336e-20)
(-3.36684694349 15.8745760685 2.86021928969e-20)
(-3.28133843365 22.1282733999 9.84443098672e-20)
(-3.16985407128 28.1954424498 1.03155785459e-19)
(-3.02419126753 33.9693803104 3.3320417024e-20)
(-2.81789189638 39.3582190147 -5.77388419886e-20)
(-2.54321913151 44.2605429137 -1.62329035238e-19)
(-2.16571315942 48.4560838777 -1.1901206973e-19)
(-1.67401181556 51.7477289167 -2.36489866391e-20)
(-1.01976161481 53.8673734833 7.98393696726e-20)
(-0.0984394383515 54.3989583002 6.43508553346e-20)
(1.30844983033 52.6014055863 2.6863385501e-19)
(3.72551045926 47.4557595213 -6.80498857806e-19)
(8.23157754642 39.3166643056 -1.16028536276e-18)
(15.2257995552 18.6158412827 -6.74000598915e-18)
(10.0520026856 32.3550476228 -1.84390142292e-17)
(-9.61725616047 27.3063135948 -5.43974384779e-18)
(0.0855349989042 0.0614746032685 -9.28447839631e-20)
(0.561904334144 -1.04322380251 2.1863982642e-20)
(-9.669347025 3.41325605225 -1.72623381468e-20)
(-9.74912003678 9.70718242414 -3.19782152173e-20)
(-9.60653815247 16.1331021592 4.00008658459e-20)
(-9.36355486235 22.4796104755 1.2102243032e-19)
(-9.02873635404 28.6448584586 1.24947136117e-19)
(-8.58049449745 34.5742697125 6.21311358646e-20)
(-7.95433983833 40.1535555734 -6.81913135812e-20)
(-7.09778952541 45.2874051666 -1.17863523178e-19)
(-5.98194477848 49.7665197953 -7.10626847437e-20)
(-4.48320797265 53.396176561 4.61213792184e-20)
(-2.51800594341 55.9742097384 8.79207753711e-20)
(0.0763436319863 57.2007837287 3.4473848431e-20)
(3.61518266936 56.6766766082 6.38119011503e-19)
(8.56318894162 53.8754066877 1.25292499099e-18)
(15.762249398 51.2966636989 -5.3035717847e-18)
(26.2921878437 41.0110891752 -1.32205055287e-18)
(30.5511471441 61.9397836052 -5.07990811178e-18)
(10.088362104 43.4984319414 -7.08869282438e-18)
(0.100086276545 0.00626851433781 -4.9577529789e-20)
(1.16357712862 0.238700059994 1.67955695525e-20)
(-16.3214626194 3.47135463923 -6.32320562002e-20)
(-16.3457002407 9.83987576189 4.40711631942e-20)
(-16.126943071 16.3913690486 -1.10303586848e-20)
(-15.772758533 22.8574085659 1.04078953325e-19)
(-15.2528561554 29.1824107036 1.13406440545e-19)
(-14.5249589873 35.3138604663 9.0831152551e-20)
(-13.540435413 41.1696822522 2.38116040313e-21)
(-12.2058557121 46.6164057724 7.0578359851e-20)
(-10.4333208817 51.5251083845 -2.27669737462e-20)
(-8.11067020694 55.7593993242 8.35802256666e-21)
(-5.0698232221 59.0440205007 7.49786816299e-20)
(-1.09308546035 61.2475809992 1.60573978066e-19)
(4.13802754108 62.1212488025 3.71040708953e-19)
(10.981611984 61.2019250155 1.49351428969e-19)
(19.3659038773 61.2377977666 2.46988669828e-18)
(30.9050875922 55.4347400509 -4.27418068327e-18)
(37.9276572032 74.1121142675 -1.88391483217e-17)
(16.2710817387 45.6730892292 -7.90013131769e-18)
(-0.0380070142622 0.0500054137344 3.61546165742e-20)
(0.814391611145 -0.0347099762754 2.5834345517e-20)
(-23.0629205154 3.52252388718 -1.01782041629e-19)
(-23.0600857273 10.0178402786 -7.27197913214e-20)
(-22.7876662105 16.7223671616 -2.37470359608e-20)
(-22.3394220951 23.3606450145 7.86457362434e-20)
(-21.6783125784 29.9113212863 8.55425004117e-20)
(-20.7552456253 36.3267129555 7.21796777986e-20)
(-19.4937239957 42.5320387334 7.34644445809e-20)
(-17.7939296226 48.4690302067 -7.04719090549e-20)
(-15.5036763067 53.9592686349 -1.31617830883e-20)
(-12.5010600356 58.8927351875 4.86932806388e-20)
(-8.6377140706 63.1700444602 3.05201242533e-20)
(-3.61664963426 66.6341528024 5.13828886496e-20)
(2.86173025117 69.0460899147 -2.46818861063e-19)
(11.1340706761 70.0428317232 2.09265154115e-19)
(20.6988203652 72.0900499552 1.2433980441e-19)
(34.1473625111 68.8307572539 2.63095042367e-18)
(45.2637010901 84.2919829322 6.20123476196e-18)
(23.531723933 46.2737543319 -4.48017235042e-18)
(0.228374570291 -0.0332106844335 1.10971832368e-19)
(1.33129152056 -0.545778167076 -1.37274641774e-19)
(-29.9005336754 3.5857115866 -9.39858737633e-20)
(-29.8897039477 10.2375375529 6.61885072255e-20)
(-29.5826949739 17.1053763535 -3.96221602017e-20)
(-29.0775095938 23.9575246243 4.22507984386e-20)
(-28.3301208662 30.7657805699 5.55786844005e-20)
(-27.2915159885 37.5170003116 4.36020637167e-20)
(-25.858764828 44.1684992721 1.14078990266e-20)
(-23.9135343472 50.6575773462 -9.88406079341e-21)
(-21.3327167128 56.8795555908 -5.25451202518e-20)
(-17.8958589296 62.7124110709 8.06102194416e-20)
(-13.4206556434 68.0713448334 2.64397160463e-20)
(-7.64535105605 72.9329800214 5.39059351718e-20)
(-0.178689651308 77.0371602665 1.39996102135e-19)
(9.32662948844 79.9554583505 -2.28530472292e-18)
(20.4561742734 83.6889731672 -2.98632792251e-19)
(36.1346788081 81.4163773162 -2.332671648e-19)
(51.8542955638 93.7730642371 -1.38932524127e-17)
(26.4664693988 46.8977659421 -5.73214992389e-19)
(0.504957400318 -0.304070605682 2.34847437342e-19)
(2.11458428692 0.347521081586 1.21188471377e-20)
(-36.8484980178 3.64998021525 -5.5229909844e-20)
(-36.8663649576 10.4696567266 1.35447507443e-20)
(-36.5483754555 17.5152638665 -3.35968667469e-20)
(-36.0368985813 24.5935383884 2.2182238177e-20)
(-35.2709696513 31.6843679297 3.62366577069e-20)
(-34.1988048886 38.8015963879 3.66952695061e-20)
(-32.7187400225 45.9318972157 9.91413589599e-21)
(-30.7142612395 53.0323019772 -5.86737674525e-22)
(-28.0092551471 60.0276264385 1.92624923625e-20)
(-24.431736666 66.8818888794 2.90298259106e-20)
(-19.672177065 73.5375040087 1.44795895973e-20)
(-13.4287481117 79.9980921412 5.85169186668e-20)
(-5.2339296803 86.0670309281 2.969834512e-19)
(5.42892601853 91.2702498543 -9.61937470515e-19)
(18.8187638833 96.3961498574 -8.00231414589e-19)
(37.6560497104 95.1369462624 -5.5451566991e-18)
(55.4339879467 105.066017561 -1.00747228209e-17)
(23.5197367351 50.6572948165 9.65334789495e-19)
(-0.0225272028856 0.054644985353 2.48344157251e-20)
(-0.816912618207 3.21965466672 3.0727343258e-20)
(-43.9182680515 3.70592144044 -2.26457240755e-20)
(-43.980852808 10.6922941458 -5.99994001343e-20)
(-43.686108016 17.9115497806 -3.3236890463e-20)
(-43.2119463492 25.210056345 3.53926392142e-20)
(-42.5105965858 32.5839314964 6.68450356529e-20)
(-41.51132693 40.0638737062 -1.04911884938e-21)
(-40.122620934 47.6659874948 4.99475716518e-20)
(-38.2128046744 55.3981328212 1.00881561421e-20)
(-35.6374348559 63.2193500736 -2.00261362024e-20)
(-32.16657207 71.1326325896 6.36098644308e-20)
(-27.511167278 79.1783802191 2.21828374586e-20)
(-21.2149087338 87.4642166086 1.23260111654e-19)
(-12.755539397 95.8958745145 3.67761057254e-19)
(-1.09036479746 104.142773073 6.80685536654e-19)
(14.5684942021 112.521352386 3.43011135499e-18)
(37.1577373391 115.883774184 -1.6359276006e-17)
(53.42992306 122.555783844 -1.94351292111e-17)
(19.8031612202 58.1744433016 1.94503837081e-18)
(-0.0982575003509 0.0436875361 -1.44193719826e-19)
(-2.17775364257 -0.731862273298 4.05848845338e-20)
(-51.1105665739 3.74914007623 -3.17059997064e-20)
(-51.2135996904 10.8827854867 1.59735623869e-20)
(-50.9836903857 18.2590093088 -2.57477094079e-20)
(-50.6043057707 25.7421626616 2.02989699828e-20)
(-50.0350260011 33.3624592282 3.62644904493e-20)
(-49.2165256673 41.1814182477 2.96351072323e-20)
(-48.0576683566 49.2368357902 1.39930901778e-20)
(-46.4345719247 57.5414683893 1.2223831466e-19)
(-44.2223555393 66.1284167321 1.11276385312e-20)
(-41.1868617302 75.0886267292 3.86538445229e-20)
(-37.0003989184 84.5672459171 1.0565089633e-20)
(-31.2835723832 94.8315769753 8.99240866606e-20)
(-23.2493317707 106.167176772 2.89147060425e-19)
(-11.8375558878 118.628623579 -1.40626984234e-18)
(4.3623253227 132.808019499 4.25863285663e-18)
(28.3256822565 147.389053213 -3.01693854111e-18)
(41.6422168181 152.791660094 -3.30444460836e-17)
(14.5001102337 69.4886086881 5.14136667752e-19)
(0.0570627396877 0.189360674113 -4.98353181336e-20)
(-0.582770496192 -0.583535184362 3.24808553888e-21)
(-58.3804416682 3.78445547996 -7.02210724034e-20)
(-58.5510848232 11.025410698 -9.96907849238e-20)
(-58.4150082484 18.4954013299 -6.04744314035e-20)
(-58.1798221029 26.131821602 5.65691679783e-21)
(-57.8075846463 33.9478227786 2.30730359747e-20)
(-57.2596096807 42.0301418492 -2.02634345653e-20)
(-56.4629703236 50.4487774641 3.12306633947e-20)
(-55.3179760118 59.2535595993 -2.0144296235e-20)
(-53.6784631327 68.5147714817 1.16947653717e-20)
(-51.380626354 78.4113252959 3.85807697023e-21)
(-48.1321472545 89.1206771833 -1.20642083617e-20)
(-43.6163176683 101.240849678 1.06108660728e-19)
(-37.2044821567 115.313964296 -1.38226072915e-19)
(-27.9867060689 132.075839693 3.15849466281e-19)
(-14.7617992267 153.133733461 6.52844327579e-19)
(4.34802071501 180.953582636 4.49393903581e-18)
(16.649461122 183.528883161 -3.03163000135e-19)
(3.94403395504 78.6835080329 -2.30937997573e-18)
(0.0484289968105 0.301100774673 6.98573399576e-23)
(-0.452564247746 0.1226362374 -1.18692534312e-20)
(-65.6894952287 3.78367011396 -9.9185215876e-20)
(-65.9382307368 11.0798613705 4.67559684047e-20)
(-65.916788793 18.6072078291 -5.75830488718e-20)
(-65.8689703194 26.3221359061 -2.23487463217e-20)
(-65.7596595499 34.2565715836 1.56461668797e-20)
(-65.5581262357 42.514130385 2.55105133352e-20)
(-65.2213854233 51.1791504574 4.87558697459e-21)
(-64.6768140735 60.3375703283 7.06381670815e-22)
(-63.8224407761 70.0794444441 -1.42679863951e-20)
(-62.5192001117 80.6326794469 2.42153178429e-20)
(-60.6152138318 92.2931448811 5.83329602176e-21)
(-57.8871602007 105.681813658 1.22021211926e-19)
(-54.0797010681 121.718794057 7.56660081179e-20)
(-48.6908092367 141.446745527 -5.15017650746e-19)
(-41.1809326952 166.472100097 4.75605208475e-19)
(-37.7561676095 205.292950266 1.85338387395e-18)
(-24.8347903313 206.847804927 -4.45261166739e-18)
(-9.8946631909 84.9006283728 -1.52582002022e-18)
(-0.0118168255121 0.381619889451 1.79977858127e-20)
(-0.212091130081 0.425442861915 -8.8297497538e-21)
(-72.998616815 3.76504468561 -4.94953683203e-20)
(-73.3117936347 11.0529525002 -1.42478968291e-19)
(-73.4251848809 18.5447450323 -5.61260637025e-20)
(-73.6040278878 26.2633460913 1.59640585738e-21)
(-73.7917516681 34.2337267722 3.18985226023e-20)
(-73.9975895795 42.557536785 2.37445204108e-20)
(-74.1899616088 51.3320594311 5.15547269202e-21)
(-74.3342721377 60.6531022732 -3.98859470194e-21)
(-74.365091322 70.6331055308 5.13706518939e-21)
(-74.2266443546 81.5161867127 -4.30400853863e-21)
(-73.8499340815 93.6168685362 8.01331161932e-21)
(-73.2511051219 107.650828149 6.43857163183e-20)
(-72.5195774011 124.465355666 -8.3388509895e-20)
(-72.0328726371 145.352040115 1.00838318755e-19)
(-72.9711722219 165.236988743 -5.24679940219e-18)
(-88.053932671 211.729125657 3.42488767587e-18)
(-71.097166346 225.469642015 -2.13967295408e-18)
(-24.9126627742 93.9069452684 1.98701118651e-18)
(-0.0340411556274 0.361042004694 1.08336323174e-20)
(-0.155195304253 0.342374626193 -1.41704551347e-20)
(-80.2393563017 3.71925028655 -3.11113508169e-20)
(-80.6125741717 10.928146225 2.85833151922e-21)
(-80.8703671264 18.2994617416 -5.04746179019e-20)
(-81.3007952553 25.9305783395 -1.51645086287e-20)
(-81.8093463782 33.8392939966 9.7889457966e-21)
(-82.4457919959 42.1085818935 9.45816658944e-21)
(-83.2001171892 50.8391395984 2.14138626542e-20)
(-84.0613096837 60.133195594 1.71808419985e-20)
(-85.0115429386 70.1070705499 9.22127776062e-21)
(-86.0652092986 81.0187684883 -4.10222162654e-20)
(-87.2546368454 93.1258817905 -1.44165612107e-20)
(-88.7033516096 106.906610006 1.99167227001e-19)
(-90.859506047 122.973581173 4.01324683378e-20)
(-94.7143209459 141.505380811 -1.36985153163e-19)
(-103.141359627 150.654229664 -3.37815769214e-18)
(-113.456904119 208.277457883 4.6390700535e-19)
(-108.008442614 243.074839625 3.36289310822e-18)
(-38.1873950737 103.590309828 1.24054254439e-18)
(-0.0621871431256 0.24302878189 -8.20590302202e-22)
(-0.100107752458 0.279423080841 4.50659993413e-20)
(-87.3854904852 3.66104641344 -2.21028940383e-20)
(-87.72743326 10.7170813003 9.26396010827e-20)
(-88.1378142028 17.8465569287 -8.14487918416e-20)
(-88.8885016299 25.305217274 -3.3058819663e-20)
(-89.697942631 33.0670982441 1.01347237164e-20)
(-90.763206724 41.1526095729 8.35646542742e-21)
(-92.0781023677 49.6950301606 6.72198238812e-21)
(-93.6536283674 58.7987885431 6.5092694022e-21)
(-95.5159800919 68.5656434251 7.50909831358e-20)
(-97.689871742 79.1916918631 -2.0905473613e-21)
(-100.293192002 90.8864080095 -4.43331819156e-21)
(-103.452613616 103.960164991 4.03683768599e-20)
(-107.526953112 118.511755923 -9.98948991027e-21)
(-113.171719597 133.635222697 7.403155004e-20)
(-121.06763302 146.064825442 3.52873529487e-18)
(-117.24355897 198.402465595 -5.24423934774e-18)
(-123.795056489 237.943406159 -1.78159502517e-17)
(-54.3023315327 109.895383839 4.66027823778e-19)
(-0.123361826892 0.205257813323 -8.50900005958e-21)
(-0.0359897561297 0.273982380744 8.67155298204e-22)
(-94.2507679294 3.66202667964 -8.90628688598e-20)
(-94.7215891415 10.4934292021 -9.8971560898e-20)
(-95.3103134498 17.137381528 -8.89722461417e-20)
(-96.1708455956 24.3557689526 -1.47165195689e-20)
(-97.3281591944 31.9424680642 -1.13420219312e-20)
(-98.8172862891 39.7081143282 -3.00588039371e-21)
(-100.672239755 47.9243302337 2.25882006573e-21)
(-102.922834157 56.6642273317 -4.19502876562e-23)
(-105.625437588 66.0267761732 -6.04187245206e-22)
(-108.820022448 76.1713035984 2.18239602948e-20)
(-112.63303572 87.2649306284 -1.4936498559e-20)
(-117.203276159 99.5761135005 1.98838563743e-20)
(-122.697745533 113.313143854 4.33621423729e-20)
(-129.094908485 128.51425103 2.82730775824e-19)
(-135.289395975 146.035122372 -9.08925988477e-19)
(-134.860817806 191.248064702 1.2087226115e-17)
(-140.98543957 212.486116202 8.1408363787e-18)
(-71.2316006743 95.4077169621 -3.39896081301e-18)
(-0.165683170384 0.242995240696 -5.24436666333e-21)
(-0.0488882569345 0.303922335329 2.16084225951e-20)
(-100.742124505 3.48605051355 -9.29936797577e-20)
(-101.524207163 9.99648775815 -3.7735580797e-21)
(-102.223234174 16.4064812776 -6.6209262982e-20)
(-103.159999105 23.2780359819 -4.04544557135e-20)
(-104.631274017 30.4027054894 -2.72630263833e-20)
(-106.509181209 37.7958830626 -9.05864892243e-22)
(-108.846187729 45.5765713379 8.95966195581e-21)
(-111.691700844 53.8221921795 9.8345200219e-21)
(-115.115356731 62.6220015086 1.31218275183e-20)
(-119.21792592 72.111535662 3.39538384229e-21)
(-124.134907265 82.4106018312 2.21959155218e-20)
(-129.99715038 93.8074104639 1.70618666773e-21)
(-137.021258515 106.658186426 6.54366539365e-20)
(-145.291491487 121.494094814 3.87524223258e-19)
(-154.698477597 139.889594274 8.90218002461e-19)
(-163.768091414 175.265521473 1.17643465235e-17)
(-175.187567222 182.133375066 -1.60689337133e-17)
(-84.1310754911 80.0042248175 -2.59614379882e-18)
(-0.191431927668 0.241868591658 -2.94349136249e-20)
(-0.0592230532152 0.296835318253 1.10104958894e-20)
(-106.983358744 3.20325484348 -1.29446656166e-20)
(-107.884124398 9.36661230462 -4.6537478933e-20)
(-108.662386291 15.5169837763 -2.50788550633e-20)
(-109.857886315 21.9514836772 -3.35992580276e-20)
(-111.547167464 28.5993995987 -1.33093990196e-21)
(-113.744787349 35.5112708145 1.90431450257e-21)
(-116.486780723 42.7557822047 6.39777877646e-21)
(-119.841171124 50.3927467584 8.56432833663e-21)
(-123.870225618 58.4774640374 2.94329945776e-20)
(-128.734061303 67.1077053396 -1.39022871747e-20)
(-134.590244372 76.428970717 1.916901172e-20)
(-141.613078251 86.6484465205 6.11081848354e-22)
(-150.135339743 98.0859416659 3.30718249062e-21)
(-160.561159643 111.295112918 -2.32634048652e-19)
(-173.600933269 127.411872107 -3.51288565245e-19)
(-189.597667545 152.369030852 5.93180173155e-18)
(-204.577944841 150.210391859 3.14548659123e-19)
(-96.2768805231 65.9264182948 -2.51099126907e-18)
(-0.210262437933 0.199132267742 3.20290479093e-21)
(-0.0633769138513 0.24807641232 -2.90060537158e-20)
(-112.926676121 2.9194326193 1.1089637255e-20)
(-113.802053846 8.68290752552 5.7786897551e-20)
(-114.707906527 14.4530262891 3.49222719656e-20)
(-116.083835552 20.4173231556 -4.49943101631e-21)
(-117.973875437 26.5594552441 4.570266561e-21)
(-120.429290081 32.9157296081 -9.61098876293e-21)
(-123.492192073 39.5213480515 -1.70433213859e-20)
(-127.242113386 46.4520421495 -1.19632658129e-20)
(-131.782673696 53.7276328622 -8.62547165162e-21)
(-137.253123883 61.3953021678 -3.02694774811e-20)
(-143.830263583 69.5548593339 -1.47978914957e-21)
(-151.776190277 78.320633233 -4.03731413994e-20)
(-161.46421816 87.8750498393 -1.48891741792e-19)
(-173.503294207 98.5667405794 -3.01765494672e-19)
(-188.88715822 110.939858174 3.99183122157e-19)
(-208.237391198 126.444991536 4.07365657593e-18)
(-223.590640104 118.945100826 7.29248539969e-18)
(-105.317746682 53.13289366 -7.87583041204e-20)
(-0.218553256993 0.155792738192 -5.78309233659e-21)
(-0.0695094889259 0.180817297956 -1.12633987344e-20)
(-118.413556322 2.65357290052 1.125368849e-19)
(-119.3044139 7.95419131237 6.2942705449e-20)
(-120.307367029 13.261540544 4.19675751326e-20)
(-121.817825394 18.7086381167 2.15766454868e-20)
(-123.866123353 24.2863357872 3.53436170332e-21)
(-126.50164915 30.0366054541 1.95065073062e-21)
(-129.806008867 35.9817900745 -9.1241535683e-21)
(-133.852423177 42.1275912048 -3.00822691527e-20)
(-138.765904949 48.4979600541 -1.24992500387e-20)
(-144.641435323 55.1132451349 -2.50886526668e-20)
(-151.699546222 61.9951560939 -1.17136629165e-20)
(-160.187784153 69.1654058422 -1.19407373408e-19)
(-170.513280746 76.6347428064 -2.9111603317e-19)
(-183.275599424 84.4623401067 -6.61517667626e-19)
(-199.407804351 92.8499214535 -1.51984704707e-18)
(-219.320061172 100.810005314 -7.71385154265e-19)
(-233.086170188 90.5655950151 -3.28035661843e-18)
(-110.704726883 42.7298886856 4.26237961588e-18)
(-0.22958179662 0.110572141585 3.92935421698e-21)
(-0.0863339590471 0.0930410158345 3.45010726355e-20)
(-123.428973928 2.37894340971 5.23456871048e-20)
(-124.336473591 7.18045750363 3.55692185591e-20)
(-125.406542546 11.9769723815 -7.10036822337e-24)
(-127.010143677 16.8630463743 -1.46563351751e-20)
(-129.172054127 21.8471377415 -6.1544468241e-21)
(-131.950413474 26.9489606412 1.50650587329e-21)
(-135.42617994 32.1704047206 -6.63940999783e-22)
(-139.675240424 37.5122692477 -5.60955880155e-21)
(-144.786222073 42.9754152353 -1.00128356411e-19)
(-150.8765858 48.5232897957 -2.62524853013e-20)
(-158.111562519 54.108885973 -6.5470697874e-20)
(-166.745943695 59.6802843049 -1.73330405603e-19)
(-177.12822359 65.1150402362 -3.66832392273e-19)
(-189.759598443 70.1811578959 -5.60292155434e-19)
(-205.249794854 74.8763516122 8.23900512356e-19)
(-223.89804445 77.1961261814 2.2407539305e-18)
(-236.582774147 66.7990216682 6.01440505155e-19)
(-111.776341829 34.3336762562 3.29870875072e-18)
(-0.24815350856 0.0929396667781 1.0056938176e-20)
(0.0223995610122 -0.035703889114 3.98792212514e-19)
(-127.922215147 2.08450429981 -5.0789828067e-20)
(-128.850411265 6.35113560088 4.19811974806e-21)
(-129.968113153 10.5969730183 -4.0481514458e-20)
(-131.637032808 14.9072731714 -2.20406434385e-20)
(-133.879232082 19.2775709198 -4.15537439519e-21)
(-136.769485581 23.7175448252 -9.76663762962e-21)
(-140.346380144 28.2213956085 -2.14649490893e-20)
(-144.689818984 32.7709842042 3.35366380017e-21)
(-149.867368567 37.3271048449 -1.00933829826e-20)
(-155.98924186 41.8378060502 -4.39923956444e-21)
(-163.170171093 46.2165671013 -6.88194483822e-21)
(-171.605065952 50.3201369405 -2.65299836033e-19)
(-181.555500859 53.9643836077 -2.54618189155e-19)
(-193.378309139 56.6912108854 -1.46189046118e-19)
(-207.236434104 58.3090269722 2.53048623667e-18)
(-223.233563745 56.5393095287 1.44701035696e-18)
(-236.736378895 45.5083117988 1.86835841775e-18)
(-109.486105313 26.4414661721 2.08993872077e-17)
(-0.2684615365 0.0523574459518 2.28632119254e-20)
(0.212602330455 -0.424587207503 4.98794536235e-19)
(-131.869180941 1.78773058335 -6.29877957537e-20)
(-132.810755376 5.49628190947 -5.23688360782e-20)
(-133.962368889 9.16762554607 -2.50428719465e-20)
(-135.678741106 12.8786072069 -4.71078743765e-20)
(-137.981056476 16.6254432116 -6.90932502827e-22)
(-140.92238196 20.4114434902 1.07705917604e-20)
(-144.548464098 24.2146674759 -1.2791511442e-20)
(-148.905703059 27.994181666 3.33162379688e-21)
(-154.052805612 31.7019383971 1.38628625741e-21)
(-160.055250151 35.2665691109 -2.95586327633e-20)
(-167.005196002 38.5810498896 2.28870206719e-20)
(-175.00291438 41.4568104245 -1.13337587358e-19)
(-184.192028303 43.6794865114 -1.50723402281e-19)
(-194.755117551 44.6805461207 -1.16673960123e-19)
(-206.408956614 44.1767987545 9.70697918039e-19)
(-218.893730562 39.5535790489 -2.47673957964e-18)
(-233.075122857 27.7890015359 -3.90552630369e-18)
(-104.791008279 16.0593497011 1.03699485827e-17)
(-0.173744059766 -0.116264634722 -6.32990308462e-20)
(0.369752470554 -0.922548560451 -2.05374300249e-20)
(-135.252719141 1.49011260338 1.71317973147e-20)
(-136.198703823 4.63369454826 1.82450376482e-21)
(-137.373495048 7.72594465163 -5.99193901629e-21)
(-139.119985724 10.837205427 -2.99201764383e-20)
(-141.45411847 13.9678170546 -1.68047575234e-20)
(-144.413777707 17.1015865866 -2.87496676246e-20)
(-148.036974971 20.2115939168 5.33228161059e-23)
(-152.34990024 23.2646304386 1.24369290787e-20)
(-157.38908527 26.1987944798 -4.6109445611e-21)
(-163.193023918 28.9318923982 2.68615380746e-22)
(-169.79876223 31.3570639751 2.14774139369e-20)
(-177.250551548 33.2888793877 -1.11328546953e-19)
(-185.543650496 34.5150881323 -2.20361295628e-19)
(-194.689941758 34.502347249 -3.51169996688e-20)
(-204.054970786 33.0883373321 1.57046552497e-18)
(-213.019291063 27.3630465375 -2.29355149485e-18)
(-223.682112244 18.1270740467 3.15722612547e-18)
(-102.921443172 7.13702219994 -2.00444217408e-18)
(0.380716901899 -0.354640939005 3.88482020661e-20)
(-0.178204895281 -0.897049165457 3.01661565344e-20)
(-138.066973301 1.19346197597 1.79510686291e-20)
(-139.014524602 3.76668446695 2.78184798432e-20)
(-140.203456611 6.27547444577 8.63078002189e-21)
(-141.963742972 8.79064706123 -1.23704370896e-20)
(-144.299158836 11.3093341252 -3.13274964309e-20)
(-147.249838638 13.8082115991 -1.35190408087e-20)
(-150.835882262 16.2609797365 -3.86267873255e-20)
(-155.07270801 18.6362613314 -5.16526859806e-20)
(-159.973371207 20.8759340856 -3.27788685295e-20)
(-165.540030868 22.902163415 -3.59202647755e-20)
(-171.772058622 24.6129117677 -3.10018412849e-20)
(-178.64757956 25.8596318469 -6.75252541513e-20)
(-186.095591098 26.4723054862 -1.35614022568e-19)
(-193.973922785 26.0946018716 -1.4079233506e-19)
(-201.571337793 24.7569353638 1.36350392109e-19)
(-208.109473115 20.4917051327 2.14588121328e-19)
(-215.648428601 14.1099552848 6.47173476827e-18)
(-131.367692235 3.57256614847 9.67271425834e-19)
(15.3805278982 2.76568684572 1.20267918587e-18)
(-0.586554690137 1.95087571234 -4.56554752632e-21)
(-140.312682136 0.896224295916 3.89139377509e-20)
(-141.258013073 2.89522464739 1.35523754426e-20)
(-142.452753479 4.82040300266 -6.00288588546e-21)
(-144.213284803 6.74127388079 -4.21626576181e-20)
(-146.538291836 8.66014608035 -2.01238794055e-20)
(-149.459660985 10.5519844779 -5.06492303471e-22)
(-152.990880591 12.3906804189 2.05070242778e-22)
(-157.135123571 14.1426351793 -6.20694941334e-22)
(-161.883257927 15.7602538068 -3.1359758297e-20)
(-167.21321485 17.1803412547 -1.43720934737e-20)
(-173.096300249 18.3275789597 -5.61438342571e-20)
(-179.467352936 19.0841783868 -4.31743477037e-20)
(-186.229713683 19.3348214105 -1.5137890745e-19)
(-193.174974393 18.9436646438 -4.18596993436e-20)
(-199.799718403 18.1064778705 8.06764166492e-19)
(-205.562867074 15.6470505435 -4.02853342979e-19)
(-212.328017594 11.1504947234 1.6885292751e-18)
(-154.157483004 5.24450829703 5.77605041635e-18)
(16.3710737708 4.50700445262 6.16514897521e-19)
(-0.00709604310682 0.474873172332 -1.74783047764e-19)
(-141.988399279 0.601489042223 1.69641918426e-20)
(-142.925165355 2.02482387664 -1.86244774981e-21)
(-144.122999802 3.36786234235 -1.57137260889e-20)
(-145.878806529 4.70221667403 -2.64727787602e-20)
(-148.190298462 6.03570865135 -2.20398894885e-20)
(-151.076898023 7.34942336652 -9.21212109589e-22)
(-154.544863614 8.61592167031 -1.91715296439e-20)
(-158.586616015 9.79602652874 1.49171508162e-20)
(-163.186335243 10.8502397525 -1.88603216672e-21)
(-168.310591792 11.7383740125 -3.80067872505e-20)
(-173.902578922 12.4206905158 6.84604524389e-20)
(-179.893450549 12.8077095834 -4.36825130855e-20)
(-186.147739686 12.8245089475 -1.5299049769e-19)
(-192.487007728 12.4694966704 5.73227220202e-20)
(-198.646674256 11.9543500202 9.97356696302e-19)
(-204.737827562 10.1123422389 7.56573667455e-19)
(-212.298534406 6.3377677776 1.09804812279e-18)
(-159.130719731 5.11504405842 -4.90868490821e-19)
(13.7615383247 5.03407967945 9.69347876229e-19)
(-0.0171964621212 0.0783425265887 -3.92194381972e-20)
(-143.094773748 0.309676185918 3.34918815076e-20)
(-144.02475761 1.15747511941 -1.19083533377e-21)
(-145.223630326 1.91829577022 -2.46557217915e-21)
(-146.974083726 2.67354205767 -1.56646884538e-20)
(-149.269721259 3.43381230229 -7.47193981335e-21)
(-152.128898538 4.1783090126 1.14805923953e-20)
(-155.543817865 4.88913765194 -8.02785471535e-22)
(-159.494811743 5.54384441365 2.09575539769e-21)
(-163.967295772 6.10129063592 -2.39927628143e-20)
(-168.931207734 6.53067398146 9.56835434413e-21)
(-174.312055771 6.81630836395 2.15144955733e-20)
(-180.027167308 6.91196295049 -3.36560564052e-20)
(-185.933380607 6.75267010965 -6.25155608534e-20)
(-191.880172775 6.35676634006 -4.10513407582e-20)
(-197.697362897 5.84688746193 2.24166421409e-19)
(-203.849221336 3.87347610435 -5.4349725672e-19)
(-212.104737966 0.090150863845 -3.16563368649e-18)
(-158.153540904 0.7858457739 2.73287973867e-18)
(10.5610014046 5.58420376328 2.80417331953e-19)
(-0.0525549086049 0.0474622106002 -2.64423793583e-20)
(-143.616129757 0.0178006913297 -1.20540925251e-20)
(-144.543631271 0.289810535703 1.05912093907e-20)
(-145.743799908 0.474560108982 -4.99443063474e-22)
(-147.490368479 0.657161763562 -2.50711160798e-21)
(-149.774479442 0.850958204426 -3.62113261098e-20)
(-152.614050979 1.03989195293 -9.35272883311e-21)
(-155.994385545 1.21413463212 -7.76613982864e-21)
(-159.889255164 1.3626992331 1.52886607821e-21)
(-164.272165756 1.46069907358 -1.94291358907e-20)
(-169.119963383 1.48461832541 -1.81317917613e-20)
(-174.371122197 1.42395692604 1.45316181813e-20)
(-179.917914597 1.26790168325 -1.08662151263e-20)
(-185.647881842 0.958688698097 -4.64025390952e-20)
(-191.339214048 0.541371210098 -4.91864116557e-20)
(-196.95558056 0.201798588978 2.12225059258e-19)
(-202.649985104 -2.28881242923 2.49147188952e-19)
(-209.588361406 -8.06497637195 1.07840354632e-17)
(-155.195096993 -6.50249515501 -1.37037466122e-18)
(4.55942237904 6.08925388875 -1.81216632425e-18)
(-0.0939985241552 0.1438704817 7.57236937066e-22)
(-143.544590584 -0.273371291412 1.87720595198e-20)
(-144.469225571 -0.579341046389 -2.17628170667e-20)
(-145.676265319 -0.967270820669 1.02123019651e-20)
(-147.42684833 -1.35386525008 5.28702985473e-21)
(-149.709982283 -1.71841146337 4.00059518555e-21)
(-152.542091636 -2.07143353377 -2.78664574725e-21)
(-155.909575514 -2.4158030824 2.06273815241e-21)
(-159.78464262 -2.75276163742 3.28156060205e-21)
(-164.129267962 -3.08909425908 -1.37181231256e-20)
(-168.908324767 -3.44111147218 9.74889385966e-22)
(-174.082055297 -3.83163192256 4.7003557053e-21)
(-179.540893783 -4.28384560043 -5.9675175732e-20)
(-185.176507971 -4.74335868066 -1.0812668199e-19)
(-190.785787785 -5.23035306149 -2.31710436668e-19)
(-196.401464813 -5.42198713095 -4.66700831044e-19)
(-201.845555364 -7.99731599372 -1.90890941008e-18)
(-206.760241817 -8.65832107233 3.03169030497e-17)
(-155.108615475 -8.71434389807 6.13803503745e-18)
(-2.78067250117 5.51247432331 2.70202344745e-18)
(-0.144085367793 0.0676494061729 1.32410349603e-20)
(-142.890882263 -0.564490345736 3.92855165067e-20)
(-143.811876779 -1.45160229119 -3.69273494221e-21)
(-145.032034643 -2.41497027992 3.34705848724e-21)
(-146.795271124 -3.36970707571 -1.58602790408e-20)
(-149.090711782 -4.29006783019 3.99470730396e-21)
(-151.934143697 -5.18159318136 1.74141945601e-21)
(-155.31295538 -6.04108521991 3.54834335504e-21)
(-159.197648211 -6.86479617638 2.9902096482e-21)
(-163.551123757 -7.64266428577 -2.46559722287e-20)
(-168.316145525 -8.38212789219 -5.68665163991e-21)
(-173.458148165 -9.09719158715 3.81460152879e-20)
(-178.902594314 -9.79361964086 -5.93816166628e-20)
(-184.518114446 -10.4289753563 -1.66084914355e-19)
(-190.140124146 -11.0637367576 -7.0673521878e-19)
(-195.830807645 -11.1727584288 -1.79523324163e-19)
(-201.355038676 -13.9132674422 1.50648543688e-18)
(-206.898038129 -11.6461695272 3.7589822209e-18)
(-159.483191058 -10.8061548146 -9.3713716973e-19)
(-7.768646282 4.75427732417 4.21920298438e-18)
(-0.190829379185 0.0264457639613 3.72357827332e-20)
(-141.646680093 -0.859442130122 1.34229873923e-20)
(-142.567672171 -2.332298563 -7.39700916616e-20)
(-143.805133243 -3.87526000245 -1.77242626577e-20)
(-145.588423402 -5.40113564811 -4.02853627064e-21)
(-147.912218106 -6.88002238129 -6.33416435995e-21)
(-150.787829685 -8.31270845921 -1.64606177553e-20)
(-154.203377176 -9.68758726223 4.07637716287e-21)
(-158.129325745 -10.9979006001 1.91344601227e-20)
(-162.529260827 -12.2233725335 -3.11350333294e-20)