/*--------------------------------*- C++ -*----------------------------------*\
| =========                 |                                                 |
| \\      /  F ield         | OpenFOAM: The Open Source CFD Toolbox           |
|  \\    /   O peration     | Version:  v2012                                 |
|   \\  /    A nd           | Website:  www.openfoam.com                      |
|    \\/     M anipulation  |                                                 |
\*---------------------------------------------------------------------------*/
FoamFile
{
    version     2.0;
    format      ascii;
    class       surfaceScalarField;
    location    "5.8";
    object      phi;
}
// * * * * * * * * * * * * * * * * * * * * * * * * * * * * * * * * * * * * * //

dimensions      [0 3 -1 0 0 0 0];
oriented        oriented;


internalField   nonuniform List<scalar> 
3840
(
1.05813207635e-05
-1.0580534497e-05
2.00078581282e-05
-9.42570436657e-06
2.91632421135e-05
-9.15455749837e-06
3.84160297387e-05
-9.25199654087e-06
4.79586432401e-05
-9.54187722818e-06
5.79904731363e-05
-1.00304538611e-05
6.85484498315e-05
-1.05558012973e-05
7.9592574001e-05
-1.10413378666e-05
9.15046244598e-05
-1.19082391253e-05
0.000104065864709
-1.25582140726e-05
0.000117633909082
-1.35643600102e-05
0.000132079638007
-1.44416251807e-05
0.000147546849489
-1.54631613684e-05
0.000163891087414
-1.63404462736e-05
0.000178249293989
-1.43551878189e-05
0.000187839957981
-9.58879436122e-06
0.000205298391675
-1.74578544075e-05
0.000249970127732
-4.46718763749e-05
0.000441485649809
-0.000191517751329
-0.000517824374729
9.20000297812e-06
-1.97797501965e-05
1.83224603047e-05
-1.85473814183e-05
2.7301838139e-05
-1.81331853878e-05
3.63516396335e-05
-1.83011043371e-05
4.56856336715e-05
-1.88752390355e-05
5.54031908297e-05
-1.97468012393e-05
6.5631464639e-05
-2.07817478097e-05
7.6525070577e-05
-2.19330459693e-05
8.77693206472e-05
-2.31471558157e-05
9.98677361865e-05
-2.46530036257e-05
0.000113005862961
-2.66983395023e-05
0.000127171461101
-2.86026194435e-05
0.000142522497483
-3.08094781313e-05
0.000158264722781
-3.20784570269e-05
0.000176568354907
-3.26553868095e-05
0.000201614201511
-3.46326193538e-05
0.000225326062253
-4.11690872549e-05
0.00024213928997
-6.14850712862e-05
0.000132090676204
-8.14726922175e-05
-0.000255528830658
8.43368908668e-06
-2.82128167506e-05
1.70680266666e-05
-2.71811500429e-05
2.57264976601e-05
-2.67911465206e-05
3.44815274763e-05
-2.70556898796e-05
4.34691716417e-05
-2.78625121177e-05
5.28220024786e-05
-2.9098627555e-05
6.26378346266e-05
-3.05965253079e-05
7.30134837436e-05
-3.23045527228e-05
8.41245594203e-05
-3.42549210013e-05
9.61168241959e-05
-3.66391456514e-05
0.000108516114724
-3.90925442615e-05
0.000122031709979
-4.21127591724e-05
0.000136468389649
-4.52407615619e-05
0.00015214158418
-4.77466505761e-05
0.000169318702942
-4.98286279274e-05
0.000192885725082
-5.81973028717e-05
0.000217407945375
-6.56905858838e-05
0.000238291855423
-8.23698579408e-05
0.000199702920031
-4.28877305019e-05
0.000140625923096
7.98729090594e-06
-3.61997661153e-05
1.61639008938e-05
-3.53575184294e-05
2.4412952813e-05
-3.50400380284e-05
3.28072948974e-05
-3.54499442221e-05
4.14709787476e-05
-3.65261727426e-05
5.03873400114e-05
-3.80146667386e-05
5.97814700044e-05
-3.99889678572e-05
6.97821472866e-05
-4.23034504259e-05
8.04617737459e-05
-4.49251811935e-05
9.18786916391e-05
-4.80494286873e-05
0.000104150287205
-5.13567486658e-05
0.000117406076233
-5.53618041341e-05
0.000131317988918
-5.91461117178e-05
0.000145978999535
-6.24018375882e-05
0.000162857188784
-6.67022298096e-05
0.000186852376133
-8.21897737396e-05
0.000210740981868
-8.95783581625e-05
0.000226846823411
-9.84764457741e-05
0.000127074818049
5.68795710368e-05
0.000574610335054
7.72176425753e-06
-4.39215377452e-05
1.54224692619e-05
-4.30583715293e-05
2.32037058128e-05
-4.28215150598e-05
3.11296096473e-05
-4.33761389904e-05
3.93020509801e-05
-4.46989024029e-05
4.7890033548e-05
-4.66027064418e-05
5.69067935989e-05
-4.90047926121e-05
6.65408562583e-05
-5.1934174059e-05
7.68686665078e-05
-5.52470025885e-05
8.78898039642e-05
-5.90573727655e-05
9.99116239505e-05
-6.33663744773e-05
0.000112807706975
-6.82495178113e-05
0.000126972295475
-7.33028906143e-05
0.000142636626888
-7.80592704269e-05
0.000161054380984
-8.51146401241e-05
0.000181130866299
-0.000102263129929
0.000201281373316
-0.000109727929454
0.000222720255302
-0.00011991597862
0.00033784142694
-5.82479623839e-05
0.000109672611391
7.39385906943e-06
-5.13157856226e-05
1.46683401823e-05
-5.03334146979e-05
2.1988323608e-05
-5.01421500565e-05
2.94406852006e-05
-5.0829155162e-05
3.71597101104e-05
-5.24184346598e-05
4.52510091034e-05
-5.46941236495e-05
5.38057097648e-05
-5.7558631451e-05
6.28853809808e-05
-6.10099954265e-05
7.2760035227e-05
-6.51137110426e-05
8.3445594494e-05
-6.97318792668e-05
9.52396590961e-05
-7.51447739319e-05
0.000108107109452
-8.11069324345e-05
0.000122732830344
-8.79193993745e-05
0.000139875989908
-9.51944640121e-05
0.000159616195553
-0.00010484875712
0.000177270698304
-0.000119914113404
0.000193366697749
-0.000125822896869
0.000218382783682
-0.000144933337612
0.000461014676204
-0.000300886649321
-0.000978215955469
6.97304941196e-06
-5.82896113887e-05
1.37955526123e-05
-5.71568881888e-05
2.06462309277e-05
-5.69938738858e-05
2.75570704452e-05
-5.77409802606e-05
3.47551515361e-05
-5.96172054695e-05
4.23038930135e-05
-6.22428796923e-05
5.03371409053e-05
-6.55906637035e-05
5.87664177345e-05
-6.94346266175e-05
6.80294044858e-05
-7.43670313184e-05
7.81637853222e-05
-7.98530966762e-05
8.92161705417e-05
-8.61784007524e-05
0.000101785160933
-9.36642440161e-05
0.000116408723688
-0.00010253244972
0.000134107440115
-0.000112884237558
0.000155078581774
-0.000125813153694
0.00017139561826
-0.000136227307964
0.000186171905333
-0.000140598082005
0.000207799025982
-0.00016656093276
0.000147841219967
-0.000240935759338
-0.000582555902477
6.42069791088e-06
-6.47114557052e-05
1.27683478252e-05
-6.35058875103e-05
1.90432143867e-05
-6.32701420057e-05
2.54721401926e-05
-6.41711789591e-05
3.20307573776e-05
-6.61766549286e-05
3.89177872889e-05
-6.91298270514e-05
4.62004362837e-05
-7.28716782596e-05
5.41324270209e-05
-7.7361129653e-05
6.25349665946e-05
-8.27583436598e-05
7.18077252904e-05
-8.91108585196e-05
8.18045997022e-05
-9.61537867008e-05
9.32376178133e-05
-0.00010508422954
0.000105949357976
-0.000115232646286
0.000121623287628
-0.000128548486382
0.000139450014696
-0.000143632669665
0.000158749320013
-0.000155522563757
0.000178289351563
-0.0001601369716
0.000201198760084
-0.00018947041463
0.000139821847634
-0.000179565880666
-0.000254841357276
5.94363967944e-06
-7.06565723506e-05
1.16417567096e-05
-6.92056827461e-05
1.72982471801e-05
-6.89283347973e-05
2.30604423299e-05
-6.99348807067e-05
2.89985123093e-05
-7.2115668224e-05
3.51643941734e-05
-7.52955399803e-05
4.16962821201e-05
-7.94015885536e-05
4.86976472925e-05
-8.43563199454e-05
5.61846685725e-05
-9.02329355827e-05
6.41584968704e-05
-9.70684905344e-05
7.30870296944e-05
-0.000105058851261
8.2263119042e-05
-0.00011424641295
9.31129172388e-05
-0.000126070289521
0.000104750293854
-0.000140175802457
0.000118199731341
-0.000157074702883
0.000137159997482
-0.000174478731642
0.00016115030015
-0.000184126139098
0.000187931290697
-0.000216250776006
0.000188358582128
-0.000179999477405
-5.90612613537e-05
5.28063938524e-06
-7.5938958052e-05
1.04008961411e-05
-7.4327877605e-05
1.5467020823e-05
-7.39963966275e-05
2.04882623926e-05
-7.49578085147e-05
2.56651070054e-05
-7.72935466089e-05
3.10818863035e-05
-8.07121137664e-05
3.67471176032e-05
-8.50646705702e-05
4.27732435766e-05
-9.03758491364e-05
4.91776458127e-05
-9.66245437286e-05
5.59267773998e-05
-0.000103800899384
6.30125253289e-05
-0.00011212047028
7.07929241644e-05
-0.000122012732661
7.8786797991e-05
-0.000134051990099
8.72992564635e-05
-0.000148678299364
9.70705396192e-05
-0.000166838741745
0.000112394960381
-0.000189799202999
0.000135016003265
-0.00020674611193
0.000163832647498
-0.000245066338702
0.000202984770152
-0.000219156397043
-0.000145300341493
4.63841597194e-06
-8.05793104844e-05
9.05683246263e-06
-7.8748407244e-05
1.3372032298e-05
-7.83136914056e-05
1.77036941831e-05
-7.929128638e-05
2.21135625051e-05
-8.17045338798e-05
2.66690785817e-05
-8.5267478106e-05
3.14503918541e-05
-8.98438491238e-05
3.64059404488e-05
-9.53249246085e-05
4.15509323573e-05
-0.000101756928626
4.69460231652e-05
-0.000109180029611
5.27153980589e-05
-0.000117866282078
5.8556003255e-05
-0.000127839842731
6.4719365073e-05
-0.000140203793155
7.04704893803e-05
-0.000154420077075
7.62622050258e-05
-0.000172623751814
8.82699515575e-05
-0.000201803348124
0.000104447549681
-0.000222922751114
0.000130162049463
-0.000270780751392
0.000151720265867
-0.000240718951939
-0.000106759753806
3.94799181629e-06
-8.45293348387e-05
7.68447239683e-06
-8.24870777121e-05
1.12858941722e-05
-8.19172816397e-05
1.4843333596e-05
-8.285061681e-05
1.84281715885e-05
-8.52905861715e-05
2.20842410967e-05
-8.89235259354e-05
2.58186713346e-05
-9.35764064809e-05
2.96844588756e-05
-9.91846991881e-05
3.36881384452e-05
-0.000105749381541
3.770146676e-05
-0.000113178854465
4.19858827616e-05
-0.000122129495072
4.65366273523e-05
-0.000132378513652
5.09538632334e-05
-0.000144610767855
5.53282648095e-05
-0.000158786264448
6.03416941277e-05
-0.000177631374318
6.47649219749e-05
-0.000206223501389
7.54351738621e-05
-0.000233592208612
9.04067466621e-05
-0.000285751876593
0.000101902442505
-0.000252218110256
-6.38122204388e-05
3.24016923098e-06
-8.77715278724e-05
6.27708216872e-06
-8.55261490393e-05
9.11789095868e-06
-8.47602354049e-05
1.18457488976e-05
-8.55803771403e-05
1.46072354289e-05
-8.80533609063e-05
1.73715660532e-05
-9.16880574746e-05
2.01334824327e-05
-9.63368580841e-05
2.29127673045e-05
-0.000101959025558
2.5690857118e-05
-0.000108517937084
2.86537097543e-05
-0.000116129970746
3.1530597012e-05
-0.00012498849786
3.4376907327e-05
-0.000135214786766
3.71455103255e-05
-0.000147370897899
3.99669830546e-05
-0.000161601033948
4.23297563171e-05
-0.000179989488885
4.51733785805e-05
-0.000209064702235
4.78612626663e-05
-0.000236279509363
5.6427215201e-05
-0.000294317964995
5.58416014664e-05
-0.000251633139637
-4.0684014877e-05
2.52640638078e-06
-9.02998359557e-05
4.82674486202e-06
-8.7828495401e-05
6.97275519899e-06
-8.69082575577e-05
8.96733131763e-06
-8.75767751834e-05
1.08324356628e-05
-8.99197846611e-05
1.26513209916e-05
-9.35073328751e-05
1.4418775522e-05
-9.81033607623e-05
1.61379421496e-05
-0.000103674437777
1.78021931129e-05
-0.000110175393095
1.94070961311e-05
-0.000117725718966
2.08746317049e-05
-0.000126442768548
2.22534665681e-05
-0.000136585842543
2.35045068574e-05
-0.000148615352966
2.49507466367e-05
-0.000163042022188
2.6565960909e-05
-0.000181601208214
2.4520639446e-05
-0.0002070175051
2.37096798012e-05
-0.000235468105003
1.70645755315e-05
-0.000287670306517
1.18939752839e-05
-0.000246462120442
-2.50599597703e-05
1.85238550681e-06
-9.21538824667e-05
3.42430205433e-06
-8.94021456012e-05
4.79581862984e-06
-8.82815274344e-05
6.00929761593e-06
-8.87918747369e-05
7.05801466629e-06
-9.09697204346e-05
8.00818232038e-06
-9.44580647327e-05
8.87219326668e-06
-9.89671867743e-05
9.56963409755e-06
-0.000104369776173
9.9919421817e-06
-0.000110592616452
1.02901822009e-05
-0.000118018736396
1.04052732862e-05
-0.000126547500217
1.02296271175e-05
-0.000136404413056
9.83102453191e-06
-0.00014821140137
9.2900319861e-06
-0.000162497381887
8.36266985325e-06
-0.000180670954713
6.86044918511e-06
-0.000205514068441
2.3658259255e-06
-0.000230973120849
-1.27767573461e-05
-0.000272526395945
-2.52374622568e-05
-0.000233994629991
-1.09027403902e-05
1.14977451554e-06
-9.33049268595e-05
2.090802379e-06
-9.03445188772e-05
2.75775890227e-06
-8.89498667838e-05
3.22161183694e-06
-8.92569998972e-05
3.51066927698e-06
-9.12599307547e-05
3.63059165484e-06
-9.45788682261e-05
3.54938790441e-06
-9.88862254158e-05
3.17712578861e-06
-0.000103996285114
2.61913505266e-06
-0.000110033016321
1.61354548572e-06
-0.000117008566279
2.68041861832e-07
-0.000125196413404
-1.42485501228e-06
-0.000134707003959
-3.43995951078e-06
-0.000146192948042
-5.62182819964e-06
-0.000160312412203
-7.82505806995e-06
-0.000178466149745
-1.01687876267e-05
-0.000203169298355
-1.53261949783e-05
-0.000225815413385
-3.68243837339e-05
-0.000251026412226
-5.65416073476e-05
-0.000214268791829
4.10023955461e-06
5.32861650968e-07
-9.38386190763e-05
8.12709310908e-07
-9.06252230716e-05
8.92584637184e-07
-8.90306224637e-05
7.45219252427e-07
-8.91106421745e-05
3.66262054145e-07
-9.08817680062e-05
-3.08095126199e-07
-9.39052033842e-05
-1.3151778188e-06
-9.78796941282e-05
-2.62633489676e-06
-0.000102685402166
-4.3816440054e-06
-0.000108274653819
-6.51766675879e-06
-0.000114868840402
-9.15444436324e-06
-0.000122553693924
-1.22974374924e-05
-0.000131558602104
-1.60026461016e-05
-0.000142482508744
-1.99432109208e-05
-0.000156368223783
-2.41431203625e-05
-0.000174263280979
-2.90767563319e-05
-0.000198234154093
-3.69873181602e-05
-0.00021790425439
-6.07515861999e-05
-0.000227259591628
-8.26176278908e-05
-0.000192392499637
1.48266322817e-05
-5.79569326397e-08
-9.37809766171e-05
-3.494832199e-07
-9.03340746364e-05
-8.83836399745e-07
-8.84966550012e-05
-1.63845373786e-06
-8.83562837315e-05
-2.66895602649e-06
-8.98517481713e-05
-4.03528430581e-06
-9.25400617642e-05
-5.81435635567e-06
-9.61010553751e-05
-8.04174112429e-06
-0.000100457782855
-1.06809125251e-05
-0.000105634460468
-1.37935885573e-05
-0.000111754618547
-1.7512793866e-05
-0.000118832481071
-2.19157095823e-05
-0.000127153656611
-2.71512215412e-05
-0.0001372450789
-3.31416499581e-05
-0.000150376309418
-3.95012771307e-05
-0.000167902531736
-4.78418480549e-05
-0.000189892934583
-5.91510378545e-05
-0.000206594847957
-7.92966641545e-05
-0.000207112435203
-9.76290636986e-05
-0.000174057969986
4.19422411307e-06
-5.86487590001e-07
-9.31947975274e-05
-1.4408646025e-06
-8.94798766307e-05
-2.55696479506e-06
-8.73804870249e-05
-3.938300061e-06
-8.69749534511e-05
-5.62491024195e-06
-8.81653874397e-05
-7.70032093041e-06
-9.04645762328e-05
-1.01628868941e-05
-9.36382079684e-05
-1.30056607797e-05
-9.76144449965e-05
-1.63711101185e-05
-0.000102267990321
-2.02643818324e-05
-0.000107859921904
-2.48372135509e-05
-0.00011425792378
-3.03185202722e-05
-0.000121670564048
-3.67717953032e-05
-0.000130790134715
-4.45388367423e-05
-0.000142607864646
-5.36437649494e-05
-0.000158796540215
-6.5634060352e-05
-0.000177902008819
-8.14835509407e-05
-0.000190745158498
-9.32903338e-05
-0.000195304860252
-0.000104726131805
-0.000162621978143
-5.55915061495e-05
-1.15209193448e-06
-9.20424898206e-05
-2.56503274165e-06
-8.80666405365e-05
-4.23729420662e-06
-8.57079226315e-05
-6.24576829732e-06
-8.49661787791e-05
-8.55732923333e-06
-8.58535070583e-05
-1.12041985484e-05
-8.78173106993e-05
-1.42249283701e-05
-9.06168888858e-05
-1.76766787905e-05
-9.41618563249e-05
-2.15668013152e-05
-9.83766761472e-05
-2.61448254413e-05
-0.000103280401394
-3.15184305595e-05
-0.000108882581202
-3.77493721033e-05
-0.000115437852929
-4.51730917024e-05
-0.000123364749324
-5.40676938644e-05
-0.000133711855704
-6.51098707632e-05
-0.000147753309454
-8.02559251051e-05
-0.000162755351717
-9.98271373667e-05
-0.000171173776176
-0.000105547596235
-0.000189584020174
-0.000117153102872
-0.000151017760497
-0.000158078079254
-1.70285825789e-06
-9.03392818205e-05
-3.64890373892e-06
-8.61201765603e-05
-5.88484250773e-06
-8.34715408174e-05
-8.42650468666e-06
-8.24240581483e-05
-1.12398589852e-05
-8.30396458147e-05
-1.43465925843e-05
-8.4709970216e-05
-1.78141190025e-05
-8.714857265e-05
-2.17658595763e-05
-9.02090781837e-05
-2.62536595161e-05
-9.38875382437e-05
-3.14089305301e-05
-9.81235172499e-05
-3.73028799057e-05
-0.000102986829146
-4.41931098136e-05
-0.000108545793937
-5.22437838603e-05
-0.000115312387224
-6.18949345244e-05
-0.000124059311449
-7.39469308835e-05
-0.000135700328998
-9.03868745681e-05
-0.000146314905254
-0.00011092996039
-0.000150630575198
-0.00011657566533
-0.000183938806137
-0.000110758164417
-0.000156837590916
-0.00028408494561
-2.16838597844e-06
-8.81704413351e-05
-4.5670971965e-06
-8.37209520246e-05
-7.2485949624e-06
-8.07895077101e-05
-1.02160204681e-05
-7.94560756498e-05
-1.3471207679e-05
-7.97838496366e-05
-1.70164706401e-05
-8.11639949137e-05
-2.0927247724e-05
-8.32369104039e-05
-2.53028679804e-05
-8.58323352594e-05
-3.02902014663e-05
-8.88988067864e-05
-3.59316354566e-05
-9.24804290467e-05
-4.23573101901e-05
-9.65593391108e-05
-4.96551055648e-05
-0.000101246181581
-5.81176497081e-05
-0.000106848214986
-6.82874147343e-05
-0.000113888283729
-8.1089147693e-05
-0.000122897820154
-9.72896367864e-05
-0.000130114127582
-0.000115235041452
-0.000132685173313
-0.000122059594723
-0.000177114738949
-5.5371091679e-05
-0.000223530522317
-0.000406605730444
-2.55209754622e-06
-8.56177031427e-05
-5.34209457079e-06
-8.09302942893e-05
-8.38363765148e-06
-7.77473061771e-05
-1.16904441666e-05
-7.61486136389e-05
-1.5307589872e-05
-7.61660260355e-05
-1.9275809259e-05
-7.71950234307e-05
-2.36279654284e-05
-7.88838555577e-05
-2.84135935575e-05
-8.10455828315e-05
-3.37167229898e-05
-8.35942787614e-05
-3.96863813817e-05
-8.65090897766e-05
-4.64558555165e-05
-8.97880014887e-05
-5.41012680122e-05
-9.35989214915e-05
-6.29578862664e-05
-9.79900286738e-05
-7.34848920642e-05
-0.000103360254896
-8.66675485392e-05
-0.000109714831538
-0.000102384845812
-0.000114397060839
-0.000118702899007
-0.000116367432111
-0.000129345330583
-0.000166473202521
0.000146395958487
-0.000499278025415
-0.000342968689687
-2.89456416359e-06
-8.27223064966e-05
-5.9862928233e-06
-7.78377416537e-05
-9.33119626569e-06
-7.44016220484e-05
-1.29587191073e-05
-7.25203630929e-05
-1.68624570891e-05
-7.22615908054e-05
-2.11138574191e-05
-7.29428950541e-05
-2.57577838554e-05
-7.42390724802e-05
-3.08517303809e-05
-7.59505058724e-05
-3.64501274102e-05
-7.79944238015e-05
-4.26642989294e-05
-8.02931244741e-05
-4.96231578947e-05
-8.28271484739e-05
-5.75752868204e-05
-8.56449070894e-05
-6.66604656349e-05
-8.89034859354e-05
-7.7427087906e-05
-9.25931598163e-05
-9.08221246076e-05
-9.63203153067e-05
-0.000106734670514
-9.84854740261e-05
-0.000122631914341
-0.00010047071919
-0.000142914362687
-0.000146192304384
7.05718856886e-05
-0.000712780230094
-0.000199198818493
-3.16617433758e-06
-7.9555253144e-05
-6.51665847514e-06
-7.448640804e-05
-1.01114512002e-05
-7.08060539962e-05
-1.39520058056e-05
-6.86791276071e-05
-1.80656249254e-05
-6.81473660803e-05
-2.24577047717e-05
-6.85502168644e-05
-2.72345051482e-05
-6.94614843213e-05
-3.25270100989e-05
-7.06569918597e-05
-3.83901358824e-05
-7.21299393188e-05
-4.4850914736e-05
-7.38306197009e-05
-5.2007015309e-05
-7.56691821183e-05
-6.00774830893e-05
-7.75727965856e-05
-6.92518422461e-05
-7.9728187593e-05
-8.00049217877e-05
-8.18402313704e-05
-9.32913316235e-05
-8.30350174462e-05
-0.000109431796424
-8.23463561542e-05
-0.000126384336481
-8.35189246486e-05
-0.000153494974829
-0.000119084051091
-0.000217513717239
-0.000648771383056
-0.000195987467493
-3.3627754461e-06
-7.61913035456e-05
-6.92716673836e-06
-7.09208877678e-05
-1.0710471491e-05
-6.70217338151e-05
-1.47303118503e-05
-6.46584246971e-05
-1.90164210728e-05
-6.38605328601e-05
-2.35568016141e-05
-6.400912162e-05
-2.84426697894e-05
-6.4574794705e-05
-3.38003587506e-05
-6.52981464712e-05
-3.97446690137e-05
-6.61836321604e-05
-4.6285440507e-05
-6.72877221118e-05
-5.34707264553e-05
-6.84815004665e-05
-6.14332102035e-05
-6.96081788045e-05
-7.05766109728e-05
-7.05835655158e-05
-8.12207749385e-05
-7.11962503067e-05
-9.4164725083e-05
-7.00926387623e-05
-0.000109709802247
-6.68032230467e-05
-0.000127037171713
-6.61926169522e-05
-0.000158871452957
-8.72516903998e-05
-0.000263629676813
-0.000544026875179
-0.000188491442395
-3.50808294082e-06
-7.26827409219e-05
-7.22309792234e-06
-6.72054530443e-05
-1.11479004281e-05
-6.30966041974e-05
-1.53044066671e-05
-6.05017076508e-05
-1.970535709e-05
-5.94594812327e-05
-2.43838881043e-05
-5.93305333014e-05
-2.93764246489e-05
-5.95821815234e-05
-3.47272816838e-05
-5.99470831207e-05
-4.06002739394e-05
-6.03100286162e-05
-4.71019116606e-05
-6.078535485e-05
-5.41696142668e-05
-6.14130306226e-05
-6.19519502996e-05
-6.18253137273e-05
-7.072257917e-05
-6.18129217268e-05
-8.09180826651e-05
-6.10013746097e-05
-9.29069501063e-05
-5.81048592001e-05
-0.000106871553029
-5.28395807948e-05
-0.0001238239595
-4.92406088569e-05
-0.000159747910207
-5.13283170623e-05
-0.000247733606107
-0.000456043606283
-0.000172875013896
-3.64226092034e-06
-6.90402163119e-05
-7.43761090971e-06
-6.34099248403e-05
-1.14461383892e-05
-5.90880077335e-05
-1.56737012432e-05
-5.6274206148e-05
-2.01300465829e-05
-5.5003320556e-05
-2.4839008725e-05
-5.46218347022e-05
-2.98230726135e-05
-5.45983982672e-05
-3.51078377102e-05
-5.46624852314e-05
-4.07426769083e-05
-5.46748790321e-05
-4.69453968612e-05
-5.45819994315e-05
-5.38843196376e-05
-5.44736770975e-05
-6.15296944659e-05
-5.41798606497e-05
-7.00409565931e-05
-5.33019303881e-05
-7.98242509906e-05
-5.12187525251e-05
-9.17495897209e-05
-4.61804143389e-05
-0.000106454048576
-3.81358314361e-05
-0.000123731586267
-3.19633391071e-05
-0.00015038833998
-2.46717512123e-05
-0.000213910016606
-0.000392522735905
-0.000169945379718
-3.71443057188e-06
-6.53257346844e-05
-7.57316444593e-06
-5.95512541451e-05
-1.16197095366e-05
-5.50416557541e-05
-1.58607235137e-05
-5.20335333985e-05
-2.03099676724e-05
-5.05545572374e-05
-2.49824369041e-05
-4.99499409772e-05
-2.9902246508e-05
-4.9679184381e-05
-3.51055852963e-05
-4.94596618064e-05
-4.06519564759e-05
-4.91288950031e-05
-4.65855658933e-05
-4.86486460941e-05
-5.31149601539e-05
-4.79445183585e-05
-6.02672541763e-05
-4.7027783948e-05
-6.81760180664e-05
-4.53935595226e-05
-7.7476938814e-05
-4.19184211154e-05
-8.94133755996e-05
-3.42446254818e-05
-0.000104182800961
-2.33668668345e-05
-0.000121942234681
-1.4204058747e-05
-0.000139308095365
-7.30596050732e-06
-0.00015652998939
-0.000375301573053
-0.000176499553878
-3.7474113007e-06
-6.15784911884e-05
-7.63168923328e-06
-5.56672862278e-05
-1.16719419655e-05
-5.1001863574e-05
-1.58921687133e-05
-4.78139329957e-05
-2.0289696534e-05
-4.615781156e-05
-2.48810084162e-05
-4.53595179314e-05
-2.96943216504e-05
-4.48667797232e-05
-3.47706955771e-05
-4.43841420685e-05
-4.01063193168e-05
-4.37940432433e-05
-4.57342391154e-05
-4.30213737069e-05
-5.16994560385e-05
-4.19800565983e-05
-5.81820256635e-05
-4.05455825661e-05
-6.52711567285e-05
-3.83047972288e-05
-7.36028624556e-05
-3.3587111464e-05
-8.51210238162e-05
-2.2726818994e-05
-0.000100079793477
-8.40830701622e-06
-0.000116984965228
2.70106340543e-06
-0.000129302281334
5.01134306474e-06
-0.000123754362245
-0.000380849856687
-0.000187181535863
-3.7650772469e-06
-5.78138050693e-05
-7.63867587776e-06
-5.17942456582e-05
-1.16444365325e-05
-4.69968291601e-05
-1.57963608537e-05
-4.36629148188e-05
-2.01019523663e-05
-4.18532930152e-05
-2.45735899536e-05
-4.08890651344e-05
-2.92295314291e-05
-4.02120372354e-05
-3.40915002584e-05
-3.95233271541e-05
-3.91599348172e-05
-3.87267024575e-05
-4.4467967499e-05
-3.77142916157e-05
-4.99984986194e-05
-3.64506610736e-05
-5.57469229351e-05
-3.479756926e-05
-6.18395148839e-05
-3.22124619695e-05
-6.899162043e-05
-2.64351645194e-05
-7.89288943898e-05
-1.27896138075e-05
-9.36532741948e-05
6.31608161041e-06
-0.000110021276343
1.90690985349e-05
-0.000120397187521
1.53872552831e-05
-0.000122825048342
-0.00037842187597
-0.000193072394347
-3.77212999981e-06
-5.40422855539e-05
-7.59225711892e-06
-4.79749150677e-05
-1.15198824812e-05
-4.30701803352e-05
-1.55730993459e-05
-3.96108610725e-05
-1.97607203511e-05
-3.76670033285e-05
-2.40949956637e-05
-3.65562267451e-05
-2.85877941223e-05
-3.57206746532e-05
-3.32681396527e-05
-3.48443675841e-05
-3.81251810728e-05
-3.38709918302e-05
-4.31724589601e-05
-3.26681692577e-05
-4.84047029603e-05
-3.12198012109e-05
-5.36134771678e-05
-2.95891926747e-05
-5.90747013328e-05
-2.67513748578e-05
-6.54676333486e-05
-2.00421997337e-05
-7.39895814773e-05
-4.2675346297e-06
-8.65021596195e-05
1.88287989149e-05
-0.000100460417036
3.30274259971e-05
-0.000111321030566
2.62478811975e-05
-0.00013603175103
-0.000353711696541
-0.000181718074021
-3.74488166184e-06
-5.02982174347e-05
-7.4760316716e-06
-4.42447757778e-05
-1.12993951867e-05
-3.92480102458e-05
-1.52307976615e-05
-3.56808337488e-05
-1.9277791587e-05
-3.36215401918e-05
-2.34660278393e-05
-3.23696062005e-05
-2.78326598295e-05
-3.13556312907e-05
-3.23450363827e-05
-3.0333515575e-05
-3.70950139575e-05
-2.91224825292e-05
-4.20402339631e-05
-2.77242202599e-05
-4.71652956486e-05
-2.60962687953e-05
-5.2469610448e-05
-2.42852778506e-05
-5.7865656707e-05
-2.13554374895e-05
-6.39026853699e-05
-1.40051012327e-05
-7.11321790727e-05
2.96210583401e-06
-7.90426138359e-05
2.67393436933e-05
-8.84215585056e-05
4.24063939629e-05
-0.000104385012552
4.22113322003e-05
-0.000158866309577
-0.000299230743587
-0.00015394994322
-3.61688382946e-06
-4.66823205e-05
-7.31387014534e-06
-4.05489750045e-05
-1.10291871603e-05
-3.55340518224e-05
-1.47804002653e-05
-3.19311407926e-05
-1.86484138339e-05
-2.97551729362e-05
-2.2652231121e-05
-2.83674846738e-05
-2.68290283949e-05
-2.71804698249e-05
-3.12294286684e-05
-2.59346756896e-05
-3.5898519857e-05
-2.44549189017e-05
-4.08664024298e-05
-2.27576927352e-05
-4.60994523362e-05
-2.08648811046e-05
-5.172899604e-05
-1.86562590997e-05
-5.80195087041e-05
-1.50652220714e-05
-6.47990750949e-05
-7.22571105074e-06
-7.02601008245e-05
8.42299620494e-06
-7.34994370292e-05
2.99785150214e-05
-7.75733595547e-05
4.64801664696e-05
-9.70952996614e-05
6.17332283325e-05
-0.000177765107265
-0.00021856167667
-0.00011531223929
-3.56142552557e-06
-4.31220148154e-05
-7.06385329974e-06
-3.70478573533e-05
-1.05932006255e-05
-3.20061632483e-05
-1.41894340791e-05
-2.83364896743e-05
-1.78658044453e-05
-2.60804641016e-05
-2.16778466465e-05
-2.45571068349e-05
-2.56286217281e-05
-2.32312699014e-05
-2.98297059001e-05
-2.17351091945e-05
-3.43256246806e-05
-1.99605909092e-05
-3.92295738138e-05
-1.78552835237e-05
-4.46501324405e-05
-1.54462940095e-05
-5.08866901646e-05
-1.24206259258e-05
-5.79553472217e-05
-7.99742026757e-06
-6.49583719345e-05
-2.23535840293e-07
-6.9778358632e-05
1.32421462131e-05
-6.97763866921e-05
2.99757699593e-05
-6.89685902922e-05
4.56718768103e-05
-8.39887597586e-05
7.67532598972e-05
-0.00017482699761
-0.000127723469565
-7.72862340967e-05
-3.42015274508e-06
-3.97030708815e-05
-6.78744334638e-06
-3.36819499341e-05
-1.01323470687e-05
-2.86627531791e-05
-1.35120769217e-05
-2.4958322035e-05
-1.69517746325e-05
-2.2642346525e-05
-2.04867664016e-05
-2.10236479421e-05
-2.41911214119e-05
-1.9528346971e-05
-2.81041867778e-05
-1.78235046086e-05
-3.23096111626e-05
-1.57569683058e-05
-3.69661126896e-05
-1.32008105439e-05
-4.23894651904e-05
-1.00256839225e-05
-4.8744205969e-05
-6.0676730378e-06
-5.5946157481e-05
-7.97414959047e-07
-6.28612478245e-05
6.68946952876e-06
-6.68666982329e-05
1.72455468883e-05
-6.63040745645e-05
2.94113769412e-05
-6.28942878473e-05
4.22610765835e-05
-6.91109816316e-05
8.29696831156e-05
-0.000128348908241
-6.84859267316e-05
-3.84258914936e-05
-3.31387633732e-06
-3.63904572536e-05
-6.4886363595e-06
-3.05086107121e-05
-9.62174746758e-06
-2.55311261701e-05
-1.27433366298e-05
-2.18382211232e-05
-1.59055718319e-05
-1.94815519552e-05
-1.91426443631e-05
-1.77879233867e-05
-2.24999105975e-05
-1.61723457352e-05
-2.6033635302e-05
-1.4291263505e-05
-2.98433342856e-05
-1.19496058734e-05
-3.40964718214e-05
-8.95074260029e-06
-3.89140994835e-05
-5.21234532015e-06
-4.4500933877e-05
-4.84140207411e-07
-5.08053793709e-05
5.50332717593e-06
-5.69660077381e-05
1.2846128973e-05
-6.04831001735e-05
2.07588544684e-05
-6.06163744855e-05
2.95415251736e-05
-5.82236329738e-05
3.98666845972e-05
-5.78730823961e-05
8.26186982202e-05
-8.12613005054e-05
-4.50986901224e-05
-8.89423838273e-06
-3.12674489359e-06
-3.32650226827e-05
-6.16219279205e-06
-2.74746260149e-05
-9.07234342031e-06
-2.262246059e-05
-1.1926199981e-05
-1.89857985216e-05
-1.47777895344e-05
-1.66313020579e-05
-1.76582021514e-05
-1.49087333773e-05
-2.06045628493e-05
-1.3227182821e-05
-2.36673063921e-05
-1.12302471628e-05
-2.69277210182e-05
-8.69264011305e-06
-3.04514514835e-05
-5.43195934068e-06
-3.4334594671e-05
-1.33603438296e-06
-3.86629720435e-05
3.83864297436e-06
-4.34485265923e-05
1.02826017444e-05
-4.80598344032e-05
1.74508787253e-05
-5.12226956971e-05
2.39156465512e-05
-5.21935043631e-05
3.05075747463e-05
-5.39589901079e-05
4.16297952821e-05
-5.66665146928e-05
8.53256262117e-05
-7.61402392009e-05
-2.56277287517e-05
1.74244301195e-05
-3.07226677362e-06
-3.01941635927e-05
-5.86627499678e-06
-2.46822046299e-05
-8.52318970215e-06
-1.99671521909e-05
-1.10906678404e-05
-1.64198742809e-05
-1.35977300578e-05
-1.41257332172e-05
-1.60742395823e-05
-1.24336546193e-05
-1.8539784298e-05
-1.07630708582e-05
-2.1025359352e-05
-8.74771479269e-06
-2.36142948806e-05
-6.11012256055e-06
-2.62819499852e-05
-2.77364897761e-06
-2.90838103471e-05
1.45396307987e-06
-3.19601639695e-05
6.7043183416e-06
-3.49681309692e-05
1.32788803702e-05
-3.77738934856e-05
2.02444033026e-05
-3.98790102893e-05
2.60101226435e-05
-4.19574615798e-05
3.25777292956e-05
-4.3199115445e-05
4.28675461769e-05
-4.62472568129e-05
8.83728211187e-05
-7.48736546725e-05
2.99710736032e-06
4.26144428192e-05
-2.92526096501e-06
-2.72710913604e-05
-5.56383364044e-06
-2.2045891347e-05
-8.00944580233e-06
-1.75237639035e-05
-1.02634026902e-05
-1.4167873943e-05
-1.24093700479e-05
-1.1981577103e-05
-1.44542670508e-05
-1.03906711742e-05
-1.63896723259e-05
-8.83175260771e-06
-1.82747235302e-05
-6.86844556092e-06
-2.00821041315e-05
-4.3155970155e-06
-2.18142502589e-05
-1.05299122294e-06
-2.33262838546e-05
2.94117551278e-06
-2.44869395717e-05
7.84655228193e-06
-2.52722439927e-05
1.40433305882e-05
-2.60035165089e-05
2.0956935107e-05
-2.69368602254e-05
2.69262268425e-05
-2.93391199948e-05
3.4969200701e-05
-3.29559079611e-05
4.6479013587e-05
-3.49523287778e-05
9.03679991024e-05
-6.26071615107e-05
3.0654050945e-05
7.24466865859e-05
-2.74944548103e-06