/*--------------------------------*- C++ -*----------------------------------*\
| =========                 |                                                 |
| \\      /  F ield         | OpenFOAM: The Open Source CFD Toolbox           |
|  \\    /   O peration     | Version:  v2012                                 |
|   \\  /    A nd           | Website:  www.openfoam.com                      |
|    \\/     M anipulation  |                                                 |
\*---------------------------------------------------------------------------*/
FoamFile
{
    version     2.0;
    format      ascii;
    class       volScalarField;
    location    "3.5";
    object      alpha.water;
}
// * * * * * * * * * * * * * * * * * * * * * * * * * * * * * * * * * * * * * //

dimensions      [0 0 0 0 0 0 0];


internalField   nonuniform List<scalar> 
166
(
0.999999266929
0.999999292693
0.999999466265
0.999999911281
1.00000041686
1.00000078785
1.00000113322
1.0000014912
1.00000180654
1.00000201069
1.00000206938
1.00000194097
1.00000151139
1.00000002552
0.999999754474
0.999999758676
0.990141842699
0.431727813457
-1.20370621524e-36
-3.21641713499e-12
0.999999395718
0.99999956357
0.999999875067
1.00000012378
1.00000031432
1.0000005387
1.00000080926
1.00000104719
1.00000125511
1.00000137584
1.00000140279
1.00000129318
1.00000081212
0.999999381419
0.999999455273
0.999999675116
0.989831100974
0.429731134067
-2.75030264355e-14
5.87747175411e-40
0.999999757719
0.999999864977
0.999999980785
1.00000013321
1.00000029466
1.00000050314
1.00000070441
1.0000008843
1.00000100198
1.00000105226
1.00000102814
1.00000088387
1.00000038986
0.999999235415
0.999999360991
0.999999458511
0.989957916881
0.430375816333
-1.68351133055e-18
-2.96751441666e-16
0.999999897762
1.00000000533
1.00000011244
1.00000022822
1.00000035896
1.0000005111
1.00000062438
1.00000069668
1.00000068547
1.00000060342
1.00000046178
1.00000021571
0.99999974623
0.999999268214
0.999999324707
0.999999291505
0.990160042162
0.432332759158
-4.22603580423e-16
-5.33217281822e-19
1.0000000498
1.00000012199
1.00000022521
1.00000036715
1.00000048925
1.00000057001
1.00000058358
1.00000052614
1.00000037273
1.00000015029
0.999999935102
0.999999656758
0.999999267682
0.999998856628
0.99999926962
0.999999142204
0.990415038321
0.435268705382
-2.47082703319e-18
-2.93748444643e-19
1.00000016512
1.00000031081
1.0000004762
1.00000061955
1.00000071125
1.00000071438
1.00000062189
1.00000040148
1.00000008984
0.99999975373
0.999999516856
0.999999196646
0.999998480059
0.99999723952
0.999998358771
0.999998829085
0.990792940379
0.439366927746
-1.94852707636e-24
-9.3037300208e-27
1.00000041057
1.00000063966
1.00000082351
1.00000096571
1.0000009979
1.00000092677
1.00000070085
1.00000033626
0.999999863161
0.999999486068
0.99999883403
0.999998499982
0.999997017803
0.999994570293
0.999996842019
0.999998169982
0.991351122625
0.444740180062
0
-3.13852682225e-24
1.00000076196
1.00000108196
1.0000010448
1.00000135465
1.00000129034
1.00000116859
1.00000086124
1.00000037917
0.999999850473
0.999999039994
0.999998510278
0.999996987037
0.999995461317
0.99999330364
0.99999462134
0.999997524915
0.992057532558
0.451193835016
-7.52316384526e-38
-8.19882008393e-23
1.0000011646
1.000001517
1.00000150807
1.00000193326
1.00000292567
1.00000328687
)
;

boundaryField
{
    back
    {
        type            zeroGradient;
    }
    sides
    {
        type            zeroGradient;
    }
    bottom
    {
        type            zeroGradient;
    }
    front
    {
        type            zeroGradient;
    }
    atmosphere
    {
        type            inletOutlet;
        inletValue      uniform 0;
        value           uniform 0;
    }
    floatingObject
    {
        type            zeroGradient;
    }
    procBoundary9to6
    {
        type            processor;
        value           nonuniform List<scalar> 4(0.991064340127 0.437873640691 0 -6.56277866521e-11);
    }
    procBoundary9to7
    {
        type            processor;
        value           nonuniform List<scalar> 
16
(
0.99999926682
0.999999278648
0.999999361549
0.999999652076
1.00000014107
1.00000054365
1.00000091673
1.00000135486
1.00000178824
1.00000218969
1.00000251254
1.00000274566
1.00000263942
1.00000120849
0.999999722591
0.999999754134
)
;
    }
    procBoundary9to10
    {
        type            processor;
        value           nonuniform List<scalar> 
15
(
1.00000158251
1.00000158209
1.00000140287
1.00000106576
1.00000052868
0.999999857066
0.999999454377
0.999998380483
1.00000245758
1.00000158251
1.00000178955
1.00000245758
1.00000329544
1.00000362862
1.0000037876
)
;
    }
    procBoundary9to11
    {
        type            processor;
        value           nonuniform List<scalar> 9(0.999996285965 0.999994260626 0.999994261979 0.999997632106 0.999998285766 0.99293612388 0.458458565438 -5.50395940882e-20 -2.24242306795e-22);
    }
}


// ************************************************************************* //
