/*--------------------------------*- C++ -*----------------------------------*\
| =========                 |                                                 |
| \\      /  F ield         | OpenFOAM: The Open Source CFD Toolbox           |
|  \\    /   O peration     | Version:  v2012                                 |
|   \\  /    A nd           | Website:  www.openfoam.com                      |
|    \\/     M anipulation  |                                                 |
\*---------------------------------------------------------------------------*/
FoamFile
{
    version     2.0;
    format      ascii;
    class       volScalarField;
    location    "3.5";
    object      ddt0(epsilon);
}
// * * * * * * * * * * * * * * * * * * * * * * * * * * * * * * * * * * * * * //

dimensions      [0 2 -4 0 0 0 0];


internalField   nonuniform List<scalar> 
166
(
-0.00100024355844
-0.00103240681208
-0.00112273235343
-0.00115249282199
-0.00116223710527
-0.00116636387049
-0.0011693459726
-0.00117237575411
-0.00117572254949
-0.00117946673688
-0.00118385306914
-0.00118987970767
-0.00120030292948
-0.00121672456528
-0.00119162993351
-0.000703455790155
0.00197719324365
0.00483437259645
-0.020153686674
-0.0280158023309
-0.000997234011681
-0.00102962883019
-0.00111992866072
-0.00114978997504
-0.00115958449734
-0.00116370715939
-0.00116665514893
-0.00116963443847
-0.00117291647354
-0.00117657220863
-0.00118079173055
-0.00118638209053
-0.00119526304877
-0.00120467124637
-0.00114623853837
-0.000538802742957
0.00226395158522
0.00533825167432
-0.0126409330736
-0.0196682205997
-0.000993959229274
-0.00102667041195
-0.00111694247536
-0.00114691796
-0.00115677984179
-0.00116091994085
-0.00116385350557
-0.0011668078008
-0.00117006015871
-0.00117366733842
-0.00117777373883
-0.00118303834274
-0.00119071716355
-0.00119459383321
-0.00111111283453
-0.0004275865058
0.00235113724299
0.00465674827438
-0.0121792966924
-0.0177465426664
-0.000990445821717
-0.00102354273232
-0.00111378998588
-0.00114388605066
-0.00115382354933
-0.00115799080507
-0.00116092900911
-0.00116388253792
-0.00116713353861
-0.00117072379053
-0.00117476224174
-0.00117979834757
-0.00118657693378
-0.00118610449392
-0.0010843049533
-0.000367011828175
0.00225414526566
0.0037104947099
-0.01266016773
-0.0168939083229
-0.000986847290616
-0.00102025434452
-0.00111047971223
-0.00114069777927
-0.0011507175092
-0.00115492223559
-0.00115788176399
-0.00116085364499
-0.00116412310928
-0.00116772456139
-0.00117173850909
-0.00117663451289
-0.00118284815666
-0.00117940936724
-0.00106683577444
-0.000358700118493
0.00197708244063
0.00277689012232
-0.0121532762722
-0.0151335385659
-0.00098294147033
-0.00101683355155
-0.00110703159821
-0.00113736455634
-0.00114746950851
-0.00115171972248
-0.00115470765663
-0.00115770834637
-0.00116101362475
-0.00116464993505
-0.00116867644897
-0.00117358219674
-0.00117982186392
-0.00117557250695
-0.00106064662648
-0.000391651790358
0.00161564498555
0.00182475606325
-0.0120157826368
-0.0139370277393
-0.000978994019056
-0.00101327835501
-0.0011034375566
-0.00113389002174
-0.00114407855015
-0.00114837967715
-0.0011513995561
-0.00115444094576
-0.00115778642683
-0.00116147381203
-0.00116554488607
-0.00117069464861
-0.00117770244357
-0.00117507572783
-0.00106485574307
-0.000446390659409
0.00126606501161
0.000779303685355
-0.0139666022123
-0.0146044433131
-0.000974853791889
-0.00100961264864
-0.00109971647026
-0.00113027037402
-0.00114054951238
-0.00114489991373
-0.00114796594443
-0.00115103692366
-0.00115443326902
-0.00115815087475
-0.00116238263298
-0.00116791555895
-0.00117639979921
-0.00117741705148
-0.00107698020203
-0.000512701228807
0.000938085947401
-0.000363280799934
-0.0173034027623
-0.0157086330244
-0.000970530118983
-0.0010058023715
-0.00109584165573
-0.000966174347182
-0.000961648151739
-0.00095692363169
)
;

boundaryField
{
    back
    {
        type            calculated;
        value           nonuniform List<scalar> 
166
(
-0.00100024355844
-0.00103240681208
-0.00112273235343
-0.00115249282199
-0.00116223710527
-0.00116636387049
-0.0011693459726
-0.00117237575411
-0.00117572254949
-0.00117946673688
-0.00118385306914
-0.00118987970767
-0.00120030292948
-0.00121672456528
-0.00119162993351
-0.000703455790155
0.00197719324365
0.00483437259645
-0.020153686674
-0.0280158023309
-0.000997234011681
-0.00102962883019
-0.00111992866072
-0.00114978997504
-0.00115958449734
-0.00116370715939
-0.00116665514893
-0.00116963443847
-0.00117291647354
-0.00117657220863
-0.00118079173055
-0.00118638209053
-0.00119526304877
-0.00120467124637
-0.00114623853837
-0.000538802742957
0.00226395158522
0.00533825167432
-0.0126409330736
-0.0196682205997
-0.000993959229274
-0.00102667041195
-0.00111694247536
-0.00114691796
-0.00115677984179
-0.00116091994085
-0.00116385350557
-0.0011668078008
-0.00117006015871
-0.00117366733842
-0.00117777373883
-0.00118303834274
-0.00119071716355
-0.00119459383321
-0.00111111283453
-0.0004275865058
0.00235113724299
0.00465674827438
-0.0121792966924
-0.0177465426664
-0.000990445821717
-0.00102354273232
-0.00111378998588
-0.00114388605066
-0.00115382354933
-0.00115799080507
-0.00116092900911
-0.00116388253792
-0.00116713353861
-0.00117072379053
-0.00117476224174
-0.00117979834757
-0.00118657693378
-0.00118610449392
-0.0010843049533
-0.000367011828175
0.00225414526566
0.0037104947099
-0.01266016773
-0.0168939083229
-0.000986847290616
-0.00102025434452
-0.00111047971223
-0.00114069777927
-0.0011507175092
-0.00115492223559
-0.00115788176399
-0.00116085364499
-0.00116412310928
-0.00116772456139
-0.00117173850909
-0.00117663451289
-0.00118284815666
-0.00117940936725
-0.00106683577444
-0.000358700118493
0.00197708244063
0.00277689012232
-0.0121532762722
-0.0151335385659
-0.00098294147033
-0.00101683355155
-0.00110703159821
-0.00113736455634
-0.00114746950851
-0.00115171972248
-0.00115470765663
-0.00115770834637
-0.00116101362475
-0.00116464993505
-0.00116867644897
-0.00117358219674
-0.00117982186392
-0.00117557250695
-0.00106064662648
-0.000391651790358
0.00161564498555
0.00182475606325
-0.0120157826368
-0.0139370277393
-0.000978994019056
-0.00101327835501
-0.0011034375566
-0.00113389002174
-0.00114407855015
-0.00114837967715
-0.0011513995561
-0.00115444094576
-0.00115778642683
-0.00116147381203
-0.00116554488607
-0.00117069464861
-0.00117770244357
-0.00117507572783
-0.00106485574307
-0.000446390659409
0.00126606501161
0.000779303685355
-0.0139666022123
-0.0146044433131
-0.000974853791889
-0.00100961264864
-0.00109971647026
-0.00113027037402
-0.00114054951238
-0.00114489991373
-0.00114796594443
-0.00115103692366
-0.00115443326902
-0.00115815087475
-0.00116238263298
-0.00116791555895
-0.00117639979921
-0.00117741705148
-0.00107698020203
-0.000512701228807
0.000938085947401
-0.000363280799934
-0.0173034027623
-0.0157086330244
-0.000970530118983
-0.0010058023715
-0.00109584165573
-0.000966174347182
-0.000961648151739
-0.00095692363169
)
;
    }
    sides
    {
        type            calculated;
        value           nonuniform List<scalar> 0();
    }
    bottom
    {
        type            calculated;
        value           nonuniform List<scalar> 
12
(
-0.00100024355844
-0.000997234011681
-0.000993959229274
-0.000990445821717
-0.000986847290616
-0.00098294147033
-0.000978994019056
-0.000974853791889
-0.000970530118983
-0.000966174347182
-0.000961648151739
-0.00095692363169
)
;
    }
    front
    {
        type            calculated;
        value           nonuniform List<scalar> 
166
(
-0.00100024355844
-0.00103240681208
-0.00112273235343
-0.00115249282199
-0.00116223710527
-0.00116636387049
-0.0011693459726
-0.00117237575411
-0.00117572254949
-0.00117946673688
-0.00118385306914
-0.00118987970767
-0.00120030292948
-0.00121672456528
-0.00119162993351
-0.000703455790155
0.00197719324365
0.00483437259645
-0.020153686674
-0.0280158023309
-0.000997234011681
-0.00102962883019
-0.00111992866072
-0.00114978997504
-0.00115958449734
-0.00116370715939
-0.00116665514893
-0.00116963443847
-0.00117291647354
-0.00117657220863
-0.00118079173055
-0.00118638209053
-0.00119526304877
-0.00120467124637
-0.00114623853837
-0.000538802742957
0.00226395158522
0.00533825167432
-0.0126409330736
-0.0196682205997
-0.000993959229274
-0.00102667041195
-0.00111694247536
-0.00114691796
-0.00115677984179
-0.00116091994085
-0.00116385350557
-0.0011668078008
-0.00117006015871
-0.00117366733842
-0.00117777373883
-0.00118303834274
-0.00119071716355
-0.00119459383321
-0.00111111283453
-0.0004275865058
0.00235113724299
0.00465674827438
-0.0121792966924
-0.0177465426664
-0.000990445821717
-0.00102354273232
-0.00111378998588
-0.00114388605066
-0.00115382354933
-0.00115799080507
-0.00116092900911
-0.00116388253792
-0.00116713353861
-0.00117072379053
-0.00117476224174
-0.00117979834757
-0.00118657693378
-0.00118610449392
-0.0010843049533
-0.000367011828175
0.00225414526566
0.0037104947099
-0.01266016773
-0.0168939083229
-0.000986847290616
-0.00102025434452
-0.00111047971223
-0.00114069777927
-0.0011507175092
-0.00115492223559
-0.00115788176399
-0.00116085364499
-0.00116412310928
-0.00116772456139
-0.00117173850909
-0.00117663451289
-0.00118284815666
-0.00117940936725
-0.00106683577444
-0.000358700118493
0.00197708244063
0.00277689012232
-0.0121532762722
-0.0151335385659
-0.00098294147033
-0.00101683355155
-0.00110703159821
-0.00113736455634
-0.00114746950851
-0.00115171972248
-0.00115470765663
-0.00115770834637
-0.00116101362475
-0.00116464993505
-0.00116867644897
-0.00117358219674
-0.00117982186392
-0.00117557250695
-0.00106064662648
-0.000391651790358
0.00161564498555
0.00182475606325
-0.0120157826368
-0.0139370277393
-0.000978994019056
-0.00101327835501
-0.0011034375566
-0.00113389002174
-0.00114407855015
-0.00114837967715
-0.0011513995561
-0.00115444094576
-0.00115778642683
-0.00116147381203
-0.00116554488607
-0.00117069464861
-0.00117770244357
-0.00117507572783
-0.00106485574307
-0.000446390659409
0.00126606501161
0.000779303685355
-0.0139666022123
-0.0146044433131
-0.000974853791889
-0.00100961264864
-0.00109971647026
-0.00113027037402
-0.00114054951238
-0.00114489991373
-0.00114796594443
-0.00115103692366
-0.00115443326902
-0.00115815087475
-0.00116238263298
-0.00116791555895
-0.00117639979921
-0.00117741705148
-0.00107698020203
-0.000512701228807
0.000938085947401
-0.000363280799934
-0.0173034027623
-0.0157086330244
-0.000970530118983
-0.0010058023715
-0.00109584165573
-0.000966174347182
-0.000961648151739
-0.00095692363169
)
;
    }
    atmosphere
    {
        type            calculated;
        value           nonuniform List<scalar> 8(-1.00661174624e-07 -2.22012608114e-08 9.48905124703e-10 2.67217064469e-08 -8.50787963173e-12 1.75243494222e-11 4.51158678967e-10 6.18205485249e-10);
    }
    floatingObject
    {
        type            calculated;
        value           nonuniform List<scalar> 0();
    }
    procBoundary9to6
    {
        type            processor;
        value           nonuniform List<scalar> 4(0.00126317493571 0.00272891594471 -0.031473103757 -0.0383075009412);
    }
    procBoundary9to7
    {
        type            processor;
        value           nonuniform List<scalar> 
16
(
-0.00100207692414
-0.00103543570062
-0.00112557515705
-0.00115509297587
-0.00116473657201
-0.00116886313221
-0.0011719098627
-0.001175025746
-0.00117847616999
-0.00118235383534
-0.0011869652311
-0.00119354155369
-0.00120587767034
-0.00123096467173
-0.00124835303872
-0.000941340755768
)
;
    }
    procBoundary9to10
    {
        type            processor;
        value           nonuniform List<scalar> 
15
(
-0.00112649932366
-0.00113687440726
-0.0011412853613
-0.00114438141383
-0.00114749174557
-0.00115091431535
-0.00115471239011
-0.00115901225641
-0.00100182502732
-0.00112649932366
-0.00109182165303
-0.00100182502732
-0.000997755178584
-0.00099357335903
-0.000952108134935
)
;
    }
    procBoundary9to11
    {
        type            processor;
        value           nonuniform List<scalar> 9(-0.00116509067946 -0.00117531512763 -0.00118122420402 -0.00109547731267 -0.00059714475308 0.000550528928356 -0.00175219058245 -0.0194471872744 -0.0151571179798);
    }
}


// ************************************************************************* //
