/*--------------------------------*- C++ -*----------------------------------*\
| =========                 |                                                 |
| \\      /  F ield         | OpenFOAM: The Open Source CFD Toolbox           |
|  \\    /   O peration     | Version:  v2012                                 |
|   \\  /    A nd           | Website:  www.openfoam.com                      |
|    \\/     M anipulation  |                                                 |
\*---------------------------------------------------------------------------*/
FoamFile
{
    version     2.0;
    format      ascii;
    class       volVectorField;
    location    "3.5";
    object      ddtCorrDdt0(U);
}
// * * * * * * * * * * * * * * * * * * * * * * * * * * * * * * * * * * * * * //

dimensions      [0 1 -2 0 0 0 0];


internalField   nonuniform List<vector> 
166
(
(0.115900455456 0.00375628166518 3.44663759991e-23)
(0.115905787109 0.0109409322788 6.32361499086e-23)
(0.116453073317 0.0183094266587 4.19083577849e-23)
(0.117045060812 0.0261557610184 -5.06559873909e-23)
(0.117740969198 0.0345238166305 -1.49055491422e-23)
(0.118540393972 0.0435959506856 -5.99859890111e-24)
(0.119361389489 0.0535756175929 1.65410309307e-24)
(0.120091695537 0.0646904338819 9.59943803964e-24)
(0.120598022937 0.0771841716713 -2.55418757775e-23)
(0.120710322768 0.0913271814291 -4.10007995247e-24)
(0.120206595595 0.10741694453 5.77533691341e-23)
(0.118828622234 0.125762451171 -7.36860048117e-23)
(0.116272687933 0.146691534247 -3.17594614698e-22)
(0.112262588049 0.17075574096 -1.00562382415e-21)
(0.106711917104 0.19994359814 -1.2481727771e-21)
(0.0993413747428 0.252952170929 8.32742704525e-21)
(0.0729202572381 0.258345850035 3.55593027223e-21)
(0.044324762767 0.248031976215 -6.47041561178e-20)
(0.0826372115174 0.35149899092 -3.44447502874e-20)
(-0.025885849712 0.445424257449 -5.51942840578e-20)
(0.108639452283 0.00376357274282 2.75963308745e-23)
(0.108444912905 0.0111169609821 -1.35285129185e-23)
(0.108736016204 0.0186556321925 -1.46118769133e-23)
(0.108908550665 0.0265579532246 -6.14493335219e-23)
(0.109025170409 0.0349504803011 -3.44958427147e-23)
(0.109075002877 0.0439783647685 -6.32528967468e-23)
(0.108967327327 0.0538168101166 -2.93449662928e-23)
(0.108573365142 0.0646636318703 -3.60251017503e-23)
(0.107734714717 0.0767252828058 -5.11103127201e-23)
(0.106257063562 0.0902182230947 -7.73367670043e-23)
(0.103890535694 0.105385217301 2.82658174899e-24)
(0.100329198364 0.122484432164 -2.13044884461e-22)
(0.0952093132038 0.141786830829 -3.18899061823e-22)
(0.0880477971185 0.163716583191 -4.29884670802e-23)
(0.0780306039537 0.189518144862 -2.03175553412e-21)
(0.0631762348962 0.229693849128 1.00310936673e-20)
(0.0329444094669 0.223546081429 -1.26363274001e-21)
(0.00748699334511 0.20711280576 -6.97880897315e-20)
(0.0419822693274 0.299609865066 -5.02988969684e-20)
(-0.00748034408739 0.350791727913 1.28199046244e-20)
(0.101294476033 0.00371836762765 -7.64306024171e-24)
(0.101013302229 0.0111045571942 4.56171104251e-23)
(0.101027258275 0.0186353526428 -6.28993144041e-23)
(0.100818269289 0.02647140134 -3.81286633259e-23)
(0.100421452914 0.0347402400119 -1.93360697716e-23)
(0.0998116836962 0.0435639561741 -9.40417030009e-24)
(0.0988808931129 0.0530857946587 -1.63667487708e-23)
(0.0974966587555 0.0634644196919 -1.04700232246e-23)
(0.0954846434155 0.0748739734544 -3.01069428493e-24)
(0.092634786019 0.0874869561499 2.14542139881e-23)
(0.0886863186669 0.101478707191 -2.24714047956e-23)
(0.0833199619497 0.117022897479 -2.40544015806e-22)
(0.0761416189447 0.134258555589 -3.65778215414e-22)
(0.0666655051463 0.153352710284 -2.82633457445e-22)
(0.0540859466406 0.174788823097 -3.22945665553e-21)
(0.0366028309022 0.204104226131 3.23311412649e-21)
(0.00865042884723 0.192576816306 -1.17145260945e-20)
(-0.0114258123445 0.173914946858 6.30881975111e-21)
(0.0151830863352 0.24963050955 1.74471147985e-20)
(0.0118394786039 0.287381021857 9.00853413393e-21)
(0.0940152042781 0.00365433806007 2.89269194382e-23)
(0.0936239971956 0.0109373763449 -7.69197490872e-23)
(0.0934208621139 0.0183181721171 -5.04856461921e-23)
(0.0928892116803 0.0259687668781 -4.30523430769e-23)
(0.0920543842708 0.0339858770105 -1.7736301459e-23)
(0.0908834585771 0.0424566585009 -1.18768823898e-23)
(0.0892616359033 0.0515076193756 -1.11681270351e-23)
(0.0870497743898 0.0612702516718 2.33868483533e-24)
(0.0840700274337 0.0718665827068 -7.11019442642e-23)
(0.0801068423637 0.0834223654236 -4.810933661e-23)
(0.0749018368111 0.0960586614959 -5.94146326224e-23)
(0.0681446931513 0.109868386315 -4.94394690611e-22)
(0.0594752680439 0.124873574972 -3.75511920899e-22)
(0.0485611142355 0.141101255228 -3.38577595416e-22)
(0.0349485273074 0.158642450481 2.07718063711e-21)
(0.0173517954661 0.180741210706 6.36123824654e-21)
(-0.00724992859623 0.168930361258 -1.82087313087e-20)
(-0.0233648675424 0.151276264462 4.51843732036e-21)
(-0.00577091973626 0.215622316522 5.05213038014e-21)
(0.0176607058223 0.250917973141 1.65701143153e-20)
(0.0868935975242 0.00352839765966 -1.07967136526e-22)
(0.0864107666505 0.0106187240588 1.75014553959e-22)
(0.0860306417254 0.0177635355585 1.01958372236e-22)
(0.0852350130979 0.0251180502817 1.95363615784e-23)
(0.0840439766301 0.03277093365 1.25516732205e-23)
(0.0824176548342 0.0407845147722 -1.50717567139e-23)
(0.0802448727573 0.0492536403875 -2.31227696812e-23)
(0.0773782990269 0.05827388416 3.0494528591e-23)
(0.0736403757497 0.0679329810592 -7.46558665957e-23)
(0.0688225639568 0.0783167107984 -6.225830558e-23)
(0.0626770945795 0.0894981355489 -2.13485261057e-23)
(0.054908962795 0.101501720307 -1.3327248074e-22)
(0.0452371633093 0.114295555139 -5.83179063351e-23)
(0.0335010410992 0.127937430601 8.81732352108e-22)
(0.0195115169286 0.142353166662 4.27647920404e-21)
(0.00204797661876 0.160037287573 7.47871885136e-21)
(-0.0205685308281 0.150434499613 -2.86610148642e-20)
(-0.0347853997623 0.135137719502 -2.08370801385e-20)
(-0.0204765164981 0.192674197877 4.10527556546e-21)
(0.0182894770059 0.221741308371 1.71415485412e-20)
(0.080022940996 0.00337658689499 1.45393126637e-22)
(0.0794712948772 0.0101910096086 -1.65683786529e-24)
(0.0789512715235 0.0170056671852 1.84849647302e-22)
(0.0779518658281 0.0239898096763 3.79281572121e-23)
(0.0764879958781 0.0311998088643 5.27235362285e-23)
(0.0745179616494 0.0386704685751 -1.85375162093e-24)
(0.0719291907993 0.0464711022823 -8.15553514227e-24)
(0.0685790433656 0.0546653625162 4.02421079231e-24)
(0.0642916683439 0.0633104617866 -3.32464194103e-23)
(0.05886710542 0.0724560474939 -3.02631304752e-23)
(0.0520601245101 0.0821217112965 3.10546543837e-23)
(0.0436234283881 0.0923096831512 -1.53711601751e-22)
(0.0333260501821 0.10298763823 -1.56153152794e-22)
(0.0211045640879 0.114257153656 -3.85613538652e-22)
(0.00677527607955 0.126024907863 3.70455343697e-22)
(-0.0111703524838 0.140924123045 9.17719060867e-21)
(-0.03334947231 0.134050704622 5.70550722062e-21)
(-0.0467684591619 0.121438218006 -1.33716700864e-20)
(-0.0302508811194 0.170424866625 -1.42442446307e-21)
(0.0200210815827 0.196738049023 1.47822106324e-20)
(0.0734694515211 0.0031836705688 1.67869471086e-22)
(0.0728601536906 0.00966927220126 8.1051060597e-23)
(0.0722455524379 0.0161055947314 8.08981319397e-23)
(0.0711057411712 0.0226567242612 -6.52796579696e-24)
(0.0694531580905 0.0293641808434 -4.1622052489e-24)
(0.0672468271403 0.0362361351202 3.6757046066e-25)
(0.0643794291637 0.043315295937 8.9593152286e-24)
(0.0607114735267 0.0506354972561 1.98470202893e-23)
(0.0560746028325 0.0582213604273 2.09144070808e-23)
(0.0502688223584 0.0660804783723 -7.9757031431e-24)
(0.0430776324295 0.0742238272765 1.64663349306e-23)
(0.0342686317201 0.0826264851763 -1.79947130426e-22)
(0.0236404022413 0.0912496003582 -2.31974153177e-22)
(0.0111163329381 0.100211846983 -6.58070606331e-22)
(-0.00364068710305 0.109517308343 -1.64167893483e-21)
(-0.0224948504315 0.122003257334 4.12032793513e-21)
(-0.0452005600401 0.117396557912 6.74482577002e-21)
(-0.0575829004062 0.106883151693 -1.46963280286e-20)
(-0.0386572430248 0.143549514455 -8.33807847039e-21)
(0.018085828985 0.173836767994 -3.37366481495e-21)
(0.0672767270496 0.00297950675718 8.72415905992e-24)
(0.0666433606041 0.00909354335556 5.13929035728e-23)
(0.0659661373304 0.0151134742463 -3.85941321654e-23)
(0.0647402842016 0.0211957999644 -4.43339236843e-23)
(0.062981018404 0.0273645844641 1.25874585083e-23)
(0.0606465287497 0.0336045252816 -1.7320372256e-25)
(0.0576342028649 0.0399357802819 -2.50181531118e-25)
(0.053806091987 0.046359701032 -4.32965466871e-24)
(0.0490084015202 0.0528652927344 -1.81697508894e-23)
(0.0430534191955 0.0594495700295 3.2246734529e-24)
(0.0357300043213 0.0660848143435 -1.33377978678e-23)
(0.026815719282 0.072719347234 -1.95695698495e-22)
(0.0160996635868 0.0793311787689 -2.63896154832e-22)
(0.0034314033589 0.0859988810672 -5.95247433202e-22)
(-0.0117556634953 0.0928819624699 -1.82317258658e-21)
(-0.0315348007481 0.102654489681 3.48739770891e-21)
(-0.0545112661205 0.0998993705739 -1.15997003977e-20)
(-0.0657644780384 0.0911563143796 8.59803732482e-22)
(-0.0465514979248 0.115308219703 2.76522249313e-21)
(0.0102985208737 0.144073046066 3.44966770022e-21)
(0.0614981909569 0.00276982914561 -2.11936730763e-23)
(0.0608461461541 0.00848750947349 9.79451215866e-23)
(0.0601439209386 0.0140668115768 -5.79268838422e-23)
(0.0561301878024 0.00254182872925 -1.71737156279e-22)
(0.0511339220703 0.00232734495937 4.21905549539e-22)
(0.0465054678862 0.00214075346848 -1.39027695703e-22)
)
;

boundaryField
{
    back
    {
        type            calculated;
        value           uniform (0 0 0);
    }
    sides
    {
        type            calculated;
        value           nonuniform List<vector> 0();
    }
    bottom
    {
        type            calculated;
        value           uniform (0 0 0);
    }
    front
    {
        type            calculated;
        value           uniform (0 0 0);
    }
    atmosphere
    {
        type            calculated;
        value           nonuniform List<vector> 8((-1.0888037015e-06 0.445424257449 -5.42728190152e-26) (-1.5646547087e-07 0.350791727913 -1.75862508872e-27) (-1.58875031412e-07 0.287381021857 -3.19909658281e-26) (-1.17260559758e-07 0.250917973141 -3.51537316929e-26) (-3.15220184918e-11 0.221741308371 -6.89458946578e-30) (8.90907737395e-11 0.196738049023 -1.30950641392e-29) (-6.96460072457e-10 0.173836767994 1.18251793447e-28) (1.16838758338e-09 0.144073046066 -1.94071775535e-28));
    }
    floatingObject
    {
        type            calculated;
        value           nonuniform List<vector> 0();
    }
    procBoundary9to6
    {
        type            processor;
        value           nonuniform List<vector> 4((0.129488002929 0.292053263894 -5.70284052654e-20) (0.100276180829 0.29435171329 -3.06486763604e-20) (0.114295876466 0.370677294527 7.12043599164e-21) (-0.0164663884668 0.516662884182 -8.30528808628e-20));
    }
    procBoundary9to7
    {
        type            processor;
        value           nonuniform List<vector> 
16
(
(0.122892423357 0.00353834569321 1.31905958143e-23)
(0.123180107503 0.0104443457169 2.13545708556e-23)
(0.124006324333 0.0176267639628 5.65070412527e-23)
(0.12505565047 0.025224958914 -5.57983406144e-23)
(0.126385647898 0.0333931632987 8.4874094919e-24)
(0.128007200284 0.0423287791895 1.97352938259e-23)
(0.129853886478 0.0522550530077 1.56384736593e-23)
(0.131835738972 0.0634201172566 -1.20188267038e-23)
(0.133848054663 0.0760981761784 -2.2105984631e-23)
(0.135751356619 0.0906016963354 -1.27248558751e-25)
(0.137369419261 0.107266128817 -1.61443099014e-23)
(0.138491612829 0.126445469161 -7.88717074843e-23)
(0.138753421056 0.148401113331 -2.67159708689e-22)
(0.138099414138 0.173253403148 7.83796808073e-22)
(0.137403398894 0.202524047128 -5.88446965936e-22)
(0.142517641373 0.26671564233 6.92378987629e-21)
)
;
    }
    procBoundary9to10
    {
        type            processor;
        value           nonuniform List<vector> 
15
(
(0.0588908549708 0.0196683226804 -6.03519815937e-23)
(0.0570959471344 0.0252928004548 6.40515909689e-25)
(0.054729809193 0.0308976395398 2.89780216292e-24)
(0.0516957068201 0.0364749195461 -4.06525816216e-25)
(0.047868765956 0.0420060843466 -5.65087669619e-24)
(0.0431024883182 0.0474611028261 -7.45630674596e-24)
(0.0372211009585 0.0527871161112 -8.65048877034e-24)
(0.0300108916927 0.0579415811499 -1.66214451112e-23)
(0.0554789729564 0.00786957707265 2.39760470044e-22)
(0.0588908549708 0.0196683226804 -6.03519815937e-23)
(0.0547795769156 0.0130238950433 3.83567272897e-23)
(0.0554789729564 0.00786957707265 2.39760470044e-22)
(0.0505259407572 0.00726966115205 5.38436739568e-23)
(0.0459346840527 0.00672233477956 1.7014968992e-23)
(0.042228212138 0.00196244032339 8.22405202435e-23)
)
;
    }
    procBoundary9to11
    {
        type            processor;
        value           nonuniform List<vector> 9((0.0212440630004 0.0628421031399 -7.1584425907e-23) (0.0106961928248 0.067451874814 -3.66984164917e-22) (-0.00194739068247 0.0717756873534 -1.68509551038e-22) (-0.0173615274089 0.0760201485392 1.58392788231e-22) (-0.0373984340849 0.0827996917445 2.13539108586e-21) (-0.0596148665764 0.0815092934088 -1.00204356398e-20) (-0.070906891064 0.0752948471567 -7.63500916774e-22) (-0.051301558587 0.0878453379066 -4.45365221325e-21) (0.000990608972997 0.106335956619 5.63204122362e-21));
    }
}


// ************************************************************************* //
