/*--------------------------------*- C++ -*----------------------------------*\
| =========                 |                                                 |
| \\      /  F ield         | OpenFOAM: The Open Source CFD Toolbox           |
|  \\    /   O peration     | Version:  v2012                                 |
|   \\  /    A nd           | Website:  www.openfoam.com                      |
|    \\/     M anipulation  |                                                 |
\*---------------------------------------------------------------------------*/
FoamFile
{
    version     2.0;
    format      ascii;
    class       volScalarField;
    location    "3.5";
    object      p;
}
// * * * * * * * * * * * * * * * * * * * * * * * * * * * * * * * * * * * * * //

dimensions      [1 -1 -2 0 0 0 0];


internalField   nonuniform List<scalar> 
166
(
8371.24192199
7881.25208974
7390.89364411
6900.14216844
6408.97490117
5917.358774
5425.25127637
4932.59939942
4439.33858865
3945.39168095
3450.66768778
2955.06057993
2458.45068716
1960.71639119
1461.74943193
961.255280628
457.826030534
97.100301406
-9.04449978974
-9.5515635157
8365.24723279
7875.23969114
7384.86546781
6894.09063395
6402.89506937
5911.2492089
5419.11484516
4926.44461451
4433.18142992
3939.25739743
3444.59303638
2949.09597784
2452.66080192
1955.1719849
1456.48353199
956.253626272
454.523410618
96.5881772636
-9.05114737217
-9.55221511668
8359.62017894
7869.61342761
7379.23344033
6888.45572652
6397.26088961
5905.62291689
5413.50863686
4920.87705526
4427.67913252
3933.85706967
3439.34339316
2944.05993891
2447.91737119
1950.8169763
1452.634053
953.102958336
453.140716433
96.71950445
-9.0564310941
-9.55341829521
8354.37080318
7864.36769144
7373.99625905
6883.23470997
6392.06627671
5900.46905769
5408.41526453
4915.87102545
4422.7959182
3929.14258842
3434.85626194
2939.87420133
2444.12526991
1947.53336864
1450.00817799
951.356885528
452.965111362
97.1949694953
-9.0582713917
-9.55508837794
8349.49335714
7859.50003183
7369.14759038
6878.41814853
6387.29763343
5895.76851846
5403.80880373
4911.39191635
4418.48643162
3925.05589574
3431.05872406
2936.44790721
2441.17023358
1945.17237657
1448.39148834
950.675575896
453.636169857
97.9221999384
-9.05881264065
-9.55708159696
8344.98080861
7854.99946823
7364.67507856
6873.99056845
6382.93513441
5891.495781
5399.65643286
4907.39793221
4414.69804881
3921.53152213
3427.87011428
2933.68166649
2438.93085674
1943.58519134
1447.60180892
950.854920526
455.024153539
98.9354789169
-9.05926592349
-9.55915037665
8340.81783515
7850.85276164
7360.5621709
6869.93199762
6378.95422736
5887.62034822
5395.92021895
4903.84214436
4411.3730798
3918.49883949
3425.20404887
2931.47198584
2437.28467144
1942.62892171
1447.4809748
951.738969369
457.049564502
100.252565431
-9.06042025652
-9.56093582696
8336.98809045
7847.04097335
7356.78857047
6866.21897251
6375.32694081
5884.10841929
5392.5590504
4900.6744811
4408.45052235
3915.88367275
3422.97171206
2929.71296851
2436.1075957
1942.16118802
1447.87211497
953.161390065
459.590980896
101.824028153
-9.06264381031
-9.56218634418
8333.4724627
7843.54379265
7353.33186142
8330.2500629
8327.30107944
8324.60546314
)
;

boundaryField
{
    back
    {
        type            calculated;
        value           nonuniform List<scalar> 
166
(
8371.24192199
7881.25208974
7390.89364411
6900.14216844
6408.97490117
5917.358774
5425.25127637
4932.59939942
4439.33858865
3945.39168095
3450.66768778
2955.06057993
2458.45068716
1960.71639119
1461.74943193
961.255280628
457.826030534
97.100301406
-9.04449978974
-9.5515635157
8365.24723279
7875.23969114
7384.86546781
6894.09063395
6402.89506937
5911.2492089
5419.11484516
4926.44461451
4433.18142992
3939.25739743
3444.59303638
2949.09597784
2452.66080192
1955.1719849
1456.48353199
956.253626272
454.523410618
96.5881772636
-9.05114737217
-9.55221511668
8359.62017894
7869.61342761
7379.23344033
6888.45572652
6397.26088961
5905.62291689
5413.50863686
4920.87705526
4427.67913252
3933.85706967
3439.34339316
2944.05993891
2447.91737119
1950.8169763
1452.634053
953.102958336
453.140716433
96.71950445
-9.0564310941
-9.55341829521
8354.37080318
7864.36769144
7373.99625905
6883.23470997
6392.06627671
5900.46905769
5408.41526453
4915.87102545
4422.7959182
3929.14258842
3434.85626194
2939.87420133
2444.12526991
1947.53336864
1450.00817799
951.356885528
452.965111362
97.1949694953
-9.0582713917
-9.55508837794
8349.49335714
7859.50003183
7369.14759038
6878.41814853
6387.29763343
5895.76851846
5403.80880373
4911.39191635
4418.48643162
3925.05589574
3431.05872406
2936.44790721
2441.17023358
1945.17237657
1448.39148834
950.675575896
453.636169857
97.9221999384
-9.05881264065
-9.55708159696
8344.98080861
7854.99946823
7364.67507856
6873.99056845
6382.93513441
5891.495781
5399.65643286
4907.39793221
4414.69804881
3921.53152213
3427.87011428
2933.68166649
2438.93085674
1943.58519134
1447.60180892
950.854920526
455.024153539
98.9354789169
-9.05926592349
-9.55915037665
8340.81783515
7850.85276164
7360.5621709
6869.93199762
6378.95422736
5887.62034822
5395.92021895
4903.84214436
4411.3730798
3918.49883949
3425.20404887
2931.47198584
2437.28467144
1942.62892171
1447.4809748
951.738969369
457.049564502
100.252565431
-9.06042025652
-9.56093582696
8336.98809045
7847.04097335
7356.78857047
6866.21897251
6375.32694081
5884.10841929
5392.5590504
4900.6744811
4408.45052235
3915.88367275
3422.97171206
2929.71296851
2436.1075957
1942.16118802
1447.87211497
953.161390065
459.590980896
101.824028153
-9.06264381031
-9.56218634418
8333.4724627
7843.54379265
7353.33186142
8330.2500629
8327.30107944
8324.60546314
)
;
    }
    sides
    {
        type            calculated;
        value           nonuniform List<scalar> 0();
    }
    bottom
    {
        type            calculated;
        value           nonuniform List<scalar> 
12
(
8616.05029271
8610.05563501
8604.42866969
8599.17932817
8594.30191932
8589.78939899
8585.62648556
8581.7968268
8578.28129752
8575.0590857
8572.11034496
8569.41481699
)
;
    }
    front
    {
        type            calculated;
        value           nonuniform List<scalar> 
166
(
8371.24192199
7881.25208974
7390.89364411
6900.14216844
6408.97490117
5917.358774
5425.25127637
4932.59939942
4439.33858865
3945.39168095
3450.66768778
2955.06057993
2458.45068716
1960.71639119
1461.74943193
961.255280628
457.826030534
97.100301406
-9.04449978974
-9.5515635157
8365.24723279
7875.23969114
7384.86546781
6894.09063395
6402.89506937
5911.2492089
5419.11484516
4926.44461451
4433.18142992
3939.25739743
3444.59303638
2949.09597784
2452.66080192
1955.1719849
1456.48353199
956.253626272
454.523410618
96.5881772636
-9.05114737217
-9.55221511668
8359.62017894
7869.61342761
7379.23344033
6888.45572652
6397.26088961
5905.62291689
5413.50863686
4920.87705526
4427.67913252
3933.85706967
3439.34339316
2944.05993891
2447.91737119
1950.8169763
1452.634053
953.102958336
453.140716433
96.71950445
-9.0564310941
-9.55341829521
8354.37080318
7864.36769144
7373.99625905
6883.23470997
6392.06627671
5900.46905769
5408.41526453
4915.87102545
4422.7959182
3929.14258842
3434.85626194
2939.87420133
2444.12526991
1947.53336864
1450.00817799
951.356885528
452.965111362
97.1949694953
-9.0582713917
-9.55508837794
8349.49335714
7859.50003183
7369.14759038
6878.41814853
6387.29763343
5895.76851846
5403.80880373
4911.39191635
4418.48643162
3925.05589574
3431.05872406
2936.44790721
2441.17023358
1945.17237657
1448.39148834
950.675575896
453.636169857
97.9221999384
-9.05881264065
-9.55708159696
8344.98080861
7854.99946823
7364.67507856
6873.99056845
6382.93513441
5891.495781
5399.65643286
4907.39793221
4414.69804881
3921.53152213
3427.87011428
2933.68166649
2438.93085674
1943.58519134
1447.60180892
950.854920526
455.024153539
98.9354789169
-9.05926592349
-9.55915037665
8340.81783515
7850.85276164
7360.5621709
6869.93199762
6378.95422736
5887.62034822
5395.92021895
4903.84214436
4411.3730798
3918.49883949
3425.20404887
2931.47198584
2437.28467144
1942.62892171
1447.4809748
951.738969369
457.049564502
100.252565431
-9.06042025652
-9.56093582696
8336.98809045
7847.04097335
7356.78857047
6866.21897251
6375.32694081
5884.10841929
5392.5590504
4900.6744811
4408.45052235
3915.88367275
3422.97171206
2929.71296851
2436.1075957
1942.16118802
1447.87211497
953.161390065
459.590980896
101.824028153
-9.06264381031
-9.56218634418
8333.4724627
7843.54379265
7353.33186142
8330.2500629
8327.30107944
8324.60546314
)
;
    }
    atmosphere
    {
        type            calculated;
        value           nonuniform List<scalar> 8(-9.81024978584 -9.81030212911 -9.81043805738 -9.81047029884 -9.81039387284 -9.81030017389 -9.8102437959 -9.81021529283);
    }
    floatingObject
    {
        type            calculated;
        value           nonuniform List<scalar> 0();
    }
    procBoundary9to6
    {
        type            processor;
        value           nonuniform List<scalar> 4(463.804582244 98.595423781 -9.0408602974 -9.55243227144);
    }
    procBoundary9to7
    {
        type            processor;
        value           nonuniform List<scalar> 
16
(
8377.60080887
7887.63355878
7397.30672546
6906.6021051
6415.49523563
5923.95079323
5431.92297725
4939.35426883
4446.17392559
3952.29635771
3457.61908338
2962.02091823
2465.36092812
1967.50085839
1468.41835989
968.357804384
)
;
    }
    procBoundary9to10
    {
        type            processor;
        value           nonuniform List<scalar> 
15
(
6862.82582483
6372.02333561
5880.92447002
5389.53035878
4897.84344175
4405.86807291
3913.61126944
3421.08305974
7840.34055463
6862.82582483
7350.16886595
7840.34055463
7837.40948233
7834.73008928
8322.14440636
)
;
    }
    procBoundary9to11
    {
        type            processor;
        value           nonuniform List<scalar> 9(2928.29740056 2435.27276795 1942.03553193 1448.60978968 954.950990698 462.494346574 103.586126788 -9.06608216841 -9.5629348853);
    }
}


// ************************************************************************* //
