/*--------------------------------*- C++ -*----------------------------------*\
| =========                 |                                                 |
| \\      /  F ield         | OpenFOAM: The Open Source CFD Toolbox           |
|  \\    /   O peration     | Version:  v2012                                 |
|   \\  /    A nd           | Website:  www.openfoam.com                      |
|    \\/     M anipulation  |                                                 |
\*---------------------------------------------------------------------------*/
FoamFile
{
    version     2.0;
    format      ascii;
    class       surfaceVectorField;
    location    "0.1";
    object      ddtCorrDdt0(Uf);
}
// * * * * * * * * * * * * * * * * * * * * * * * * * * * * * * * * * * * * * //

dimensions      [0 1 -2 0 0 0 0];


internalField   nonuniform List<vector> 
300
(
(0.0530369406345 0.00578009719718 -2.05184803391e-22)
(0.0401423119601 0.00148274550506 -4.04027637282e-22)
(0.0493937932912 0.0112366897169 -4.49176256627e-22)
(0.0350077293706 0.00991336451734 -2.0017669175e-22)
(0.0476194219198 0.0166155478642 -3.13845564821e-22)
(0.0335074248551 0.0154681920153 -2.5279475426e-22)
(0.0453602297903 0.0218894076962 -6.91192877104e-23)
(0.0317277977511 0.021264963311 -7.62800526681e-23)
(0.0424041403297 0.0270046848116 -3.26148260335e-25)
(0.0293292990941 0.0270546165837 -4.41016938353e-25)
(0.0387253789984 0.0318949470721 4.58036964455e-24)
(0.0262985137949 0.0326325005981 1.92460747901e-24)
(0.0343016565458 0.0364790867952 4.3590217178e-24)
(0.0226267910501 0.0379454322784 1.74059218428e-24)
(0.0291195404353 0.0406609022767 1.49976090264e-23)
(0.0183120407995 0.0429058349172 1.86592247609e-23)
(0.0231807091481 0.0443309147931 1.92660587311e-23)
(0.0133647246672 0.0474118517626 2.90106879211e-23)
(0.016509720038 0.0473704181565 2.45999352916e-23)
(0.00781193815703 0.051348678436 1.43419985258e-23)
(0.00916303494991 0.0496501379992 2.31213728468e-24)
(0.00170821227874 0.0545953784002 3.84784349104e-23)
(0.00123191324917 0.0510463654211 -4.36956864354e-23)
(-0.00486625009744 0.0570305094869 7.08306538608e-24)
(-0.00715653231351 0.0514483403155 -3.21264989279e-23)
(-0.0118019504179 0.0585386276729 -1.97295447742e-23)
(-0.0158386395138 0.0507694033896 -4.44493159079e-23)
(-0.0189604119058 0.0590209868546 5.01005462111e-23)
(-0.0246212252919 0.0489583818779 -7.78397611258e-23)
(-0.0261780191033 0.0584014108462 -6.43424228486e-23)
(-0.0332745731312 0.0460090778249 7.48937159334e-23)
(-0.0332764982526 0.05663773155 -1.38642789138e-23)
(-0.0415388534899 0.0419762548831 1.36650895403e-21)
(-0.0400413065619 0.0538733720737 2.05941760204e-22)
(-0.0497624924896 0.0369530073225 -2.42410677508e-21)
(-0.0462376043537 0.050562302932 2.99440121833e-21)
(-0.0488886412618 0.0308536945283 8.75139110065e-22)
(-0.0527588877536 0.0433455784091 -2.02030993474e-21)
(-0.0418912383855 0.0154162733593 1.02519618815e-20)
(0.0468462751225 0.00520089819444 -3.99019525641e-22)
(0.0349415319087 0.00124903394666 -7.82475192e-22)
(0.0434140066265 0.0100774938382 -3.79518938203e-24)
(0.0301312326529 0.0089864081298 7.57172933525e-22)
(0.041728608865 0.014863463821 -1.52292421069e-23)
(0.0287215534315 0.0139501629483 7.40458635552e-24)
(0.0395949475514 0.0195293174386 -7.60178189606e-24)
(0.027062052204 0.0191295253189 -1.09103462169e-23)
(0.0368218272522 0.0240211252285 1.80973880099e-24)
(0.0248376104969 0.0242808188623 3.76936955813e-24)
(0.0333969067875 0.0282757219407 -9.15169981255e-25)
(0.0220440438442 0.0292075657958 3.7595569881e-24)
(0.029312083053 0.0322195827802 1.60407952274e-23)
(0.0186830585421 0.0338605962641 5.90464060323e-24)
(0.0245675585827 0.0357699660761 3.26723036556e-23)
(0.0147617812949 0.0381612594635 1.33220031763e-23)
(0.0191778191701 0.0388354553838 2.40866277157e-23)
(0.0102993507013 0.04202200734 2.1212101835e-23)
(0.0131778652749 0.0413159327432 2.82204981446e-23)
(0.00533156701403 0.0453485410885 1.92228250363e-23)
(0.00662652346682 0.0431118430621 4.32493630118e-23)
(-8.75981073585e-05 0.0480437732239 2.39040164342e-23)
(-0.000391821873336 0.0441289270481 3.10492070473e-23)
(-0.00588323592997 0.0500118193805 6.06200048104e-23)
(-0.00776513092251 0.0442856401784 6.24975003648e-23)
(-0.0119585633617 0.0511648387192 2.00998029086e-23)
(-0.0153552174108 0.0435212727547 3.02074392703e-23)
(-0.018195940758 0.0514301808224 7.83580096179e-23)
(-0.0230039303147 0.0418038042515 -3.66940636598e-25)
(-0.0244604447264 0.0507539569564 -1.2518360585e-23)
(-0.0305282773993 0.0391359038013 1.17183765357e-22)
(-0.0306084976652 0.0491077101376 2.51408858831e-23)
(-0.0377133963932 0.0355658579159 1.83383402451e-21)
(-0.0364711797157 0.0466211028706 2.41339485158e-22)
(-0.0448458390734 0.0311729454083 3.39819805868e-21)
(-0.0418446373237 0.0437657201042 2.95197416742e-21)
(-0.0438419159716 0.0258880442286 7.35651283665e-21)
(-0.0474739604018 0.0374858467946 9.64805567229e-21)
(-0.0375537625979 0.0118545997412 6.85606841765e-21)
(0.0412495948741 0.00465462790517 3.73717267166e-22)
(0.0302868896449 0.00103566288326 -7.99457662705e-22)
(0.0380341991638 0.00898896500445 7.68372709262e-22)
(0.0257968827656 0.00811152941647 7.83025700324e-22)
(0.0364521964093 0.0132257297301 1.17234822455e-23)
(0.0244848040504 0.0125263829893 3.34333819461e-24)
(0.0344603622533 0.0173351923263 4.60805237285e-25)
(0.0229526487517 0.0171361347915 9.03774459811e-25)
(0.0318855796728 0.02126479118 5.71918774524e-24)
(0.0209081190278 0.0217052908303 5.98304763155e-24)
(0.0287246867674 0.0249556698642 1.05793675726e-23)
(0.018353315722 0.0260465360704 8.64300791146e-24)
(0.0249795505476 0.0283429140763 3.18584855218e-24)
(0.0152959962816 0.030115333362 1.07291061503e-23)
(0.0206602688667 0.0313537608451 1.86180135567e-24)
(0.0117511323103 0.0338418180797 -3.02971444054e-24)
(0.0157900082684 0.0339099367039 1.63482991556e-23)
(0.00774337302581 0.0371515388132 2.69236397053e-23)
(0.0104078858021 0.0359313110264 1.49063433259e-23)
(0.0033103791399 0.0399661638413 2.4843014729e-23)
(0.00457113930611 0.037339270738 4.12746582328e-23)
(-0.00149538975727 0.0422067251613 1.28697671161e-23)
(-0.00164272230518 0.0380615150657 4.96706006718e-23)
(-0.00660533158341 0.0437976078664 7.07805367331e-23)
(-0.00813571035659 0.0380376227934 3.59603121618e-23)
(-0.0119345393526 0.0446714136152 1.70017382416e-23)
(-0.0147910637216 0.0372248989393 3.56322097626e-23)
(-0.0173830980246 0.0447742065606 3.04655331724e-23)
(-0.0214784945466 0.0356037725804 1.29894659347e-23)
(-0.0228392100077 0.0440674966884 1.87750049699e-23)
(-0.0280507831114 0.0331815678078 1.49296605684e-22)
(-0.0281861958042 0.0425317711361 -1.14494958755e-23)
(-0.0343281634247 0.0300000708254 1.35947962807e-21)
(-0.0332896033332 0.0402828002916 4.0975746877e-22)
(-0.0405456146584 0.0261264685849 9.20183178104e-21)
(-0.0379709771306 0.0378000458255 4.29549238292e-21)
(-0.0394574821789 0.0215053513923 9.1476112533e-21)
(-0.0428528127806 0.0322944489709 1.43902995445e-20)
(-0.0337783599497 0.00870036281873 5.07892937121e-21)
(0.0362130034091 0.00414543020098 -3.90149229548e-22)
(0.0261413736897 0.000842741936403 -7.81556462729e-22)
(0.0332153128781 0.00797810150405 1.79963292558e-23)
(0.0219641413616 0.00729481001104 3.15703580939e-22)
(0.0317443271756 0.0117105681755 -7.47636959111e-24)
(0.0207523121838 0.0112043480985 -1.17355185624e-22)
(0.029901667818 0.0153143671907 6.42601685408e-24)
(0.0193488873557 0.0152921263325 -3.16011069067e-23)
(0.0275301135529 0.0187398681463 8.90686779776e-24)
(0.0174827243652 0.0193329806955 9.74910014622e-24)
(0.0246330782121 0.0219327443812 8.79274648918e-24)
(0.015160608425 0.02314930682 1.58953695608e-23)
(0.0212195148562 0.0248338440454 4.5135431576e-24)
(0.0123951129724 0.0267015774898 6.87353822342e-24)
(0.0173061484482 0.0273804350908 2.20321239091e-23)
(0.00920478384912 0.0299282266214 -1.63827540947e-24)
(0.0129201236572 0.0295072199455 3.54183552787e-23)
(0.00561683477117 0.0327652590971 2.65826400938e-23)
(0.00810147440845 0.0311487871786 2.28064385192e-23)
(0.0016690442123 0.0351472314082 2.60015887916e-23)
(0.00290485102 0.0322426297285 4.23756456164e-23)
(-0.00258902608468 0.0370097911398 3.30223778458e-24)
(-0.00259960307964 0.0327328634605 3.81116743029e-23)
(-0.00709538801878 0.0382928175635 5.04690242457e-23)
(-0.00832652684551 0.0325743629325 1.15069592523e-23)
(-0.0117758882518 0.0389440996428 -1.88883469837e-23)
(-0.0141770251583 0.0317369507712 1.36083283798e-23)
(-0.016545554813 0.0389231767359 1.98989542475e-24)
(-0.0200430328193 0.0302091005169 -5.6639568403e-24)
(-0.0213112440176 0.0382022391047 -1.43371046558e-23)
(-0.0258049462492 0.0280002863309 2.4901136721e-22)
(-0.025977278211 0.0367676196918 -3.73151906263e-23)
(-0.0313107120143 0.02514627325 3.34577022362e-21)
(-0.0304355043796 0.0347219210448 5.34330871981e-22)
(-0.0367527141592 0.0217038744214 9.48396014637e-21)
(-0.0345285128242 0.0325452133943 6.55258306705e-21)
(-0.0356143640269 0.0176289758186 1.03216176624e-20)
(-0.0387778797764 0.0276843339044 1.3077688256e-20)
(-0.030463647592 0.00590676715361 3.95239759748e-21)
(0.0316985939223 0.00367526212974 -7.57036522422e-23)
(0.022465996928 0.000669692592681 -4.86374910288e-22)
(0.0289155333481 0.00704783094493 1.8035206606e-22)
(0.0185914840048 0.006539022736 1.30300072124e-22)
(0.027558026632 0.01032099534 -1.41479922939e-22)
(0.0174791138508 0.00998651926092 -3.04993792862e-22)
(0.0258656989167 0.0134682144197 -2.82780236145e-23)
(0.0162017057529 0.0135986424457 -4.45762311761e-23)
(0.0236956332154 0.0164423865777 1.67376019092e-23)
(0.0145086668932 0.0171621763895 7.04316826512e-24)
(0.0210559784132 0.0191938174959 1.3976161295e-23)
(0.0124093629107 0.0205094202614 1.36713057051e-23)
(0.0179600196894 0.0216702300708 7.21719656345e-25)
(0.00991893902449 0.0236053885014 6.32785788093e-24)
(0.014427776801 0.0238173919335 2.91224077521e-24)
(0.00705788937217 0.0263957304821 -1.80096238826e-24)
(0.0104882199771 0.0255803432339 1.71658736067e-23)
(0.00385415354933 0.0288254279489 3.23024330993e-24)
(0.00618081826797 0.0269053585878 6.49738805704e-24)
(0.000344280496117 0.0308395386438 8.5045848533e-24)
(0.00155657564792 0.0277423631785 1.13956164139e-23)
(-0.0034258108417 0.0323852435208 -4.91590494339e-24)
(-0.00332162408943 0.0280477810917 -6.53099704086e-24)
(-0.00740062010617 0.0334143015497 2.73067527868e-23)
(-0.00837954262967 0.0277875899305 -2.84054108112e-23)
(-0.0115155414567 0.0338858339453 -4.55262109962e-23)
(-0.0135331408594 0.0269403212074 -2.59555376109e-23)
(-0.0156981503548 0.033769124529 -7.19008907436e-24)
(-0.0186921630401 0.025499597043 -4.59883384418e-23)
(-0.0198703991744 0.03304380022 -5.04480032288e-23)
(-0.0237585168906 0.0234755732051 2.48004314144e-22)
(-0.0239531440107 0.0317000141146 -4.21882217086e-23)
(-0.0286022723355 0.0208986664536 3.74114371542e-21)
(-0.0278585049162 0.0298283249064 3.1685618979e-22)
(-0.0333808841231 0.0178168805575 1.01463111767e-20)
(-0.0314466558794 0.0279039881341 5.11517692684e-21)
(-0.0322179549693 0.0141953785195 6.70846819112e-21)
(-0.0351563431349 0.0235835761502 9.62052379131e-21)
(-0.0275301456179 0.00343329955621 1.25144448143e-21)
(0.0276667856148 0.00324436783719 -2.80371185921e-22)
(0.0192215176045 0.000515466225052 -2.16337129728e-22)
(0.0250924107926 0.00619772811035 -3.55045786797e-22)
(0.0156380468439 0.00584445136322 -1.61138705483e-22)
(0.0238473598628 0.00905472520451 -2.08090101098e-22)
(0.0146220987074 0.00887196590338 -1.60021310926e-22)
(0.0223027258996 0.0117905304631 -9.2550392965e-24)
(0.0134659600004 0.0120530140795 -3.67250384396e-23)
(0.0203282381937 0.0143616780551 3.97687206102e-24)
(0.0119376661812 0.0151869755691 9.80550955803e-24)
(0.0179347367137 0.0167231221707 6.02300229106e-24)
(0.0100481471831 0.018115671989 7.729234419e-24)
(0.0151379718167 0.0188285648402 3.80517583633e-24)
(0.00781378468639 0.0208083789625 1.5098934732e-23)
(0.0119596427937 0.020631063102 -1.48295985354e-24)
(0.00525570942097 0.0232171371232 4.63365219213e-24)
(0.00842898400388 0.022084154086 -5.4310454435e-24)
(0.00240137435821 0.0252944907042 5.70987797275e-24)
(0.00458376618611 0.0231434188807 -2.90870814713e-24)
(-0.000714704223181 0.0269940311217 -1.03512698319e-23)
(0.000470882031 0.0237683990184 1.09952314295e-23)
(-0.00405056878729 0.0282720616162 1.53123478249e-23)
(-0.00385363692304 0.0239247800569 -1.16884611686e-23)
(-0.00755680625517 0.0290894881335 2.94578832511e-23)
(-0.00832524910107 0.0235866286542 -2.43108892593e-23)
(-0.0111772300254 0.0294139182385 -2.30371398472e-23)
(-0.0128722709388 0.0227385421215 -3.16825546923e-23)
(-0.0148499230657 0.029221720441 2.116740249e-24)
(-0.0174188090488 0.0213773915451 -4.66478864956e-23)
(-0.0185091200842 0.0284977240517 -4.34294194715e-23)
(-0.0218836889272 0.0195131750933 2.66636539367e-23)
(-0.0220888036459 0.0272345729054 -5.97153527729e-23)
(-0.026154822708 0.0171716736588 1.69088940121e-21)
(-0.0255168966466 0.0255120531353 3.64653114805e-23)
(-0.0303612074979 0.0143934465383 4.58938954143e-21)
(-0.0286683482233 0.0237965900814 2.82791250347e-21)
(-0.0291933926857 0.011151283009 4.16350008162e-21)
(-0.0319141459934 0.0199320221304 3.52674028811e-21)
(-0.0249148152787 0.00124470401796 1.98037558825e-21)
(0.0240779371599 0.00285189247596 -9.71046492895e-23)
(0.0163695423603 0.000378760097853 -1.92178667631e-22)
(0.0217045779302 0.00542538585451 3.38857703875e-23)
(0.0130645020896 0.00520983812076 4.00475296792e-22)
(0.0205687733925 0.00790678384402 1.13437517324e-23)
(0.012140720652 0.00785764863422 4.64949103533e-23)
(0.0191663781613 0.0102735786257 -1.76644895851e-23)
(0.0110992847175 0.0106497660914 -3.76583073406e-23)
(0.0173782349972 0.0124858683175 1.3557871916e-23)
(0.009725595028 0.0133981576279 1.50224000424e-23)
(0.0152167423564 0.0145030183535 1.680516686e-23)
(0.00803130552854 0.0159539316408 9.73717320448e-24)
(0.0126988346771 0.0162840691326 1.59274110878e-23)
(0.00603310877312 0.0182902258973 1.75021842878e-23)
(0.00984664518025 0.0177883012549 1.18264900184e-23)
(0.00375186326298 0.0203646857992 1.52328034341e-23)
(0.00668863969767 0.0189762366811 7.8965358432e-25)
(0.0012138061169 0.0221362096016 2.14860300574e-23)
(0.00326024542606 0.0198108602164 7.86978614009e-24)
(-0.0015490481877 0.0235653544896 4.9305147123e-24)
(-0.000395887479825 0.0202592444335 3.37749996465e-23)
(-0.0044986734195 0.0246156498575 1.88965103239e-23)
(-0.00423002895815 0.0202940090119 1.81092045725e-23)
(-0.00759139796349 0.0252550780724 2.34522450405e-23)
(-0.00818603441112 0.0198951637382 3.39048966115e-24)
(-0.0107782211625 0.0254576495244 3.30957533034e-24)
(-0.012202534951 0.0190515256669 -9.63012453021e-24)
(-0.0140061558047 0.0252049028012 2.60220613541e-23)
(-0.0162153060082 0.0177619927823 -5.64968857488e-23)
(-0.0172194298091 0.0244853276487 -2.53011035018e-23)
(-0.0201566107574 0.0160359336378 -4.99136952292e-23)
(-0.0203626160244 0.0232931850369 2.44188427361e-25)
(-0.0239288855518 0.0138951877462 1.17348841374e-21)
(-0.0233760140658 0.0216987751082 4.07355847977e-23)
(-0.0276381013086 0.0113740182452 1.76526325016e-21)
(-0.0261471158619 0.0201567675677 1.52071380311e-21)
(-0.0264808043338 0.00845152581444 1.34361579474e-21)
(-0.0289916279363 0.0166788021608 1.31752955464e-21)
(-0.0225671204422 -0.000689883062342 1.4377688636e-21)
(0.0208933050992 0.00249630764857 3.05401278451e-22)
(0.013873164978 0.000258173779286 -3.02314104371e-22)
(0.0187122881461 0.00472726309175 4.13084436758e-22)
(0.0108335418019 0.00463296831935 8.02215772648e-22)
(0.0176809147066 0.00687116542561 -2.50714871968e-24)
(0.009996898831 0.00693898045388 1.96483281399e-23)
(0.0164133633 0.00890801116773 -4.97141771311e-24)
(0.014800526803 0.0108013889086 1.12017013309e-23)
(0.012855476747 0.0125147606126 1.04341906323e-23)
(0.0105954242793 0.0140118739333 1.68075766341e-23)
(0.00804209476435 0.0152573298405 2.48923434731e-23)
(0.00522254281699 0.0162173632236 2.56268911854e-23)
(0.00216950665948 0.0168610044923 1.59572388962e-23)
(-0.00107850607227 0.0171610058321 8.57375571798e-24)
(-0.00447748046419 0.0170954606429 8.6526157984e-24)
(-0.00797854225231 0.0166485952087 2.59411470233e-23)
(-0.0115289569826 0.0158122824082 1.03510823825e-23)
(-0.0150740617955 0.0145865422495 3.14399706744e-23)
(-0.0185569038559 0.012980000112 9.08934684542e-23)
(-0.0218918350043 0.0110110675277 3.87960974174e-22)
(-0.0251663392186 0.00870879387689 1.0729801076e-21)
(-0.0240318249695 0.00605744710986 1.4116826235e-21)
(0.0180756228252 0.00217566694491 1.94500389826e-22)
(0.0116974765516 0.00015225712881 -4.63859992088e-22)
(0.0160776891353 0.00409902060323 4.0877966403e-22)
(0.0098096782232 5.95897542238e-05 2.76329961432e-23)
(0.00817932745208 -2.11735553728e-05 9.44595734578e-25)
)
;

boundaryField
{
    back
    {
        type            calculated;
        value           uniform (0 0 0);
    }
    sides
    {
        type            calculated;
        value           nonuniform List<vector> 0();
    }
    bottom
    {
        type            calculated;
        value           uniform (0 0 0);
    }
    front
    {
        type            calculated;
        value           uniform (0 0 0);
    }
    atmosphere
    {
        type            calculated;
        value           nonuniform List<vector> 8((0 0.0258231556484 0) (0 0.0215505828384 0) (0 0.0177299642212 0) (0 0.0143142795991 0) (0 0.0112618915154 0) (0 0.00853596373042 0) (0 0.00610383762443 0) (0 0.00393645611103 0));
    }
    floatingObject
    {
        type            calculated;
        value           nonuniform List<vector> 0();
    }
    procBoundary9to6
    {
        type            processor;
        value           nonuniform List<vector> 4((-0.0440743545091 0.062211184261 4.18405103246e-22) (-0.0512610044748 0.0583401616919 3.37408641508e-21) (-0.0588582721865 0.0499803540691 1.1309101727e-21) (-0.0469218043465 0.0194395452515 -7.81550574513e-21));
    }
    procBoundary9to7
    {
        type            processor;
        value           nonuniform List<vector> 
16
(
(0.0459216584655 0.00173574037097 1.93482380156e-23)
(0.0404636630243 0.0108820493999 -7.21428818407e-23)
(0.0388857337004 0.0170663403181 -4.05693573046e-22)
(0.0370012353173 0.0235261836787 -9.9055044183e-23)
(0.034444294568 0.0300112789639 -9.00462399925e-24)
(0.0311886362136 0.0363110921094 -5.38957295974e-25)
(0.0272109198292 0.042368978184 -1.15435690199e-24)
(0.0224939454946 0.0480878399137 5.22294901315e-24)
(0.017034885122 0.0533506457784 3.36707386508e-23)
(0.0108516005465 0.0580197310038 -8.0535902697e-25)
(0.00398805657966 0.0619422552349 -4.42599803127e-23)
(-0.00346996826507 0.0649619538137 -1.68933510401e-23)
(-0.0114000109713 0.066927594874 -6.18290881598e-23)
(-0.0196394766615 0.0677039242479 -4.40772797381e-24)
(-0.0279892601206 0.0671823660505 -1.07044906116e-22)
(-0.0362260540965 0.0652996555189 -6.99882540145e-23)
)
;
    }
    procBoundary9to10
    {
        type            processor;
        value           nonuniform List<vector> 
15
(
(0.00906259301101 0.00938147988487 -2.34797503657e-23)
(0.00783247081286 0.0117846844765 2.08256274397e-23)
(0.00631828270697 0.014008636503 7.67327585139e-24)
(0.00453639380734 0.0160299305542 8.594228691e-24)
(0.00250682388992 0.0178110978911 6.28050277386e-24)
(0.000254126802713 0.0193163913605 2.36306541345e-23)
(-0.00219233206754 0.02051204868 1.31772533154e-23)
(-0.00479849366454 0.021367370404 8.15428307234e-24)
(0.00891018897717 0.00411094823553 7.20071596843e-22)
(0.0151449996493 0.00594076238488 -1.32427350616e-24)
(0.00815521299 0.00611048191454 -1.09069557884e-22)
(0.0155895033229 0.00188769465189 6.1711214929e-23)
(0.0134016841814 0.00163009007367 1.2562951656e-22)
(0.0114812488614 0.00140052912967 -3.07926566666e-22)
(0.00677854281556 -9.13352109681e-05 -1.79512209278e-22)
)
;
    }
    procBoundary9to11
    {
        type            processor;
        value           nonuniform List<vector> 9((-0.00752561984441 0.0218558574686 7.75634888787e-24) (-0.0103312344851 0.0219563583062 1.18496968843e-23) (-0.0131696900023 0.0216542213969 3.01857898913e-23) (-0.015993571503 0.0209405301788 -1.53513559307e-23) (-0.0187559186969 0.0198105843571 3.31590167245e-23) (-0.0214069960057 0.0183264277861 1.06119994679e-22) (-0.0238447785644 0.0169289116972 8.66525479352e-22) (-0.0263402718277 0.0137804745691 2.23614764831e-21) (-0.0204461266291 -0.00239760688972 2.20336715158e-21));
    }
}


// ************************************************************************* //
