/*--------------------------------*- C++ -*----------------------------------*\
| =========                 |                                                 |
| \\      /  F ield         | OpenFOAM: The Open Source CFD Toolbox           |
|  \\    /   O peration     | Version:  v2012                                 |
|   \\  /    A nd           | Website:  www.openfoam.com                      |
|    \\/     M anipulation  |                                                 |
\*---------------------------------------------------------------------------*/
FoamFile
{
    version     2.0;
    format      ascii;
    class       volScalarField;
    location    "2.2";
    object      p;
}
// * * * * * * * * * * * * * * * * * * * * * * * * * * * * * * * * * * * * * //

dimensions      [1 -1 -2 0 0 0 0];


internalField   nonuniform List<scalar> 
164
(
8378.82594586
7888.98256092
7398.98224523
6908.78959329
6418.36655476
5927.67801985
5436.6758018
4945.29647779
8377.13038412
7887.26271308
7397.20944984
6906.93705122
6416.41041393
5925.59874383
5434.46039955
4942.94293552
4450.98300177
3958.50782939
3465.4378953
8375.63213449
7885.74622057
7395.65411594
6905.32386407
6414.72441992
5923.82964879
5432.60594141
4941.0129897
4449.00448458
3956.5317773
3463.55116191
2970.03663359
2476.00813814
8374.35336023
7884.45547532
7394.33700267
6903.96729303
6413.3201088
5922.37467018
5431.10479202
4939.4798884
4447.46762665
3955.03597255
3462.16031259
2968.83541534
2475.09262919
1981.03049533
8373.31179034
7883.4071345
7393.27216002
6902.87795009
6412.20301028
5921.23155512
5429.94378883
4938.31738842
4446.32991271
3953.96131614
3461.19472021
2968.02302394
2474.45293195
1980.500387
8372.52009434
7882.61200893
7392.46879096
6902.06151998
6411.37377282
5920.3939296
5429.1080559
4937.5008753
4445.55657093
3953.26047599
3460.59922254
2967.55845217
2474.1182939
1980.23345116
8371.98599582
7882.07693146
7391.93152751
6901.51970323
6410.82974237
5919.85392966
5428.58297218
4937.00720943
4445.11687211
3952.90227364
3460.35368979
2967.45765437
2474.18706129
1980.48441277
8371.7141253
7881.80450915
7391.66331475
6901.25191918
6410.56627806
5919.60179567
5428.35306757
4936.81529972
4444.98481117
3952.85890085
3460.43519529
2967.70909438
2474.66823127
1981.279876
8371.70837961
7881.79658418
7391.66385207
6901.25552565
6410.57753655
5919.62762168
5428.40370817
4936.90521222
4445.1338294
3953.09476106
3460.79640263
2968.25013126
2475.46980969
1982.46565993
8371.9684308
7882.04956209
7391.9334202
6901.52665216
6410.85741259
5919.92216976
5428.72109278
4937.25718255
4445.53650486
3953.57122926
3461.38091164
2968.99448459
2476.45368919
1983.81077096
1491.18019659
998.55355455
8372.47582281
7882.58701
7392.45817921
6902.05964037
6411.40033266
5920.47816955
5429.29460949
4937.85512724
4446.16958267
3954.25399756
3462.13586534
2969.85650394
2477.47791178
1985.09072897
1492.8483589
1000.90792022
8373.25076348
7883.37484025
7393.24774933
6902.85513306
6412.20297796
5921.289976
5430.11734503
4938.68991221
4447.01852878
3955.12090259
3463.02642356
2970.7815906
2478.45663792
1986.15680106
1494.05169407
1002.33898906
)
;

boundaryField
{
    back
    {
        type            calculated;
        value           nonuniform List<scalar> 
164
(
8378.82594586
7888.98256092
7398.98224523
6908.78959329
6418.36655476
5927.67801985
5436.6758018
4945.29647779
8377.13038412
7887.26271308
7397.20944984
6906.93705122
6416.41041393
5925.59874383
5434.46039955
4942.94293552
4450.98300177
3958.50782939
3465.4378953
8375.63213449
7885.74622057
7395.65411594
6905.32386407
6414.72441992
5923.82964879
5432.60594141
4941.0129897
4449.00448458
3956.5317773
3463.55116191
2970.03663359
2476.00813814
8374.35336023
7884.45547532
7394.33700267
6903.96729303
6413.3201088
5922.37467018
5431.10479202
4939.4798884
4447.46762665
3955.03597255
3462.16031259
2968.83541534
2475.09262919
1981.03049533
8373.31179034
7883.4071345
7393.27216002
6902.87795009
6412.20301028
5921.23155512
5429.94378883
4938.31738842
4446.32991271
3953.96131614
3461.19472021
2968.02302394
2474.45293195
1980.500387
8372.52009434
7882.61200893
7392.46879096
6902.06151998
6411.37377282
5920.3939296
5429.1080559
4937.5008753
4445.55657093
3953.26047599
3460.59922254
2967.55845217
2474.1182939
1980.23345116
8371.98599582
7882.07693146
7391.93152751
6901.51970323
6410.82974237
5919.85392966
5428.58297218
4937.00720943
4445.11687211
3952.90227364
3460.35368979
2967.45765437
2474.18706129
1980.48441277
8371.7141253
7881.80450915
7391.66331475
6901.25191918
6410.56627806
5919.60179567
5428.35306757
4936.81529972
4444.98481117
3952.85890085
3460.43519529
2967.70909438
2474.66823127
1981.279876
8371.70837961
7881.79658418
7391.66385207
6901.25552565
6410.57753655
5919.62762168
5428.40370817
4936.90521222
4445.1338294
3953.09476106
3460.79640263
2968.25013126
2475.46980969
1982.46565993
8371.9684308
7882.04956209
7391.9334202
6901.52665216
6410.85741259
5919.92216976
5428.72109278
4937.25718255
4445.53650486
3953.57122926
3461.38091164
2968.99448459
2476.45368919
1983.81077096
1491.18019659
998.55355455
8372.47582281
7882.58701
7392.45817921
6902.05964037
6411.40033266
5920.47816955
5429.29460949
4937.85512724
4446.16958267
3954.25399756
3462.13586534
2969.85650394
2477.47791178
1985.09072897
1492.8483589
1000.90792022
8373.25076348
7883.37484025
7393.24774933
6902.85513306
6412.20297796
5921.289976
5430.11734503
4938.68991221
4447.01852878
3955.12090259
3463.02642356
2970.7815906
2478.45663792
1986.15680106
1494.05169407
1002.33898906
)
;
    }
    sides
    {
        type            calculated;
        value           nonuniform List<scalar> 0();
    }
    bottom
    {
        type            calculated;
        value           nonuniform List<scalar> 
12
(
8623.63452837
8621.93894009
8620.44066749
8619.16181625
8618.12023286
8617.32853686
8616.79446023
8616.52265922
8616.51692762
8616.77698467
8617.28438353
8618.05932899
)
;
    }
    front
    {
        type            calculated;
        value           nonuniform List<scalar> 
164
(
8378.82594586
7888.98256092
7398.98224523
6908.78959329
6418.36655476
5927.67801985
5436.6758018
4945.29647779
8377.13038412
7887.26271308
7397.20944984
6906.93705122
6416.41041393
5925.59874383
5434.46039955
4942.94293552
4450.98300177
3958.50782939
3465.4378953
8375.63213449
7885.74622057
7395.65411594
6905.32386407
6414.72441992
5923.82964879
5432.60594141
4941.0129897
4449.00448458
3956.5317773
3463.55116191
2970.03663359
2476.00813814
8374.35336023
7884.45547532
7394.33700267
6903.96729303
6413.3201088
5922.37467018
5431.10479202
4939.4798884
4447.46762665
3955.03597255
3462.16031259
2968.83541534
2475.09262919
1981.03049533
8373.31179034
7883.4071345
7393.27216002
6902.87795009
6412.20301028
5921.23155512
5429.94378883
4938.31738842
4446.32991271
3953.96131614
3461.19472021
2968.02302394
2474.45293195
1980.500387
8372.52009434
7882.61200893
7392.46879096
6902.06151998
6411.37377282
5920.3939296
5429.1080559
4937.5008753
4445.55657093
3953.26047599
3460.59922254
2967.55845217
2474.1182939
1980.23345116
8371.98599582
7882.07693146
7391.93152751
6901.51970323
6410.82974237
5919.85392966
5428.58297218
4937.00720943
4445.11687211
3952.90227364
3460.35368979
2967.45765437
2474.18706129
1980.48441277
8371.7141253
7881.80450915
7391.66331475
6901.25191918
6410.56627806
5919.60179567
5428.35306757
4936.81529972
4444.98481117
3952.85890085
3460.43519529
2967.70909438
2474.66823127
1981.279876
8371.70837961
7881.79658418
7391.66385207
6901.25552565
6410.57753655
5919.62762168
5428.40370817
4936.90521222
4445.1338294
3953.09476106
3460.79640263
2968.25013126
2475.46980969
1982.46565993
8371.9684308
7882.04956209
7391.9334202
6901.52665216
6410.85741259
5919.92216976
5428.72109278
4937.25718255
4445.53650486
3953.57122926
3461.38091164
2968.99448459
2476.45368919
1983.81077096
1491.18019659
998.55355455
8372.47582281
7882.58701
7392.45817921
6902.05964037
6411.40033266
5920.47816955
5429.29460949
4937.85512724
4446.16958267
3954.25399756
3462.13586534
2969.85650394
2477.47791178
1985.09072897
1492.8483589
1000.90792022
8373.25076348
7883.37484025
7393.24774933
6902.85513306
6412.20297796
5921.289976
5430.11734503
4938.68991221
4447.01852878
3955.12090259
3463.02642356
2970.7815906
2478.45663792
1986.15680106
1494.05169407
1002.33898906
)
;
    }
    atmosphere
    {
        type            calculated;
        value           nonuniform List<scalar> 0();
    }
    floatingObject
    {
        type            calculated;
        value           nonuniform List<scalar> 0();
    }
    procBoundary7to6
    {
        type            processor;
        value           nonuniform List<scalar> 
11
(
1486.88255309
1486.19408928
1485.80388463
1486.22424997
1487.46200678
1489.2456922
1489.2456922
995.732353597
506.60415342
509.895165543
511.467668636
)
;
    }
    procBoundary7to8
    {
        type            processor;
        value           nonuniform List<scalar> 
17
(
8380.68726861
7890.87600979
7400.94359023
6910.85474553
6420.57013127
5930.05255564
5439.24987294
4948.09106958
4453.45821507
4453.45821507
3961.05828169
3467.97111707
2971.69889894
2971.69889894
2477.23949852
1981.57244072
1981.57244072
)
;
    }
    procBoundary7to9
    {
        type            processor;
        value           nonuniform List<scalar> 
16
(
8374.28973852
7884.42132278
7394.29788086
6903.91042265
6413.26381505
5922.35604416
5431.18684043
4939.75887723
4448.08014969
3956.16619075
3464.04233067
2971.75171717
2479.36000269
1986.96720884
1494.73093767
1002.84022148
)
;
    }
}


// ************************************************************************* //
