/*--------------------------------*- C++ -*----------------------------------*\
| =========                 |                                                 |
| \\      /  F ield         | OpenFOAM: The Open Source CFD Toolbox           |
|  \\    /   O peration     | Version:  v2012                                 |
|   \\  /    A nd           | Website:  www.openfoam.com                      |
|    \\/     M anipulation  |                                                 |
\*---------------------------------------------------------------------------*/
FoamFile
{
    version     2.0;
    format      ascii;
    class       volScalarField;
    location    "1.6";
    object      k_0;
}
// * * * * * * * * * * * * * * * * * * * * * * * * * * * * * * * * * * * * * //

dimensions      [0 2 -2 0 0 0 0];


internalField   nonuniform List<scalar> 
164
(
0.0117077098529
0.0117725081909
0.0118432850439
0.0119192181097
0.011999187372
0.0120825233332
0.0121706543759
0.0122755833873
0.0124843699593
0.0134205423186
0.0191257431988
0.0455138464822
0.0875548462256
0.00854158903044
0.0104748515624
0.0111053560203
0.011356797326
0.0115465457394
0.0116098357868
0.0116756859176
0.0117480971368
0.0118272452136
0.0119118621053
0.0120005856457
0.0120927712683
0.0121895756458
0.0123003099034
0.0124977110032
0.0133278780285
0.018577375939
0.0439271260785
0.0847516973504
0.00848503406639
0.0104081493471
0.0110400098168
0.0112961261768
0.0114180872791
0.0114964154469
0.0115656741567
0.0116386354331
0.011719798701
0.0118086539497
0.0119031794091
0.0120017755573
0.0121040397455
0.0122108014072
0.0123296862769
0.0125186388205
0.0132644665573
0.0182860304601
0.0453119631445
0.085779144707
0.00842598383526
0.0103415165006
0.0109738814754
0.0112329834047
0.0113585983794
0.0114410688513
0.0115152194485
0.0115941851638
0.0116840045807
0.0117830540403
0.0118882557049
0.0119978796649
0.0121116140975
0.0122295487882
0.012358459106
0.0125436478061
0.0132070233158
0.017829145061
0.0461898328885
0.0890938858456
0.00836653411671
0.0102783369504
0.0109102572765
0.0111700725647
0.0112966887727
0.0113797660907
0.0114520082321
0.0115233380838
0.0116109652034
0.011713813686
0.0118282309447
0.011952311499
0.0120856093792
0.0122246732712
0.01237089536
0.0125595191033
0.0131367558795
0.0172292999249
0.0445418990409
0.0926668979671
0.00830940345246
0.0102225844818
0.0108530734004
0.0111107184776
0.0112335631461
0.0113064102285
0.0113443124531
0.0113178261439
0.0113388105112
0.011411191416
0.0115262763287
0.0116786393965
0.0118793066153
0.0120930800224
0.0122965249048
0.0125127352013
0.0129646193153
0.0157730497698
0.0351244185698
0.0802946375471
0.00825767476114
0.0101778203201
0.0108060851704
0.0110582557705
0.011169354471
0.0112058922718
0.0111088598915
0.0106698500889
0.00994032972727
0.00978639748408
0.00988313338689
0.0101502597898
0.0110037184206
0.0115779204294
0.0119831283301
0.0123000583437
0.0127625095222
0.0164360544385
0.0482040795688
0.0945837826077
0.00821501863542
0.0101471091347
0.0107730513058
0.0110161850831
0.0111045101853
0.0110754768669
0.0107530902922
0.00920306377969
0.00818689376623
0.0101287423209
0.0107554792544
0.0109952216142
0.0110725814538
0.0110080827003
0.0105831978474
0.00873657964696
0.00818689827272
0.0101287476324
0.0107554829954
0.0109952230268
0.0110725803577
0.0110080794974
0.010583193593
0.00873658109439
0.00821503027621
0.0101471239886
0.0107730624269
0.0110161907256
0.0111045095442
0.0110754711376
0.0107530844927
0.0092030660296
)
;

boundaryField
{
    back
    {
        type            kqRWallFunction;
        value           nonuniform List<scalar> 
164
(
0.0117077098529
0.0117725081909
0.0118432850439
0.0119192181097
0.011999187372
0.0120825233332
0.0121706543759
0.0122755833873
0.0124843699593
0.0134205423186
0.0191257431988
0.0455138464822
0.0875548462256
0.00854158903044
0.0104748515624
0.0111053560203
0.011356797326
0.0115465457394
0.0116098357868
0.0116756859176
0.0117480971368
0.0118272452136
0.0119118621053
0.0120005856457
0.0120927712683
0.0121895756458
0.0123003099034
0.0124977110032
0.0133278780285
0.018577375939
0.0439271260785
0.0847516973504
0.00848503406639
0.0104081493471
0.0110400098168
0.0112961261768
0.0114180872791
0.0114964154469
0.0115656741567
0.0116386354331
0.011719798701
0.0118086539497
0.0119031794091
0.0120017755573
0.0121040397455
0.0122108014072
0.0123296862769
0.0125186388205
0.0132644665573
0.0182860304601
0.0453119631445
0.085779144707
0.00842598383526
0.0103415165006
0.0109738814754
0.0112329834047
0.0113585983794
0.0114410688513
0.0115152194485
0.0115941851638
0.0116840045807
0.0117830540403
0.0118882557049
0.0119978796649
0.0121116140975
0.0122295487882
0.012358459106
0.0125436478061
0.0132070233158
0.017829145061
0.0461898328885
0.0890938858456
0.00836653411671
0.0102783369504
0.0109102572765
0.0111700725647
0.0112966887727
0.0113797660907
0.0114520082321
0.0115233380838
0.0116109652034
0.011713813686
0.0118282309447
0.011952311499
0.0120856093792
0.0122246732712
0.01237089536
0.0125595191033
0.0131367558795
0.0172292999249
0.0445418990409
0.0926668979671
0.00830940345246
0.0102225844818
0.0108530734004
0.0111107184776
0.0112335631461
0.0113064102285
0.0113443124531
0.0113178261439
0.0113388105112
0.011411191416
0.0115262763287
0.0116786393965
0.0118793066153
0.0120930800224
0.0122965249048
0.0125127352013
0.0129646193153
0.0157730497698
0.0351244185698
0.0802946375471
0.00825767476114
0.0101778203201
0.0108060851704
0.0110582557705
0.011169354471
0.0112058922718
0.0111088598915
0.0106698500889
0.00994032972727
0.00978639748408
0.00988313338689
0.0101502597898
0.0110037184206
0.0115779204294
0.0119831283301
0.0123000583437
0.0127625095222
0.0164360544385
0.0482040795688
0.0945837826077
0.00821501863542
0.0101471091347
0.0107730513058
0.0110161850831
0.0111045101853
0.0110754768669
0.0107530902922
0.00920306377969
0.00818689376623
0.0101287423209
0.0107554792544
0.0109952216142
0.0110725814538
0.0110080827003
0.0105831978474
0.00873657964696
0.00818689827272
0.0101287476324
0.0107554829954
0.0109952230268
0.0110725803577
0.0110080794974
0.010583193593
0.00873658109439
0.00821503027621
0.0101471239886
0.0107730624269
0.0110161907256
0.0111045095442
0.0110754711376
0.0107530844927
0.0092030660296
)
;
    }
    sides
    {
        type            kqRWallFunction;
        value           nonuniform List<scalar> 0();
    }
    bottom
    {
        type            kqRWallFunction;
        value           nonuniform List<scalar> 10(0.00854158903044 0.00848503406639 0.00842598383526 0.00836653411671 0.00830940345246 0.00825767476114 0.00821501863542 0.00818689376623 0.00818689827272 0.00821503027621);
    }
    front
    {
        type            kqRWallFunction;
        value           nonuniform List<scalar> 
164
(
0.0117077098529
0.0117725081909
0.0118432850439
0.0119192181097
0.011999187372
0.0120825233332
0.0121706543759
0.0122755833873
0.0124843699593
0.0134205423186
0.0191257431988
0.0455138464822
0.0875548462256
0.00854158903044
0.0104748515624
0.0111053560203
0.011356797326
0.0115465457394
0.0116098357868
0.0116756859176
0.0117480971368
0.0118272452136
0.0119118621053
0.0120005856457
0.0120927712683
0.0121895756458
0.0123003099034
0.0124977110032
0.0133278780285
0.018577375939
0.0439271260785
0.0847516973504
0.00848503406639
0.0104081493471
0.0110400098168
0.0112961261768
0.0114180872791
0.0114964154469
0.0115656741567
0.0116386354331
0.011719798701
0.0118086539497
0.0119031794091
0.0120017755573
0.0121040397455
0.0122108014072
0.0123296862769
0.0125186388205
0.0132644665573
0.0182860304601
0.0453119631445
0.085779144707
0.00842598383526
0.0103415165006
0.0109738814754
0.0112329834047
0.0113585983794
0.0114410688513
0.0115152194485
0.0115941851638
0.0116840045807
0.0117830540403
0.0118882557049
0.0119978796649
0.0121116140975
0.0122295487882
0.012358459106
0.0125436478061
0.0132070233158
0.017829145061
0.0461898328885
0.0890938858456
0.00836653411671
0.0102783369504
0.0109102572765
0.0111700725647
0.0112966887727
0.0113797660907
0.0114520082321
0.0115233380838
0.0116109652034
0.011713813686
0.0118282309447
0.011952311499
0.0120856093792
0.0122246732712
0.01237089536
0.0125595191033
0.0131367558795
0.0172292999249
0.0445418990409
0.0926668979671
0.00830940345246
0.0102225844818
0.0108530734004
0.0111107184776
0.0112335631461
0.0113064102285
0.0113443124531
0.0113178261439
0.0113388105112
0.011411191416
0.0115262763287
0.0116786393965
0.0118793066153
0.0120930800224
0.0122965249048
0.0125127352013
0.0129646193153
0.0157730497698
0.0351244185698
0.0802946375471
0.00825767476114
0.0101778203201
0.0108060851704
0.0110582557705
0.011169354471
0.0112058922718
0.0111088598915
0.0106698500889
0.00994032972727
0.00978639748408
0.00988313338689
0.0101502597898
0.0110037184206
0.0115779204294
0.0119831283301
0.0123000583437
0.0127625095222
0.0164360544385
0.0482040795688
0.0945837826077
0.00821501863542
0.0101471091347
0.0107730513058
0.0110161850831
0.0111045101853
0.0110754768669
0.0107530902922
0.00920306377969
0.00818689376623
0.0101287423209
0.0107554792544
0.0109952216142
0.0110725814538
0.0110080827003
0.0105831978474
0.00873657964696
0.00818689827272
0.0101287476324
0.0107554829954
0.0109952230268
0.0110725803577
0.0110080794974
0.010583193593
0.00873658109439
0.00821503027621
0.0101471239886
0.0107730624269
0.0110161907256
0.0111045095442
0.0110754711376
0.0107530844927
0.0092030660296
)
;
    }
    atmosphere
    {
        type            inletOutlet;
        inletValue      uniform 0.1;
        value           nonuniform List<scalar> 7(0.1 0.1 0.1 0.1 0.1 0.0802946375471 0.1);
    }
    floatingObject
    {
        type            kqRWallFunction;
        value           nonuniform List<scalar> 8(0.00994032972727 0.00978639748408 0.00988313338689 0.0101502597898 0.00920306377969 0.00873657964696 0.00873658109439 0.0092030660296);
    }
    procBoundary3to4
    {
        type            processor;
        value           nonuniform List<scalar> 
13
(
0.011734865006
0.0117931195114
0.0118567752934
0.00859420559143
0.0105391096306
0.0111675034213
0.0114131123533
0.0115910301865
0.0116484206079
0.0116484206079
0.0114735506943
0.0114735506943
0.0114735506943
)
;
    }
    procBoundary3to5
    {
        type            processor;
        value           nonuniform List<scalar> 10(0.0119253274465 0.0119979465674 0.0120742807621 0.0121563770844 0.0122588065992 0.0124720692416 0.0134130002333 0.0190431894702 0.043805257791 0.0903673840063);
    }
    procBoundary3to6
    {
        type            processor;
        value           nonuniform List<scalar> 8(0.00992039775109 0.0110738470332 0.0116595342805 0.0120747121137 0.0126307872769 0.01625916414 0.0515389094859 0.0973044945901);
    }
    procBoundary3to8
    {
        type            processor;
        value           nonuniform List<scalar> 8(0.0082576931932 0.0101778447832 0.0108061058953 0.0110582701683 0.0111693609599 0.0112058916841 0.0111088583806 0.0106698596902);
    }
}


// ************************************************************************* //
