/*--------------------------------*- C++ -*----------------------------------*\
| =========                 |                                                 |
| \\      /  F ield         | OpenFOAM: The Open Source CFD Toolbox           |
|  \\    /   O peration     | Version:  v2012                                 |
|   \\  /    A nd           | Website:  www.openfoam.com                      |
|    \\/     M anipulation  |                                                 |
\*---------------------------------------------------------------------------*/
FoamFile
{
    version     2.0;
    format      ascii;
    class       volVectorField;
    location    "0.5";
    object      ddt0(rho,U);
}
// * * * * * * * * * * * * * * * * * * * * * * * * * * * * * * * * * * * * * //

dimensions      [1 -2 -2 0 0 0 0];


internalField   nonuniform List<vector> 
164
(
(-145.470123121 -77.3623228176 1.58498129054e-14)
(-129.042871514 -103.480558299 8.89919336986e-15)
(-121.737845494 -149.259837244 6.78105894742e-15)
(-65.2715774961 -244.017914717 4.46292374495e-15)
(-57.9717150475 -280.943658461 2.70848423764e-15)
(-38.4328071648 -422.469734943 1.48627198673e-15)
(57.5296062601 -261.727893114 -5.90705801227e-16)
(-302.900903443 -286.194627489 -6.13031523339e-16)
(-120.357326737 -95.7108683443 6.89465914527e-15)
(-70.488403988 -148.487271261 5.04428032473e-15)
(-46.2772702929 -214.229777415 4.20455333421e-15)
(9.54831457143 -293.472779466 2.94164587179e-15)
(-6.29646051813 -329.72729454 2.06248582971e-15)
(-19.2416912482 -338.318049895 1.28199594436e-15)
(80.2885843653 -395.529339795 2.65595681884e-15)
(-97.1846659485 -391.207473066 1.01417248142e-15)
(120.310015343 -95.7093887665 7.03486496664e-15)
(70.4468366364 -148.482426432 4.83465922299e-15)
(46.2471335727 -214.223173685 4.27203031772e-15)
(-9.56397787117 -293.466682562 2.97788575583e-15)
(6.28913795278 -329.727118784 1.81174882135e-15)
(19.2334015875 -338.322235509 1.28779034401e-15)
(-80.2740025791 -395.56760005 -6.139609608e-15)
(97.2020087192 -391.293163266 -3.07766975471e-15)
(145.418005093 -77.3569357071 1.65015776038e-14)
(128.996200391 -103.4661736 8.85608927236e-15)
(121.700455289 -149.23896229 6.73098918013e-15)
(65.2493939889 -243.997779351 4.42531859249e-15)
(57.9616917806 -280.931849812 2.20591644852e-15)
(38.4364995087 -422.47542771 1.33747011898e-15)
(-57.5095087984 -261.722787582 6.60853033383e-16)
(302.902824458 -286.207363522 2.79974966782e-16)
(159.077417328 -169.409095311 5.41801800362e-15)
(160.85010532 -230.099902693 2.63976525491e-15)
(140.593164898 -337.024380636 9.27559586747e-16)
(107.562430266 -511.254458265 3.39065428665e-16)
(-93.7072472003 -249.175032448 -1.05065305953e-16)
(201.778397554 -107.8349802 2.23186858609e-16)
(227.667577392 -152.208520087 -3.12044605662e-15)
(274.784401691 -206.924785407 -1.80410009608e-15)
(310.97593227 -394.216400419 -5.8791061121e-16)
(292.455829255 -627.859157348 4.62502260465e-16)
(5.27678187037 -254.580249325 2.1519951189e-15)
(142.055801847 -87.6884973788 1.17767019782e-16)
(277.099350896 -106.155320953 7.94804009526e-16)
(373.619065608 -146.287760002 4.88025366769e-16)
(487.640164177 -360.925120642 3.20873942873e-16)
(670.513766091 -507.08679824 1.50941862171e-16)
(347.69982345 -24.9092864556 3.29486508661e-16)
(-15.6612757639 -205.347736909 6.61440063836e-16)
(317.272181664 -24.0496269616 -1.90965367849e-16)
(434.058311073 -31.1004381177 -2.46370113565e-16)
(618.484777308 -174.739332491 -4.96667552236e-18)
(906.315590282 -44.6776724154 3.67373915458e-18)
(214.136053066 236.330000023 4.35192730773e-16)
(-94.0525117277 -61.0289982973 -1.43042772693e-16)
(326.173597733 72.2804739226 4.24234468876e-17)
(433.198307853 94.3970847365 2.74910649149e-17)
(594.99031713 76.3365690948 9.59087441437e-17)
(810.199585123 550.320344484 -4.45427549321e-16)
(-1358.8669135 922.59717148 4.97728360086e-15)
(-464.903525017 1144.28551278 2.48738072506e-16)
(312.050296748 166.447882041 -1.95287255834e-18)
(414.403688849 190.641190712 3.68553638521e-17)
(533.499588419 147.819063182 1.94054813095e-17)
(736.986264714 315.623738683 3.41436060224e-18)
(-1171.33694369 465.262420378 -4.30705223384e-16)
(-147.747918722 -26.7006590179 -2.72166909703e-18)
(274.705648222 259.845130118 -1.36614548961e-17)
(377.424943229 308.627351246 -1.43270455655e-17)
(517.97918373 326.264254179 7.67973515794e-17)
(781.199536664 552.238185184 1.15984072304e-16)
(-736.876974109 614.75162164 -1.2124646226e-16)
(-7.65986501746 -3.52082491907 5.87518415293e-19)
(209.468512453 344.580754348 -8.42716894553e-19)
(293.640466101 429.033209607 -1.68971053768e-17)
(419.297601767 539.640811457 -1.19324403983e-16)
(391.463623233 783.162475945 -6.07330576243e-18)
(-286.193189842 406.587708777 -2.10484399362e-16)
(-2.28567574957 -0.393553199072 -1.34389332483e-18)
(124.282807151 407.281622609 -2.64233676471e-18)
(173.764210277 519.051618766 1.90514305823e-17)
(236.526189419 687.976830781 -2.81398198347e-17)
(161.784399977 826.063538452 -1.42249596966e-17)
(-92.6266825262 334.209112819 2.07008802476e-17)
(-0.758258948413 1.8170355203 2.35117068715e-19)
(28.4949023237 434.847629727 -4.019981108e-18)
(41.8685550771 545.795436553 3.53777114458e-17)
(13.5100314783 671.105733463 2.91179162552e-18)
(48.9159067698 795.533133139 8.08646047795e-17)
(60.7416201458 370.177004591 -3.95435064336e-17)
(-0.154623220009 1.16969456058 -4.02513434953e-20)
(-66.4973157155 438.227096802 1.86710296175e-18)
(-85.2493243542 502.949124254 1.70463053357e-18)
(-119.43363764 659.924993288 -7.35827836354e-17)
(-45.0328900104 772.932120751 -9.60890344668e-18)
(160.361195331 390.964840878 1.40994730868e-17)
(-0.111538584238 1.07656871362 2.90101698836e-20)
(-149.329526276 411.471369644 7.29798151027e-18)
(-186.712405449 487.859674598 2.35967755853e-17)
(-202.907429213 609.666633815 -1.07580136417e-17)
(-183.612800365 678.818094407 -2.12013242112e-17)
(246.365962583 446.17820985 1.42957622853e-17)
(-0.172968497902 0.954703480447 1.36804343023e-19)
(-215.23947436 379.23392554 -5.34250238217e-18)
(-257.49060747 449.225105102 -7.50711813104e-18)
(-309.252660748 534.949986911 1.48016130939e-18)
(-300.831128537 575.235181459 1.35391001056e-16)
(299.818664782 494.030693703 1.02663024856e-16)
(-0.0701434339115 0.795701014863 1.4288874306e-19)
(-269.623643191 338.933123821 -2.65174082527e-18)
(-318.790183006 395.534562762 -5.21928563427e-18)
(-386.459180975 453.723324774 -1.12925193042e-17)
(-406.019883103 465.547820556 5.37528113997e-17)
(327.176384434 531.573740946 1.11243725272e-16)
(0.0483180925981 0.534231623142 2.83677397746e-19)
(-312.234341587 293.131865518 2.65095643653e-19)
(-364.548995573 334.905108663 2.29160637522e-18)
(-436.324679725 374.2027052 -5.23020041568e-18)
(-492.513180503 344.292771583 -1.11279932373e-16)
(334.933545316 569.323207922 -7.80549185738e-17)
(-5.70149042548 -3.9116010884 -5.54342207526e-20)
(-343.446670595 245.571889148 3.0557906796e-18)
(-395.436134654 273.798492863 1.47822998066e-19)
(-463.674758565 300.800969359 -2.1945126064e-17)
(-531.270725465 248.553036594 -3.58432737775e-17)
(281.612777655 548.902851739 2.00792202129e-16)
(20.1295302596 6.62602325626 5.44683329192e-19)
(-364.63220296 198.723566785 -1.24527899389e-18)
(-414.511701556 215.190712996 5.47250286478e-19)
(-475.766958284 235.721402303 -4.02348104847e-18)
(-553.372632756 175.663532904 -8.64139396516e-17)
(32.038370044 458.618648224 5.05003898296e-17)
(212.413348021 107.645904941 -1.23084045181e-18)
(-377.375607685 153.971851339 4.7482071994e-18)
(-424.501455247 161.22252952 3.60575521908e-18)
(-479.633842424 167.839708436 -7.31900344257e-18)
(-551.239912728 148.703076949 -2.77431258498e-17)
(-119.154945746 325.08946221 3.9555781838e-17)
(220.422484749 177.607449878 4.24456929631e-17)
(-382.986473328 111.677207498 -4.39296804857e-19)
(-426.67402216 111.136213416 2.61609640161e-18)
(-476.447224096 108.563345027 -4.41978175958e-18)
(-532.724588691 92.462320055 -8.41568508086e-18)
(-201.531128642 254.432901525 -1.11712307479e-16)
(207.257473729 211.336093046 1.7378166348e-18)
(-382.605580603 72.7899668185 5.97583818837e-19)
(-422.006680084 66.4415260263 4.75870617353e-19)
(-465.477947056 57.4372191233 8.73545663804e-19)
(-510.77958353 41.5356385198 -2.99765090728e-17)
(-260.046226916 181.23591553 -2.36970003319e-17)
(184.092651606 235.539214765 -6.52256524993e-18)
(-449.793160119 13.5937184088 9.31176337068e-18)
(-486.050117613 -2.90702163665 -3.05766718911e-17)
(-299.473219262 111.29812182 -1.50279466511e-16)
(154.027243664 249.914053801 -4.21742116932e-18)
(-431.176246295 -23.7271856956 4.02391160309e-18)
(-459.888977129 -40.4482954246 -9.59777691779e-18)
(-322.815081077 47.5778625941 -8.65121088555e-17)
(121.066505638 255.04447984 -4.29801775116e-18)
(-410.926762986 -55.3155132107 1.51225999696e-18)
(-433.907977132 -71.1033600004 -2.67407858975e-17)
(-333.064565882 -8.52174428506 -1.28336927391e-16)
(87.7560465799 252.957142927 -4.29053464351e-18)
)
;

boundaryField
{
    back
    {
        type            calculated;
        value           uniform (0 0 0);
    }
    sides
    {
        type            calculated;
        value           nonuniform List<vector> 0();
    }
    bottom
    {
        type            calculated;
        value           nonuniform List<vector> 0();
    }
    front
    {
        type            calculated;
        value           uniform (0 0 0);
    }
    atmosphere
    {
        type            calculated;
        value           nonuniform List<vector> 
27
(
(-302.900903443 -286.194627489 -6.13031523339e-16)
(-97.1846659485 -391.207473066 1.01417248142e-15)
(97.2020087192 -391.293163266 -3.07766975471e-15)
(302.902824458 -286.207363522 2.79974966782e-16)
(201.778397554 -107.8349802 2.23186858609e-16)
(-6.90145990536e-07 -3.13236385719 8.16628006148e-27)
(1.2504067278e-07 -1.44342132939 3.52107346547e-27)
(1.00248797728e-07 -0.0901171580597 -4.99113856234e-27)
(-464.904932304 1144.28551278 2.48738235503e-16)
(0.236575590257 -4.91386230899 -6.70999979911e-21)
(0 -3.52082494492 0)
(0 -0.393553444336 0)
(0 1.81701649607 0)
(0 1.16960242287 0)
(0 1.07734838723 0)
(0 0.961196893088 0)
(0 0.763310222442 0)
(0 0.420515010938 0)
(0 0.246065215714 0)
(0 -1.20072770386 0)
(0 3.16904999343 0)
(0 0.386577887273 0)
(0 0.0193886722027 0)
(0 -0.110339349688 0)
(0 -0.171279546685 0)
(0 -0.20553906916 0)
(0 -0.222847750235 0)
)
;
    }
    floatingObject
    {
        type            calculated;
        value           nonuniform List<vector> 4((0 0 0) (0 0 0) (2.52402593493e-16 0 0) (0 0 0));
    }
    procBoundary6to3
    {
        type            processor;
        value           nonuniform List<vector> 8((-139.553188251 -160.116026222 9.47399617757e-15) (-160.049174975 -141.461458434 7.91411583094e-15) (-159.119564527 -169.440242295 5.4105193014e-15) (-160.880585702 -230.133765793 2.62217946047e-15) (-140.611220655 -337.050533027 8.46259295424e-16) (-107.567207528 -511.274613908 5.01802159528e-16) (93.7152610254 -249.192515048 -8.73611646521e-16) (-201.790421057 -107.839865381 -2.00880413446e-16));
    }
    procBoundary6to7
    {
        type            processor;
        value           nonuniform List<vector> 
11
(
(-271.515809401 257.049323213 -2.05817223656e-19)
(-301.350816619 219.50855865 -3.14557999015e-19)
(-322.95116377 181.255732813 -6.10006917361e-19)
(-337.283999018 143.643539479 8.94578893998e-19)
(-345.312279747 107.576109679 -4.7901079485e-19)
(-347.969752748 73.8001966529 -2.73347612074e-19)
(-377.488109953 37.7532912363 1.71826962581e-20)
(-412.359044457 27.2564721952 3.05031254622e-18)
(-412.359044457 27.2564721952 3.05031254622e-18)
(-399.246139377 -6.70983855803 2.18993678654e-18)
(-383.833113886 -35.9238268424 9.99443343795e-19)
)
;
    }
    procBoundary6to8
    {
        type            processor;
        value           nonuniform List<vector> 
16
(
(139.507751008 -160.097268912 9.50812383989e-15)
(160.003554284 -141.440249287 8.02726931954e-15)
(160.003554284 -141.440249287 8.02726931954e-15)
(198.526792001 -106.84800071 -3.68117142641e-15)
(219.881214681 -62.7960612897 6.14084971282e-16)
(240.907574935 -0.984256874328 -1.10920023011e-16)
(244.369935337 69.942306179 7.21586115495e-18)
(230.12547889 143.5197021 1.10874657433e-18)
(197.683611478 214.243901699 3.79473615312e-18)
(147.293104849 276.657309931 7.95598865882e-18)
(83.4666951667 323.643559672 -1.39517159151e-18)
(11.6848709544 349.651925315 1.72653360729e-18)
(-60.7116083673 356.389427902 4.93059808526e-19)
(-127.297997232 344.188063053 8.17845035351e-19)
(-184.606486489 321.801154963 -1.77782432896e-19)
(-232.697083334 291.95705679 -7.67577220406e-19)
)
;
    }
    procBoundary6to9
    {
        type            processor;
        value           nonuniform List<vector> 4((-389.869224615 -82.2507493859 -4.41639848753e-18) (-409.072271019 -96.2475449963 3.98042511308e-18) (-334.654133194 -57.1354791818 -2.49246227117e-17) (55.4345634226 246.288736712 -4.84725038592e-18));
    }
}


// ************************************************************************* //
