/*--------------------------------*- C++ -*----------------------------------*\
| =========                 |                                                 |
| \\      /  F ield         | OpenFOAM: The Open Source CFD Toolbox           |
|  \\    /   O peration     | Version:  v2012                                 |
|   \\  /    A nd           | Website:  www.openfoam.com                      |
|    \\/     M anipulation  |                                                 |
\*---------------------------------------------------------------------------*/
FoamFile
{
    version     2.0;
    format      ascii;
    class       surfaceVectorField;
    location    "0.5";
    object      Uf;
}
// * * * * * * * * * * * * * * * * * * * * * * * * * * * * * * * * * * * * * //

dimensions      [0 1 -1 0 0 0 0];


internalField   nonuniform List<vector> 
293
(
(0.190100697146 0.175125834829 5.48185782768e-18)
(0.0486819335844 0.121904738435 5.29661461856e-18)
(0.201531930877 0.264030872187 2.19771501408e-18)
(0.118594238472 0.145591182559 1.87227885973e-18)
(0.216748338078 0.340347453153 1.34828314594e-18)
(0.143426697781 0.258435220883 1.29352642361e-18)
(0.268229261925 0.443348886243 6.92280941269e-19)
(0.155495637867 0.398767686254 7.05052011637e-19)
(0.391589202326 0.553913247909 3.56263403505e-19)
(0.240449022153 0.552114538578 4.07447240604e-19)
(0.65742328415 0.698840547349 7.55009132764e-20)
(0.357049765881 0.811772557192 2.11273392588e-19)
(1.69808888249 0.806029333076 -1.3050614546e-19)
(0.731968579243 1.0336347925 1.00767460548e-19)
(2.21804694434 2.31147326893 -5.09700676703e-20)
(0.00295789512958 0.0486818207044 1.68703565061e-18)
(-1.38440763652e-08 0.0344933136547 2.29465734288e-18)
(0.0742382323523 0.167275865439 9.68090269265e-19)
(1.14261383941e-07 0.087343447905 1.12841753106e-18)
(0.0936532109667 0.310702390385 6.50295289308e-19)
(1.99664375979e-07 0.231040908891 8.22841440628e-19)
(0.128791247539 0.466197905949 4.20218310972e-19)
(2.56583115554e-07 0.400637511546 4.53746160629e-19)
(0.172888386811 0.706646824899 2.62457229688e-19)
(2.97949574771e-07 0.587538625129 4.2987896767e-19)
(0.321307841141 1.0636962968 2.3653993986e-19)
(4.70158253789e-07 0.964336572528 1.03264648562e-19)
(0.894805587236 1.79566432539 1.80303538338e-19)
(6.59578491381e-07 1.2649048717 4.47027186179e-19)
(2.66271357873e-06 3.43447439314 9.26198529724e-20)
(-0.00295780033914 0.0486818516088 1.73603922333e-18)
(-0.0486820171068 0.121904795105 5.47198022502e-18)
(-0.0742379162946 0.167275895521 9.83168702421e-19)
(-0.118594004715 0.145591225953 1.87959791246e-18)
(-0.0936527617928 0.310702461236 6.26292311949e-19)
(-0.14342634092 0.258435307756 1.29378520784e-18)
(-0.128790720045 0.466198079285 4.63406817327e-19)
(-0.155495236998 0.39876784611 6.72219651122e-19)
(-0.172887624393 0.706647211852 2.70686386544e-19)
(-0.240448657612 0.552114729243 4.96733326403e-19)
(-0.321306821309 1.06369688277 3.13751894881e-19)
(-0.357049055937 0.811773164166 1.42255252334e-19)
(-0.89480258498 1.79566556916 3.59343500814e-19)
(-0.731967950572 1.03363511248 3.05635086476e-19)
(-2.21804347469 2.31147565963 4.00850194369e-20)
(-0.190100676697 0.175125876664 5.61553891415e-18)
(-0.201531653056 0.26403096872 2.19021441788e-18)
(-0.216748010042 0.340347643744 1.33971254701e-18)
(-0.21974300106 0.314104196883 1.80143541823e-18)
(-0.268228979185 0.443349113692 7.05546160197e-19)
(-0.258496600736 0.384803883543 8.396909414e-19)
(-0.391588921911 0.553913509716 3.68302192192e-19)
(-0.351012912482 0.469925524751 3.71146872716e-19)
(-0.657422858358 0.698840910082 1.34138443929e-19)
(-0.501976364205 0.531026970993 1.41158069502e-19)
(-1.69808834554 0.806029992579 -1.36233949005e-20)
(-0.839157079829 0.62675255236 -7.19239924717e-20)
(-2.78300626183 0.746628804005 -2.82291535978e-20)
(-0.254520195778 0.359570837037 1.30141381262e-18)
(-0.244488105057 0.331615933538 5.23845304524e-19)
(-0.323151778314 0.393037220768 5.05291653919e-19)
(-0.291962906368 0.346110583026 2.03320784433e-19)
(-0.437573090058 0.411785893705 1.44002750026e-19)
(-0.369761489842 0.379344061999 4.78339952612e-20)
(-0.669588102306 0.392675513687 -6.49043668988e-20)
(-0.482865936786 0.338061739584 -1.56973610012e-20)
(-1.80780647495 0.311751494911 -8.6529751169e-20)
(-0.758232658896 0.370110441603 -1.76931374684e-19)
(-2.83652411692 -0.312361978083 1.68931955921e-19)
(-0.27768630261 0.322368731131 -5.74247723662e-19)
(-0.258915291895 0.301969215093 -3.13389662252e-19)
(-0.334641302269 0.329042344735 -2.54136874225e-19)
(-0.298636478874 0.297859841076 -1.07712980892e-19)
(-0.409239992737 0.314597772326 -1.11866115766e-19)
(-0.355316865736 0.312053616957 -5.68758483806e-20)
(-0.543604419333 0.244236914646 -1.27724368786e-19)
(-0.412505030696 0.255832049334 -2.65557215487e-20)
(-1.58922981255 -0.0103918856622 7.85303324064e-20)
(-0.503603842361 0.279003642468 -9.02071484447e-20)
(-1.31096915595 -0.603133932472 4.78208340397e-19)
(-0.283198163678 0.281226132022 1.53145080518e-19)
(-0.265866597838 0.265633687271 6.93177851836e-20)
(-0.326674864291 0.283410641061 8.95480449521e-20)
(-0.300820989099 0.260501035273 6.71571362616e-20)
(-0.372090696675 0.270460754157 2.84345458365e-20)
(-0.342366964217 0.276115054704 7.58844518574e-21)
(-0.413929430828 0.229859902914 1.09614987925e-20)
(-0.371904183004 0.236501157651 -2.26172562145e-21)
(-0.61758695221 0.115037127841 3.09470859546e-19)
(-0.38878098317 0.250735267813 -3.69016087467e-21)
(-0.702385512363 -0.171930433157 2.43773475574e-19)
(-0.289005645007 0.247596282753 -1.66701590732e-20)
(-0.272801910776 0.231423415239 -1.16474767017e-20)
(-0.325887538772 0.252981053104 -1.48024635048e-20)
(-0.306205799608 0.230369741554 7.21599507122e-21)
(-0.356166882689 0.25191483551 -2.31078262722e-20)
(-0.341300760981 0.253415432287 -1.90825722747e-20)
(-0.367233402626 0.238935887462 -1.69133852886e-20)
(-0.358925280238 0.232564616788 -2.68140914351e-20)
(-0.391261432418 0.187261761472 -6.93875448464e-20)
(-0.337106575664 0.23583843696 1.83079814538e-19)
(-0.32440200234 0.662562462855 7.60519017092e-20)
(-0.296205259347 0.215900872408 1.22386774427e-20)
(-0.281032044971 0.198122956282 4.71528162374e-21)
(-0.331160087242 0.224603453801 2.93588630135e-21)
(-0.314908454375 0.200111403551 6.36857053644e-21)
(-0.363552573901 0.23672249619 -2.27888374376e-20)
(-0.353419841717 0.225831096764 -1.9263107841e-20)
(-0.391620118566 0.268419342964 1.73179108392e-19)
(-0.39062208193 0.203752869004 -3.17803341915e-20)
(-0.533295826976 0.415506485554 3.28519261094e-19)
(-0.484194503284 0.21728611786 1.29928929755e-19)
(-2.08680554938 0.538545375669 9.04148990114e-20)
(-0.304073629812 0.183076634111 -1.15482528252e-21)
(-0.288620674458 0.165201953512 6.39380659978e-22)
(-0.340630710371 0.191117391268 -1.58304236059e-20)
(-0.32294930755 0.167797458465 9.51737779067e-21)
(-0.377505432277 0.198995198112 -2.82546045949e-20)
(-0.361297700471 0.190185762668 -2.25617010115e-20)
(-0.427863154835 0.204566938621 -7.50305128288e-20)
(-0.396193893506 0.157067027767 -3.03909055255e-20)
(-1.26507004404 0.139437117652 -1.08175432328e-19)
(-0.419061608184 0.184431699599 -6.56226769079e-20)
(-1.23026607768 -0.212776212159 -2.13356349299e-20)
(-0.310627534857 0.149649601997 1.13115837332e-20)
(-0.29424471033 0.132452501171 2.94513375713e-22)
(-0.3475451875 0.155683072926 2.78610038505e-21)
(-0.328982886237 0.133794299074 1.45242171693e-20)
(-0.386002189704 0.163269086128 -2.46980019421e-20)
(-0.368883770076 0.150872311372 -1.90193598489e-20)
(-0.414497458305 0.178283978721 -2.09830696046e-20)
(-0.41120882236 0.114437331459 -1.28859513814e-20)
(-0.719447974247 0.193664278425 2.12171204902e-20)
(-0.434440153588 0.143511301269 -5.29192614118e-21)
(-0.644297332073 -0.0408515002736 3.22651264829e-20)
(-0.313856435995 0.1155151046 3.50714681184e-21)
(-0.296590352306 0.100067770509 5.72020055869e-22)
(-0.351101805175 0.117532044751 -7.28124306463e-21)
(-0.330999935272 0.0982589331669 8.53372673268e-22)
(-0.392729556273 0.120454568367 -7.20730928812e-21)
(-0.371806352519 0.107424086317 -2.22647731164e-20)
(-0.426281586666 0.125628499515 2.80519208202e-21)
(-0.416382763105 0.0687788565663 -2.66380529026e-22)
(-0.49246267427 0.137098825855 5.75607985157e-21)
(-0.445908760206 0.0817092482362 -7.97883847705e-22)
(-0.436673734767 0.0253460446736 5.20057914378e-21)
(-0.313482702627 0.0817324709691 -2.0817540827e-21)
(-0.294908960698 0.0689710839028 -3.29368083471e-23)
(-0.349928985542 0.0783049276256 -1.41301573785e-20)
(-0.32757249305 0.063026009174 3.22903914746e-22)
(-0.390483728737 0.0732065162855 -1.53238443573e-20)
(-0.366707990934 0.0635540539896 -1.22346843276e-20)
(-0.425116976946 0.0640993052133 -3.86945645875e-21)
(-0.40727558113 0.0246582903075 -8.43436399588e-21)
(-0.423810013844 0.0531112755423 -1.3533845555e-21)
(-0.434919627017 0.0209909654513 8.99001547915e-21)
(-0.369127917266 -0.0069181052201 1.07276917607e-20)
(-0.308088787559 0.0501454297779 2.3717211891e-21)
(-0.289541641269 0.0402910091679 -1.77689448286e-22)
(-0.341115390194 0.041042182056 2.21837696563e-21)
(-0.318469331236 0.0307691036812 1.46379606146e-21)
(-0.377617599655 0.0255422579652 -5.34520396619e-21)
(-0.351208109783 0.0238244208654 -6.72750405269e-21)
(-0.408352963778 0.00448721906355 4.42510794202e-21)
(-0.386220554457 -0.0145799009696 3.49104693667e-21)
(-0.38842569675 -0.0223574958849 2.10710917954e-20)
(-0.408074003656 -0.0319057974933 5.00914144192e-21)
(-0.3428795795 -0.0530510686452 5.88663847415e-21)
(-0.299178928521 0.021417912301 -1.08561457592e-21)
(-0.280981923168 0.0146472285948 1.04711167965e-22)
(-0.327496769863 0.00950698298769 -7.48208495687e-21)
(-0.306558467149 0.00300629373579 -8.70882850484e-22)
(-0.358378817877 -0.00830182416828 2.10874685017e-21)
(-0.333399334405 -0.0096683003066 -7.43329913836e-21)
(-0.38320153172 -0.0308620714084 4.07508043658e-21)
(-0.363660322513 -0.0473151385887 -2.81680298331e-21)
(-0.362307135902 -0.0610428389833 -1.01753118793e-20)
(-0.377892375925 -0.0737694212838 -4.98627623144e-21)
(-0.322066189727 -0.0858443465767 -5.14485458934e-21)
(-0.287319760309 -0.00379247487742 3.19442893403e-22)
(-0.269900785364 -0.00766913691248 5.59317045356e-22)
(-0.311575873507 -0.0189451055229 -8.22097031975e-22)
(-0.291405879396 -0.0207534426643 4.96913648596e-22)
(-0.337452449597 -0.0370397646717 -1.23588489718e-20)
(-0.315304696128 -0.0371554784831 -2.93304924376e-21)
(-0.35599374121 -0.06185228975 -1.18781596513e-20)
(-0.338847805659 -0.0729425741308 -1.33679881256e-20)
(-0.33694519052 -0.0928628258988 4.41810585307e-23)
(-0.346881150643 -0.104080417516 -9.37976292419e-21)
(-0.302841378181 -0.113310077752 -8.78106066117e-21)
(-0.273508163548 -0.0248596064379 7.36787800548e-22)
(-0.2573618023 -0.0265829881109 3.71274820682e-22)
(-0.294068690331 -0.0409563670913 -1.61403856319e-21)
(-0.275309142749 -0.0409652839185 2.5667823633e-22)
(-0.31527913041 -0.0612541861139 -3.94218839755e-21)
(-0.295006888064 -0.0590577704288 -2.52716348241e-21)
(-0.328145666326 -0.0865027078394 -1.08695913985e-20)
(-0.313599288676 -0.0918880188558 -1.91245948104e-21)
(-0.312210159683 -0.116663146368 -1.82050046439e-20)
(-0.316720264965 -0.124589315216 -4.71817643325e-21)
(-0.284696435559 -0.132946009095 -6.08733576548e-21)
(-0.258720697042 -0.0424209973816 -1.08834743536e-22)
(-0.243905898515 -0.0423510278375 -5.13060939516e-22)
(-0.275499051087 -0.059191841827 -6.56446682887e-22)
(-0.258538307495 -0.0575233411144 -2.6129342401e-22)
(-0.292444998208 -0.0801540007088 -4.97434565904e-22)
(-0.274044732546 -0.0760319238789 6.53115632062e-23)
(-0.301185063117 -0.105066280399 4.23895548419e-21)
(-0.288687012219 -0.105474484434 -8.63613416953e-22)
(-0.289195002706 -0.132906548068 7.39949244516e-21)
(-0.288879647074 -0.137290241395 5.36639154647e-21)
(-0.268706057569 -0.143945980023 4.90889789853e-21)
(-0.243418658894 -0.0567496698143 -6.6551961999e-22)
(-0.229992143791 -0.0552128296778 1.67014801784e-24)
(-0.256660341188 -0.0736704946624 4.60464822083e-22)
(-0.241617483127 -0.07065172806 -1.06266393924e-22)
(-0.269834617347 -0.0943555699765 -3.00867287843e-22)
(-0.253359656241 -0.0888741064039 5.78086374311e-22)
(-0.275899249486 -0.118473673779 2.63822645333e-22)
(-0.264568906238 -0.114670902285 -4.113220001e-21)
(-0.269405464813 -0.143402583096 2.87579699984e-21)
(-0.263950466646 -0.144597081778 -9.43541864415e-21)
(-0.257328943584 -0.145398018841 -8.66964401522e-21)
(-0.228049717508 -0.0681448051314 5.60923374084e-22)
(-0.21601040484 -0.0654630805939 2.19228509391e-22)
(-0.238178009759 -0.0847435627933 1.13551583034e-23)
(-0.225018722199 -0.0807491497411 -7.02630975403e-23)
(-0.248014919888 -0.104499777038 -3.23426633884e-21)
(-0.233603438089 -0.0983512523908 4.95050076234e-22)
(-0.252474157251 -0.127396184305 -1.38124612905e-20)
(-0.241672500629 -0.120416368268 -3.03361311607e-21)
(-0.257017608431 -0.149664929779 -2.09808596592e-20)
(-0.241681446667 -0.148312703281 -1.32944421373e-20)
(-0.260010765234 -0.132002575401 -1.97858770912e-20)
(-0.212963609623 -0.0769773912355 -4.11957962233e-22)
(-0.202249447311 -0.0734326786335 6.42492959357e-23)
(-0.220470521228 -0.0929687246703 4.13431820391e-22)
(-0.209027384962 -0.088266725146 2.34042728353e-23)
(-0.22742585627 -0.111519701338 6.95703299013e-22)
(-0.215052456684 -0.105123492336 3.33232585104e-22)
(-0.231271546582 -0.132821134017 -2.51559396286e-21)
(-0.220371068732 -0.123825471952 -3.43797661146e-21)
(-0.255500701241 -0.152412557208 -1.20994595692e-20)
(-0.22208979734 -0.149388283034 -1.38258464435e-20)
(-0.312042653386 -0.149100829693 -2.58364991139e-20)
(-0.19838766435 -0.0836167882722 4.99611531004e-22)
(-0.188909015835 -0.0794456327389 2.01618739709e-22)
(-0.203730789846 -0.0988411585951 -5.67949624515e-23)
(-0.193803008579 -0.0936292496753 4.44542088542e-22)
(-0.208192181206 -0.116116268527 -3.80044732537e-21)
(-0.197777340859 -0.109620646809 -6.51072135513e-22)
(-0.210708000897 -0.135952258221 -1.47482290921e-20)
(-0.200535076183 -0.12584622006 -4.83809477339e-21)
(-0.261632247039 -0.157311711776 -2.75628859882e-20)
(-0.200730342403 -0.147765491057 -1.36165332226e-20)
(-0.294555011308 -0.18433902628 -1.66608390968e-20)
(-0.18446486485 -0.0884037004089 1.46549297247e-22)
(-0.176120982203 -0.0837989006811 -1.60343163212e-24)
(-0.188028439905 -0.102772510294 -1.4973508452e-22)
(-0.179434190148 -0.0972130273061 2.26233706334e-22)
(-0.190475282987 -0.118800031799 -1.68871958353e-21)
(-0.181749810273 -0.112222502041 7.82398003495e-25)
(-0.190790082678 -0.136651301149 -3.70639890388e-21)
(-0.182683802496 -0.126756867646 -3.33868424727e-21)
(-0.231188239814 -0.156665408283 -2.71448633124e-21)
(-0.18071623341 -0.144290843644 -1.09388866319e-20)
(-0.255112987785 -0.188710763184 4.62601184196e-22)
(-0.171285134426 -0.091640592147 7.8080977455e-23)
(-0.173396463339 -0.105092542639 3.76751188857e-22)
(-0.174316203043 -0.119856202206 -1.64918226573e-21)
(-0.166986136885 -0.113345051606 1.02008883148e-21)
(-0.172826804332 -0.135964143942 -1.05711719753e-20)
(-0.166575854138 -0.126513193223 -2.58053104687e-21)
(-0.202530177995 -0.153923408755 -7.76179911644e-21)
(-0.162756966091 -0.140315642019 -1.94509817144e-20)
(-0.217811923973 -0.182633488602 -9.70416507027e-22)
(-0.159604042865 -0.119675207169 8.87400503421e-23)
(-0.153437749563 -0.113322447908 1.32963045771e-21)
(-0.156749440481 -0.13420382396 -1.1460340786e-20)
(-0.152047228294 -0.125321282357 1.08503451392e-22)
(-0.177028474785 -0.150111186491 -1.26595991049e-20)
(-0.146849600474 -0.136044216552 -1.68921887129e-20)
(-0.18572032208 -0.174515937619 -1.64788042773e-21)
(-0.146227597548 -0.118565071155 1.34939385876e-21)
(-0.14102671607 -0.112423995992 7.35388845192e-22)
(-0.142411731729 -0.131672932937 -5.32334447554e-21)
(-0.138939357316 -0.123391286184 -1.05976369567e-21)
(-0.155070142518 -0.145687312484 -5.88047003568e-21)
(-0.13283521799 -0.131589858515 -1.46777338885e-20)
(-0.158740378716 -0.166129622793 -3.49700757729e-21)
(-0.134074584114 -0.116757944161 -1.67376870924e-21)
(-0.129630468955 -0.128585580601 -1.04141531086e-20)
(-0.136299497158 -0.140952515831 -1.22942714301e-20)
)
;

boundaryField
{
    back
    {
        type            calculated;
        value           uniform (0 0 0);
    }
    sides
    {
        type            calculated;
        value           nonuniform List<vector> 0();
    }
    bottom
    {
        type            calculated;
        value           nonuniform List<vector> 0();
    }
    front
    {
        type            calculated;
        value           uniform (0 0 0);
    }
    atmosphere
    {
        type            calculated;
        value           nonuniform List<vector> 
27
(
(2.55537698563 1.3709902232 -1.57951112457e-19)
(1.32917458969 4.01370868987 5.60109771162e-20)
(-1.32916966011 4.01371179147 1.29228728829e-19)
(-2.55537642644 1.37099275415 -4.90586899548e-20)
(-2.78366690892 0.36526961008 -7.39961724079e-21)
(0 -1.53594776967 0)
(0 -0.493546812205 0)
(0 -0.190720762474 0)
(-0.661255047076 2.17791042691 2.75710003981e-19)
(0 -0.717108056622 0)
(0 -0.392305041197 0)
(0 -0.0705264706575 0)
(0 -0.0144357103759 0)
(0 -0.0486067618163 0)
(0 -0.0818570964099 0)
(0 -0.11208833544 0)
(0 -0.134808547973 0)
(0 -0.148897280019 0)
(0 -0.154779965372 0)
(0 -0.1469833912 0)
(0 -0.100380925643 0)
(0 -0.174799303104 0)
(0 -0.196107394637 0)
(0 -0.191224459487 0)
(0 -0.182202787384 0)
(0 -0.172667259525 0)
(0 -0.163580110125 0)
)
;
    }
    floatingObject
    {
        type            calculated;
        value           nonuniform List<vector> 4((0 0 0) (0 0 0) (-2.77555756156e-16 0 0) (0 0 0));
    }
    procBoundary6to3
    {
        type            processor;
        value           nonuniform List<vector> 8((0.22380785546 0.283848731676 8.75282927049e-18) (0.207499362016 0.264092458173 3.1019144059e-18) (0.219743252894 0.314104054179 1.80728177942e-18) (0.258496869048 0.384803636782 8.45568545004e-19) (0.351013065856 0.46992526633 3.4792121176e-19) (0.501976791289 0.531026807855 1.5911423128e-19) (0.839157284754 0.626752065323 -1.97754724691e-19) (2.78300774357 0.746628175941 -3.06641564863e-19));
    }
    procBoundary6to7
    {
        type            processor;
        value           nonuniform List<vector> 
11
(
(-0.230558905858 -0.0428359061688 -4.8135342629e-22)
(-0.217798741772 -0.0541630667299 3.39421692963e-22)
(-0.204991873727 -0.0632164330631 -2.78802986279e-22)
(-0.192375439849 -0.0702763519324 2.69385720933e-22)
(-0.180118064082 -0.0756156634473 -3.65993521146e-23)
(-0.16833468776 -0.0794889971695 1.12421034276e-24)
(-0.163969386523 -0.0867615953317 2.39552415143e-23)
(-0.165982224373 -0.0993490933042 4.81279293648e-23)
(-0.159844008276 -0.106126846186 6.91465571985e-22)
(-0.147336075936 -0.106154066391 7.30850529488e-22)
(-0.135815663922 -0.105402172229 2.14957610923e-22)
)
;
    }
    procBoundary6to8
    {
        type            processor;
        value           nonuniform List<vector> 
16
(
(-0.223808015462 0.283848907279 8.90413089402e-18)
(-0.207499173777 0.264092574794 3.10731205541e-18)
(-0.223735375652 0.33482578623 2.71853305577e-18)
(-0.23656102409 0.307941604077 -1.0050069812e-18)
(-0.246458857073 0.274274920511 1.83019504859e-19)
(-0.254267807057 0.240661115303 -2.75777341038e-20)
(-0.263009499829 0.207670935162 7.16808547569e-21)
(-0.271135352463 0.175488241084 7.88975492001e-22)
(-0.277723726931 0.144025824989 1.28947214175e-22)
(-0.281518649866 0.113169725685 6.34970099187e-22)
(-0.282235699908 0.0834141114192 8.99511879724e-23)
(-0.279352748049 0.0555129659081 -3.5961052807e-22)
(-0.273491648522 0.0299777988102 -1.61714016556e-23)
(-0.264977327073 0.007288778677 -3.12586177411e-23)
(-0.254586673586 -0.0123205551848 5.98707639804e-22)
(-0.242953025607 -0.0289650704838 -4.61664235473e-22)
)
;
    }
    procBoundary6to9
    {
        type            processor;
        value           nonuniform List<vector> 4((-0.129670920719 -0.110867530763 -9.28746392536e-23) (-0.127111713725 -0.120923660193 -2.8409485749e-21) (-0.120468280129 -0.127036373004 -8.89504018332e-21) (-0.136112791956 -0.158096311259 -4.40987596526e-21));
    }
}


// ************************************************************************* //
