/*--------------------------------*- C++ -*----------------------------------*\
| =========                 |                                                 |
| \\      /  F ield         | OpenFOAM: The Open Source CFD Toolbox           |
|  \\    /   O peration     | Version:  v2012                                 |
|   \\  /    A nd           | Website:  www.openfoam.com                      |
|    \\/     M anipulation  |                                                 |
\*---------------------------------------------------------------------------*/
FoamFile
{
    version     2.0;
    format      ascii;
    class       volScalarField;
    location    "5.8";
    object      ddt0(k);
}
// * * * * * * * * * * * * * * * * * * * * * * * * * * * * * * * * * * * * * //

dimensions      [0 2 -3 0 0 0 0];


internalField   nonuniform List<scalar> 
167
(
-0.000483933427446
-0.000483635777277
-0.000464870796961
-0.000350521970576
4.68734836932e-05
0.000249588136929
-0.00235531247586
-0.00828498774009
-0.00197104782999
-0.000489002425229
-0.000486854306444
-0.000433438037696
-0.000256890669309
-0.000653770345006
-0.00470960970708
-0.0144904292822
-0.0079949394734
-0.000496385735959
-0.000514807581108
-0.000533864035119
-0.000624875018447
-0.00178642757159
-0.00730239169842
-0.0189197537264
-0.0101485857477
-0.00048667411965
-0.000503817615629
-0.000543916968066
-0.000638992587057
-0.000988923475124
-0.002835820713
-0.00943056866922
-0.0221404458238
-0.0112444821739
-0.000487014291992
-0.000507511809718
-0.00055662554286
-0.000676012523515
-0.00113610434285
-0.00347440946686
-0.0111458566156
-0.0248537631257
-0.0154218533425
-0.000487648739131
-0.000512235504253
-0.000573527612689
-0.000735598940324
-0.00135194797747
-0.00421598273977
-0.0131587979137
-0.0317239577407
-0.19210903003
-0.000476789823544
-0.000488550149928
-0.000517419785814
-0.00059504171817
-0.000819969649185
-0.00164212559696
-0.00489133110698
-0.0144588703962
-0.0379026459664
-0.166366544618
-0.00047032097586
-0.000476387284122
-0.000489500378185
-0.000522741202928
-0.000614668715291
-0.000901136136181
-0.00192661812369
-0.00563816542903
-0.0156127657226
-0.0393307328245
-0.175491888407
-0.000469428250856
-0.000476089662365
-0.000490822533756
-0.000528195295611
-0.000634572743951
-0.000972777221286
-0.00221514630147
-0.00646811800997
-0.0170632802854
-0.042171723972
-0.143550641868
-0.000475911972698
-0.000492307889604
-0.000534260367166
-0.000654160366878
-0.00104821594527
-0.00251115646354
-0.00727090001126
-0.0181948468779
-0.0371382906142
0.11701171265
-0.000475630458848
-0.000493631220134
-0.000540282746026
-0.000675260607513
-0.00113198613301
-0.00284526511437
-0.00813017611961
-0.0195040973283
-0.0408139338082
0.0237872980126
-0.000474754173609
-0.000494374690618
-0.000546030596022
-0.000700877431884
-0.00124247902007
-0.00322572995839
-0.00893411725671
-0.020479698749
-0.0425079773511
-0.0758404971998
-0.00047232381943
-0.000493317868475
-0.000549755857333
-0.00072544973601
-0.00136291680526
-0.00361320367871
-0.00959095937943
-0.0209329890865
-0.0416832779478
-0.0659996235065
-0.000466040090079
-0.000487678437048
-0.000547749314712
-0.000741518127554
-0.00145988203491
-0.00392439118827
-0.0101324515625
-0.0207409149532
-0.035092571968
0.0411022440243
-0.000442625316673
-0.000451215716622
-0.00047243730573
-0.000533152100943
-0.000736309575724
-0.00150215891477
-0.00408266880146
-0.0103500306867
-0.0199226026507
-0.0183536647701
0.0642940864071
-0.000409777566958
-0.000417077877493
-0.000435993688858
-0.000492128186272
-0.000684023208288
-0.00141260250498
-0.00393171768378
-0.0102296295795
-0.0202521207566
-0.0165461747728
0.0867010756869
-0.000334600310685
-0.00034076888735
-0.000356320518797
-0.000402576887249
-0.000562393662286
-0.00116195092713
-0.00322420241488
-0.00891630721668
-0.0208484062885
-0.039194754245
-0.0343350321604
)
;

boundaryField
{
    back
    {
        type            calculated;
        value           nonuniform List<scalar> 
167
(
-0.000483933427446
-0.000483635777277
-0.000464870796961
-0.000350521970576
4.68734836932e-05
0.000249588136929
-0.00235531247586
-0.00828498774009
-0.00197104782999
-0.000489002425229
-0.000486854306444
-0.000433438037695
-0.000256890669309
-0.000653770345006
-0.00470960970708
-0.0144904292822
-0.0079949394734
-0.000496385735959
-0.000514807581108
-0.000533864035119
-0.000624875018447
-0.00178642757159
-0.00730239169842
-0.0189197537264
-0.0101485857477
-0.00048667411965
-0.000503817615629
-0.000543916968066
-0.000638992587057
-0.000988923475124
-0.002835820713
-0.00943056866922
-0.0221404458238
-0.0112444821739
-0.000487014291992
-0.000507511809718
-0.00055662554286
-0.000676012523515
-0.00113610434285
-0.00347440946686
-0.0111458566156
-0.0248537631257
-0.0154218533425
-0.000487648739131
-0.000512235504253
-0.000573527612689
-0.000735598940324
-0.00135194797747
-0.00421598273977
-0.0131587979137
-0.0317239577407
-0.19210903003
-0.000476789823544
-0.000488550149928
-0.000517419785814
-0.00059504171817
-0.000819969649185
-0.00164212559696
-0.00489133110698
-0.0144588703962
-0.0379026459664
-0.166366544618
-0.00047032097586
-0.000476387284122
-0.000489500378185
-0.000522741202928
-0.000614668715291
-0.000901136136181
-0.00192661812369
-0.00563816542903
-0.0156127657226
-0.0393307328245
-0.175491888407
-0.000469428250856
-0.000476089662365
-0.000490822533756
-0.000528195295611
-0.000634572743951
-0.000972777221286
-0.00221514630147
-0.00646811800997
-0.0170632802854
-0.042171723972
-0.143550641868
-0.000475911972698
-0.000492307889604
-0.000534260367166
-0.000654160366878
-0.00104821594527
-0.00251115646354
-0.00727090001126
-0.0181948468779
-0.0371382906142
0.11701171265
-0.000475630458848
-0.000493631220134
-0.000540282746026
-0.000675260607513
-0.00113198613301
-0.00284526511437
-0.00813017611961
-0.0195040973283
-0.0408139338082
0.0237872980126
-0.000474754173609
-0.000494374690618
-0.000546030596022
-0.000700877431884
-0.00124247902007
-0.00322572995839
-0.00893411725671
-0.020479698749
-0.0425079773511
-0.0758404971998
-0.00047232381943
-0.000493317868475
-0.000549755857333
-0.00072544973601
-0.00136291680526
-0.00361320367871
-0.00959095937943
-0.0209329890865
-0.0416832779478
-0.0659996235065
-0.000466040090079
-0.000487678437048
-0.000547749314712
-0.000741518127554
-0.00145988203491
-0.00392439118827
-0.0101324515625
-0.0207409149532
-0.035092571968
0.0411022440243
-0.000442625316673
-0.000451215716622
-0.00047243730573
-0.000533152100943
-0.000736309575724
-0.00150215891477
-0.00408266880146
-0.0103500306867
-0.0199226026507
-0.0183536647701
0.0642940864071
-0.000409777566958
-0.000417077877493
-0.000435993688858
-0.000492128186272
-0.000684023208288
-0.00141260250498
-0.00393171768378
-0.0102296295795
-0.0202521207566
-0.0165461747728
0.0867010756869
-0.000334600310685
-0.000340768887351
-0.000356320518797
-0.000402576887249
-0.000562393662286
-0.00116195092713
-0.00322420241488
-0.00891630721668
-0.0208484062885
-0.039194754245
-0.0343350321604
)
;
    }
    sides
    {
        type            calculated;
        value           nonuniform List<scalar> 
11
(
-0.000334600310685
-0.000340768887351
-0.000356320518797
-0.000402576887249
-0.000562393662286
-0.00116195092713
-0.00322420241488
-0.00891630721668
-0.0208484062885
-0.039194754245
-0.0343350321604
)
;
    }
    bottom
    {
        type            calculated;
        value           nonuniform List<scalar> 0();
    }
    front
    {
        type            calculated;
        value           nonuniform List<scalar> 
167
(
-0.000483933427446
-0.000483635777277
-0.000464870796961
-0.000350521970576
4.68734836932e-05
0.000249588136929
-0.00235531247586
-0.00828498774009
-0.00197104782999
-0.000489002425229
-0.000486854306444
-0.000433438037695
-0.000256890669309
-0.000653770345006
-0.00470960970708
-0.0144904292822
-0.0079949394734
-0.000496385735959
-0.000514807581108
-0.000533864035119
-0.000624875018447
-0.00178642757159
-0.00730239169842
-0.0189197537264
-0.0101485857477
-0.00048667411965
-0.000503817615629
-0.000543916968066
-0.000638992587057
-0.000988923475124
-0.002835820713
-0.00943056866922
-0.0221404458238
-0.0112444821739
-0.000487014291992
-0.000507511809718
-0.00055662554286
-0.000676012523515
-0.00113610434285
-0.00347440946686
-0.0111458566156
-0.0248537631257
-0.0154218533425
-0.000487648739131
-0.000512235504253
-0.000573527612689
-0.000735598940324
-0.00135194797747
-0.00421598273977
-0.0131587979137
-0.0317239577407
-0.19210903003
-0.000476789823544
-0.000488550149928
-0.000517419785814
-0.00059504171817
-0.000819969649185
-0.00164212559696
-0.00489133110698
-0.0144588703962
-0.0379026459664
-0.166366544618
-0.00047032097586
-0.000476387284122
-0.000489500378185
-0.000522741202928
-0.000614668715291
-0.000901136136181
-0.00192661812369
-0.00563816542903
-0.0156127657226
-0.0393307328245
-0.175491888407
-0.000469428250856
-0.000476089662365
-0.000490822533756
-0.000528195295611
-0.000634572743951
-0.000972777221286
-0.00221514630147
-0.00646811800997
-0.0170632802854
-0.042171723972
-0.143550641868
-0.000475911972698
-0.000492307889604
-0.000534260367166
-0.000654160366878
-0.00104821594527
-0.00251115646354
-0.00727090001126
-0.0181948468779
-0.0371382906142
0.11701171265
-0.000475630458848
-0.000493631220134
-0.000540282746026
-0.000675260607513
-0.00113198613301
-0.00284526511437
-0.00813017611961
-0.0195040973283
-0.0408139338082
0.0237872980126
-0.000474754173609
-0.000494374690618
-0.000546030596022
-0.000700877431884
-0.00124247902007
-0.00322572995839
-0.00893411725671
-0.020479698749
-0.0425079773511
-0.0758404971998
-0.00047232381943
-0.000493317868475
-0.000549755857333
-0.00072544973601
-0.00136291680526
-0.00361320367871
-0.00959095937943
-0.0209329890865
-0.0416832779478
-0.0659996235065
-0.000466040090079
-0.000487678437048
-0.000547749314712
-0.000741518127554
-0.00145988203491
-0.00392439118827
-0.0101324515625
-0.0207409149532
-0.035092571968
0.0411022440243
-0.000442625316673
-0.000451215716622
-0.00047243730573
-0.000533152100943
-0.000736309575724
-0.00150215891477
-0.00408266880146
-0.0103500306867
-0.0199226026507
-0.0183536647701
0.0642940864071
-0.000409777566958
-0.000417077877493
-0.000435993688858
-0.000492128186272
-0.000684023208288
-0.00141260250498
-0.00393171768378
-0.0102296295795
-0.0202521207566
-0.0165461747728
0.0867010756869
-0.000334600310685
-0.000340768887351
-0.000356320518797
-0.000402576887249
-0.000562393662286
-0.00116195092713
-0.00322420241488
-0.00891630721668
-0.0208484062885
-0.039194754245
-0.0343350321604
)
;
    }
    atmosphere
    {
        type            calculated;
        value           nonuniform List<scalar> 
17
(
-2.49445026038e-07
-3.5479429864e-13
-3.83758943192e-13
-4.569225302e-13
-0.000960561238295
-1.36704095238
0.414847670649
0.417264900507
-0.439048080242
-0.720102201387
2.29894114339
-0.0639636449199
-0.0720324858541
1.99868699575
0.147751714304
-0.301280263338
-0.0617870416695
)
;
    }
    floatingObject
    {
        type            calculated;
        value           nonuniform List<scalar> 0();
    }
    procBoundary11to9
    {
        type            processor;
        value           nonuniform List<scalar> 9(-0.00048396716201 -0.000479789469905 -0.000447767931035 -0.000287860100345 0.000258868546836 0.000840465446842 -0.000506238446452 0.00250712743126 0.0256645525422);
    }
    procBoundary11to10
    {
        type            processor;
        value           nonuniform List<scalar> 
23
(
-0.00048177424586
-0.000484405650364
-0.000484405650364
-0.000485574268253
-0.000485574268253
-0.000479033652128
-0.000478101483072
-0.000477367213555
-0.000477367213555
-0.000471342308607
-0.000471342308607
-0.000467009755037
-0.000465818215953
-0.000468580915253
-0.000468580915253
-0.000467678964929
-0.000466249345235
-0.000463385717735
-0.000456997435042
-0.000456997435042
-0.000438454550002
-0.000406328324796
-0.000331230672335
)
;
    }
}


// ************************************************************************* //
