/*--------------------------------*- C++ -*----------------------------------*\
| =========                 |                                                 |
| \\      /  F ield         | OpenFOAM: The Open Source CFD Toolbox           |
|  \\    /   O peration     | Version:  v2012                                 |
|   \\  /    A nd           | Website:  www.openfoam.com                      |
|    \\/     M anipulation  |                                                 |
\*---------------------------------------------------------------------------*/
FoamFile
{
    version     2.0;
    format      ascii;
    class       volScalarField;
    location    "5.8";
    object      nut;
}
// * * * * * * * * * * * * * * * * * * * * * * * * * * * * * * * * * * * * * //

dimensions      [0 2 -1 0 0 0 0];


internalField   nonuniform List<scalar> 
167
(
0.000441467602161
0.00044901618167
0.000468949306044
0.000524287642043
0.000666164938453
0.000954049317895
0.00140316138281
0.00203377620795
0.00304053011217
0.000449397514076
0.000470675843127
0.000529426705742
0.000677361539509
0.000971616121931
0.00142563726165
0.00204725172749
0.00303747944976
0.000449823291714
0.000472521655401
0.000534789642304
0.000688509271594
0.000985442142438
0.00143178647937
0.00203817132238
0.00302442161066
0.000441141656708
0.000450252812264
0.000474232709485
0.00053937222593
0.000697584907258
0.000995353804496
0.00143021986613
0.00201203177419
0.00271413868784
0.000441031262572
0.000450680938415
0.000475822345993
0.000543251396841
0.000704873551082
0.00100214095203
0.00142576951505
0.00199365189598
0.00268233737579
0.000440920984809
0.000451159462262
0.000477673399608
0.00054785880954
0.000712821028945
0.00100948567378
0.00142448728514
0.00195932412261
0.00248068311258
0.000436133033424
0.000440815273105
0.000451731320035
0.000480057113559
0.000554080279303
0.000722457221732
0.00101617903229
0.00141977237605
0.00192334062745
0.00240579247107
0.000433248146659
0.000435755723337
0.000440704219443
0.000452318329946
0.000482585223081
0.000560860888011
0.000733000589912
0.00102199378267
0.00141238196848
0.00189799559588
0.00235858734548
0.000432739533965
0.000435371340568
0.000440587910401
0.00045288242972
0.000484958676927
0.000567099553427
0.000742977343887
0.00102807822402
0.00140322951854
0.00186151384047
0.00232719400735
0.00043497001048
0.00044046294712
0.00045343599609
0.000487243979557
0.000573107355138
0.000753015675569
0.00103540022587
0.00139621133184
0.00186997759455
0.00304895770738
0.000434521151993
0.000440305347727
0.000454018342786
0.000489827028484
0.000580190449689
0.000765214418229
0.00104495009128
0.00138765657546
0.00180849844122
0.00313537571344
0.00043390518672
0.000439998740312
0.000454611774229
0.000493120706336
0.00058948634716
0.000780108949104
0.00105582873411
0.00137995062388
0.00173851053866
0.00218169905038
0.000432816880784
0.000439219447199
0.000454830729598
0.000496492465537
0.000599567765134
0.000795183108912
0.00106519229738
0.00137200593436
0.00170220465468
0.00213895400512
0.00043048642332
0.000437111828173
0.000453577970223
0.000498147207889
0.00060721916287
0.000806705435542
0.00107043559229
0.00136504766612
0.00173505010619
0.00318183118175
0.000421823467591
0.000425014869271
0.000431669067638
0.000448463116966
0.000494464975508
0.000606427091099
0.000807057983719
0.00106632086411
0.00135699432515
0.00179751484307
0.00302967262756
0.000408403542883
0.000411488381177
0.000417834574062
0.00043389352891
0.000478173784643
0.000586985210196
0.000784586540192
0.00104351544684
0.00133613522473
0.00178286072957
0.00303148543484
0.000275526571577
0.000277733376918
0.000281863177734
0.00029181555327
0.000319071374869
0.000387696329931
0.000520203518522
0.000708255770683
0.000926521499747
0.00118036415466
0.00160539218684
)
;

boundaryField
{
    back
    {
        type            nutkWallFunction;
        blending        stepwise;
        Cmu             0.09;
        kappa           0.41;
        E               9.8;
        value           nonuniform List<scalar> 
167
(
4.72927949586e-05
4.8013151813e-05
4.98935668486e-05
5.50337792549e-05
6.80416691395e-05
9.43889255161e-05
0.00013540846118
0.000240012100583
0.000343699126306
4.80576594952e-05
5.00883091209e-05
5.56194717115e-05
6.93606443524e-05
9.65077050808e-05
0.000138239013304
0.000243320950111
0.000344540388008
4.81049105624e-05
5.02899010703e-05
5.62134555469e-05
7.06383289376e-05
9.8261331018e-05
0.000139640366906
0.000243659753383
0.000344094277316
4.72646172757e-05
4.81518565882e-05
5.04728638242e-05
5.67063321857e-05
7.16565479559e-05
9.95414509844e-05
0.000140123207947
0.000242400891725
0.000335267413561
4.72549649672e-05
4.81975543935e-05
5.06387175154e-05
5.71085226723e-05
7.24403838272e-05
0.000100460601332
0.000140183284236
0.00024094913879
0.000333849416843
4.72456780098e-05
4.82492582152e-05
5.08339643584e-05
5.76004465352e-05
7.33336447469e-05
0.000101489537685
0.000140784932819
0.000239711188602
0.000321432324445
4.6776901045e-05
4.72371482175e-05
4.83103260915e-05
5.10843150634e-05
5.82639350587e-05
7.44168943601e-05
0.000102393182098
0.00014080688212
0.000237128420135
0.000310436425449
4.64945845752e-05
4.67408390966e-05
4.72281275861e-05
4.83728107173e-05
5.13452355918e-05
5.89719444438e-05
7.55678310968e-05
0.000103227767534
0.000140509126292
0.000234575549098
0.000307029232071
4.64453531905e-05
4.67042037188e-05
4.72190207854e-05
4.84331042111e-05
5.15908499909e-05
5.96160615888e-05
7.66560753829e-05
0.000104108599458
0.000140129457062
0.000231090965994
0.000298261557051
4.66660873358e-05
4.72092481856e-05
4.84929734742e-05
5.18271279403e-05
6.02389475198e-05
7.77451914555e-05
0.000105072240914
0.000139774229154
0.000229402672466
0.000322764569816
4.66232718047e-05
4.71961321776e-05
4.85554117865e-05
5.20925880543e-05
6.09663454671e-05
7.90443119267e-05
0.000106244704965
0.000139412831773
0.000223706725846
0.00030359861983
4.6563774665e-05
4.71681013746e-05
4.86185169667e-05
5.24293284873e-05
6.19182630158e-05
8.06030002337e-05
0.000107501175384
0.000139051622974
0.000217492476994
0.000264322678069
4.64573412417e-05
4.70929188234e-05
4.86437314651e-05
5.27717554955e-05
6.29464917246e-05
8.21699125565e-05
0.000108561333696
0.000138506988868
0.000213236567879
0.000257711644494
4.6227806308e-05
4.68858281026e-05
4.85228556778e-05
5.29438024053e-05
6.37282135222e-05
8.33688041043e-05
0.000109213898521
0.000137803610039
0.000214139970796
0.000300765174263
4.53724631941e-05
4.56880411757e-05
4.63494554337e-05
4.80211971521e-05
5.25931952688e-05
6.3689701495e-05
8.34867587285e-05
0.000108934661164
0.000136805719469
0.000215964973271
0.000328509286105
4.40477949623e-05
4.43528785272e-05
4.49849100543e-05
4.6588781535e-05
5.10072663471e-05
6.18321593845e-05
8.14103831631e-05
0.000106933342705
0.000135134182435
0.000212371774819
0.000327300957538
3.99974635649e-05
4.02912789826e-05
4.08464366868e-05
4.21919966821e-05
4.58814620834e-05
5.51413270764e-05
7.28729434136e-05
9.78866442659e-05
0.000127024210307
0.000196963466254
0.000258331601376
)
;
    }
    sides
    {
        type            nutkWallFunction;
        blending        stepwise;
        Cmu             0.09;
        kappa           0.41;
        E               9.8;
        value           nonuniform List<scalar> 
11
(
2.11898145013e-05
2.13472169197e-05
2.16446027336e-05
2.23652702757e-05
2.43404849439e-05
2.92931973855e-05
3.87620773359e-05
5.20949758157e-05
6.76008314672e-05
0.000102277183676
0.000134388199695
)
;
    }
    bottom
    {
        type            nutkWallFunction;
        blending        stepwise;
        Cmu             0.09;
        kappa           0.41;
        E               9.8;
        value           nonuniform List<scalar> 0();
    }
    front
    {
        type            nutkWallFunction;
        blending        stepwise;
        Cmu             0.09;
        kappa           0.41;
        E               9.8;
        value           nonuniform List<scalar> 
167
(
4.72927949586e-05
4.8013151813e-05
4.98935668486e-05
5.50337792549e-05
6.80416691395e-05
9.43889255161e-05
0.00013540846118
0.000240012100583
0.000343699126306
4.80576594952e-05
5.00883091209e-05
5.56194717115e-05
6.93606443524e-05
9.65077050808e-05
0.000138239013304
0.000243320950111
0.000344540388008
4.81049105624e-05
5.02899010703e-05
5.62134555469e-05
7.06383289376e-05
9.8261331018e-05
0.000139640366906
0.000243659753383
0.000344094277316
4.72646172757e-05
4.81518565882e-05
5.04728638242e-05
5.67063321857e-05
7.16565479559e-05
9.95414509844e-05
0.000140123207947
0.000242400891725
0.000335267413561
4.72549649672e-05
4.81975543935e-05
5.06387175154e-05
5.71085226723e-05
7.24403838272e-05
0.000100460601332
0.000140183284236
0.00024094913879
0.000333849416843
4.72456780098e-05
4.82492582152e-05
5.08339643584e-05
5.76004465352e-05
7.33336447469e-05
0.000101489537685
0.000140784932819
0.000239711188602
0.000321432324445
4.6776901045e-05
4.72371482175e-05
4.83103260915e-05
5.10843150634e-05
5.82639350587e-05
7.44168943601e-05
0.000102393182098
0.00014080688212
0.000237128420135
0.000310436425449
4.64945845752e-05
4.67408390966e-05
4.72281275861e-05
4.83728107173e-05
5.13452355918e-05
5.89719444438e-05
7.55678310968e-05
0.000103227767534
0.000140509126292
0.000234575549098
0.000307029232071
4.64453531905e-05
4.67042037188e-05
4.72190207854e-05
4.84331042111e-05
5.15908499909e-05
5.96160615888e-05
7.66560753829e-05
0.000104108599458
0.000140129457062
0.000231090965994
0.000298261557051
4.66660873358e-05
4.72092481856e-05
4.84929734742e-05
5.18271279403e-05
6.02389475198e-05
7.77451914555e-05
0.000105072240914
0.000139774229154
0.000229402672466
0.000322764569816
4.66232718047e-05
4.71961321776e-05
4.85554117865e-05
5.20925880543e-05
6.09663454671e-05
7.90443119267e-05
0.000106244704965
0.000139412831773
0.000223706725846
0.00030359861983
4.6563774665e-05
4.71681013746e-05
4.86185169667e-05
5.24293284873e-05
6.19182630158e-05
8.06030002337e-05
0.000107501175384
0.000139051622974
0.000217492476994
0.000264322678069
4.64573412417e-05
4.70929188234e-05
4.86437314651e-05
5.27717554955e-05
6.29464917246e-05
8.21699125565e-05
0.000108561333696
0.000138506988868
0.000213236567879
0.000257711644494
4.6227806308e-05
4.68858281026e-05
4.85228556778e-05
5.29438024053e-05
6.37282135222e-05
8.33688041043e-05
0.000109213898521
0.000137803610039
0.000214139970796
0.000300765174263
4.53724631941e-05
4.56880411757e-05
4.63494554337e-05
4.80211971521e-05
5.25931952688e-05
6.3689701495e-05
8.34867587285e-05
0.000108934661164
0.000136805719469
0.000215964973271
0.000328509286105
4.40477949623e-05
4.43528785272e-05
4.49849100543e-05
4.6588781535e-05
5.10072663471e-05
6.18321593845e-05
8.14103831631e-05
0.000106933342705
0.000135134182435
0.000212371774819
0.000327300957538
3.99974635649e-05
4.02912789826e-05
4.08464366868e-05
4.21919966821e-05
4.58814620834e-05
5.51413270764e-05
7.28729434136e-05
9.78866442659e-05
0.000127024210307
0.000196963466254
0.000258331601376
)
;
    }
    atmosphere
    {
        type            calculated;
        value           nonuniform List<scalar> 
17
(
0.009
0.009
0.009
0.00271413868784
0.00268233737579
0.00248068311258
0.00240579247107
0.00235858734548
0.00232719400735
0.009
0.009
0.00218169905038
0.00213895400512
0.009
0.009
0.009
0.00160539218684
)
;
    }
    floatingObject
    {
        type            nutkWallFunction;
        blending        stepwise;
        Cmu             0.09;
        kappa           0.41;
        E               9.8;
        value           nonuniform List<scalar> 0();
    }
    procBoundary11to9
    {
        type            processor;
        value           nonuniform List<scalar> 9(0.000441555340462 0.00044863753136 0.000467365832533 0.00051964229754 0.000655172846831 0.000931791838827 0.00136156671914 0.0019889065755 0.00304565245557);
    }
    procBoundary11to10
    {
        type            processor;
        value           nonuniform List<scalar> 
23
(
0.000438184099104
0.00044135597217
0.00044135597217
0.000441250421474
0.000441250421474
0.000437218524237
0.000436867812339
0.000436505718697
0.000436505718697
0.000433751434429
0.000433751434429
0.000431706737199
0.000431124830951
0.000432212138018
0.000432212138018
0.000431634648621
0.000430889516282
0.000429687802859
0.000427288013415
0.000427288013415
0.000419904347978
0.000406504345869
0.000274034061219
)
;
    }
}


// ************************************************************************* //
