/*--------------------------------*- C++ -*----------------------------------*\
| =========                 |                                                 |
| \\      /  F ield         | OpenFOAM: The Open Source CFD Toolbox           |
|  \\    /   O peration     | Version:  v2012                                 |
|   \\  /    A nd           | Website:  www.openfoam.com                      |
|    \\/     M anipulation  |                                                 |
\*---------------------------------------------------------------------------*/
FoamFile
{
    version     2.0;
    format      ascii;
    class       volVectorField;
    location    "5.8";
    object      U;
}
// * * * * * * * * * * * * * * * * * * * * * * * * * * * * * * * * * * * * * //

dimensions      [0 1 -1 0 0 0 0];


internalField   nonuniform List<vector> 
167
(
(0.0272948576057 -0.00200702261876 -1.80623685537e-22)
(0.0297248493605 -0.00274103262617 -6.59841447272e-22)
(0.0327314092353 -0.00363785343448 -2.17679700222e-21)
(0.0365274530599 -0.00461387920674 -4.39167217834e-21)
(0.0414193601633 -0.00562209395363 -4.33390713018e-21)
(0.0450651234517 -0.0106051403415 -5.33854117413e-21)
(0.0473807801184 -0.0121097785556 -1.14703035525e-20)
(0.0400785794985 -0.00699506725168 -1.13326063217e-20)
(-0.00222982465253 -0.0164387792702 -4.29823083779e-21)
(0.030360102114 -0.000275335733795 -5.74881507714e-22)
(0.0334607738368 -0.000772444714527 -1.77211183727e-21)
(0.0372946493494 -0.00123778375448 -3.53889448986e-21)
(0.0421307802 -0.00148790080487 -3.18162268097e-21)
(0.0459689407065 -0.00658857925705 -6.2809271564e-21)
(0.0510358131592 -0.0071501150598 -2.41652340921e-20)
(0.0435316101224 -0.00151791262708 -2.36268367336e-20)
(0.000406428589553 -0.0114257275587 -4.82073092711e-21)
(0.0306242687176 0.002336290176 -5.08462047041e-22)
(0.0338144773029 0.00223378634833 -1.43847179616e-21)
(0.0377676747273 0.00212198525163 -2.92816516114e-21)
(0.0424528318144 0.00276527930857 -3.38710273147e-21)
(0.0465510106669 -0.00215148411794 -1.0043090703e-20)
(0.0538182707387 -0.00133832681037 -2.07912777941e-20)
(0.0459353177391 0.00341329897641 -2.00779159218e-20)
(0.00261478596067 -0.00451098421295 -2.18381608202e-21)
(0.0278153630785 0.00472239937824 -1.4604615827e-22)
(0.0304797035701 0.00507816793462 -4.9826744524e-22)
(0.0337338608822 0.00545466586029 -1.22686054768e-21)
(0.0377859677967 0.00567408810172 -2.39970163404e-21)
(0.0426294733181 0.00753457372563 -2.90568163926e-21)
(0.0467913056021 0.00263205275766 -7.48750971327e-21)
(0.0552961200466 0.00427340741861 -1.69682792887e-20)
(0.0475603019708 0.00903686678885 -1.62747773742e-20)
(0.00430540894375 0.00243156225163 -3.8205300776e-21)
(0.0272805680917 0.00709238390333 -2.44961490779e-22)
(0.0299289058093 0.00786703800816 -7.75528739816e-22)
(0.0331081912985 0.00873637204153 -1.98836001454e-21)
(0.0371289526503 0.00957581578302 -4.81513135231e-21)
(0.0423784149024 0.0126548403511 -8.87131448872e-21)
(0.0465063655127 0.00742028237061 -6.35258053951e-21)
(0.055647257967 0.00977640527217 -8.45293124129e-21)
(0.0484874130712 0.0148563714583 -8.49203372527e-21)
(0.00706518798468 0.00784632850347 -1.19379020154e-21)
(0.0263645119356 0.00945166253555 -4.14160498937e-22)
(0.0289074347253 0.0106014773659 -1.27665710598e-21)
(0.0319162785889 0.0119271688532 -3.09447537696e-21)
(0.035750182359 0.0133271939685 -6.41713663608e-21)
(0.0412020679954 0.0173174666602 -5.98850496231e-21)
(0.0457897478917 0.0117786556314 -1.01607491887e-20)
(0.0551559652662 0.0149711997214 -1.32563523798e-20)
(0.0495072088433 0.021898464065 -1.32315941409e-20)
(0.0148007790016 0.0138223255874 -6.89175752812e-22)
(0.0230822511274 0.0103145780722 -1.47788862893e-22)
(0.0251088548631 0.0116681262836 -5.08105572261e-22)
(0.0275097703465 0.0131982411777 -1.55729312264e-21)
(0.0302646206373 0.014895861001 -3.37405283607e-21)
(0.0338417669784 0.0164776420244 -6.5728156604e-21)
(0.0393133159896 0.0211219735407 -6.44207605461e-21)
(0.0441932212757 0.0155727144895 -1.56897585787e-20)
(0.0538312742575 0.0197890938632 -3.79357780787e-20)
(0.0491607158722 0.028145313663 -3.67700222881e-20)
(0.0226789578855 0.0244026852526 -8.6790136791e-23)
(0.0200735012713 0.010656857087 -4.17566013451e-23)
(0.0216791375694 0.0121243558195 -1.47147753469e-22)
(0.0235877002563 0.0137815968915 -4.49207955561e-22)
(0.0258082429501 0.0155972299873 -1.3603366514e-21)
(0.0283609157707 0.0176411335107 -3.39790361522e-21)
(0.0316115082386 0.0194760649302 -7.64866767966e-21)
(0.0367328831612 0.0245124799242 -1.35798456188e-20)
(0.0414466903602 0.0191479839324 -1.99263792945e-20)
(0.0510709912181 0.0247182744892 -2.74325732473e-20)
(0.045708501671 0.0348908152119 -2.42654375188e-20)
(0.0205163503904 0.0446674680364 -4.65712745536e-21)
(0.0185695222674 0.0121230948588 -1.52867448297e-23)
(0.0200296531563 0.0138310532748 -1.26006754336e-22)
(0.0217380489046 0.0157172727524 -4.02427824435e-22)
(0.0237494031047 0.0178304738736 -1.19251262471e-21)
(0.026105900201 0.0202072980196 -3.33487800294e-21)
(0.0290427793022 0.0223027959481 -9.38251772548e-21)
(0.0334377196337 0.0278858799293 -2.28342477862e-20)
(0.0378324457265 0.0226406667472 -1.89881223477e-20)
(0.0468778498098 0.0292071003308 -1.44758109204e-20)
(0.0431490411808 0.0386620796956 -1.47109096871e-20)
(0.0351222738165 0.0192712829181 -9.82087579956e-21)
(0.018130047277 0.0153590135226 -9.17361817981e-23)
(0.0196025587121 0.0174629662016 -3.24616331024e-22)
(0.0213877391788 0.0198210205597 -9.5717940737e-22)
(0.0234286984368 0.0225581593119 -2.31960593085e-21)
(0.026025198988 0.0248559558885 -6.2566069495e-21)
(0.0299734708367 0.0308443533193 -1.91397986055e-20)
(0.0339550558199 0.0255093897025 -1.80211484265e-20)
(0.0422671762696 0.032594522859 -2.36336867609e-20)
(0.048044488815 0.0422335766546 -2.54886620704e-20)
(0.0680838362481 -0.00676837039649 -4.91739112055e-21)
(0.0160398804724 0.0167019838507 -7.6655840113e-23)
(0.0173222622624 0.0189738623038 -3.51930487807e-22)
(0.0187786424822 0.0215025273253 -9.70134470119e-22)
(0.0204586788176 0.0244658263705 -1.71200693901e-21)
(0.0226055890472 0.0269167851032 -3.3949451243e-21)
(0.0265573523492 0.033162148169 -6.34396207874e-21)
(0.030199086864 0.0276157249495 -1.27514191276e-20)
(0.0376532558585 0.0349695320417 -1.86148853224e-20)
(0.0605448970113 0.0416821378916 -2.0151454857e-20)
(0.167726521767 -0.0287211323593 -7.98361715262e-21)
(0.0138068326957 0.0178555999647 -3.45497499604e-23)
(0.0148694339564 0.0202224060837 -2.8831541353e-22)
(0.0160287799333 0.0228172845528 -1.0005909546e-21)
(0.0173151204864 0.0258711590149 -2.11014789075e-21)
(0.0190974396782 0.0282375881832 -3.25427476009e-21)
(0.0230711080271 0.0347539105244 -6.48619122145e-21)
(0.0265076033745 0.029427657412 -1.56803781495e-20)
(0.0325635723076 0.0372253237093 -2.08387465561e-20)
(0.0484398810065 0.0411001038537 -1.33204832482e-20)
(0.141028437384 0.185135576799 -8.24868264824e-21)
(0.0114787959147 0.0188268841335 2.21497265953e-23)
(0.0123221155201 0.0212611210765 -3.0831405582e-22)
(0.013256777079 0.0238874270819 -1.12735998325e-21)
(0.0141699947891 0.0269564787337 -3.00835700182e-21)
(0.0155947011054 0.0290380438542 -5.22645496705e-21)
(0.0193001555547 0.0358578991171 -9.78310107656e-21)
(0.0222109586084 0.0312196681229 -2.11946874414e-20)
(0.0264828554312 0.0399608466909 -2.47928419801e-20)
(0.00589778098401 0.047822694678 -1.33354308774e-20)
(-0.0853480571584 0.237566236417 -1.18514141434e-20)
(0.0090770542131 0.0197045293034 1.52580423338e-22)
(0.00975891868639 0.0221830650741 -1.13234089306e-22)
(0.0105046553811 0.0248166871442 -1.00303856539e-21)
(0.0111737065572 0.0278890001462 -3.53206626054e-21)
(0.0122062440411 0.0298028261101 -1.05958244928e-20)
(0.0149497496885 0.0370894812853 -2.68263238299e-20)
(0.0170023493106 0.0331894436704 -2.04858288299e-20)
(0.0203300271602 0.0430284404922 -1.97714149532e-20)
(-0.00695233227594 0.050487807665 -2.03418266714e-20)
(-0.113753521987 -0.0414994861071 -1.04362380872e-20)
(0.0061749750816 0.0181492328238 3.60000576995e-22)
(0.00662478996617 0.0205716439896 3.19792754722e-22)
(0.00716002145206 0.0231332509413 1.3634736451e-22)
(0.00776021054671 0.025848157795 -5.31991227121e-22)
(0.0083521425803 0.0289888126991 -2.72638056924e-21)
(0.00890291767024 0.0307746317738 -7.40380676679e-21)
(0.00987839486758 0.0386770205658 -2.19803816622e-20)
(0.011157327847 0.0351948308285 -1.73488838182e-20)
(0.0147771837093 0.0455894446692 -1.50253216312e-20)
(0.00701852212308 0.0535620739996 -1.58369874099e-20)
(0.00261319846558 -0.0167653032999 -3.87373583416e-21)
(0.00382441398372 0.0189455044275 5.17565010035e-22)
(0.0041398151785 0.0214691568174 4.96713213284e-22)
(0.00447449590362 0.0241511475007 4.61662493593e-22)
(0.00490678168812 0.0270744004743 -1.01800958799e-22)
(0.0053335381268 0.0304860421127 -5.74056732651e-22)
(0.00509423427233 0.0326902430311 1.76986281568e-21)
(0.00374022403939 0.0409105385336 1.42653085719e-20)
(0.00499605057493 0.0364752917154 2.50192687593e-20)
(0.0106145431436 0.0466694453875 5.3324890774e-20)
(0.0159111257843 0.0490366166913 5.30585207602e-20)
(0.0742593546906 -0.0172462668665 7.7986025515e-21)
(0.00128390128131 0.0196963657342 6.63238647646e-22)
(0.00139048343154 0.0223001558972 6.45932469504e-22)
(0.00148405919508 0.0251192152951 6.0477589451e-22)
(0.00169587029477 0.0282085650453 -1.32569530062e-22)
(0.00205813156927 0.0316702711112 -1.79872789801e-21)
(0.00208754115574 0.0337809630077 8.60628526465e-21)
(0.00150825669892 0.0407596149404 2.54551097797e-20)
(0.00220394760609 0.0336449272502 7.67922483237e-20)
(0.0052794034788 0.0427211882432 1.81526750741e-19)
(0.0504066745978 0.0396332867674 1.90086579072e-19)
(0.124848047094 0.176893289195 8.29150312315e-20)
)
;

boundaryField
{
    back
    {
        type            noSlip;
    }
    sides
    {
        type            noSlip;
    }
    bottom
    {
        type            noSlip;
    }
    front
    {
        type            noSlip;
    }
    atmosphere
    {
        type            pressureInletOutletVelocity;
        value           nonuniform List<vector> 
17
(
(0 -0.0164387792702 0)
(0 -0.0114257275587 0)
(0 -0.00451098421295 0)
(0.00430540894375 0.00243156225163 -3.8205300776e-21)
(0.00706518798468 0.00784632850347 -1.19379020154e-21)
(0.0148007790016 0.0138223255874 -6.89175752812e-22)
(0.0226789578855 0.0244026852526 -8.6790136791e-23)
(0.0205163503904 0.0446674680364 -4.65712745536e-21)
(0.0351222738165 0.0192712829181 -9.82087579956e-21)
(0 -0.00676837039649 0)
(0 -0.0287211323593 0)
(0.141028437384 0.185135576799 -8.24868264824e-21)
(-0.0853480571584 0.237566236417 -1.18514141434e-20)
(0 -0.0414994861071 0)
(0 -0.0167653032999 0)
(0 -0.0172462668665 0)
(0.124848047094 0.176893289195 8.29150312315e-20)
)
;
    }
    floatingObject
    {
        type            movingWallVelocity;
        value           nonuniform List<vector> 0();
    }
    procBoundary11to9
    {
        type            processor;
        value           nonuniform List<vector> 9((0.0264833950615 -0.00397779666857 -1.48391486357e-22) (0.0287248449075 -0.00501474335541 -5.87561850235e-22) (0.0315835202558 -0.0062735897599 -1.8717997025e-21) (0.0352794114344 -0.00782506395272 -3.29238653554e-21) (0.0399980031029 -0.0095317242412 -5.02356529864e-21) (0.0434036781227 -0.0142512979094 -3.86464265391e-21) (0.0439097250644 -0.0162451811256 -9.08692936621e-21) (0.0367428719147 -0.0124485400268 -8.97150235627e-21) (-0.00279089954393 -0.0182922777948 -1.52831536588e-21));
    }
    procBoundary11to10
    {
        type            processor;
        value           nonuniform List<vector> 
23
(
(0.0252933636058 -0.00142361049768 -4.06241497239e-23)
(0.0278001876125 0.000119454230801 -1.84478750946e-22)
(0.0278001876125 0.000119454230801 -1.84478750946e-22)
(0.0279808267427 0.00237283145485 -1.6040587147e-22)
(0.0279808267427 0.00237283145485 -1.6040587147e-22)
(0.0255819223662 0.00435432993822 -3.75508150782e-23)
(0.0250605787221 0.00638844773799 -5.84975664495e-23)
(0.0242203055109 0.00839285698632 -1.0247532247e-22)
(0.0242203055109 0.00839285698632 -1.0247532247e-22)
(0.0213578493931 0.00908271290345 -1.26754533892e-23)
(0.0213578493931 0.00908271290345 -1.26754533892e-23)
(0.0187046900355 0.0093004059436 4.15911518617e-24)
(0.0173079977394 0.0105620596432 7.28428638985e-24)
(0.0168474625831 0.0134625548296 -1.70475628532e-23)
(0.0168474625831 0.0134625548296 -1.70475628532e-23)
(0.0149417018735 0.0146258752029 4.44034460029e-24)
(0.0128833707451 0.0156468563896 3.7366189177e-23)
(0.0107219533646 0.0165282887012 9.48580681196e-23)
(0.00848826773993 0.0173445000964 2.02190743522e-22)
(0.00848826773993 0.0173445000964 2.02190743522e-22)
(0.00580499387339 0.0158783859807 3.90122144633e-22)
(0.00357113519577 0.0165702931078 5.90849909257e-22)
(0.00118830532875 0.0172317171595 7.903792401e-22)
)
;
    }
}


// ************************************************************************* //
