/*--------------------------------*- C++ -*----------------------------------*\
| =========                 |                                                 |
| \\      /  F ield         | OpenFOAM: The Open Source CFD Toolbox           |
|  \\    /   O peration     | Version:  v2012                                 |
|   \\  /    A nd           | Website:  www.openfoam.com                      |
|    \\/     M anipulation  |                                                 |
\*---------------------------------------------------------------------------*/
FoamFile
{
    version     2.0;
    format      ascii;
    class       volVectorField;
    location    "5.8";
    object      U_0;
}
// * * * * * * * * * * * * * * * * * * * * * * * * * * * * * * * * * * * * * //

dimensions      [0 1 -1 0 0 0 0];


internalField   nonuniform List<vector> 
167
(
(0.0225764189355 -0.00487576449244 -1.78593550407e-22)
(0.0247369427245 -0.00598958078765 -6.52342146543e-22)
(0.0274254385482 -0.00731615253786 -2.16988767508e-21)
(0.0308527965708 -0.0088084814205 -4.42848619186e-21)
(0.0353666607437 -0.0106185192974 -4.42086021606e-21)
(0.0386223034103 -0.0156594095126 -5.1065250564e-21)
(0.0397095795549 -0.0172056407812 -1.16707859475e-20)
(0.0330408772488 -0.0135520069019 -1.16504050216e-20)
(-0.00491340547535 -0.0243864832987 -4.40409401411e-21)
(0.0257923830702 -0.00379116714537 -5.67772263313e-22)
(0.0286238432791 -0.00474835215759 -1.76382706248e-21)
(0.0321715211334 -0.00574050407819 -3.51588562272e-21)
(0.0368459375365 -0.00704055426602 -3.38748872463e-21)
(0.0403494193898 -0.012606852021 -5.5773393292e-21)
(0.0439591486268 -0.0137211872557 -2.27374727014e-20)
(0.0372088245474 -0.00845020208899 -2.19646029961e-20)
(-0.00182697265013 -0.0201179691579 -5.02113074257e-21)
(0.0265134321988 -0.00140596887918 -5.05275778763e-22)
(0.0294622846767 -0.00198499900658 -1.42812141514e-21)
(0.0331156526719 -0.0025312771869 -2.86079603757e-21)
(0.037783762936 -0.00317141120724 -3.58236164692e-21)
(0.041456784734 -0.00914103996838 -1.02911342815e-20)
(0.0476505782917 -0.00958377758547 -1.9842271601e-20)
(0.0405946741048 -0.00295156742905 -1.90810183517e-20)
(0.00103433879586 -0.0128974204286 -2.29541944275e-21)
(0.0243486501916 0.00128156572705 -1.46815888246e-22)
(0.0268733471226 0.00113548060642 -4.98287538762e-22)
(0.0299329848221 0.000949956689846 -1.22489804953e-21)
(0.0337003936004 0.000845972979839 -2.41315496839e-21)
(0.0382407504302 0.0011903663055 -3.14167407167e-21)
(0.0422067326805 -0.00490497376071 -7.39031991068e-21)
(0.0503322028449 -0.004497349518 -1.57639782641e-20)
(0.0432233460166 0.00198609503007 -1.54209652822e-20)
(0.00271229497899 -0.00599691611312 -4.54152943151e-21)
(0.0242999540428 0.00355664623746 -2.46985282357e-22)
(0.0268784481087 0.00379470769464 -7.81459754212e-22)
(0.0299514159861 0.00404791203703 -2.00058347713e-21)
(0.0337897730949 0.00433040913415 -4.98989008939e-21)
(0.0385668059523 0.00604275077294 -8.97419025241e-21)
(0.0428961270308 1.37037416456e-05 -5.8405936381e-21)
(0.0521987830904 0.00112370704843 -8.24451911308e-21)
(0.0447937616917 0.0065038373718 -8.12997549954e-21)
(0.00408256717345 -0.000900147802402 -1.07158529427e-21)
(0.0238877051743 0.00589099809359 -4.16990486172e-22)
(0.0264456479208 0.00648614244285 -1.28757206545e-21)
(0.0294655432179 0.00714326974691 -3.12436683005e-21)
(0.0332779750822 0.00783086464143 -6.2826632535e-21)
(0.0385551236589 0.0106233599924 -5.99337618088e-21)
(0.0435182537646 0.00473292832516 -9.96558184372e-21)
(0.0534570827679 0.00702468746531 -1.35969945089e-20)
(0.0461505198442 0.0112280121653 -1.34729368283e-20)
(0.00734024945257 0.00428777022793 5.75574395426e-22)
(0.0210256617564 0.00726781636032 -1.45854117233e-22)
(0.0231328754245 0.00816136495968 -5.12119248743e-22)
(0.0256418492493 0.0091558343692 -1.56238982384e-21)
(0.0285375240811 0.0102088087856 -3.36803331446e-21)
(0.0323001567388 0.0110074445901 -6.49270415658e-21)
(0.0379804188793 0.0146304831645 -6.56028054188e-21)
(0.0433719714687 0.00893578685973 -1.53940012236e-20)
(0.0538692694548 0.012424901328 -3.84842994935e-20)
(0.0470228000598 0.0176394487338 -3.83649822155e-20)
(0.0109798496104 0.0115141648641 -4.37208171378e-22)
(0.0183243589804 0.00808569962587 -4.16795910457e-23)
(0.0200357595463 0.0091760798878 -1.47539619434e-22)
(0.0220867126701 0.0104088780352 -4.56533007473e-22)
(0.0244982145659 0.0117337242661 -1.36513277372e-21)
(0.0273099179865 0.0131954153401 -3.39300218157e-21)
(0.0309069425386 0.0143517397426 -7.70855593816e-21)
(0.0365387012494 0.0185251741803 -1.38037716896e-20)
(0.0418494251769 0.0129963112138 -1.90727525233e-20)
(0.052805161151 0.0180247536646 -2.75954050443e-20)
(0.0473253995188 0.0249515802118 -2.73927512652e-20)
(0.0170820347276 0.0177716025188 -3.28989543262e-21)
(0.0171604878271 0.00966132480994 -1.6878495943e-23)
(0.0187629044007 0.011030718709 -1.26320312788e-22)
(0.0206607702462 0.0125425841371 -4.04709060386e-22)
(0.0229262324552 0.0142384954909 -1.19908327723e-21)
(0.025629054295 0.0161402378787 -3.35694062791e-21)
(0.0290333076095 0.0176932230869 -9.48817690264e-21)
(0.0340513493045 0.0226313445884 -2.28333011882e-20)
(0.0391700081584 0.0171815164257 -1.89270537669e-20)
(0.0499572005124 0.0234285992578 -1.46425418792e-20)
(0.0486144229805 0.0315354163639 -1.47955238323e-20)
(0.0330190981286 0.0157833768792 -7.51750852292e-21)
(0.0171914809278 0.0127393555964 -9.21049183352e-23)
(0.0188834018768 0.0145306229835 -3.29065622437e-22)
(0.0209600258886 0.0165558047362 -9.62137691652e-22)
(0.0233877390199 0.0189399090078 -2.29606035371e-21)
(0.0264926811859 0.0208412446881 -6.22024270286e-21)
(0.0311205631383 0.0264496211552 -1.86835427675e-20)
(0.0358657239952 0.0209242025572 -1.75501019004e-20)
(0.0459947839957 0.0279585985689 -2.42349923585e-20)
(0.0532834945013 0.035532671775 -2.50546213742e-20)
(0.062914717935 0.000241870423402 -4.82181731383e-21)
(0.0153766834092 0.0142827470313 -7.78967342669e-23)
(0.0168920681582 0.0163048632659 -3.54020265378e-22)
(0.0186486025908 0.0185840340713 -9.75593675758e-22)
(0.0207208655255 0.021304533037 -1.70771685936e-21)
(0.0233574137618 0.0234970079197 -3.42508921351e-21)
(0.0279765343919 0.0295845907688 -6.47091147029e-21)
(0.032339230374 0.0238126523458 -1.27823930987e-20)
(0.0413269257907 0.031481400322 -1.89107023301e-20)
(0.0581881927665 0.0366436180474 -1.95068851139e-20)
(0.134033378316 0.00482498000926 -6.68478309567e-21)
(0.0133657793224 0.0156417408438 -3.50064218893e-23)
(0.0146567709228 0.0178182881494 -2.89024191455e-22)
(0.016108037518 0.0202381195116 -1.011834216e-21)
(0.0177671883109 0.0231418693213 -2.10578713468e-21)
(0.0199997217936 0.0253459654268 -3.2569255711e-21)
(0.0245707478882 0.0318491787177 -6.44660184163e-21)
(0.0286450268816 0.0262312675836 -1.54612908577e-20)
(0.0360626088051 0.0347246242509 -2.14180738411e-20)
(0.0415064609664 0.0423909965383 -1.24096759942e-20)
(0.0779527133808 0.165413241205 -7.9011897109e-21)
(0.0112087838719 0.0168093781775 2.14456219351e-23)
(0.0122629046665 0.0191089509589 -3.10242557706e-22)
(0.0134673843205 0.0216282031595 -1.14322205366e-21)
(0.0147204813738 0.0246251281938 -2.97374787494e-21)
(0.0165493886861 0.026605431899 -5.25573764373e-21)
(0.0208057570382 0.0334735796653 -9.73739039828e-21)
(0.024278864729 0.0284196694098 -2.05718880507e-20)
(0.0301254403867 0.0378936106839 -2.53924137879e-20)
(0.0143235397819 0.0474613828845 -2.91550430849e-20)
(-0.0525052526585 0.133378911267 -1.15056576325e-20)
(0.00893029846846 0.0178650689865 1.52648596321e-22)
(0.00979586716259 0.0202594879511 -1.15655632938e-22)
(0.0107777801561 0.0228453892539 -1.01656169747e-21)
(0.0117492394152 0.0259174848085 -3.60749617755e-21)
(0.0131494326224 0.027802576796 -1.06814997778e-20)
(0.0164111779835 0.0352209078114 -2.64762757952e-20)
(0.0189658022513 0.0308571775842 -2.03074742285e-20)
(0.0238522799181 0.0414256947454 -2.07716353437e-20)
(0.00403630209316 0.0469756910315 -2.1496472287e-20)
(-0.0518572914847 -0.00958971830215 -1.45729218535e-20)
(0.0059984749287 0.0165364527778 3.61434658179e-22)
(0.00655974084531 0.0188825145209 3.20020006279e-22)
(0.00724115895838 0.0214061473867 1.34058274469e-22)
(0.00803425179511 0.0241308571801 -5.43353329316e-22)
(0.00888441754178 0.0273463034894 -2.72186918673e-21)
(0.00976111364273 0.029178007933 -7.60928145383e-21)
(0.0111870306037 0.0373609655006 -2.22596233679e-20)
(0.0128491170228 0.0334157524725 -1.71128366e-20)
(0.0175855054445 0.0446341908035 -1.49088893488e-20)
(0.0102345143339 0.0521000424742 -1.61166609449e-20)
(0.0323330938086 -0.00765488656458 -4.16040514422e-21)
(0.00373288116972 0.017418641099 5.17230618437e-22)
(0.00412022164146 0.0198937229052 4.95977812048e-22)
(0.00455035604182 0.022575639802 4.59542354863e-22)
(0.00511523159187 0.0255644062034 -9.8029731536e-23)
(0.00572782531075 0.0291265576915 -5.16537148912e-22)
(0.00575193588479 0.0314929574779 1.77873014442e-21)
(0.00476329656638 0.0402173832939 1.45250986854e-20)
(0.00620538227519 0.0353546621749 2.53323419635e-20)
(0.0125245258538 0.0465043797011 5.56179390336e-20)
(0.02162318501 0.0502846689095 5.50317452068e-20)
(0.111887925787 -0.0200920533768 1.23842475601e-20)
(0.00124760089915 0.0182323148228 6.64891594382e-22)
(0.00137818515726 0.0208038181822 6.47177904839e-22)
(0.00150593658413 0.0236495198596 6.04595978259e-22)
(0.00177157516585 0.0268496581584 -1.50788223666e-22)
(0.00222089193149 0.0305390599202 -1.56176218371e-21)
(0.00240441272344 0.0330018372344 8.6502252484e-21)
(0.00206342699215 0.040768606485 2.60525226848e-20)
(0.00264073553614 0.0333581429369 7.96689506325e-20)
(0.00506128758854 0.0435897877335 1.93148584966e-19)
(0.0572357338701 0.0403789383191 2.0523737317e-19)
(0.144630291163 0.212547679266 8.25715548086e-20)
)
;

boundaryField
{
    back
    {
        type            noSlip;
    }
    sides
    {
        type            noSlip;
    }
    bottom
    {
        type            noSlip;
    }
    front
    {
        type            noSlip;
    }
    atmosphere
    {
        type            pressureInletOutletVelocity;
        value           nonuniform List<vector> 
17
(
(0 -0.0243864832987 0)
(0 -0.0201179691579 0)
(0 -0.0128974204286 0)
(0 -0.00599691611312 0)
(0 -0.000900147802402 0)
(0.00734024945257 0.00428777022793 5.75574395426e-22)
(0.0109798496104 0.0115141648641 -4.37208171378e-22)
(0.0170820347276 0.0177716025188 -3.28989543262e-21)
(0.0330190981286 0.0157833768792 -7.51750852292e-21)
(0 0.000241870423402 0)
(0 0.00482498000926 0)
(0.0779527133808 0.165413241205 -7.9011897109e-21)
(-0.0525052526585 0.133378911267 -1.15056576325e-20)
(0 -0.00958971830215 0)
(0 -0.00765488656458 0)
(0 -0.0200920533768 0)
(0.144630291163 0.212547679266 8.25715548086e-20)
)
;
    }
    floatingObject
    {
        type            movingWallVelocity;
        value           nonuniform List<vector> 0();
    }
    procBoundary11to9
    {
        type            processor;
        value           nonuniform List<vector> 9((0.021426355064 -0.00658237866306 -1.45323041033e-22) (0.0233628253573 -0.00794987367725 -5.82277350321e-22) (0.0258537287111 -0.00958025364268 -1.87195237951e-21) (0.029100675153 -0.0115752632352 -3.29083763907e-21) (0.0332926025084 -0.0138489342291 -4.82087705566e-21) (0.0362520620365 -0.0184084734822 -3.55131358592e-21) (0.0358521924411 -0.0201602286791 -9.20381867463e-21) (0.0290031961284 -0.0181947673331 -9.15551421441e-21) (-0.00575078504122 -0.0243955943489 -1.42189434826e-21));
    }
    procBoundary11to10
    {
        type            processor;
        value           nonuniform List<vector> 
23
(
(0.0208014798823 -0.00394804892628 -4.02266396001e-23)
(0.0234626307717 -0.00297852791192 -1.83190188055e-22)
(0.0234626307717 -0.00297852791192 -1.83190188055e-22)
(0.0240607757421 -0.000916474759773 -1.58517475281e-22)
(0.0240607757421 -0.000916474759773 -1.58517475281e-22)
(0.0222231697961 0.00135738952357 -3.68715906404e-23)
(0.0221304430317 0.00331819308166 -5.85618375572e-23)
(0.0217293015371 0.00530511906528 -1.0299669353e-22)
(0.0217293015371 0.00530511906528 -1.0299669353e-22)
(0.0192408605564 0.006439048355 -1.53873190986e-23)
(0.0192408605564 0.006439048355 -1.53873190986e-23)
(0.0168768621566 0.00706964817075 3.15685756502e-24)
(0.0157928655479 0.00841256161333 5.80984978036e-24)
(0.0157426830048 0.0111373815322 -1.7470408362e-23)
(0.0157426830048 0.0111373815322 -1.7470408362e-23)
(0.0141018505283 0.0124531418655 2.9348916575e-24)
(0.0122666922972 0.0136312432011 3.72047238475e-23)
(0.0102878901508 0.0146640897601 9.41805755348e-23)
(0.00819944578464 0.0156176246822 2.00703642487e-22)
(0.00819944578464 0.0156176246822 2.00703642487e-22)
(0.00554334423229 0.0143747468088 3.90584437905e-22)
(0.00342521068384 0.0151311308014 5.92134448247e-22)
(0.00113394119051 0.0158418695322 7.92369115154e-22)
)
;
    }
}


// ************************************************************************* //
