/*--------------------------------*- C++ -*----------------------------------*\
| =========                 |                                                 |
| \\      /  F ield         | OpenFOAM: The Open Source CFD Toolbox           |
|  \\    /   O peration     | Version:  v2012                                 |
|   \\  /    A nd           | Website:  www.openfoam.com                      |
|    \\/     M anipulation  |                                                 |
\*---------------------------------------------------------------------------*/
FoamFile
{
    version     2.0;
    format      ascii;
    class       volVectorField;
    location    "1.7";
    object      ddtCorrDdt0(U);
}
// * * * * * * * * * * * * * * * * * * * * * * * * * * * * * * * * * * * * * //

dimensions      [0 1 -2 0 0 0 0];


internalField   nonuniform List<vector> 
1984
(
(-0.00944258821258 0.00936273657643 2.42449802126e-22)
(-0.01029780461 0.0264417395873 -6.97228734272e-22)
(-0.0103318372781 0.0458537951321 1.0989070359e-21)
(-0.010483142425 0.0645814075053 -2.23093737486e-22)
(-0.0108271681651 0.0839995266381 -7.06697661927e-22)
(-0.0112342573747 0.10405137064 -5.98129293435e-22)
(-0.0117342881719 0.125029763854 -3.55021828532e-22)
(-0.0123408674643 0.147082188633 -1.49433848113e-21)
(-0.0130611067879 0.170410856322 -3.30173950136e-22)
(-0.0138954980777 0.195225353511 -1.48984061868e-21)
(-0.0148215427366 0.22176180261 7.33674215673e-22)
(-0.0157423352207 0.250199992502 -7.02386834327e-22)
(-0.0163607452944 0.280319721273 -2.19022392415e-22)
(-0.0161040528531 0.313176711308 -3.5701065859e-21)
(-0.0126730569042 0.34572099091 -9.77582519115e-22)
(-0.0076710639934 0.363437974876 -2.40781544993e-21)
(-0.0459630984955 0.34323775931 6.48600707079e-21)
(-0.246441452165 0.388878318209 7.13347539526e-20)
(-0.504222267676 0.799411326821 2.72913834118e-20)
(0.00355935627181 1.14839106914 -7.30795302905e-20)
(-0.0263576961459 0.0101587712136 4.87902271349e-22)
(-0.0275144120231 0.0271175807769 1.01578902409e-21)
(-0.02769925604 0.0463117206846 4.46477190988e-22)
(-0.0282657978132 0.06493639072 2.40136799662e-22)
(-0.0291380891246 0.0844195432258 3.12646457756e-21)
(-0.0302922022099 0.104593212897 2.56724700092e-24)
(-0.0317337699621 0.125657620151 1.60588054131e-21)
(-0.0334793497142 0.147786678703 1.1248582992e-22)
(-0.0355480639457 0.17119417192 -8.07480733108e-22)
(-0.0379562564183 0.196104261859 2.20586812487e-21)
(-0.0407126699096 0.222798652515 2.25993627824e-22)
(-0.0437888177865 0.251612351847 1.197857274e-21)
(-0.0470285439039 0.282730979047 1.27499943789e-21)
(-0.0499346239014 0.318504311418 -1.34769286286e-21)
(-0.0503905110383 0.364357381128 -8.4185218319e-21)
(-0.0468166343573 0.404820413629 -5.30711530307e-21)
(-0.0569724909258 0.392257604158 -3.46739886458e-21)
(-0.0831369066552 0.421548889787 5.68759270242e-20)
(-0.163982707114 0.400595366516 4.31134029635e-20)
(-0.105603750189 0.267382477966 -8.43633013442e-20)
(-0.0451448060165 0.00993043338445 1.33072324243e-21)
(-0.0463344455608 0.0264620626785 -1.10269678645e-21)
(-0.0469015353437 0.0454735052933 9.16721812062e-22)
(-0.0479428217778 0.0638293206789 2.06036986327e-22)
(-0.0494246844524 0.0830038156715 7.8253957041e-25)
(-0.0513595391203 0.10274917542 -2.93540921922e-23)
(-0.053762982802 0.123387280328 -5.38550595995e-23)
(-0.0566655692179 0.145073616767 7.3056846013e-23)
(-0.0601066315975 0.168015045119 -2.59993855854e-22)
(-0.0641309103447 0.192432925952 2.74764346472e-22)
(-0.0687854924626 0.218611147687 -3.63760272392e-22)
(-0.0741264365405 0.246928655681 9.24481244795e-22)
(-0.080214378802 0.277563130456 -5.02167343869e-22)
(-0.0871304122016 0.313072807282 -1.83973421229e-20)
(-0.0942059603986 0.357367380495 1.31147904339e-20)
(-0.104239307344 0.392503354851 1.6146167625e-21)
(-0.110308351232 0.380456665352 -1.51126440696e-20)
(-0.155022901393 0.427649620692 5.49020545255e-20)
(-0.323182211742 0.623200034514 3.54932769044e-20)
(-0.0191015514646 0.554540142626 -5.06128112262e-20)
(-0.0628153378855 0.00960824314686 -3.16598299771e-23)
(-0.0640247106539 0.0257039600157 -5.92745556189e-22)
(-0.0648501879026 0.0443799771652 9.41626600102e-22)
(-0.066297512586 0.0621878752463 2.3717373565e-22)
(-0.068439534559 0.0808219161717 -5.15817950785e-23)
(-0.071148163121 0.100053287428 -6.52765205355e-22)
(-0.0744893033821 0.120114603123 -7.98199989108e-22)
(-0.0785185196085 0.141166267264 2.58352955941e-22)
(-0.0833037725139 0.163412434139 3.20731662395e-22)
(-0.0889225112093 0.187072694284 -1.01124034389e-21)
(-0.0954591516242 0.212423495604 2.11397847367e-22)
(-0.103015032939 0.239812245006 -5.42059462073e-22)
(-0.111752937846 0.269371894527 -1.16438502187e-21)
(-0.121919579151 0.303540655489 -2.9041390694e-22)
(-0.133996813234 0.345028508027 8.33736870188e-21)
(-0.149004443006 0.375041117776 -8.56507394867e-21)
(-0.156461526733 0.35983338389 4.78639718912e-21)
(-0.201649219092 0.387376685169 8.13292961834e-21)
(-0.366049953911 0.52982115492 6.18380477169e-21)
(-0.139707396826 0.649727847919 1.36995339743e-20)
(-0.0799662574134 0.009317230825 1.69328085121e-21)
(-0.0813815169548 0.0248254376004 -1.37927908686e-21)
(-0.0824763563008 0.0429298190383 7.71787384933e-22)
(-0.0843290505084 0.0600949790701 4.31387304344e-22)
(-0.0869752621486 0.0780552290597 6.26441560355e-23)
(-0.0903925942152 0.0965954725845 4.98524189809e-23)
(-0.0945992254253 0.115897011242 -2.58505080238e-23)
(-0.0996838542406 0.136121297057 5.5433840979e-23)
(-0.105730483655 0.15745571735 -7.57754933506e-23)
(-0.112842534491 0.180107655589 -3.78186412795e-23)
(-0.12114239654 0.204336028505 4.25665486134e-23)
(-0.130770702049 0.230454350945 3.57583033703e-24)
(-0.141937838878 0.258556000663 -1.76069344084e-22)
(-0.154862676004 0.290438904451 -7.45834159033e-21)
(-0.170828426005 0.329000662233 -2.33168734366e-22)
(-0.188155633172 0.356770371749 1.2547023357e-22)
(-0.194730744589 0.34388706466 7.93712722803e-22)
(-0.243929674159 0.367834873494 2.46027062909e-21)
(-0.486884979531 0.510785990185 1.63703462124e-20)
(-0.259480173191 0.720389719814 -1.36535287095e-20)
(-0.0964575801905 0.00895662475936 8.9869147606e-22)
(-0.0981157416243 0.0237916735482 -2.1905056937e-21)
(-0.099439021836 0.0411678230808 1.23985230537e-21)
(-0.101658655656 0.0575851755279 3.26187662303e-22)
(-0.104785456169 0.0747154105488 4.87675732263e-23)
(-0.108823396852 0.0923926575648 2.41059274926e-23)
(-0.11383182606 0.110785865473 -1.15935739034e-24)
(-0.119880678044 0.129991683476 1.34265747035e-23)
(-0.127082902693 0.150205750729 8.74784883445e-23)
(-0.135564948843 0.171611870516 1.88321754577e-23)
(-0.145477031346 0.194446096849 4.22642886818e-24)
(-0.156991081814 0.218974293743 -7.30314805889e-23)
(-0.170338502316 0.245323649286 -2.38728353421e-22)
(-0.185790199151 0.274479154368 -1.09350271382e-20)
(-0.204342917584 0.310370976421 -1.99202067238e-21)
(-0.223487807033 0.336233482657 -8.60749214152e-21)
(-0.230989893595 0.326436405302 -5.07892132508e-21)
(-0.286670524759 0.347946602471 2.38756899723e-21)
(-0.605384102191 0.457129164811 1.60723806693e-20)
(-0.579672148624 0.864540695402 -9.64039167661e-21)
(-0.112215724847 0.00854032885583 4.42596730402e-22)
(-0.114113451057 0.0225903604951 8.39647488423e-22)
(-0.11562082233 0.0390849601291 7.94174192362e-22)
(-0.118170658667 0.0546479383371 1.65942153254e-22)
(-0.121744781314 0.0708657051632 7.16510741736e-23)
(-0.126325484747 0.0875368680139 -2.21956126186e-23)
(-0.132045018747 0.104831653378 5.35037327086e-23)
(-0.138946180705 0.122861376276 2.54456521865e-23)
(-0.147179524329 0.14176142077 -1.36958315036e-22)
(-0.156884625855 0.161706979636 1.79135933922e-22)
(-0.168235317467 0.182908012314 -4.36458306776e-24)
(-0.181427589083 0.205609899956 -4.17366014888e-23)
(-0.19668120119 0.229805357238 -3.0842298806e-22)
(-0.214222042199 0.256399261137 -3.88691740101e-21)
(-0.234722951834 0.289704338425 -1.39734007438e-20)
(-0.256668668938 0.313700918921 -6.8475158403e-21)
(-0.263674702097 0.307548350621 -2.19688259717e-20)
(-0.325170655821 0.326469841383 -1.25354421541e-22)
(-0.668805674509 0.359697363823 1.55907111873e-20)
(-0.836152734831 0.636818983757 -4.52061826337e-21)
(-0.127123449519 0.0080799991245 8.64716061491e-22)
(-0.12927309694 0.0212605517658 -1.49846440637e-21)
(-0.130883062829 0.0367618679106 9.31774138958e-22)
(-0.133729976546 0.0513461010045 3.30643870899e-22)
(-0.137667526117 0.0665350223166 6.68189771518e-23)
(-0.142750603148 0.0820833978105 9.26925487181e-23)
(-0.14904043151 0.0981623759956 1.84616748077e-23)
(-0.156690748571 0.114854706147 1.20016915625e-22)
(-0.165813088897 0.132263838605 9.27033821515e-24)
(-0.176573521097 0.15055742112 1.20338068601e-22)
(-0.189168119484 0.169911954662 5.35422912306e-23)
(-0.20381416585 0.190561814437 -5.8385327346e-23)
(-0.220758299202 0.212489671641 -4.30684835277e-22)
(-0.2400585174 0.236476383699 -1.17688521968e-20)
(-0.262638974529 0.266112793964 7.75091361124e-21)
(-0.287211260833 0.288872629372 1.67355833919e-20)
(-0.294130353444 0.286567937429 -7.87444908587e-21)
(-0.359911219205 0.300094875054 3.0165232426e-20)
(-0.662056470282 0.328443299176 5.21627910385e-20)
(-0.905700955614 0.411364906818 -2.59984278963e-20)
(-0.141049984969 0.00756501223731 6.01487063963e-22)
(-0.143436088519 0.0198276658779 -3.68244294544e-22)
(-0.145236091797 0.0342327940097 8.31109565774e-22)
(-0.148181222488 0.0477315645825 7.33760694182e-22)
(-0.152445901433 0.0618178521669 5.03712545062e-23)
(-0.157922316124 0.0761546493875 -1.08659448436e-23)
(-0.16470656677 0.0908888014282 1.28149885053e-22)
(-0.172972077979 0.106085898639 2.03076613317e-23)
(-0.182823411643 0.121876923685 1.14553446954e-23)
(-0.194426469324 0.138355669839 -8.11160222475e-24)
(-0.208061514844 0.155679859636 -7.75219476857e-23)
(-0.223926257519 0.174057432232 1.79130298421e-23)
(-0.242319699593 0.193498987317 1.7594867929e-22)
(-0.263297958839 0.214595602157 -9.5873127844e-23)
(-0.287955020479 0.240468938963 4.15416397765e-22)
(-0.314124989926 0.261385069076 1.60073610356e-20)
(-0.322435798453 0.262283927648 2.55997628275e-21)
(-0.39037915619 0.270843873415 4.26056510543e-21)
(-0.618889296211 0.3057217111 5.25064993238e-21)
(-0.883118870057 0.281335788664 -1.55576543196e-20)
(-0.153964755133 0.00700432607544 5.58676951441e-22)
(-0.156503052872 0.0181968119573 -3.12806154748e-21)
(-0.158506035819 0.0315761156748 8.88522283429e-22)
(-0.161530945041 0.0439863395218 3.07307988883e-22)
(-0.166017279078 0.0567630156635 4.44320729044e-23)
(-0.171779741961 0.069812940763 1.42772676606e-23)
(-0.178954157242 0.0831111569846 1.62257994966e-23)
(-0.187645939019 0.0967381580483 -9.55556530444e-24)
(-0.198025960742 0.110807697391 1.70378420229e-23)
(-0.210312893597 0.125322228876 8.38191326291e-23)
(-0.224742831893 0.140425786085 -6.71209583882e-25)
(-0.241558541681 0.156348733298 2.92930421195e-23)
(-0.261103518769 0.173069442424 -3.29570527626e-22)
(-0.283524185485 0.190966014712 -3.47770083842e-21)
(-0.309901973886 0.212946778406 -3.0121898822e-22)
(-0.337667709216 0.231176379178 4.46896720889e-21)
(-0.34777528737 0.234419419583 -9.37040422362e-21)
(-0.415512017267 0.238546433845 -9.17567643403e-21)
(-0.572727801149 0.272800262078 2.02347615109e-22)
(-0.78921174714 0.178057069576 -1.47303357965e-20)
(-0.165778559813 0.00646586816867 -2.41442637242e-22)
(-0.168484477013 0.0165311124263 8.28011962591e-22)
(-0.170636544259 0.0287191403626 3.08472352561e-22)
(-0.173697465258 0.0400557176314 1.48623690424e-21)
(-0.17831842307 0.0515365707097 -8.42217049135e-24)
(-0.18426481717 0.0632095908534 3.5400696428e-23)
(-0.191654361198 0.0750212345189 5.65821812323e-24)
(-0.200619597341 0.0870116289034 1.37984459093e-24)
(-0.211312685469 0.0992058417038 7.96296533598e-24)
(-0.224044661513 0.111643060704 1.02503659954e-22)
(-0.239046790449 0.124450393534 6.21693722747e-25)
(-0.256539972692 0.137744370102 -8.66434105807e-25)
(-0.276880529295 0.151515609553 -8.20797689064e-22)
(-0.30033506738 0.165948483326 -7.64184487695e-22)
(-0.328101334839 0.183804422856 -2.86995852325e-21)
(-0.357471056045 0.198773788682 9.25826396316e-21)
(-0.369559766934 0.203787649042 4.87545813619e-21)
(-0.43612008321 0.20475939632 7.31207083856e-21)
(-0.532837235721 0.240073121066 -1.26043136302e-20)
(-0.649825614739 0.112775231138 7.23244517431e-21)
(-0.176448057901 0.00586727957965 8.4264430199e-22)
(-0.179135589011 0.0146990583728 -6.72230195806e-23)
(-0.181836525335 0.0258404734235 7.76070440185e-22)
(-0.184614492166 0.0361288514132 8.35994027531e-22)
(-0.189301037351 0.0461590467137 5.79426723035e-23)
(-0.195311714005 0.056468321862 9.70228324223e-24)
(-0.202766513147 0.0667542978564 -4.2362330963e-24)
(-0.211794980678 0.0770802416054 -3.92984333987e-23)
(-0.222601467608 0.087383270713 9.94984481451e-23)
(-0.235471894257 0.097591956854 2.32913946172e-22)
(-0.250874031408 0.107947324001 5.98505326628e-24)
(-0.268650287171 0.118570534325 1.1106571007e-23)
(-0.28944554665 0.129301429778 -8.4945034365e-24)
(-0.313752302871 0.139901324991 -1.25705690014e-21)
(-0.34209037948 0.153242103524 -8.05120076294e-21)
(-0.372764494899 0.164372241545 -2.0388497814e-21)
(-0.387329835277 0.169925853411 -7.78315357818e-21)
(-0.451704041418 0.167809878288 -4.31864681609e-21)
(-0.499628942884 0.197930358513 1.34846243717e-21)
(-0.489546153134 0.0555941616939 1.03705108998e-20)
(-0.185953043727 0.00546805342869 8.66572570949e-22)
(-0.18784437584 0.012608135708 -3.46905881601e-21)
(-0.192651984866 0.0226944582191 1.29578172329e-22)
(-0.194288788777 0.0324023158736 3.29542276105e-22)
(-0.198948444038 0.0407994413921 -4.96791373202e-23)
(-0.20491277513 0.0497374365636 1.81691392235e-23)
(-0.212286481823 0.0585367178514 1.73793705194e-23)
(-0.221209634312 0.0671770680093 8.29047889486e-23)
(-0.23186057595 0.0755286707629 2.27516521974e-22)
(-0.244417373868 0.0833734767343 1.06220233937e-22)
(-0.260292705155 0.0912884005985 1.45571561286e-23)
(-0.277758394407 0.0992265502473 6.90055282632e-23)
(-0.29851383992 0.10649694157 -2.52937223511e-22)
(-0.323090762828 0.113437982213 -6.01049039816e-21)
(-0.351300109342 0.122311766297 2.71543497673e-21)
(-0.383166612219 0.128382419252 1.64093598312e-20)
(-0.400537807403 0.132872852319 1.47228809357e-20)
(-0.461963084684 0.128912605525 -1.22127750796e-20)
(-0.471227386697 0.148171423635 -3.05037508841e-20)
(-0.325656088403 0.00685637816597 -1.17651496833e-20)
(-0.195003959795 0.00578490074381 1.27038990904e-21)
(-0.196969263132 0.00958457587958 -4.5198860763e-22)
(-0.199745880539 0.0188322868192 -1.23357850991e-22)
(-0.20295696172 0.0296235411042 1.10340502468e-21)
(-0.207333017261 0.035491619415 6.65872195781e-23)
(-0.213110296665 0.0431233336345 -1.18233910879e-23)
(-0.220281576535 0.0504554041842 2.91280912882e-23)
(-0.228987479496 0.0575030079077 5.49422760786e-23)
(-0.239407831501 0.064171325017 -2.47678319986e-23)
(-0.251743053591 0.0691606539588 1.32597705518e-24)
(-0.266302709872 0.0746240727491 -8.38893031018e-23)
(-0.283505348005 0.0804092894122 6.857178952e-23)
(-0.303860386719 0.084101956473 -7.48459466352e-22)
(-0.328053264221 0.0872081352239 -1.57391756142e-21)
(-0.355187131238 0.0909478545097 1.21529318294e-21)
(-0.387602214271 0.0914269221286 -3.61325052035e-21)
(-0.40966928118 0.0938467812379 -1.79248332205e-21)
(-0.465061671862 0.0894534968949 -1.97687975572e-21)
(-0.450835005867 0.0947275198294 -1.79908770077e-20)
(-0.150216060106 0.0181098915986 -1.40762127587e-20)
(-0.202520390666 0.00540644692545 7.77557325665e-23)
(-0.206060549455 0.00957048611092 -1.28387587368e-21)
(-0.20551218799 0.0161160878561 1.6991161845e-23)
(-0.210231655122 0.0245864707955 5.72064000165e-22)
(-0.21439527279 0.0305929970053 -3.73350969149e-24)
(-0.219899347453 0.0367791402591 2.88577782423e-24)
(-0.22675092803 0.0426548628435 -3.18223110731e-24)
(-0.23503563596 0.0480437863641 2.46704910411e-23)
(-0.244983377444 0.0527699941629 2.77333782054e-23)
(-0.256838836465 0.056482386134 2.50426344069e-24)
(-0.269717389219 0.0595436325895 -2.54434595012e-23)
(-0.286130059153 0.0617307389281 1.12574847077e-22)
(-0.30539981147 0.0621353210702 -1.20318351698e-22)
(-0.328085303139 0.0622172329536 -2.28576485506e-21)
(-0.354751943656 0.0605528975429 -9.07064131073e-22)
(-0.386011701113 0.0539680862489 -4.66842448717e-21)
(-0.413389007538 0.0536403575552 1.64814680699e-20)
(-0.457996351653 0.0505594573557 7.03649029068e-21)
(-0.429119173549 0.0281614124612 1.14513957146e-20)
(-0.149425063943 -0.0346856638324 -7.72639134194e-21)
(-0.208371365563 0.00421931375242 -6.3710643225e-23)
(-0.21251740276 0.00837657363875 -9.97477881242e-22)
(-0.212790456215 0.0140418086442 -5.76292855305e-22)
(-0.216094178516 0.0204973788541 -8.52474628403e-23)
(-0.220172048811 0.0257643894167 -1.01666865091e-22)
(-0.225349171998 0.0307543714857 1.3759524304e-23)
(-0.231732164102 0.035314680354 -4.42086029692e-24)
(-0.239405407283 0.0392677953825 9.91726066776e-24)
(-0.248490898559 0.0423649456779 6.45567063014e-23)
(-0.259150041207 0.0444258849021 -5.37192056202e-23)
(-0.2714163118 0.0453487505549 6.53743747882e-23)
(-0.286089934671 0.04479714237 9.71467627849e-24)
(-0.303448119576 0.0423678628638 1.15618645923e-22)
(-0.324004323917 0.0380687828517 -1.41666547118e-22)
(-0.349950775006 0.0312244750809 4.20088287807e-22)
(-0.379522830483 0.017834616436 -5.07714340131e-21)
(-0.407437622118 0.0117792657418 7.89284931069e-21)
(-0.439815225929 0.00981747977101 1.56363834993e-20)
(-0.329834982175 -0.0456246612564 2.76015873464e-20)
(-0.0840270829428 -0.322837851595 9.43668423513e-21)
(-0.213824904595 0.00335574831869 -1.14095426133e-22)
(-0.217575775217 0.00704137759533 2.34553603723e-22)
(-0.218432786657 0.0119156477519 4.72728439671e-23)
(-0.221135777753 0.0169473768712 6.77531532789e-23)
(-0.224876664327 0.0212766234593 4.04618675465e-24)
(-0.229631797023 0.025204806982 9.36965384596e-24)
(-0.235421339878 0.0285932371109 -1.68940424028e-23)
(-0.242335714725 0.0312812852698 -2.72210983986e-23)
(-0.25044313833 0.0330187370717 2.87440374931e-23)
(-0.259812205747 0.0335586777372 -2.50848792421e-23)
(-0.270691507828 0.0326224318077 -1.13889722693e-23)
(-0.283371774501 0.0297691484356 -1.82532411245e-22)
(-0.298312987907 0.0245067684714 4.69791923709e-23)
(-0.316261249724 0.0162137557979 -1.66895674056e-22)
(-0.338676786348 0.00368896065039 9.22419464521e-22)
(-0.365035605484 -0.0175533902314 -1.84984455537e-20)
(-0.387403968784 -0.0363535800207 -1.42228102935e-20)
(-0.41095497513 -0.0358759818498 5.42278165603e-21)
(-0.100052332757 -0.151525340009 -4.56058377011e-20)
(0.051267380387 -0.834149698285 -1.9350730543e-19)
(-0.218305506978 0.00268615335059 7.6935701886e-22)
(-0.221801891566 0.00576191876947 -4.72751488203e-23)
(-0.222830489504 0.00983864728907 1.96519696831e-22)
(-0.225200293429 0.0137843239809 6.24659469952e-23)
(-0.228590952645 0.0172057705772 -6.1707480212e-23)
(-0.2328772431 0.0201975527004 -6.01315077428e-24)
(-0.23801892781 0.0226058770252 5.18516006293e-24)
(-0.244064743042 0.024242494711 -3.17200158083e-23)
(-0.251061949938 0.0248861559634 -2.4324621639e-23)
(-0.259024388762 0.0241773707362 -4.38451099272e-23)
(-0.268069369016 0.0218046055166 1.44642771176e-23)
(-0.278419268392 0.0172483317406 -3.24692581273e-22)
(-0.290275190275 0.00979697197124 -2.56306374088e-23)
(-0.304255804272 -0.00138041736973 -1.99230604346e-21)
(-0.321341571983 -0.0178462955204 -9.10553524827e-21)
(-0.341271313557 -0.0435965405672 -9.10197762897e-21)
(-0.361394453188 -0.0674171308125 9.31170401845e-22)
(-0.371964570699 -0.0622187793682 -6.70539955215e-21)
(0.996424544059 -0.289890141941 -7.92316794114e-20)
(0.0728880012973 -1.83696527619 -5.22733543562e-21)
(-0.221922278461 0.00220025852198 5.61497711573e-22)
(-0.225356680186 0.00458615412634 6.45616392402e-22)
(-0.226336700748 0.00786174132408 1.6562039679e-22)
(-0.228427759592 0.0109086244237 6.18412504756e-22)
(-0.231435211762 0.0135328937358 -1.65714799988e-23)
(-0.235205029956 0.0157644256854 1.68774064904e-23)
(-0.239707724456 0.017404661067 2.10952356612e-23)
(-0.244865559213 0.0182381511405 9.38133484239e-24)
(-0.250683966994 0.0180556167544 -1.08241270799e-22)
(-0.257153420135 0.0165505696753 2.26612337293e-23)
(-0.264211225393 0.0132435492245 -8.31881504857e-23)
(-0.271960358831 0.00763646925937 -4.59100140641e-24)
(-0.28040777073 -0.000991873915863 -2.24769960198e-23)
(-0.289820189324 -0.0136173485366 -1.3022865341e-21)
(-0.30067855176 -0.0318298554723 1.38935695135e-21)
(-0.312947990298 -0.0581622081777 -1.43023226401e-20)
(-0.329242928474 -0.0876454702053 1.99046111843e-20)
(-0.359882037763 -0.0867728208514 -2.30341863462e-20)
(1.11771567544 -0.0201954212233 2.02581187324e-19)
(0.175246794547 0.658026255028 -2.33441059302e-19)
(-0.224814273332 0.00168954239405 5.57536066301e-23)
(-0.228270083838 0.00351372279211 -1.22351911665e-21)
(-0.229125352346 0.00610414928231 -3.42611300663e-22)
(-0.230969201913 0.00840184378661 1.46318241465e-22)
(-0.233574486229 0.0103663269491 -1.17123715544e-23)
(-0.236847437996 0.0119175984464 -2.09171739326e-23)
(-0.24068325186 0.0129445996057 -7.78721605279e-23)
(-0.24498405272 0.0132667401187 2.14635647577e-22)
(-0.249697427467 0.0126008134738 -4.40311849518e-22)
(-0.254626053185 0.0106540644007 -1.51206026914e-22)
(-0.259744774866 0.00701006658254 3.18627785382e-22)
(-0.264844970823 0.00111810759587 -4.07181839156e-22)
(-0.269853622003 -0.00775387165259 9.35090509911e-23)
(-0.274677519493 -0.0204424011786 -1.64903221637e-21)
(-0.279595542672 -0.0386921787884 -2.42116536579e-21)
(-0.283900950021 -0.0636244109683 -8.35183142877e-21)
(-0.292789831846 -0.0990592766862 5.90449719156e-20)
(-0.327334809229 -0.105900634292 -3.99520621484e-22)
(0.719836808418 -0.128596986529 -1.07640637797e-19)
(0.307507171726 -0.0369071705617 -8.66821882597e-20)
(-0.227003092959 0.00124356488667 -3.70126600114e-22)
(-0.230390541714 0.00254433988859 -5.47769578136e-22)
(-0.231119862048 0.00449557291742 -5.5990041348e-22)
(-0.232739836838 0.00616589819451 -7.63638040379e-23)
(-0.235121438298 0.00758605163541 1.94262803548e-23)
(-0.237990710666 0.0086456138398 3.40479523646e-23)
(-0.24123337012 0.00927156552736 -1.89153807164e-23)
(-0.244694747963 0.00922753964733 1.00190193784e-23)
(-0.248337257894 0.00841300325889 -1.03562770696e-22)
(-0.251960087922 0.0065045834518 -1.65631890646e-23)
(-0.255239567106 0.00303974513489 1.95926729269e-22)
(-0.257880549524 -0.00240499627465 1.05857195416e-22)
(-0.25964394279 -0.0105009479307 2.41075360776e-22)
(-0.260144236174 -0.0221491605472 -6.42874972453e-22)
(-0.259435789644 -0.0389387917331 -2.33650742604e-21)
(-0.256051642769 -0.0612784570907 -1.69265308436e-21)
(-0.255691473041 -0.0994985319797 1.32125465518e-21)
(-0.281907594652 -0.112197278833 8.05342162519e-22)
(0.627469479506 -0.147271847573 -4.42394921223e-21)
(0.373561141613 -0.143358871599 -6.48668534677e-21)
(-0.228579033134 0.000880226179432 2.32732671731e-22)
(-0.231863436289 0.00172573700397 1.95672545796e-22)
(-0.232589583681 0.00308057810198 4.65957265638e-22)
(-0.234068394085 0.00410170429086 2.51270978324e-22)
(-0.236239198559 0.00504724471203 3.20317404729e-23)
(-0.238753588725 0.00579559975278 -1.80029467912e-22)
(-0.241446543716 0.00623737516051 4.06274465633e-24)
(-0.244250124981 0.00616304502084 2.81086701161e-23)
(-0.247103847056 0.00533996983598 2.29966478427e-23)
(-0.249625258825 0.00375241451074 1.13422182081e-23)
(-0.251332496509 0.00110543758646 2.46967879125e-22)
(-0.251882822035 -0.00322085790103 -3.76755862748e-22)
(-0.250723788836 -0.009683263578 4.80338150267e-22)
(-0.247473321997 -0.0190204080139 -8.81052411282e-22)
(-0.241507197888 -0.0329463376482 6.66555005802e-22)
(-0.230870591846 -0.0514922097363 -4.85564520556e-21)
(-0.220391123027 -0.0884895445058 -1.96864365835e-21)
(-0.232484689794 -0.107846380831 3.00373296302e-21)
(0.591707205753 -0.136088247181 1.23568096002e-20)
(0.376677210389 -0.112610136849 5.0088362308e-20)
(-0.229725311395 0.000610615141131 3.29556613091e-22)
(-0.232678469886 0.000931203793074 -5.89621047266e-22)
(-0.233973385064 0.00161671719575 -1.03860944884e-22)
(-0.235432088879 0.0022095933643 1.79551640952e-22)
(-0.237256860928 0.00282781788812 -5.29644785882e-24)
(-0.239425217063 0.00343013330355 -1.87331957792e-23)
(-0.241685698314 0.00377674419231 4.69158954179e-23)
(-0.243750163493 0.00357028952645 -4.6092673111e-23)
(-0.246374802444 0.00303602858234 -5.62877049428e-23)
(-0.248038869919 0.00227559547881 -9.24362662001e-24)
(-0.248621042494 0.000791716707443 1.72011587739e-23)
(-0.247611106954 -0.00173746998829 -2.47031448835e-22)
(-0.2442763378 -0.00575140638621 -1.39501321744e-22)
(-0.23795928461 -0.0117758243078 -2.04645268814e-21)
(-0.227685435167 -0.0210514514592 -4.92000404816e-21)
(-0.210966063873 -0.0343459765116 -4.22573756024e-22)
(-0.189765569805 -0.0660022552007 2.49948699643e-20)
(-0.184798605905 -0.0932165839983 2.47207191954e-21)
(0.546457212215 -0.096699559793 -5.10344069692e-20)
(0.346949401266 -0.0100804045305 -4.06906740116e-21)
(-0.230814423222 0.000645878225065 1.99812261466e-22)
(-0.23506732653 -5.87753864144e-05 1.71088891637e-22)
(-0.235064187016 -0.000344427052537 -1.35301305561e-22)
(-0.236135268799 0.000506101394443 8.91965704813e-23)
(-0.237860952129 0.000978314504185 1.79100555466e-23)
(-0.240047050132 0.00135566495407 6.29902647016e-24)
(-0.242587647952 0.00191210542468 5.18862473218e-24)
(-0.245346938 0.00147482503776 -7.34085702959e-24)
(-0.246687315407 0.00105148529856 -9.9376190901e-23)
(-0.24763527696 0.00151096421056 -7.24781369402e-24)
(-0.247558820714 0.00154313766742 -2.22307862802e-22)
(-0.24565457039 0.00117828495797 -5.03418986124e-22)
(-0.241101243326 0.000299895286152 2.30146005522e-22)
(-0.232889559049 -0.00131002974702 -1.22166757957e-22)
(-0.21961268811 -0.00477666439034 -9.97638674865e-22)
(-0.198748539259 -0.0109743338823 2.86347038228e-21)
(-0.167974554496 -0.0316018040693 6.44986825642e-21)
(-0.14679275118 -0.0670809570819 3.86203890207e-21)
(0.455379350948 -0.0299799875639 -2.24390819368e-21)
(0.289188222022 0.132602908688 3.94567295243e-20)
(-0.2306495715 -0.000881870448036 2.01424326312e-22)
(-0.234950094107 -0.000803161295234 -1.99366407906e-22)
(-0.234789472621 -0.000120221881697 -1.43967704645e-22)
(-0.23584538548 -0.000905514224444 4.2297244871e-23)
(-0.237728404372 -0.00116098865986 2.13722782619e-23)
(-0.240080391299 -0.00130922827769 1.10325265409e-24)
(-0.242749519144 -0.00152402689241 -3.70745044543e-24)
(-0.245657436593 -0.000529989331426 9.04799433502e-25)
(-0.247135787159 0.000745802391724 -2.80834468774e-24)
(-0.248242440507 0.00140582161765 -6.97070963815e-23)
(-0.248252411871 0.00278217226154 6.46600185837e-23)
(-0.246389209334 0.00476964146593 -6.04521703896e-23)
(-0.241672739766 0.00732450571892 2.60287981479e-22)
(-0.232974831693 0.0107715041621 -6.37142771793e-22)
(-0.218416670683 0.0141838267039 1.35616900918e-21)
(-0.195165047187 0.016935311622 6.09482123287e-21)
(-0.158825908296 0.0111435868063 3.12127910596e-20)
(-0.125040244707 -0.032334277485 -1.45405159055e-20)
(0.305514583622 0.051741888738 -2.61293535845e-20)
(0.207146630618 0.284485519766 4.91600023616e-20)
(-0.229561820602 -0.00083127716025 2.18047181754e-22)
(-0.232548604052 -0.0016214334711 -4.68046059193e-22)
(-0.233716850767 -0.00190545245918 5.83819128298e-23)
(-0.23519597997 -0.00275960128039 6.17605360781e-23)
(-0.237247419166 -0.00333858884821 -1.07828727708e-23)
(-0.239705178602 -0.00368181906044 3.76384925356e-23)
(-0.24232981864 -0.00366708651498 -3.21362308909e-24)
(-0.244715171412 -0.0029117502519 5.45829664331e-24)
(-0.247705894768 -0.00153549596281 -3.88133879417e-23)
(-0.249827166872 0.000395252350465 -4.80596311286e-25)
(-0.250793286829 0.00340694353914 1.92051940338e-22)
(-0.249992123117 0.00779701657743 5.64940992933e-24)
(-0.246520567894 0.0140031862548 1.90320239761e-22)
(-0.239159201894 0.0228781008253 2.24465693155e-22)
(-0.225741451037 0.0335463808566 7.5910094318e-22)
(-0.203097551131 0.0481305053849 3.71991912744e-21)
(-0.166593498111 0.0583985512518 -1.89692864267e-21)
(-0.126559391247 0.0125473039647 -1.9565986614e-20)
(0.0822051124625 0.159455893403 -4.02670426569e-20)
(0.0991423417365 0.456131216288 9.63596777502e-22)
(-0.228668125807 -0.00105922222884 -6.50810807617e-23)
(-0.231813502429 -0.00238830673746 9.23823048721e-23)
(-0.232640304003 -0.00344581043551 1.65249799359e-22)
(-0.234235959739 -0.00477297345697 -9.31415225227e-24)
(-0.236530658287 -0.00575801579007 -1.32023107928e-23)
(-0.239338722025 -0.0064084646398 -1.97960857997e-23)
(-0.242489724172 -0.00653618188461 -2.6412410726e-23)
(-0.245831414719 -0.00590729154209 -1.34062378707e-23)
(-0.249391777392 -0.00436680549285 -7.36846673162e-24)
(-0.252634853638 -0.00168147149026 5.30988513144e-24)
(-0.255149043587 0.00262703383439 -5.03828944322e-23)
(-0.256361633307 0.00907934549336 -2.2994735734e-22)
(-0.255477302171 0.0184381446887 1.24122517502e-22)
(-0.251544233248 0.0321920053963 4.58061405464e-22)
(-0.242388492406 0.0499331176125 -3.30710175264e-23)
(-0.224917219777 0.0782397284663 1.32744039228e-20)
(-0.193814512167 0.0996413066918 -2.9680662907e-21)
(-0.166083538127 0.0641451772983 -1.16914118795e-20)
(-0.166915871387 0.289705238819 8.57528269368e-21)
(-0.000461299629149 0.630232248774 -2.24971635683e-20)
(-0.226572499181 -0.00112423810503 -5.67508409034e-23)
(-0.23003019255 -0.00298935738516 -3.76386458961e-22)
(-0.230987910344 -0.00500922293673 2.44423462586e-22)
(-0.232769448956 -0.0069979040347 8.85889617156e-23)
(-0.235390112675 -0.008532872181 1.00982450424e-23)
(-0.238670632848 -0.00965856621225 -1.29377749952e-23)
(-0.242494107764 -0.0101632063275 -1.78042232813e-23)
(-0.246775195898 -0.00981512129402 -4.20693519129e-24)
(-0.251438275308 -0.00833861024642 7.58459708943e-24)
(-0.256226577265 -0.00536279537794 1.2012497622e-23)
(-0.260855578923 -0.000316982956054 -9.74335077964e-24)
(-0.264913323925 0.00751076546201 5.48583573656e-23)
(-0.267822474608 0.0190750702933 1.61732718517e-22)
(-0.268976577383 0.0362876389619 -5.67500978276e-22)
(-0.267010631421 0.0597016476589 -8.75964842574e-23)