/*--------------------------------*- C++ -*----------------------------------*\
| =========                 |                                                 |
| \\      /  F ield         | OpenFOAM: The Open Source CFD Toolbox           |
|  \\    /   O peration     | Version:  v2012                                 |
|   \\  /    A nd           | Website:  www.openfoam.com                      |
|    \\/     M anipulation  |                                                 |
\*---------------------------------------------------------------------------*/
FoamFile
{
    version     2.0;
    format      ascii;
    class       volScalarField;
    location    "1.7";
    object      epsilon_0;
}
// * * * * * * * * * * * * * * * * * * * * * * * * * * * * * * * * * * * * * //

dimensions      [0 2 -3 0 0 0 0];


internalField   nonuniform List<scalar> 
1984
(
0.00611025856722
0.00671709641846
0.00707853730433
0.00719447438223
0.00725249858274
0.00729962252457
0.00734563831211
0.00739244223971
0.00744083536525
0.00749324293297
0.00755990264162
0.00767874710132
0.00796850139773
0.00873790302846
0.0106548746349
0.0150381252286
0.0243848704587
0.0433581088084
0.0825604277784
0.195038241082
0.00676256703128
0.00678648214294
0.0072586140834
0.00740513603825
0.00746555865439
0.0075069998982
0.0075452091179
0.00758345915424
0.00762299101121
0.00766720636288
0.00772967172044
0.00785773285789
0.0081906163343
0.00906643798005
0.0111407213465
0.0153798732752
0.0229890048108
0.0356904020512
0.0586832724442
0.10033785844
0.00720620636405
0.00736016411971
0.00791203683723
0.0080811050587
0.00814658716306
0.00818933215391
0.00822861147928
0.00826834129043
0.00830989816734
0.00835703039923
0.00842473652307
0.00856419725644
0.00892257615397
0.00985018763535
0.0120166879369
0.0164345870363
0.0243702955355
0.0378363956043
0.0630555874906
0.114507239022
0.00737240652553
0.00757634661938
0.00816014898896
0.00833740730161
0.00840362881471
0.00844577632238
0.00848474622317
0.00852472333304
0.00856703790435
0.00861543797339
0.00868490635185
0.00882652971154
0.00918630894679
0.0101105197793
0.012264020069
0.0166807461316
0.0247064427136
0.0384937485486
0.0651564001454
0.12190756481
0.00744744545629
0.00766700548911
0.0082624369105
0.00844158868037
0.00850655319481
0.0085470072542
0.00858462483839
0.00862371072954
0.00866555361974
0.00871371524074
0.00878272610204
0.0089222408426
0.00927448378683
0.0101779489912
0.0122874408348
0.0166388265339
0.0246120815942
0.0384500907724
0.0652935015407
0.122592241046
0.00749387117354
0.00771604385873
0.00831556099861
0.00849427321951
0.0085572598126
0.00859555110898
0.00863125721237
0.00866876527159
0.00870932086208
0.00875629708258
0.00882355724703
0.00895881677892
0.00929941278347
0.0101744121359
0.0122259650424
0.0164829944929
0.0243416525271
0.0380909980852
0.0649283576418
0.12247177903
0.00753145535253
0.00775197373829
0.00835319230718
0.0085308926808
0.00859182009542
0.00862788171384
0.00866149526915
0.00869713260979
0.00873600738689
0.00878129197705
0.00884611799952
0.00897600086663
0.00930286300051
0.010145032135
0.0121297046292
0.0162740397768
0.0239794207069
0.0375723220922
0.0643430772565
0.122216768334
0.0075660941009
0.007783807341
0.00838626393035
0.00856301801561
0.00862207898205
0.00865603439745
0.00868758899384
0.00872129397163
0.00875834905609
0.00880172644307
0.00886378480647
0.00898768556242
0.00929948141788
0.010105862966
0.0120173767577
0.016034494491
0.0235542500743
0.0369475385062
0.0636299415257
0.121963944548
0.0075993915428
0.00781425302053
0.00841799929609
0.00859408670665
0.00865154448824
0.008683600208
0.00871322282695
0.00874505460858
0.0087802890738
0.00882170215482
0.00888085264442
0.00899843846103
0.00929425954552
0.0100625114861
0.0118949848587
0.0157710926384
0.0230800986325
0.0362311737604
0.0628046563403
0.121723653879
0.00763170861167
0.00784401912044
0.00844924870212
0.00862493412653
0.00868106918367
0.00871144995578
0.00873930581507
0.00876938092664
0.00880286459069
0.00884233487532
0.00889854832314
0.00900964956602
0.00928886465248
0.0100171036277
0.011765429996
0.0154882859445
0.0225624656319
0.0354247038593
0.0618550862269
0.121473619391
0.00766308607469
0.00787319023004
0.00848013789479
0.00865568212189
0.0087107309242
0.00873964922556
0.00876591857277
0.00879437739798
0.00882621727802
0.0088638147772
0.0089171234791
0.00902170267751
0.00928402097312
0.00997097992009
0.0116315565489
0.0151915994208
0.022007653461
0.0345442196212
0.0608437677136
0.121578900156
0.00769350232436
0.00790173017704
0.00851060143978
0.008686233264
0.00874041219865
0.00876806491627
0.00879292242952
0.00881991520193
0.00885022601682
0.00888605949193
0.00893655608727
0.00903466314796
0.0092800723835
0.00992496242656
0.0114954404058
0.0148856391765
0.0214285541225
0.0336281887918
0.060048583238
0.125803642779
0.00772290367345
0.00792956714878
0.0085405623117
0.00871647019743
0.00876996526804
0.00879652980964
0.00882013872899
0.00884580955277
0.0088747240838
0.00890891178232
0.00895673000859
0.00904858035766
0.00927726101421
0.00988031572665
0.0113586915706
0.0145743040912
0.0208276030171
0.0326377057489
0.0589268640386
0.126817122228
0.00775126438262
0.00795663191671
0.00856990237773
0.00874627087242
0.00879925309243
0.00882489065778
0.00884740391018
0.00887189473476
0.00889955331843
0.00893223025917
0.00897754766628
0.00906341337395
0.00927595661737
0.00983802673138
0.0112255138585
0.0142647224178
0.0202081910346
0.0315409470461
0.0579022330385
0.137613035972
0.00777861130993
0.00798281982177
0.00859853356021
0.00877553570994
0.0088281596999
0.00885301848884
0.00887458378462
0.00889804247117
0.00892457873734
0.00895588872653
0.00899889960167
0.00907922514001
0.00927663322122
0.00979979364799
0.011099480521
0.0139638892286
0.0195718685253
0.0301426169029
0.0548443663055
0.153407338371
0.0078047293293
0.00800812182383
0.00862640972754
0.00880418267814
0.00885658754989
0.00888080874669
0.0089015639272
0.00892412698294
0.00894967562675
0.00897975369374
0.00902066194291
0.00909580375418
0.00927907358339
0.00976636554001
0.0109866533743
0.0136937405057
0.0189223941928
0.0281004445346
0.0438240120217
0.0727945641351
0.00782953801527
0.00803247056791
0.008653464359
0.00883214367555
0.00888445667949
0.00890816801782
0.00892824084631
0.00895004127928
0.00897472092158
0.00900372428076
0.00904269826108
0.00911298531357
0.00928278451992
0.00973563499494
0.0108811753471
0.0134573397161
0.0184843364594
0.0271091918858
0.0420289864491
0.0590673378641
0.0078529765945
0.00805579599531
0.00867964918873
0.00885935748298
0.00891168626529
0.00893499544399
0.0089544850448
0.00897560048005
0.00899955227642
0.00902761029948
0.00906484205852
0.00913058418299
0.00928742953851
0.00970624913584
0.0107753233744
0.0132179011527
0.0181444841405
0.0273672755921
0.0493529487096
0.0783856175652
0.00787486660942
0.00807805998555
0.00870490014649
0.00888574197096
0.00893818718072
0.00896115480715
0.00898018359024
0.00900077644736
0.00902412858135
0.00905138186493
0.00908705347861
0.00914855875529
0.00929300363013
0.00967812371776
0.0106662583767
0.0129470054451
0.0177323379476
0.0283536902478
0.0611158925351
0.16081876435
0.00789525614744
0.00809917666236
0.00872911806966
0.00891121656597
0.00896385428772
0.00898663009206
0.00900531431444
0.00902550929445
0.00904840045236
0.00907500129785
0.00910931500444
0.00916697207292
0.00929992610026
0.00965366746085
0.0105666308104
0.012699048969
0.0173089127398
0.0283789870164
0.0637121483391
0.167232425422
0.00791390378447
0.00811902759397
0.00875220394393
0.00893568193407
0.00898864586818
0.00901134195774
0.00902981243968
0.00904973724479
0.00907230411406
0.00909842586982
0.00913161649853
0.00918585632409
0.0093083847012
0.00963357750261
0.0104802314831
0.012488405971
0.0169623963075
0.0282833391293
0.0654457733913
0.168992722956
0.00793070631093
0.00813753982181
0.00877410800782
0.00895909202391
0.00901249129439
0.00903521140071
0.00905357979407
0.00907337737236
0.00909577993254
0.00912159135427
0.00915391233743
0.00920519116229
0.00931832374246
0.00961771852967
0.0104049951825
0.012307274807
0.0166859252758
0.0283008553397
0.0671421548064
0.170800432905
0.00794559491067
0.00815461306211
0.00879469973846
0.00898132518266
0.00903527680516
0.00905813748612
0.00907653420501
0.00909633526373
0.00911873336677
0.00914444785787
0.00917616759467
0.00922493879995
0.00932963163062
0.0096055326169
0.0103393207059
0.0121491542903
0.0164717129323
0.0284996663228
0.0689537906591
0.172525297434
0.0079583176805
0.00817006904251
0.00881384731946
0.00900226317215
0.00905688150171
0.00907999357205
0.00909854697836
0.00911851426356
0.00914109521032
0.00916692100182
0.00919830665148
0.00924500570194
0.00934212885143
0.00959633374789
0.0102804670645
0.0120102790185
0.0163191557667
0.0288672850966
0.0707646887813
0.173943940137
0.00796873532306
0.00818372355982
0.00883135828585
0.00902173589953
0.00907715634373
0.00910065199835
0.00911951004701
0.00913981043836
0.00916275942246
0.00918891447762
0.00922026189692
0.0092653215616
0.00935563058771
0.00958959422482
0.0102270871419
0.011885193044
0.0162084129898
0.0292890677046
0.0721347706671
0.174801864647
0.00797666569818
0.0081952500646
0.00884697123272
0.00903953605484
0.00909592039633
0.00911994473978
0.00913926296227
0.00916007449851
0.00918360139598
0.00921032099513
0.00924192509323
0.00928576517525
0.00936994912081
0.00958495692034
0.0101784662501
0.0117685680691
0.0160977039763
0.0295811471757
0.0727603064682
0.175037752177
0.00798167637527
0.00820403206991
0.00886021963504
0.00905531810771
0.00911290860116
0.00913764128601
0.00915759021108
0.0091790955252
0.00920341076981
0.00923094550552
0.00926312121584
0.00930620481999
0.00938505354701
0.00958266198625
0.010135405432
0.0116621736178
0.0159912390953
0.0297872911673
0.0730197403828
0.174871015355
0.00798547824152
0.00820978390137
0.00887056093912
0.00906869907871
0.00912788129209
0.00915357044834
0.00917435039795
0.00919675530602
0.00922209129805
0.00925071167987
0.00928379989604
0.00932667043019
0.00940111370895
0.00958289131117
0.0100973319366
0.0115693401203
0.0159388595688
0.0301591259529
0.0734920398083
0.174526653696
0.00798753702312
0.00821222633647
0.00887764243752
0.00907936892084
0.00914057642006
0.00916750130933
0.0091893289206
0.00921284184596
0.00923941736499
0.00926940878249
0.00930377434295
0.00934696618455
0.00941786602638
0.00958484637073
0.0100616057726
0.0114798222873
0.0158966356612
0.0304682063831
0.0733328723927
0.173914941537
0.00798708833612
0.00821108709883
0.00888118353753
0.00908704116182
0.00915071439426
0.00917917256951
0.00920228202135
0.00922713370411
0.00925519713384
0.00928684012957
0.00932283598251
0.00936683628021
0.00943492594639
0.00958755478161
0.0100228694017
0.011360569746
0.0156938484992
0.0302183541822
0.0723976261309
0.173916791249
0.00798354423218
0.00820602984021
0.00888088978492
0.00909139590854
0.00915798225808
0.00918828906062
0.00921293203561
0.00923936514151
0.00926917851133
0.00930276017147
0.00934072401748
0.00938603346775
0.00945204229597
0.00959092986384
0.00998210310287
0.0112123107309
0.0153203747334
0.0294857704277
0.0722830251071
0.176335068071
0.00797661858861
0.00819674286876
0.00887640136586
0.00909206714489
0.00916203481962
0.00919452712841
0.00922097348035
0.00924924524602
0.00928107655733
0.00931688137408
0.00935713990709
0.00940421608623
0.00946881171261
0.00959422996834
0.00993591525467
0.0110270423432
0.0148285222772
0.0288842668264
0.0755923132723
0.182768808379
0.0079658824748
0.00818287611787
0.00886731084094
0.00908865341795
0.00916249504243
0.00919754008068
0.00922608355624
0.00925646763962
0.00929059747661
0.00932891491181
0.00937180377564
0.00942108944317
0.00948509166149
0.0095981561401
0.00988845890085
0.0108115513753
0.0142562122677
0.02838185932
0.0833681997596
0.194142257213
0.00795097208264
0.00816405001022
0.00885319626307
0.00908071922004
0.00915895268071
0.0091969545899
0.00922792099546
0.00926071886915
0.00929745274113
0.00933859340068
0.00938444724167
0.00943639317897
0.00950086320889
0.00960390622807
0.00984886202215
0.0106042927048
0.0136400088839
0.0262640540659
0.0885553901599
0.208531731135
0.00793149889605
0.00813989697686
0.00883363340244
0.00906780362778
0.00915097287403
0.0091923700025
0.00922612147954
0.00926167852782
0.00930135179249
0.00934565920727
0.00939483951413
0.00944988547263
0.0095158522854
0.00961227168108
0.00981987015334
0.01042332151
0.0128223567678
0.0241612992529
0.0872971654728
0.222503824059
0.00790701116813
0.00811009465623
0.00880821277086
0.00904944460944
0.00913809264512
0.00918336520963
0.00922031348546
0.00925900854931
0.00930201006672
0.00934987750411
0.00940279147037
0.00946145059636
0.00952971850599
0.0096237540403
0.00981650705813
0.0105133085829
0.014327099288
0.0325964189048
0.0780546259759
0.204538445705
0.00787706862945
0.00807432776755
0.0087765442094
0.00902517693687
0.00911983786195
0.00916949837952
0.00921010075879
0.00925236711176
0.0092991369083
0.00935102393906
0.00940811893838
0.00947088705714
0.00954209720124
0.00963536189934
0.00980613451758
0.0103871355078
0.0132911129714
0.0281885643259
0.0893590416728
0.225608360394
0.00784120531737
0.00803238112057
0.00873827767429
0.0089945575147
0.00909573344755
0.0091503101825
0.00919507154013
0.00924141199471
0.00929247093327
0.00934891342654
0.00941073591005
0.00947815818364
0.00955319876988
0.00964650970062
0.0097974758361
0.010234929741
0.0123381942892
0.0255711076976
0.104984791076
0.225762695762
0.00779893717757
0.00798410999258
0.00869321023961
0.00895722922792
0.00906533483862
0.00912534649577
0.00917481097287
0.00922579821136
0.00928176382798
0.00934341316017
0.00941063493037
0.00948335307955
0.00956290459629
0.00965708946504
0.00979674863511
0.0101492206044
0.0117425771416
0.0222430336347
0.0862036070122
0.229135697944
0.00774990294268
0.0079296162081
0.00864127006492
0.00891293129881
0.00902825459525
0.00909417809413
0.00914890929575
0.00920518506751
0.0092667783261
0.00933443749742
0.00940786156847
0.0094866310599
0.00957123797285
0.00966666975836
0.0097961603176
0.0100872490868
0.0113516397565
0.0200100381303
0.072710236018
0.194635871447
0.00769403258774
0.00786914111976
0.00858259867107
0.00886157909978
0.00898423097264
0.00905644821665
0.0091170137374
0.00917927881379
0.00924736523167
0.00932199930227
0.00940267865353
0.00948850800328
0.00957917493489
0.00967760732238
0.00980366864321
0.0100888881196
0.0114708530269
0.0212969599595
0.082931323204
0.220738057085
0.00763151162758
0.00780324995872
0.00851768691857
0.00880340427213
0.00893321617848
0.00901196118535
0.00907884739236
0.00914785714223
0.00922343978072
0.00930628031247
0.00939549653854
0.00948985643491
0.00958868370709
0.0096941605118
0.00982317624278
0.0101017169644
0.0114301058751
0.020719749081
0.085324860167
0.209790577137
0.00756292506145
0.00773301512836
0.00844757692142
0.00873907188926
0.00887554292926
0.00896072306449
0.00903428850139
0.00911075771785
0.00919505310686
0.00928753966293
0.00938682179359
0.00949138126264
0.00960058304522
0.00971621646371
0.00985155437748
0.0101136307101
0.0113203315474
0.020439889675
0.0813578177765
0.199992220584
0.00748943319693
0.00766027984201
0.00837403704291
0.00866992804635
0.00881195435577
0.00890305119484
0.00898328895886
0.00906774603491
0.00916199987195
0.00926564517248
0.00937639833441
0.00949246751589
0.00961352760473
0.00974098148873
0.00988563229635
0.0101348964179
0.0112379005248
0.0200833787018
0.083268149312
0.20273992817
0.00741299103386
0.00758781386755
0.00829982827396
0.00859814855461
0.00874389455014
0.00883941650835
0.00892489016206
0.00901572510486
0.00911952224642
0.00923469084316
0.00935772923281
0.00948667589195
0.00962137531897
0.00976237558661
0.00991903267617
0.0101604717114
0.0111380504651
0.0188928793477
0.084582555082
0.213782847262
0.00733639251583
0.0075193234493
0.00822865828898
0.00852682875713
0.00867316176828
0.00876878271634
0.00885093823958
0.00893096798637
0.00903002597276
0.00914851879848
0.00928188773333
0.00942784496217
0.00958650540332
0.00975386371897
0.00993202655701
0.0101743448798
0.0110165237422
0.0177159471025
0.078881198124
0.226747613038
0.00726321320487
0.00745912876569
0.00816492612933
0.00845972421631
0.00860102309726
0.00868363951844
0.00872331336413
0.00868654675409
0.00869442426217
0.00877765665805
0.00891087634858
0.00908918492177
0.00933188862258
0.00959093251113
0.00983891921482
0.0101093399076
0.0107511792717
0.0153745084715
0.0563618493361
0.187615269861
0.0071974475756
0.00741101151277
0.00811271524438
0.00840051331637
0.00852757502254
0.00856669971124
0.0084502287303
0.00795645180434
0.00944032276497
0.00921699527453
0.00936594781314
0.00976160079543
0.00831799238446
0.00898877632802
0.00946989150545
0.00985555324291
0.010626431156
0.0209843935752
0.103188315373
0.235512571645
0.00714378730322
0.00737831887897
0.00807618460988
0.00835313558443
0.00845370515304
0.00841756812379
0.00804179292377
0.00846055721068
0.00936244039287
0.00839674345062
0.00910173968588
0.00960479347484
0.0104323055793
0.0177973518074
0.105869428471
0.245134673849
0.00710897393032
0.00735885076337
0.00805679333277
0.00832950444986
0.00841700266745
0.00833941151405
0.00784854666646
0.00781967913825
0.00883550976729
0.00828027073711
0.00893227640507
0.00940627312037
0.0101089583445
0.0142940829285
0.0597887245068
0.19525409802
0.00710897963719
0.00735885681813
0.00805679826627
0.00832950720583
0.00841700271015
0.00833940890184
0.00784854242095
0.00781968346858
0.0088356236064
0.00828047666456
0.00893264552048
0.00940669632324
0.0101093553584
0.0142939717674
0.0597883287278
0.195254432076
0.00714380237527
0.007378336178
0.00807619917334
0.00835314491434
0.00845370779124
0.00841756422307
0.00804178806899
0.00846056016454
0.00936272110623
0.00839715480327
0.0091024389907
0.00960563283367
0.0104332307655
0.0177985399764
0.105872612211
0.2451366292
0.00719747200252
0.00741104068713
0.00811274231167
0.00840053479767
0.00852758828892
0.0085667047636
0.00845023128752
0.0079564659831
0.00944032371585
0.00921701920115
0.00936601099422
0.00976171426892
0.00831817127853
0.00898914091773
0.00947059805181
0.009856498511
0.0106274974664
0.0209858512186
0.103190895093
0.235515503705
0.00726322796227
0.0074591536041
0.00816494930083
0.00845974384041
0.00860103839111
0.00868365132744
0.00872332533026
0.00868656935714
0.0086944620175
0.008777723087
0.00891098354056
0.00908935857863
0.00933216015533
0.00959139115244
0.00983969264293
0.0101103549584
0.0107523065324
0.0153754893128
0.0563608732484
0.187613433761
0.00733641068714
0.00751934774934
0.00822868627297
0.00852685664774
0.00867318720259
0.00876881034688
0.00885097217202
0.00893101390638
0.0090300938268
0.0091486198003
0.00928203453115
0.00942804909543
0.00958680304477
0.00975434687884
0.00993283060581
0.0101753601806
0.0110176065392
0.0177169313212
0.0788804171758
0.22674505641
0.0074130190635
0.0075878388384
0.00829986200253
0.00859818248604
0.00874392253635
0.00883945277981
0.00892494146745
0.00901579573384
0.00911961919462
0.00923482269926
0.00935790777094
0.00948691234465
0.00962169726387
0.00976287699239
0.00991984815956
0.010161456359
0.0111390539895
0.0188937380032
0.0845821416316
0.213782047042
0.00748947448088
0.00766031433859
0.00837408121604
0.00866996588278
0.00881197934041
0.00890308585147
0.0089833467484
0.00906783130081
0.00916211747314
0.00926579929421
0.00937659804339
0.00949272543161
0.00961387085352
0.00974150234388
0.00988645767842
0.0101358553783
0.011238844274
0.0200840010713
0.0832675598717
0.202739466478
0.00756298371461
0.00773307749984
0.00844764262431
0.00873913966982
0.00887558839993
0.00896077539727
0.009034358194
0.00911085515061
0.00919518792879
0.00928770961394
0.00938703519098
0.00949165571743
0.00960094716876
0.00971675872028
0.00985239345199
0.0101145762372
0.0113212366312
0.0204403887828
0.0813573127551
0.199992035543
0.0076316069426
0.00780335408017
0.00851780444081
0.00880351668037
0.00893333344303
0.00901207181605
0.0090789701143
0.00914798692466
0.00922360666236
0.00930647349417
0.00939572989899
0.00949015686642
0.00958908016668
0.00969473670514
0.00982404475762
0.0101026688679
0.011430991269
0.0207204052975
0.0853250897881
0.209791527719
0.00769416343965
0.0078692920039
0.0085827609335
0.00886174601971
0.00898439703323
0.00905662390924
0.00911719596511
0.0091794791699
0.00924759333957
0.00932225872786
0.00940296553377
0.00948886838034
0.00957963020594
0.00967824474551
0.00980458057297
0.0100898570702
0.0114716956777
0.0212974241325
0.0829319250615
0.220739108388
0.00775006448609
0.00792980647373
0.00864147723902
0.00891314238797
0.009028469989
0.00909440123571
0.00914914786329
0.00920544556003
0.0092670770842
0.00933475019141
0.00940821265838
0.0094870537332
0.00957175769281
0.00966736306067
0.00979711842136
0.0100882350349
0.0113525243861
0.0200107737987
0.0727118993693
0.194637931985
0.00779912593848
0.00798434103752
0.00869346118833
0.0089574851265
0.00906559533689
0.00912561552469
0.00917509527532
0.00922611212738
0.0092821222566
0.00934377955927
0.00941103176415
0.00948383652059
0.00956347964931
0.00965783552882
0.00979773442323
0.0101502050214
0.0117434307139
0.0222435688337
0.0862039825143
0.22913623359
0.00784141215798
0.00803263710402
0.00873855780761
0.00899484446513
0.00909602557196
0.00915061097837
0.00919538819237
0.00924176139527
0.00929287051095
0.00934931791863
0.0094111800098
0.0094787017928
0.00955382559211
0.00964730562549
0.00979848387681
0.0102358856164
0.0123389253589
0.0255714071812
0.104984595368
0.225762753792
0.00787728126008
0.0080745898556
0.00877683468384
0.00902547703747
0.0091201448318
0.00916981410521
0.00921043131416
0.00925272758442
0.00929954760707
0.00935144489257
0.00940858921693
0.0094714651421
0.0095427610371
0.0096361968653
0.00980714740146
0.010388025361
0.0132918215492
0.0281884249039
0.089358106941
0.225608280239
0.00790721608517
0.00811034399859
0.00880849284234
0.00904973759972
0.00913839578178
0.00918368026592
0.00922064471296
0.00925936476921
0.00930240032848
0.00935028877469
0.00940325483655
0.00946201812201
0.00953038425041
0.00962459507285
0.00981750974896
0.0105142202007
0.0143277789087
0.0325958774645
0.0780528588693
0.204537781636
0.0079317055305
0.00814014510035
0.00883391540819
0.00906810202049
0.0091512844599
0.00919269586333
0.00922646363697
0.00926204037297
0.00930173664998
0.00934606835132
0.00939529269538
0.00945041836691
0.00951647816195
0.00961307261839
0.00982082741512
0.0104242215829
0.0128230766913
0.0241612826879
0.0872957081246
0.222503556937
0.00795118104471
0.00816430005901
0.0088534826937
0.00908102401619
0.00915927226883
0.00919728997281
0.00922827380416
0.00926109133097
0.0092978465966
0.00933901039759
0.00938490202718
0.00943690893111
0.00950146615745
0.00960464776298
0.00984976802832
0.0106051466452
0.0136406595308
0.0262640080182
0.0885546966199
0.20853164194
0.00796609439481
0.00818312955673
0.00886760162988
0.00908896338946
0.0091628203858
0.00919788183592
0.00922644350617
0.00925684801707
0.00929099965013
0.00932934130834
0.00937226777
0.00942160691899
0.00948568555649
0.00959887844503
0.0098893309849
0.0108123799456
0.0142568436913
0.0283819073938
0.0833679150379
0.194142193686
0.00797683306439
0.00819699966734
0.00887669564129
0.00909238073871
0.00916236398232
0.00919487293007
0.00922133763219
0.00924962958238
0.00928148267448
0.00931731357958
0.00935761178416
0.00940474094411
0.00946940959915
0.00959494799555
0.00993676972988
0.0110278668295
0.0148291977602
0.0288845656873
0.0755923509346
0.182768773835
0.00798376307609
0.00820629034553
0.00888118708641
0.00909171220936
0.00915831418739
0.00918863773644
0.00921329866368
0.00923975042238
0.00926958401652
0.00930319448871
0.00934120192086
0.00938656649187
0.00945264653351
0.00959164672194
0.00998294626041
0.0112131526241
0.0153211242441
0.029486257024
0.0722832609501
0.176335067936
0.0079873101858
0.0082113502999
0.00888148328514
0.00908735977591
0.00915104884293
0.00917952385417
0.00920265049075
0.00922751803816
0.00925559829371
0.00928727414915
0.00932331955119
0.00936737815676
0.00943553647746
0.00958826705428
0.0100236991279
0.0113614306883
0.0156946428697
0.030218917776
0.0723978678757
0.173916709759
0.00798775973877
0.00821249082106
0.00887794392877
0.00907968977766
0.00914091360735
0.00916785565809
0.00918969955559
0.00921322464951
0.00923981230261
0.00926984276047
0.00930426529248
0.00934751831015
0.00941848269135
0.00958554936252
0.0100624118719
0.0114806858597
0.0158974698339
0.0304688895345
0.0733328475162
0.173914684715
0.00798569866771
0.00821004807005
0.00887086326198
0.0090690217633
0.00912822118462
0.00915392835213
0.00917472393235
0.00919713690666
0.00922248036933
0.00925114902894
0.0092843016215
0.00932723457033
0.00940173560131
0.00958357988168
0.0100980976488
0.011570171372
0.0159396605692
0.0301597356388
0.0734926147422
0.174526800983
0.00798189254033
0.00820429406755
0.00886052086095
0.00905564079899
0.00911324964876
0.00913800206928
0.00915797076482
0.00917949177537
0.00920382645828
0.00923141344103
0.00926364262417
0.00930678011061
0.00938567793637
0.00958333342996
0.0101361286825
0.0116629634094
0.0159920626559
0.0297879627266
0.0730201564677
0.174871096446
0.00797687449546
0.00819550304841
0.00884726241025
0.0090398489418
0.00909625258547
0.00912029800031
0.00913963898537
0.00916047252607
0.00918402547589
0.00921079820036
0.00924245185868
0.00928634133261
0.00937057027137
0.009585614054
0.0101791570321
0.0117693286931
0.0160986043323
0.0295819653765
0.0727603257924
0.17503756614
0.0079689508708
0.00818398062471
0.0088316538021
0.00902205505328
0.00907749761892
0.00910101762219
0.00911990305489
0.00914023337471
0.00916321736853
0.00918941960288
0.00922081514798
0.00926592340474
0.00935627487827
0.00959026598549
0.010227771818
0.0118858906638
0.0162091135726
0.0292897474872
0.0721351178713
0.174801825891
0.00795852365249
0.00817031207675
0.0088141263575
0.00900256612144
0.00905720804627
0.00908034612608
0.00909892890543
0.00911892981375
0.00914154908902
0.00916741973012
0.00919885325864
0.00924559943532
0.00934276020788
0.00959698285313
0.0102811154546
0.0120109405748
0.0163199116137
0.0288681492279
0.0707654005542
0.173944031493
0.00794579184112
0.00815484470094
0.008794965285
0.00898161588188
0.00903559395373
0.00905848339601
0.00907691152674
0.00909674850483
0.00911918726985
0.00914494735072
0.00917671572986
0.00922553303058
0.00933025846467
0.00960616719237
0.0103399391838
0.012149772171
0.0164724407294
0.0285006234947
0.068954738436
0.17252543444
0.00793088893748
0.00813775526585
0.00877435383258
0.00895936475495
0.00901279450741
0.00903554764391
0.00905395000676
0.00907378604193
0.00909623128046
0.00912209000973
0.00915446112111
0.00920578516785
0.0093189442789
0.00961833650535
0.0104055827188
0.0123078448305
0.0166865981691
0.028301848519
0.0671433489682
0.170800610437
0.00791406836988
0.00811922304741
0.00875242449594
0.00893593137736
0.00898892931085
0.00901166423093
0.00903017199405
0.00905013893142
0.00907275088863
0.00909892225068
0.00913216584284
0.00918645071217
0.00930899769135
0.00963417678576
0.0104807875186
0.0124889304144
0.0169630038247
0.0282843086888
0.0654472688879
0.168992995025
0.00789540362438
0.0080993542876
0.00872931534186
0.00891144447347
0.00896411372501
0.00898693314966
0.0090056577195
0.00902590002326
0.00904883922496
0.00907549267832
0.00910986449062
0.00916756805209
0.0093005293561
0.0096542448372
0.0105671549899
0.0126995360176
0.0173094643719
0.0283798719985
0.0637136177766
0.167232522474
0.00787500982351
0.00807824201043
0.00870511591171
0.0088859874317
0.0089384238321
0.00896143321991
0.0089805016721
0.00900114749377
0.00902455085663
0.00905186046648
0.00908759778374
0.00914915620878
0.00929359326055
0.00967867211458
0.0106667492519
0.0129474639974
0.0177328582867
0.0283544779715
0.0611171014169
0.160818753076
0.00785313830151
0.00805600431249
0.00867988956981
0.00885961580853
0.00891193362376
0.00893524243843
0.00895476420096
0.00897593360947
0.00899994012668
0.00902805668693
0.00906536965416
0.00913117178349
0.00928799614115
0.00970675462668
0.0107757631981
0.0132183079173
0.018144944512
0.0273678350324
0.0493538803083
0.0783859511045
0.00782970422729
0.00803268282802
0.00865369751443
0.0088323952001
0.00888470402157
0.00890842145909
0.00892850957897
0.0089503277131
0.00897506501593
0.00900413278397
0.00904319653639
0.00911355709757
0.00928332072362
0.0097360887564
0.0108815438681
0.0134576512646
0.0184846353078
0.0271093831075
0.0420289743683
0.0590673098908
0.00780488330306
0.00800831280799
0.00862661100212
0.00880439046948
0.0088568081826
0.00888104634852
0.00890182206926
0.00892441692282
0.00895001413162
0.00898016255943
0.00902115828346
0.00909636671383
0.00927959012663
0.009766792939
0.0109869837385
0.0136940028282
0.0189226201096
0.0281004549815
0.0438237036212
0.0727944180713
0.00777874205692
0.00798297252191
0.00859869987108
0.00877571761599
0.00882836216534
0.00885324527464
0.00887483932996
0.00889833670393
0.00892492634584
0.00895629994263
0.00899940361146
0.00907976743263
0.0092771248146
0.00980019985444
0.0110997913347
0.0139641350794
0.0195720968827
0.03014268458
0.0548440631162
0.153407312762
0.00775137400455
0.00795675947923
0.00857004706351
0.00874643392811
0.00879943802348
0.00882510191893
0.00884764746657
0.00887218126609
0.00889989454539
0.00893263896733
0.00897803277109
0.00906392169291
0.00927640324801
0.00983839596007
0.0112257889771
0.0142649443204
0.0202084338969
0.031541169414
0.0579022327323
0.137613092754
0.00772299376196
0.00792967362513
0.00854068953685
0.00871661625971
0.00877013270497
0.00879672336009
0.00882036578323
0.00884608317378
0.00887505628674
0.00890930776957
0.00895718712062
0.00904903571132
0.00927766562083
0.00988064617494
0.0113589305876
0.0145744983725
0.0208278372414
0.032637954131
0.058927168347
0.126817325473
0.00769357423414
0.00790182168509
0.00851071334717
0.0086863630313
0.00874056215992
0.00876824021809
0.00879313205878
0.00882017552697
0.00885055037907
0.0088864517161
0.0089369811121
0.00903507115273
0.00928043738551
0.00992525609448
0.0114956472072