/*--------------------------------*- C++ -*----------------------------------*\
| =========                 |                                                 |
| \\      /  F ield         | OpenFOAM: The Open Source CFD Toolbox           |
|  \\    /   O peration     | Version:  v2012                                 |
|   \\  /    A nd           | Website:  www.openfoam.com                      |
|    \\/     M anipulation  |                                                 |
\*---------------------------------------------------------------------------*/
FoamFile
{
    version     2.0;
    format      ascii;
    class       volScalarField;
    location    "1.7";
    object      rAU;
}
// * * * * * * * * * * * * * * * * * * * * * * * * * * * * * * * * * * * * * //

dimensions      [-1 3 1 0 0 0 0];


internalField   nonuniform List<scalar> 
1984
(
9.75172069301e-06
9.7217369743e-06
9.71726031765e-06
9.71493025128e-06
9.71583249034e-06
9.71514091748e-06
9.71489108605e-06
9.71454917842e-06
9.71416813456e-06
9.71383453676e-06
9.71342608081e-06
9.7122552738e-06
9.70752615486e-06
9.7257933857e-06
9.68970415432e-06
9.6233036471e-06
1.10932492777e-05
7.31192120593e-05
0.00692721708729
0.00904059749441
9.71917739607e-06
9.66349141382e-06
9.65518322347e-06
9.65305537666e-06
9.65337349778e-06
9.65241951492e-06
9.65190949193e-06
9.65139541789e-06
9.65086656709e-06
9.65035660136e-06
9.64978968651e-06
9.6486264628e-06
9.64424780977e-06
9.61185922978e-06
9.57282720421e-06
9.5524606787e-06
1.12088925441e-05
6.73428075057e-05
0.00612169189812
0.00896948762992
9.71630995284e-06
9.65438152411e-06
9.64511868706e-06
9.64294666296e-06
9.64330281494e-06
9.64241061054e-06
9.64201599769e-06
9.64154171479e-06
9.64104032503e-06
9.64053907417e-06
9.63997132788e-06
9.63873319889e-06
9.63396705232e-06
9.60267568408e-06
9.56450082311e-06
9.54145140279e-06
1.11021705658e-05
6.62641416827e-05
0.00615135924486
0.00892344413186
9.71453080572e-06
9.65210366266e-06
9.64246209022e-06
9.64019849059e-06
9.64076130904e-06
9.63994452843e-06
9.63960667419e-06
9.63921176582e-06
9.63878981456e-06
9.6383596428e-06
9.63786143319e-06
9.63670165383e-06
9.63206433195e-06
9.62413809634e-06
9.58682687289e-06
9.54187076308e-06
1.10010427481e-05
6.28869791772e-05
0.00604843982225
0.00894003973722
9.71425346228e-06
9.6515798937e-06
9.6418243815e-06
9.63947274532e-06
9.64008006819e-06
9.63926343654e-06
9.63894244375e-06
9.63860018484e-06
9.63820510424e-06
9.63780194326e-06
9.637329913e-06
9.63626621269e-06
9.63172159395e-06
9.63368314771e-06
9.59862289561e-06
9.54493300935e-06
1.08847185692e-05
5.91178276818e-05
0.00593162929782
0.00899033247894
9.71375801418e-06
9.65102006606e-06
9.64122532391e-06
9.63879823885e-06
9.63948992795e-06
9.6387236848e-06
9.63847152196e-06
9.63811157638e-06
9.63777159205e-06
9.63740306107e-06
9.63694942665e-06
9.6359741409e-06
9.63149594528e-06
9.63278762321e-06
9.59945503528e-06
9.54760256377e-06
1.0753172582e-05
5.4870818565e-05
0.00579224111912
0.00904817577426
9.71337495658e-06
9.65070420754e-06
9.64070477945e-06
9.63836877244e-06
9.63905810547e-06
9.63839208284e-06
9.63817687918e-06
9.63781479747e-06
9.6375120513e-06
9.63720734634e-06
9.63678183073e-06
9.6357832965e-06
9.6316819021e-06
9.63116874226e-06
9.59974842871e-06
9.55144771226e-06
1.06154934037e-05
5.04776315056e-05
0.00563712465252
0.00910731167188
9.71294544621e-06
9.65027558175e-06
9.64016485923e-06
9.63785987107e-06
9.63858410215e-06
9.63800202905e-06
9.63778499036e-06
9.63757637821e-06
9.63734402318e-06
9.6370313278e-06
9.63664703588e-06
9.63569606899e-06
9.63204627391e-06
9.63043426981e-06
9.60196834151e-06
9.55625882626e-06
1.04733804827e-05
4.61173853519e-05
0.00547047688893
0.00917932752068
9.71241755038e-06
9.64963195015e-06
9.63960688289e-06
9.63722420337e-06
9.6381127672e-06
9.63755315295e-06
9.63753668047e-06
9.637462397e-06
9.63719132878e-06
9.63689353532e-06
9.63658399533e-06
9.63569502254e-06
9.63248588278e-06
9.63007813068e-06
9.60484302617e-06
9.56181958071e-06
1.03308178972e-05
4.19132938336e-05
0.00529844878865
0.00926298650041
9.71175353439e-06
9.64892895659e-06
9.63880191867e-06
9.63655692338e-06
9.63770430884e-06
9.63735644841e-06
9.63743039891e-06
9.63736903905e-06
9.63709523584e-06
9.63685286307e-06
9.63654494419e-06
9.63583303049e-06
9.63297996865e-06
9.62978030357e-06
9.60811766037e-06
9.56838569986e-06
1.01918901723e-05
3.79534335082e-05
0.00510757229104
0.00933948379959
9.71092048779e-06
9.64809280588e-06
9.63801015992e-06
9.63601383246e-06
9.63739840888e-06
9.63726442561e-06
9.63737363228e-06
9.63721097344e-06
9.63700308757e-06
9.63688361301e-06
9.63663198237e-06
9.63590825654e-06
9.63330708401e-06
9.62998170841e-06
9.61206318776e-06
9.57578420129e-06
1.00628936719e-05
3.4298495945e-05
0.00488172308648
0.00939843746959
9.709429823e-06
9.64742117467e-06
9.63712623054e-06
9.63582398484e-06
9.63724436197e-06
9.63725373424e-06
9.63729503929e-06
9.63716677643e-06
9.63712846241e-06
9.63705099519e-06
9.63679046557e-06
9.63605958756e-06
9.63393929012e-06
9.63046896151e-06
9.6161847511e-06
9.58398218086e-06
9.94714670438e-06
3.09689076873e-05
0.00467430465825
0.00944115252922
9.70571285874e-06
9.6449410742e-06
9.63678234173e-06
9.63675290616e-06
9.63731897777e-06
9.63744631995e-06
9.63743685814e-06
9.6374773053e-06
9.63749316374e-06
9.63720429857e-06
9.63690124595e-06
9.63641493333e-06
9.63481658392e-06
9.63106097872e-06
9.62018159908e-06
9.59248448588e-06
9.85026389452e-06
2.79865708511e-05
0.00446411273087
0.00947166613805
9.69837973998e-06
9.64558019497e-06
9.63888325458e-06
9.63804798684e-06
9.63803341073e-06
9.63791765813e-06
9.63785442544e-06
9.63784425608e-06
9.63764354747e-06
9.63736315626e-06
9.63719859421e-06
9.6367454231e-06
9.63536836668e-06
9.63174589764e-06
9.62377128769e-06
9.6119167273e-06
9.78637337218e-06
2.53425587608e-05
0.00425705932412
0.00947752172973
9.70541685166e-06
9.65093265622e-06
9.64151876722e-06
9.63913390504e-06
9.63881146459e-06
9.63847548935e-06
9.63822173733e-06
9.6380158659e-06
9.63786396593e-06
9.63774109603e-06
9.63748775484e-06
9.63697430984e-06
9.63578963142e-06
9.63226808368e-06
9.62638015963e-06
9.61242631058e-06
9.7313199211e-06
2.30136049964e-05
0.00400903557468
0.00848821394745
9.71929275794e-06
9.65286467346e-06
9.64180412072e-06
9.63980782473e-06
9.63910914756e-06
9.63880062007e-06
9.6385583475e-06
9.63827822037e-06
9.6381423753e-06
9.63797876557e-06
9.63767333537e-06
9.63723129026e-06
9.63604861723e-06
9.632513354e-06
9.62606884927e-06
9.61019352519e-06
9.69461689295e-06
2.09441001907e-05
0.00375879575676
0.00921456954119
9.72143299128e-06
9.65229020793e-06
9.6419061778e-06
9.6400723039e-06
9.63921993851e-06
9.63887536828e-06
9.63872296148e-06
9.63854902655e-06
9.63831616689e-06
9.63819338612e-06
9.63793918037e-06
9.63741981622e-06
9.63627334466e-06
9.6329678275e-06
9.62329392242e-06
9.60314660176e-06
9.62667435963e-06
1.90706929377e-05
0.00373945666881
0.00941046357173
9.72010932394e-06
9.65168465831e-06
9.64177233956e-06
9.64023116399e-06
9.63937246247e-06
9.63893888522e-06
9.6386956882e-06
9.63860428746e-06
9.63848097323e-06
9.63832155463e-06
9.63818520458e-06
9.63775755323e-06
9.63694389385e-06
9.63465251775e-06
9.62512972678e-06
9.61200922581e-06
9.61898239545e-06
1.76084686495e-05
0.00346941128335
0.00921495493872
9.7172239129e-06
9.6505862096e-06
9.64068270402e-06
9.63974446257e-06
9.63916557387e-06
9.63890199863e-06
9.63870743355e-06
9.63854242999e-06
9.63845198794e-06
9.63838721014e-06
9.63831540069e-06
9.63813336719e-06
9.63775032399e-06
9.63660778578e-06
9.62999735944e-06
9.62755280472e-06
9.6387848518e-06
1.67177553026e-05
0.00169050468869
0.00832240097085
9.71563531342e-06
9.6497514334e-06
9.64009729321e-06
9.63912840432e-06
9.63865325438e-06
9.63858029505e-06
9.63853681708e-06
9.63856580893e-06
9.63845205744e-06
9.63842601177e-06
9.63843094641e-06
9.63839564026e-06
9.63820570638e-06
9.63785428827e-06
9.63275736497e-06
9.63402931572e-06
9.64299616225e-06
1.60846652799e-05
0.000975903416207
0.00819852126753
9.71535608832e-06
9.64933200837e-06
9.63992312103e-06
9.63900095882e-06
9.63845914135e-06
9.63835139768e-06
9.63833994728e-06
9.63837938939e-06
9.63844146134e-06
9.63846630856e-06
9.63858861222e-06
9.63865233602e-06
9.63875438944e-06
9.63886885129e-06
9.63367316047e-06
9.63518734923e-06
9.64466659579e-06
1.54822187615e-05
0.00070150735326
0.00809481531536
9.71459592948e-06
9.64866840982e-06
9.63927482385e-06
9.63849373063e-06
9.63817615609e-06
9.63810836079e-06
9.63808454558e-06
9.63801405136e-06
9.63830895664e-06
9.63846625834e-06
9.63857980216e-06
9.63871560659e-06
9.63917862387e-06
9.63968348443e-06
9.63402203629e-06
9.63426202663e-06
9.64537974583e-06
1.50321186249e-05
0.000570170560508
0.00798838435708
9.71410431862e-06
9.6483210556e-06
9.63888720214e-06
9.63804196005e-06
9.63771195868e-06
9.63768252076e-06
9.6378553728e-06
9.63799118139e-06
9.6380261009e-06
9.63825240663e-06
9.638461542e-06
9.63859939407e-06
9.63931635915e-06
9.64021602832e-06
9.63402348229e-06
9.62900835793e-06
9.64261036855e-06
1.46906924941e-05
0.000504732288168
0.00791992154294
9.71395992516e-06
9.64816235828e-06
9.6386505715e-06
9.63782135236e-06
9.63747203443e-06
9.63750595929e-06
9.63759598377e-06
9.63772465413e-06
9.63788717485e-06
9.63816341442e-06
9.63843091749e-06
9.63857673022e-06
9.63914235814e-06
9.64082573157e-06
9.63483952956e-06
9.61819213743e-06
9.63462462584e-06
1.44337819772e-05
0.000471442705905
0.00788287024438
9.71341213523e-06
9.64780489934e-06
9.63839762898e-06
9.6375339417e-06
9.63724489457e-06
9.63723558443e-06
9.63734739444e-06
9.63756441321e-06
9.63775510226e-06
9.63797251935e-06
9.63829736608e-06
9.63838975184e-06
9.63887690059e-06
9.64176461519e-06
9.63576668586e-06
9.60574474097e-06
9.62789929127e-06
1.4235633738e-05
0.000452930798898
0.00786148465357
9.7130821923e-06
9.64757967495e-06
9.63821334777e-06
9.63733903047e-06
9.63704491126e-06
9.63706093975e-06
9.63717693506e-06
9.63732794817e-06
9.63752580218e-06
9.63778434724e-06
9.63817760376e-06
9.63822309108e-06
9.63831634366e-06
9.64247259111e-06
9.63709013335e-06
9.6049856457e-06
9.62874614924e-06
1.40576653502e-05
0.000433666369366
0.00785058914646
9.71308000957e-06
9.647535931e-06
9.638088848e-06
9.63718571353e-06
9.63689354725e-06
9.6369235143e-06
9.63703033519e-06
9.63716872924e-06
9.63733107601e-06
9.63755418232e-06
9.63794213243e-06
9.63797204721e-06
9.63770232478e-06
9.6423891442e-06
9.63935068848e-06
9.61473412589e-06
9.54298483767e-06
1.3666823581e-05
0.000402151181844
0.00782217773097
9.71303026199e-06
9.64748908202e-06
9.63800946445e-06
9.63709069268e-06
9.63679242414e-06
9.63681566714e-06
9.636898715e-06
9.63699332526e-06
9.63710976097e-06
9.63726762875e-06
9.63755014142e-06
9.63762247031e-06
9.63698901342e-06
9.64130399245e-06
9.64244430726e-06
9.62394320504e-06
9.55394897217e-06
1.34162512359e-05
0.000348641382498
0.00772105267074
9.71306860171e-06
9.64749812999e-06
9.6379751509e-06
9.63704139087e-06
9.63674649985e-06
9.63674299941e-06
9.63678945235e-06
9.63683679593e-06
9.63687739195e-06
9.63693355191e-06
9.63705012063e-06
9.63710255035e-06
9.6362002411e-06
9.639776204e-06
9.64460930796e-06
9.6326543569e-06
9.56648446892e-06
1.30697426474e-05
0.00027895732451
0.0075202164739
9.71304560232e-06
9.64759341637e-06
9.63799236586e-06
9.63703856616e-06
9.63675227386e-06
9.63672213322e-06
9.63673035217e-06
9.63671501989e-06
9.63666113683e-06
9.63657126934e-06
9.63645572305e-06
9.63630547095e-06
9.6350075383e-06
9.63806780911e-06
9.64688724821e-06
9.64117074786e-06
9.57930984081e-06
1.26242504544e-05
0.000213536855411
0.00723001380017
9.71309656789e-06
9.64777422758e-06
9.63809208685e-06
9.6371078859e-06
9.63680862179e-06
9.63675009218e-06
9.63671385821e-06
9.63662227349e-06
9.63648093357e-06
9.63623510689e-06
9.63577889207e-06
9.63529155824e-06
9.63325059006e-06
9.63535659889e-06
9.64947218974e-06
9.64851431736e-06
9.58811697789e-06
1.21323408616e-05
0.000165449689274
0.00685402701202
9.71326128049e-06
9.6480294568e-06
9.63827927952e-06
9.63723752603e-06
9.63691299628e-06
9.63681200956e-06
9.63672244652e-06
9.63657458394e-06
9.63632859494e-06
9.63594160277e-06
9.6351169655e-06
9.63397503985e-06
9.63005689851e-06
9.61921871528e-06
9.64325729589e-06
9.65355293948e-06
9.59585263291e-06
1.16065633056e-05
0.00013454082006
0.00647014404757
9.71346261844e-06
9.64837464195e-06
9.63856074727e-06
9.63741880371e-06
9.63706689723e-06
9.63689012087e-06
9.63673863784e-06
9.63653741729e-06
9.63620455601e-06
9.63570035279e-06
9.63465615787e-06
9.63287041304e-06
9.62864488773e-06
9.60579447633e-06
9.57475116107e-06
9.59784185747e-06
9.60287734428e-06
1.10260755645e-05
0.000116979826569
0.00605024179802
9.71373537742e-06
9.64887396769e-06
9.63892615711e-06
9.63766832167e-06
9.63723195058e-06
9.63696061666e-06
9.63674816893e-06
9.63645605597e-06
9.63605816236e-06
9.63553433853e-06
9.6346996858e-06
9.63227530982e-06
9.6333046588e-06
9.61048573316e-06
9.56790697134e-06
9.59807006333e-06
9.60675768213e-06
1.00624482541e-05
0.000111595316221
0.00572137087324
9.71409917764e-06
9.64955567003e-06
9.63938653246e-06
9.63792452776e-06
9.63735682956e-06
9.63701667883e-06
9.63664005698e-06
9.63628055025e-06
9.63587320142e-06
9.63522659929e-06
9.63502490252e-06
9.63036689063e-06
9.63430544616e-06
9.60646686648e-06
9.57683654053e-06
9.56797993427e-06
9.52955950165e-06
9.57491971967e-06
9.65514578187e-05
0.00521113118474
9.71458651171e-06
9.65037365769e-06
9.63993944894e-06
9.63811182876e-06
9.63737765927e-06
9.63689664931e-06
9.63642050406e-06
9.63600980042e-06
9.63557135659e-06
9.6348208447e-06
9.63497031645e-06
9.63125198582e-06
9.63520334063e-06
9.62538038993e-06
9.62154643388e-06
9.58736388014e-06
9.55215164215e-06
9.41827460269e-06
2.05932572739e-05
0.000881349445353
9.71525946289e-06
9.65139366436e-06
9.64030705123e-06
9.63800638432e-06
9.63713233653e-06
9.63653717101e-06
9.63610975722e-06
9.63562220869e-06
9.63512904522e-06
9.63444337938e-06
9.6341966348e-06
9.63228657232e-06
9.63145612873e-06
9.6240854628e-06
9.60646248047e-06
9.55194621235e-06
9.45564689211e-06
9.79852133304e-06
4.6835546822e-05
0.00432095175465
9.71606496807e-06
9.65192687257e-06
9.63996685525e-06
9.63744514391e-06
9.636615851e-06
9.63606868954e-06
9.63563108055e-06
9.63514742762e-06
9.63459442111e-06
9.63408731155e-06
9.633789293e-06
9.63415146711e-06
9.63320962386e-06
9.63228876209e-06
9.6326764175e-06
9.62368819241e-06
9.53777070174e-06
9.56964732907e-06
4.05694747138e-05
0.00375457197387
9.71547327019e-06
9.64817934314e-06
9.63869971904e-06
9.63673519462e-06
9.63599792454e-06
9.63550289797e-06
9.63503454272e-06
9.63456235993e-06
9.63403026558e-06
9.6336229871e-06
9.63349707782e-06
9.63399787725e-06
9.63563486789e-06
9.63635940373e-06
9.65894520651e-06
9.63466789517e-06
9.50848177098e-06
9.52288547344e-06
3.25627199748e-05
0.00309336898604
9.7127517292e-06
9.64522257195e-06
9.63766906217e-06
9.63640334383e-06
9.63555252883e-06
9.63498001596e-06
9.63445407821e-06
9.6338876495e-06
9.63334314145e-06
9.63284531737e-06
9.63253758225e-06
9.63217800479e-06
9.63362396695e-06
9.63660809625e-06
9.62974117417e-06
9.57763627987e-06
9.51531343204e-06
9.48346753455e-06
1.13774523592e-05
8.44566391885e-05
9.7117753917e-06
9.64711154074e-06
9.63789467574e-06
9.63646147913e-06
9.63539316926e-06
9.63467063951e-06
9.6340113762e-06
9.63326832886e-06
9.63251975203e-06
9.63186518769e-06
9.63128863254e-06
9.63051806158e-06
9.63007703477e-06
9.62655074071e-06
9.59102028432e-06
9.56589625804e-06
9.52107703361e-06
9.55374583986e-06
2.92505776091e-05
0.00293142304715
9.7132430669e-06
9.6489938049e-06
9.63893760325e-06
9.63698145817e-06
9.63556556421e-06
9.63462575035e-06
9.63377410394e-06
9.63270089506e-06
9.63169305559e-06
9.63094327885e-06
9.63028713581e-06
9.6293790168e-06
9.62786822213e-06
9.62094395735e-06
9.61316682853e-06
9.61888148115e-06
9.60244610793e-06
9.47553570683e-06
3.08446376025e-05
0.00345878825383
9.71449840576e-06
9.65025251982e-06
9.63994932842e-06
9.63773889066e-06
9.63596507042e-06
9.63480622424e-06
9.63374739818e-06
9.63214044382e-06
9.63083995332e-06
9.63016039661e-06
9.6295834691e-06
9.62838803245e-06
9.62584890449e-06
9.62104406793e-06
9.62538381465e-06
9.59927934248e-06
9.60593150777e-06
9.51084489372e-06
2.99879478897e-05
0.00350687890272
9.71539350702e-06
9.65116801302e-06
9.64074471474e-06
9.63849735912e-06
9.63641405963e-06
9.63506179054e-06
9.63377321218e-06
9.63154661822e-06
9.63022619085e-06
9.63002387325e-06
9.62994465283e-06
9.62826081263e-06
9.62375159379e-06
9.61964397522e-06
9.61864247231e-06
9.59385659355e-06
9.56978185734e-06
9.5245490869e-06
2.96876499779e-05
0.00326059249544
9.71606456204e-06
9.65179115125e-06
9.64130816592e-06
9.6391364095e-06
9.63675839254e-06
9.63519606639e-06
9.63313751553e-06
9.62992428436e-06
9.62848789686e-06
9.62951640905e-06
9.63123725913e-06
9.62982740368e-06
9.62253187611e-06
9.6172276197e-06
9.61613059742e-06
9.60101539818e-06
9.59061413041e-06
9.51007146824e-06
2.8250654231e-05
0.00200154012252
9.71654885622e-06
9.65216348296e-06
9.64172152393e-06
9.63975256764e-06
9.63720380017e-06
9.63598287039e-06
9.63278697915e-06
9.62939012216e-06
9.62360063609e-06
9.62834283744e-06
9.63140182195e-06
9.6265786954e-06
9.61479782817e-06
9.61264879329e-06
9.61884359847e-06
9.58643164866e-06
9.53417290571e-06
9.44822963279e-06
2.33458316071e-05
0.001886509169
9.71677872462e-06
9.65223177782e-06
9.64198298871e-06
9.64040461652e-06
9.63799332123e-06
9.63833896461e-06
9.63504183974e-06
9.62261539655e-06
9.62715607735e-06
9.64088209766e-06
9.63476941162e-06
9.61541682586e-06
9.60097022712e-06
9.60419294537e-06
9.5836901561e-06
9.58744332123e-06
9.43588285816e-06
9.22710919752e-06
9.38942471907e-06
4.16185501666e-05
9.716627293e-06
9.65213146371e-06
9.64206585096e-06
9.64047404378e-06
9.63825129945e-06
9.64045257416e-06
9.63496661152e-06
9.64130595399e-06
9.69416092184e-06
9.70120154541e-06
9.69713467192e-06
9.67510267574e-06
9.60441056641e-06
9.58468080368e-06
9.58801312053e-06
9.57243582717e-06
9.46607537753e-06
9.45650744073e-06
1.85201339599e-05
0.0018536673127
9.71700829982e-06
9.65329562015e-06
9.64316729037e-06
9.64108367881e-06
9.63871709955e-06
9.63596794421e-06
9.64297670023e-06
9.70340651013e-06
9.64247953736e-06
9.60773486414e-06
9.6108544806e-06
9.57668444137e-06
9.44229427758e-06
9.38117982067e-06
2.51429239337e-05
0.00201428486832
9.71723583025e-06
9.65369280191e-06
9.6437899099e-06
9.64073319209e-06
9.63842449132e-06
9.63955913837e-06
9.64789482586e-06
9.71199287678e-06
9.65276206402e-06
9.62575850226e-06
9.62375394236e-06
9.58092573959e-06
9.456427801e-06
9.23229700433e-06
9.16491748314e-06
3.51293469289e-05
9.71723570313e-06
9.65369260613e-06
9.64379008762e-06
9.64073410585e-06
9.63842434165e-06
9.63955942663e-06
9.64789779561e-06
9.71199225084e-06
9.65275920608e-06
9.62575336052e-06
9.62374515796e-06
9.58091456005e-06
9.45641734596e-06
9.23229331609e-06
9.16484724991e-06
3.51281803378e-05
9.71700763819e-06
9.65329493937e-06
9.64316783433e-06
9.64108546973e-06
9.63872111337e-06
9.6359720716e-06
9.6429822741e-06
9.70340451613e-06
9.6424695618e-06
9.60771641156e-06
9.61082864673e-06
9.57665506346e-06
9.44227420842e-06
9.38117817454e-06
2.51426075289e-05
0.00201424526837
9.71661593861e-06
9.65212112482e-06
9.64206567491e-06
9.64047509523e-06
9.63825442551e-06
9.64045206323e-06
9.63496577989e-06
9.64131055427e-06
9.69416514012e-06
9.70120407244e-06
9.69713235733e-06
9.67509454225e-06
9.60439745376e-06
9.58466405885e-06
9.58800301473e-06
9.5724132822e-06
9.46605482272e-06
9.45650255313e-06
1.85203251768e-05
0.00185364887914
9.71677526957e-06
9.65222923612e-06
9.6419837163e-06
9.64040590976e-06
9.63799410144e-06
9.63833990998e-06
9.63504334875e-06
9.62261660296e-06
9.62715688568e-06
9.64088666477e-06
9.63476910039e-06
9.61540888329e-06
9.60095786814e-06
9.60417378757e-06
9.58368079077e-06
9.58742582544e-06
9.43586762178e-06
9.2271037421e-06
9.389380081e-06
4.16172489395e-05
9.71654982349e-06
9.65216512519e-06
9.64172475619e-06
9.63975581452e-06
9.63720600334e-06
9.63598457042e-06
9.63278841643e-06
9.62939044671e-06
9.62360058001e-06
9.62834443918e-06
9.63140012783e-06
9.6265737191e-06
9.61479104598e-06
9.61264099386e-06
9.61883802183e-06
9.58641895121e-06
9.53415779273e-06
9.44822307746e-06
2.33457454737e-05
0.00188583670521
9.71606840408e-06
9.65179603694e-06
9.64131637289e-06
9.63914423992e-06
9.6367623808e-06
9.63520019233e-06
9.63314143875e-06
9.6299258319e-06
9.62848769788e-06
9.62951485132e-06
9.63123370747e-06
9.62982383109e-06
9.62253124933e-06
9.61722895792e-06
9.61613470544e-06
9.60100856535e-06
9.59060753699e-06
9.51007195186e-06
2.82504796654e-05
0.00200134662946
9.71540031112e-06
9.65117551116e-06
9.64075150938e-06
9.63849899323e-06
9.6364137758e-06
9.63506180033e-06
9.63377548465e-06
9.63154681374e-06
9.63022510725e-06
9.63002232368e-06
9.62994379867e-06
9.62826293725e-06
9.62375772701e-06
9.61965128599e-06
9.61864970593e-06
9.59384871847e-06
9.56977697271e-06
9.5245411915e-06
2.96873124298e-05
0.00326054333955
9.71449963133e-06
9.65025331404e-06
9.63995109563e-06
9.63773908639e-06
9.63596427463e-06
9.63479878823e-06
9.63374297354e-06
9.63213959415e-06
9.63083957871e-06
9.6301617818e-06
9.62958722012e-06
9.62839487699e-06
9.625856983e-06
9.62105065989e-06
9.62538793022e-06
9.59926537647e-06
9.6059248696e-06
9.51083235873e-06
2.99875708883e-05
0.00350686071827
9.71324428659e-06
9.64899592566e-06
9.63893803528e-06
9.63698060196e-06
9.6355600337e-06
9.63462295842e-06
9.63377325299e-06
9.63270026802e-06
9.63169283294e-06
9.63094470874e-06
9.63029045637e-06
9.62938440652e-06
9.62787240739e-06
9.62094474936e-06
9.61316404336e-06
9.61886832716e-06
9.60243741911e-06
9.47552801166e-06
3.08443782805e-05
0.00345877233204
9.71176867863e-06
9.64711326765e-06
9.63789858726e-06
9.63646460704e-06
9.63539573416e-06
9.6346719152e-06
9.63401346033e-06
9.63326975248e-06
9.63252220558e-06
9.63186730705e-06
9.63129209855e-06
9.63052229421e-06
9.63008014068e-06
9.62654775969e-06
9.59101624728e-06
9.56589133415e-06
9.52107329207e-06
9.55372780122e-06
2.92503247147e-05
0.00293139354543
9.71273158784e-06
9.6452062323e-06
9.63766413053e-06
9.63640704183e-06
9.63555997218e-06
9.63498769168e-06
9.6344587025e-06
9.63389021978e-06
9.63334500957e-06
9.63284864836e-06
9.63254095325e-06
9.63218153408e-06
9.63362479951e-06
9.63660418989e-06
9.62974024914e-06
9.57762877019e-06
9.51530760432e-06
9.48346390922e-06
1.13774452897e-05
8.4453715747e-05
9.71545509778e-06
9.64815590068e-06
9.63868295896e-06
9.63672890229e-06
9.63599620323e-06
9.63550347283e-06
9.63503325493e-06
9.6345612656e-06
9.63403011241e-06
9.6336234416e-06
9.63349995993e-06
9.63399826416e-06
9.63563224156e-06
9.6363548271e-06
9.65894176646e-06
9.63465926285e-06
9.50847270199e-06
9.52288004553e-06
3.25626898647e-05
0.00309335197615
9.7160558105e-06
9.65191713012e-06
9.63994867478e-06
9.63742724511e-06
9.63660555107e-06
9.63606119785e-06
9.63562581008e-06
9.63514348513e-06
9.63459089137e-06
9.63408453855e-06
9.63378858296e-06
9.6341471709e-06
9.63320225314e-06
9.63228377128e-06
9.63266870604e-06
9.6236811572e-06
9.53776667442e-06
9.56964703728e-06
4.05695045846e-05
0.00375458480189
9.71524951576e-06
9.65138484666e-06
9.64029237139e-06
9.6379879937e-06
9.6371180103e-06
9.63652947472e-06
9.63610742982e-06
9.63562182339e-06
9.63512831289e-06
9.63444124363e-06
9.63419479177e-06
9.63227994616e-06
9.63144679145e-06
9.62407576082e-06
9.60645013394e-06
9.55193890742e-06
9.45564274107e-06
9.79851441785e-06
4.68357136011e-05
0.00432103486044
9.71458093686e-06
9.65036692196e-06
9.63993477267e-06
9.63810571258e-06
9.63736939286e-06
9.63689068796e-06
9.63642018031e-06
9.63601070745e-06
9.63557495762e-06
9.63482482676e-06
9.63497288281e-06
9.63124832716e-06
9.63519540685e-06
9.62537112376e-06
9.62153714801e-06
9.58736002047e-06
9.55214686248e-06
9.41828176356e-06
2.05935578787e-05
0.000881389236107
9.7140959637e-06
9.64955253215e-06
9.63938779587e-06
9.63792674422e-06
9.63735604302e-06
9.63701590649e-06
9.63663974823e-06
9.63628064175e-06
9.63587476713e-06
9.63522953504e-06
9.6350272434e-06
9.63036609685e-06
9.63430172311e-06
9.60646046089e-06
9.57682765477e-06
9.56797285029e-06
9.52955722837e-06
9.57492026363e-06
9.6549702704e-05
0.00521131912328
9.71373612972e-06
9.64887496259e-06
9.63892767706e-06
9.63767100341e-06
9.63723455797e-06
9.63696065234e-06
9.63674583742e-06
9.63645489538e-06
9.63605776957e-06
9.63553453668e-06
9.63470021853e-06
9.63227476907e-06
9.63330129507e-06
9.61047635673e-06
9.56789371959e-06
9.59806565813e-06
9.60675436657e-06
1.00624462884e-05
0.000111592318485
0.0057214150686
9.71346557754e-06
9.64837694453e-06
9.63856273176e-06
9.6374208875e-06
9.63706896115e-06
9.63688981196e-06
9.63673647557e-06
9.63653558606e-06
9.63620307901e-06
9.63569930059e-06
9.63465526265e-06
9.63286963741e-06
9.62864376961e-06
9.60579207646e-06
9.57474790958e-06
9.59783745497e-06
9.60287362301e-06
1.1026071199e-05
0.000116979436264
0.00605025270428
9.7132652078e-06
9.64803268772e-06
9.63828193284e-06
9.63723988407e-06
9.63691397749e-06
9.63681088531e-06
9.63672113619e-06
9.63657217337e-06
9.63632628063e-06
9.63594009508e-06
9.63511593699e-06
9.63397389731e-06
9.63005575934e-06
9.61921903797e-06
9.64325708739e-06
9.65354696705e-06
9.59585092656e-06
1.16065573457e-05
0.000134540652945
0.00647014673978
9.71309914546e-06
9.64777593867e-06
9.63809319467e-06
9.63710834704e-06
9.63680839488e-06
9.63674894888e-06
9.63671195768e-06
9.63661995853e-06
9.63647888959e-06
9.63623423075e-06
9.63577809293e-06
9.63529040359e-06
9.63324925415e-06
9.63535398005e-06
9.64946964225e-06
9.64851028397e-06
9.5881164569e-06
1.2132327706e-05
0.000165450046759
0.00685403645616
9.71304694514e-06
9.64759417125e-06
9.63799277689e-06
9.63703879758e-06
9.63675226708e-06
9.63672175845e-06
9.63672845294e-06
9.63671339682e-06
9.63666020756e-06
9.63657123557e-06
9.6364549641e-06
9.63630426479e-06
9.63500620085e-06
9.63806465691e-06
9.64688298024e-06
9.64116468547e-06
9.57930443448e-06
1.26242162933e-05
0.000213539265252
0.00723002254928
9.71307061827e-06
9.64749900558e-06
9.63797558077e-06
9.63704165025e-06
9.63674714824e-06
9.63674382138e-06
9.6367890839e-06
9.6368356846e-06
9.63687760066e-06
9.63693395941e-06
9.63704868407e-06
9.63710066805e-06
9.63619918594e-06
9.63977173005e-06
9.64460403168e-06
9.6326488742e-06
9.56647777302e-06
1.3069672682e-05
0.000278970759719
0.00752027198297
9.71303325989e-06
9.64749063114e-06
9.6380104176e-06
9.63709167325e-06
9.63679415206e-06
9.63681727089e-06
9.63689942944e-06
9.6369928958e-06
9.63711055107e-06
9.63726744625e-06
9.63754766395e-06
9.63761986465e-06
9.63698726736e-06
9.64129879519e-06
9.64243763593e-06
9.62393947891e-06
9.55394861844e-06
1.34162370295e-05
0.00034864482655
0.0077210543657
9.71308388702e-06
9.64753823795e-06
9.63809063074e-06
9.63718731092e-06
9.6368945172e-06
9.63692415778e-06
9.63703089037e-06
9.63716923721e-06
9.63733151586e-06
9.63755266456e-06
9.63793931526e-06
9.63796879576e-06
9.63769887906e-06
9.64238410412e-06
9.63934527466e-06
9.61472886566e-06
9.5429813861e-06
1.36668057485e-05
0.000402155082333
0.00782217804247
9.71308551451e-06
9.64758216964e-06
9.63821538131e-06
9.63734048461e-06
9.63704581399e-06
9.63706186018e-06
9.63717810482e-06
9.63732910031e-06
9.6375263742e-06
9.63778269692e-06
9.63817439092e-06
9.63821866756e-06
9.63831132116e-06
9.64246717401e-06
9.63708590656e-06
9.6049812852e-06
9.62874181676e-06
1.40576390989e-05
0.000433676135459
0.00785061965745
9.71341287666e-06
9.64780571886e-06
9.63839824221e-06
9.63753420682e-06
9.63724493237e-06
9.6372354644e-06
9.63734731145e-06
9.63756388951e-06
9.63775365108e-06
9.63796987209e-06
9.63829329538e-06
9.63838432128e-06
9.63887093232e-06
9.64175909739e-06
9.63576218001e-06
9.60573941634e-06
9.62789671373e-06
1.42356208544e-05
0.000452943297835
0.00786148953366
9.7139599847e-06
9.64816248515e-06
9.63865076826e-06
9.6378214564e-06
9.63747198306e-06
9.63750573295e-06
9.63759540404e-06
9.63772356305e-06
9.63788528823e-06
9.63816043378e-06
9.63842675952e-06
9.63857156326e-06
9.63913654709e-06
9.64081991516e-06
9.63483504041e-06
9.61818787932e-06
9.63462165888e-06
1.44337709862e-05
0.000471451584486
0.00788287727059
9.71410459563e-06
9.64832100839e-06
9.63888743491e-06
9.63804166435e-06
9.63771140664e-06
9.63768165409e-06
9.63785404297e-06
9.63798917593e-06
9.63802327611e-06
9.6382485298e-06
9.6384562028e-06
9.63859277497e-06
9.63930950372e-06
9.64021040897e-06
9.63401968541e-06
9.62900477652e-06
9.64260689903e-06
1.4690690627e-05
0.000504744648086
0.00791993193036
9.71459741649e-06
9.64866866098e-06
9.63927472694e-06
9.63849260128e-06
9.63817481437e-06
9.63810668179e-06
9.6380824364e-06
9.63801123871e-06
9.63830517695e-06
9.6384613205e-06
9.63857325323e-06
9.63870756619e-06
9.63917078621e-06
9.63967766105e-06
9.6340179627e-06
9.63425816488e-06
9.64537591168e-06
1.50321278813e-05
0.000570189496006
0.00798840104719
9.71535967324e-06
9.64933293915e-06
9.63992344543e-06
9.63900018861e-06
9.63845752127e-06
9.63834895878e-06
9.63833696099e-06
9.6383758305e-06
9.63843719226e-06
9.63846060848e-06
9.63858105409e-06
9.63864334524e-06
9.63874544938e-06
9.63886285941e-06
9.63366860982e-06
9.63518310686e-06
9.64466251684e-06
1.54822376757e-05
0.000701540783351
0.00809483924198
9.71563901924e-06
9.64975337938e-06
9.64010056232e-06
9.63913008756e-06
9.63865270243e-06
9.63857712735e-06
9.63853229244e-06
9.63856070703e-06
9.63844610726e-06
9.63841854249e-06
9.63842134555e-06
9.63838492246e-06
9.63819563868e-06
9.63784708739e-06
9.63275318738e-06
9.63402696578e-06
9.64299232475e-06
1.60846988515e-05
0.000975966036381
0.00819854664181
9.71722100061e-06
9.65058629924e-06
9.6406842174e-06
9.63974612791e-06
9.6391686889e-06
9.63890023964e-06
9.63870188794e-06
9.63853570693e-06
9.63844415253e-06
9.63837757342e-06
9.63830321471e-06
9.6381205357e-06
9.63774111669e-06
9.63660205287e-06
9.62999309657e-06
9.62754907183e-06
9.63878202728e-06
1.6717801317e-05
0.00169063870601
0.00832241960672
9.72009070217e-06
9.65167801424e-06
9.64177030003e-06
9.64022938724e-06
9.63937405764e-06
9.63894278091e-06
9.63869519462e-06
9.63859990732e-06
9.63847330369e-06
9.63831135107e-06