/*--------------------------------*- C++ -*----------------------------------*\
| =========                 |                                                 |
| \\      /  F ield         | OpenFOAM: The Open Source CFD Toolbox           |
|  \\    /   O peration     | Version:  v2012                                 |
|   \\  /    A nd           | Website:  www.openfoam.com                      |
|    \\/     M anipulation  |                                                 |
\*---------------------------------------------------------------------------*/
FoamFile
{
    version     2.0;
    format      ascii;
    class       volVectorField;
    location    "1.7";
    object      U;
}
// * * * * * * * * * * * * * * * * * * * * * * * * * * * * * * * * * * * * * //

dimensions      [0 1 -1 0 0 0 0];


internalField   nonuniform List<vector> 
1984
(
(-0.00133228928426 0.00129901296895 4.39757551925e-22)
(-0.000483255585249 0.00404839326015 1.71606896979e-21)
(-0.00044792404376 0.00521235198406 2.89631467989e-24)
(-0.000558943735817 0.00720428657427 -3.45038840188e-22)
(-0.000651243251147 0.00912458179138 -8.48130737458e-22)
(-0.000723055075621 0.0111834091167 -5.71031588986e-22)
(-0.000788289878535 0.0133567516854 -5.99147073498e-22)
(-0.000852244995836 0.0156479141604 1.68498787926e-21)
(-0.000917045485394 0.0180674161153 1.81579006538e-21)
(-0.000984937593003 0.0206267537342 2.00814675417e-21)
(-0.00106214536771 0.0233159074094 7.83363544148e-24)
(-0.00118532097693 0.0261415106957 4.16409576089e-22)
(-0.00150110351611 0.0291895178585 1.633502065e-22)
(-0.00219406126859 0.0331138453478 4.590835356e-22)
(-0.00258450169755 0.0338462987453 -4.4599827224e-22)
(-9.08705176894e-05 0.0460657971248 -3.20903104057e-21)
(0.00565821548348 0.0229187399049 -9.36428561952e-21)
(0.00240484067143 0.0443474919399 -2.30565045466e-20)
(-0.00703080340076 0.0707519690636 -2.71752596046e-20)
(0.0163777036393 0.0442422676328 -4.28389162084e-21)
(-0.00401223609782 0.000403628131758 3.77100973381e-22)
(-0.00299372416217 0.00293932352705 1.16446734428e-21)
(-0.00291203839615 0.00418174290096 2.77064365875e-23)
(-0.00304567276854 0.00610978409033 -1.02273485661e-21)
(-0.00321357461462 0.00784562855653 -3.41967525505e-21)
(-0.00337639669335 0.00965203215559 -1.93863484087e-21)
(-0.00354460384776 0.0115479494036 -2.37481607393e-21)
(-0.00372568552929 0.013551107602 -6.79019160724e-22)
(-0.00392207762272 0.0156771766498 8.63057258901e-22)
(-0.00413289349011 0.0179425371405 -1.81356166959e-21)
(-0.00435387138128 0.0203450263205 -7.424079748e-22)
(-0.00458646597635 0.0228764974174 -1.1455031019e-21)
(-0.00487693014696 0.0255548635825 -7.26077129326e-22)
(-0.00522169269077 0.0288154113757 2.99389501031e-22)
(-0.00518423412636 0.0283372839407 -1.59542807006e-21)
(-0.00363756288442 0.0393922929278 -9.86357267699e-21)
(-0.00459767366823 0.0229180498444 -8.64504616921e-21)
(-0.0248550118606 0.046052053792 -1.83877111618e-20)
(-0.0148010592361 0.047754064462 -1.90574119049e-20)
(0.0224006037146 0.0701440133095 2.70220370117e-21)
(-0.00508437886289 0.000273394560108 1.11443331368e-21)
(-0.00423792984711 0.00267630050829 4.67197882498e-21)
(-0.00413603521346 0.0038002989757 8.6160882983e-22)
(-0.00425245748185 0.0056346826094 -2.81504558527e-22)
(-0.0044559797239 0.00725803142778 -9.28802122845e-22)
(-0.00469120550201 0.00897100318428 -2.63500281756e-22)
(-0.00495528751113 0.0107659912823 -4.39819878236e-22)
(-0.00525008369791 0.0126626297012 4.38579942638e-22)
(-0.00557577004496 0.014680029774 3.40454320688e-22)
(-0.00593008232823 0.0168389191919 -6.69479248687e-22)
(-0.00630779140816 0.0191453458622 -1.74075918662e-22)
(-0.00670266001608 0.0215932736973 1.75315701559e-22)
(-0.00711923921669 0.024221730721 2.35563946684e-22)
(-0.00754723272529 0.0275773790046 5.36430029389e-22)
(-0.00781460052561 0.0274575253317 -6.42229822272e-22)
(-0.00707433886881 0.0386898277696 -1.73995808096e-20)
(-0.00467083336641 0.0228878843634 -5.92440004247e-21)
(-0.0168705200057 0.0446004288363 -2.2691253914e-20)
(-0.0179298176674 0.0570586745699 -2.3432803577e-20)
(0.00179113081754 0.0614416098278 -3.88753492485e-21)
(-0.00674426158387 0.000314648621333 1.31948346143e-21)
(-0.00597108572004 0.00262109124252 2.92546261874e-21)
(-0.00589047064562 0.00360874509207 8.00500554209e-22)
(-0.00602706511199 0.00537593917098 8.47726420351e-23)
(-0.0062517805713 0.00693105316569 -1.18490661739e-22)
(-0.00654532037057 0.00857228176269 1.39004520837e-22)
(-0.00689516923889 0.0102999436322 1.550061488e-22)
(-0.00729662298617 0.0121326474184 9.53568263576e-25)
(-0.00774627004142 0.0140895131244 -1.82730558394e-23)
(-0.00823918249722 0.016191415449 1.02292915089e-22)
(-0.00876921212797 0.0184443148185 -4.65016731667e-23)
(-0.0093333546339 0.0208394117221 6.52246296229e-23)
(-0.00993183301458 0.0234126982787 -8.43992351622e-23)
(-0.0105858272763 0.026706360133 3.63961578036e-22)
(-0.0112397339492 0.0266812563826 1.87782179723e-22)
(-0.0113809563619 0.037411456085 3.57156698495e-21)
(-0.0107402925619 0.0218445021005 -3.19719831187e-21)
(-0.0330511185793 0.0432279774543 -6.80162408857e-21)
(-0.0323904329749 0.0536853376012 -7.03376373684e-21)
(0.00322045635407 0.0631724166381 -2.70819890364e-21)
(-0.00824003248113 0.000352096295066 7.16926129485e-23)
(-0.00742490692828 0.00257252658167 3.9972765886e-21)
(-0.00734315595178 0.00345023595362 1.36377826765e-21)
(-0.00751421723128 0.00514209289908 2.14723006927e-22)
(-0.00780497563143 0.00661783367735 2.21486682977e-23)
(-0.00817146759051 0.00818210467498 6.96066157047e-23)
(-0.0086194470824 0.00984141744816 6.83687489351e-23)
(-0.00913801148986 0.011610307562 -1.51221275391e-23)
(-0.00972274354759 0.0135078321302 -9.32862795122e-24)
(-0.0103673431948 0.0155564805143 4.84460327494e-23)
(-0.0110633150567 0.0177649279241 -2.18314814241e-23)
(-0.0118051107726 0.0201273149623 7.42784949139e-25)
(-0.0125892760645 0.0226748714027 2.33142787094e-22)
(-0.0134555780509 0.0259955332607 3.57357548578e-22)
(-0.0142990865194 0.0261662241615 -2.62475130375e-22)
(-0.0148159553654 0.0367757284796 -1.74414773246e-21)
(-0.0140013269709 0.0218891478118 -5.62412623352e-21)
(-0.0406261183766 0.0422571148219 -6.0240221054e-21)
(-0.0400820209413 0.0528680112261 -5.5849719111e-21)
(-0.00537386953294 0.0654639037543 -1.75183888104e-21)
(-0.00972909055839 0.000348557554626 9.24864108113e-23)
(-0.00881796636883 0.00247901483374 3.02901222872e-21)
(-0.00872182180254 0.00326007102797 1.16831913605e-21)
(-0.00893450212516 0.00485420111979 2.09401214203e-22)
(-0.00929483326099 0.00624718470009 3.47558157433e-23)
(-0.00974962570244 0.00773033303055 1.10349395804e-23)
(-0.0102939395839 0.00930042605504 1.35652609816e-23)
(-0.0109330554546 0.0109902530693 -1.19752809687e-23)
(-0.0116583672164 0.012814121221 -1.68299614734e-23)
(-0.0124631318212 0.0147963636431 -8.59066741583e-24)
(-0.0133377161928 0.0169505729285 -2.04063767762e-23)
(-0.014276731009 0.0192777551889 -3.57793178984e-23)
(-0.0152814350177 0.0217981104986 2.90469940003e-22)
(-0.0163752211172 0.0251697165371 2.63277217485e-22)
(-0.0175572853004 0.0255203106635 -7.01834967936e-22)
(-0.0184556425451 0.0359779185813 -4.46692761547e-21)
(-0.0178456602196 0.0219184868555 -7.95006054562e-21)
(-0.0487051721463 0.0411660396323 -5.68112560421e-21)
(-0.0498046634017 0.049853356164 -5.16339474576e-21)
(-0.0136894502709 0.0651110766261 -1.48209527775e-21)
(-0.0111514539468 0.000313039220656 1.80836134655e-22)
(-0.0101013704701 0.00234601254718 1.31600314592e-21)
(-0.0100009870002 0.00303868484042 2.35115245166e-22)
(-0.0102508860222 0.00451789342025 6.65727382622e-23)
(-0.0106737238995 0.00579641721357 2.35216649937e-23)
(-0.0112202234652 0.00718192876693 -9.32203313903e-24)
(-0.0118686527834 0.0086567003842 -4.12978069101e-24)
(-0.0126342202741 0.0102437028133 -7.26756771726e-24)
(-0.0135061027319 0.0119736206884 -2.20661349431e-23)
(-0.0144807298907 0.0138691795932 3.38377135568e-24)
(-0.015548548723 0.0159485290566 -1.65157372324e-23)
(-0.0167061365729 0.0182161265654 -4.92950988435e-24)
(-0.0179634478479 0.0207152018906 2.44070775184e-22)
(-0.0193284249878 0.0240756009611 -1.94163170272e-22)
(-0.0209441742601 0.0246042484114 -2.49166600765e-21)
(-0.0221261570276 0.0348365671226 -2.09042944825e-20)
(-0.0217395014957 0.0217883517107 -8.75263422153e-21)
(-0.0556332287503 0.039837170691 2.14381598174e-21)
(-0.0583186124345 0.0465209080003 1.79529799442e-21)
(-0.02528502682 0.0637613710019 5.27101330374e-22)
(-0.0124770698263 0.000271245273787 3.46978643842e-22)
(-0.0112673716672 0.00217613324931 3.42295912083e-21)
(-0.0111701913652 0.00276355130124 1.11198973557e-21)
(-0.0114575533889 0.00412465898036 1.64874873675e-22)
(-0.0119475683271 0.00527529060985 1.31455405087e-23)
(-0.0125734654305 0.00654043722882 2.19392112779e-24)
(-0.0133407474889 0.00789269907072 -8.91179194962e-24)
(-0.0142283359167 0.0093595176984 -8.88462010226e-25)
(-0.0152495181905 0.0109736867407 -1.32526031559e-23)
(-0.0164032777867 0.012757496722 -1.69683749109e-23)
(-0.0176775514692 0.0147362282792 -4.55200751059e-23)
(-0.0190739855073 0.0169159722735 -8.10728560803e-23)
(-0.0206017287639 0.0193538327699 1.34503523639e-22)
(-0.0223031348341 0.0226335443983 -6.14276133835e-22)
(-0.0243508023434 0.023386632708 -2.40628769962e-21)
(-0.0258737208356 0.0332286649831 -1.87389870187e-20)
(-0.0256819343697 0.0213646081118 -1.78427326633e-20)
(-0.061343610923 0.0381162599397 -2.04992905237e-20)
(-0.0647632774123 0.0430992414188 -1.94563644212e-20)
(-0.0348908387712 0.0528022357323 -4.45369461121e-21)
(-0.0136889397101 0.000219094331762 5.82394084221e-22)
(-0.0123262626757 0.00197456618922 2.44950965026e-21)
(-0.0122052293916 0.00244484502046 7.53942081586e-22)
(-0.0125469414032 0.00367433972322 1.18578392033e-22)
(-0.013099194061 0.00467804956684 6.02216839188e-24)
(-0.0138095340993 0.00579542552969 -1.7687441557e-23)
(-0.0146791704023 0.00701030720253 8.44680994254e-24)
(-0.0156876855056 0.00834431777089 -9.74699443979e-24)
(-0.0168616191633 0.00980805652411 2.27271069792e-24)
(-0.0182056510371 0.0114485993409 4.27326874914e-24)
(-0.019695621853 0.0132939812289 -8.55049689371e-24)
(-0.0213476627348 0.0153541081015 -6.3125578894e-23)
(-0.0231697255578 0.0176840725863 -9.13849867286e-23)
(-0.0252342046248 0.0208310363132 -1.81082999747e-22)
(-0.0277164579377 0.0217830123449 -1.14094685956e-21)
(-0.0296986902784 0.0310811126949 -1.1575233167e-21)
(-0.0296915493124 0.0206705047555 -8.51301154719e-21)
(-0.0658541255006 0.0359997098038 -1.03488986439e-20)
(-0.0682338146817 0.0397565952279 -1.03136686933e-20)
(-0.0374072848905 0.0413765949491 -2.7011262352e-21)
(-0.0147650901446 0.000155321778024 5.99697997868e-22)
(-0.0132508976359 0.00175651901481 3.48766327177e-21)
(-0.0131024402188 0.00208051022232 1.19993390735e-21)
(-0.0134888353978 0.00315355744835 1.72747424087e-22)
(-0.0141020138258 0.004008878068 1.65238395241e-23)
(-0.0148931614587 0.00496729084949 6.72843984252e-24)
(-0.0158520184352 0.00602351819081 -6.2645280638e-24)
(-0.0169906625894 0.00718722596499 4.20393594116e-25)
(-0.0183228608872 0.00846595603998 -6.62481709907e-24)
(-0.0198432582632 0.00993205393746 1.26539673625e-23)
(-0.0215597460946 0.0116118925014 -1.04309145312e-23)
(-0.0234798724502 0.0135081904931 -3.14386355984e-23)
(-0.0256232606155 0.0156775369187 1.11425416894e-22)
(-0.0280719975476 0.0186422028478 -6.5928068596e-24)
(-0.0310220893956 0.0197426261518 -9.58734530964e-22)
(-0.0335202715268 0.0283177270618 -3.09081983546e-21)
(-0.0338090824582 0.0196282270917 -1.11362738056e-20)
(-0.069326240136 0.0333639780001 -1.08593519808e-20)
(-0.0694469977424 0.0362898340266 -1.09143984578e-20)
(-0.0341148384323 0.0321485776391 -2.62832938826e-21)
(-0.0156900373115 8.21572055098e-05 -4.68469430681e-22)
(-0.0140187648445 0.00151048536851 2.67643408861e-23)
(-0.0138526615367 0.00168493114962 -1.14305505536e-22)
(-0.0142646140006 0.00258597594104 -1.96246125351e-24)
(-0.0149350582528 0.00326813328546 -1.90011062607e-23)
(-0.0157995716049 0.00405203885309 2.19460051885e-24)
(-0.0168541148637 0.00492166105418 -2.13092027395e-24)
(-0.0181142499731 0.00588344812337 6.82669303828e-25)
(-0.0195988698002 0.00696566762732 9.36514303603e-24)
(-0.0212935593146 0.00822061090145 9.04018625456e-24)
(-0.0232302465694 0.00967532523796 -1.89569728684e-23)
(-0.0254167339956 0.0113580481789 -5.30508078349e-23)
(-0.0279040625659 0.0133101695724 -1.22442491328e-22)
(-0.0307653434745 0.0160333366076 3.6575332508e-22)
(-0.0342072623415 0.0172224841919 -9.11855183809e-22)
(-0.037275473512 0.0248960835879 4.5042336879e-21)
(-0.0380702765136 0.0181642018942 -8.75677645948e-21)
(-0.0716962091204 0.0300851298251 -1.70164465941e-20)
(-0.0692589741088 0.0320933372272 -1.67914322861e-20)
(-0.026676571126 0.0237894998453 -2.79653767837e-21)
(-0.0164499186591 6.08327011077e-06 -9.49335911468e-22)
(-0.0146206766429 0.0012455983109 1.28336657316e-21)
(-0.0144307705873 0.00125255545869 1.95681384009e-22)
(-0.014867630794 0.00197019086441 -2.31351944682e-23)
(-0.0155869394059 0.00246627115871 -2.57459130899e-23)
(-0.0165185238989 0.00305443228416 -1.0455722442e-23)
(-0.017663171224 0.00371744803249 4.2026885367e-24)
(-0.0190429448864 0.0044524907494 -1.05694070015e-24)
(-0.0206502741912 0.00529708536548 1.84660182202e-23)
(-0.0225161854839 0.00630963264825 2.14248894758e-23)
(-0.0246640350703 0.00750637542706 -2.40067523469e-23)
(-0.0271191844618 0.00890120116208 -5.88846561059e-23)
(-0.0299305542483 0.0105507830216 1.51177316231e-22)
(-0.0331814236779 0.0129748393453 4.62952391071e-22)
(-0.037210889536 0.0142021672669 9.25847917686e-23)
(-0.0409229695406 0.0207653936216 -2.09765992257e-22)
(-0.0424877329563 0.0162011569367 -1.11501679109e-20)
(-0.0729998779819 0.0262704332219 -1.04529244389e-20)
(-0.0681382487419 0.0275969143265 -1.06096077497e-20)
(-0.0166768083637 0.0161913104736 -6.18987302088e-22)
(-0.0170416830051 -7.57156186268e-05 -5.99175671215e-22)
(-0.0150521148095 0.000961793357393 3.136822353e-21)
(-0.0148391183826 0.000795160696366 1.03541314018e-21)
(-0.0152848141122 0.00131617991574 1.1273488938e-22)
(-0.0160407225929 0.00160740759209 1.60317436767e-23)
(-0.0170270595644 0.00198163086368 5.10640147828e-25)
(-0.0182451692223 0.00240566178545 -5.61804594309e-24)
(-0.0197172809843 0.00290613634279 5.77158443221e-24)
(-0.021433816185 0.00350266335213 2.63072627734e-23)
(-0.0234496706558 0.0042158662547 2.67205917463e-24)
(-0.0258057504604 0.00508931440024 -3.00239233716e-23)
(-0.0285105302048 0.00615619217541 -3.34425428963e-23)
(-0.0316295834135 0.00747267642859 2.02185502418e-22)
(-0.0352726751133 0.00942239919028 3.44336336081e-22)
(-0.0399157842595 0.0105720300008 -1.17183592455e-21)
(-0.0443597722737 0.0158778251364 -1.17903309747e-20)
(-0.0470447780623 0.0136002237614 -2.03289669119e-20)
(-0.073442722032 0.0218590926448 -1.29628997316e-20)
(-0.0662950453832 0.0224683232872 -1.32616704641e-20)
(-0.00362103722469 0.0093378025689 -2.30174974622e-21)
(-0.0174452973152 -0.00015465318044 -1.19423022612e-21)
(-0.0153365009998 0.000663133341612 1.21914137005e-21)
(-0.0150213064034 0.000315603464834 5.06533817666e-22)
(-0.0155087578635 0.00064152642071 1.03722742089e-22)
(-0.0162856982239 0.00071182521877 -1.08542770172e-23)
(-0.0173066306022 0.000855263449293 6.09378881599e-24)
(-0.0185762941178 0.00103530960617 4.22086043156e-24)
(-0.0201070905551 0.00127309103059 -3.51389400346e-23)
(-0.0219293390629 0.0015744645443 -1.05683944331e-24)
(-0.0240754226784 0.00194656265851 7.41681644108e-25)
(-0.0265845207622 0.00246202946578 -3.46394733171e-23)
(-0.0295061954263 0.00313897122337 -3.73140605349e-23)
(-0.0329195420211 0.0040124365465 -6.38172722448e-23)
(-0.0369747955424 0.00538533534788 1.96560528327e-22)
(-0.0421944603623 0.00635617450996 -1.77588499467e-21)
(-0.047470937898 0.0101666527492 7.3625422284e-22)
(-0.0517524214161 0.0101457166207 -5.48216015892e-21)
(-0.073210079504 0.0166658933484 -1.15193212457e-20)
(-0.0639718753862 0.0166403676094 -1.10827487999e-20)
(0.00855122056357 0.00418520320047 -1.35283259951e-21)
(-0.0176246971545 -0.000278915947643 -5.54402038682e-22)
(-0.0153971726631 0.000386390290051 1.4650698631e-21)
(-0.0149916452887 -0.000144009328941 -2.21566611703e-22)
(-0.0155016940242 -8.9380641832e-05 -6.10476649759e-23)
(-0.0163004813349 -0.000205496697588 -5.69600955975e-23)
(-0.0173467484688 -0.000304585703806 -1.61146130665e-23)
(-0.0186454330117 -0.000387477137208 -4.22187500627e-24)
(-0.0202235176655 -0.000438366732449 -2.38363663847e-23)
(-0.0221165727848 -0.000456129539026 -1.40823808109e-23)
(-0.0243419616745 -0.000430360844264 6.77829117161e-24)
(-0.0269538664919 -0.000325704265525 -2.64074585745e-23)
(-0.0300444265727 -0.000120940201164 4.30186956538e-24)
(-0.0336895145034 0.000223332444727 1.38300322973e-22)
(-0.0380946879519 0.00087062472 5.3219437985e-22)
(-0.0438447146098 0.00146889381683 -1.2822412838e-22)
(-0.0501495820407 0.00358939496932 -6.7409771024e-22)
(-0.0564068467122 0.00553281065985 -1.34737121423e-20)
(-0.0726623411518 0.0101101103102 -1.40382985393e-20)
(-0.0597070594889 0.00976997510285 -1.39296758735e-20)
(0.0127212500357 -0.00534851300478 3.42417354168e-21)
(-0.0176041847332 -0.000397173212609 -1.44099045043e-21)
(-0.01520835972 8.47072776559e-05 -8.88040658857e-22)
(-0.0147937956799 -0.000619452907352 -5.84970894761e-22)
(-0.0152675738204 -0.000822999091946 -1.69310117072e-22)
(-0.0160740656432 -0.00115143876318 -4.78429473645e-23)
(-0.0171323673285 -0.00148649151624 -2.41555462298e-24)
(-0.0184409775441 -0.00183470943784 4.92214945288e-24)
(-0.0200302882286 -0.00218974634802 -1.73200504163e-24)
(-0.0219404815517 -0.00253475753091 1.31262749574e-23)
(-0.0242022465728 -0.00288187142871 3.03672639957e-23)
(-0.0268738738192 -0.00322532370303 -2.70648069714e-23)
(-0.0300421779908 -0.00354248035579 -1.05760498514e-23)
(-0.0338166682375 -0.00382726302271 -3.49769776729e-24)
(-0.0384395416715 -0.00402542005868 2.45033567256e-23)
(-0.0444967727912 -0.0041149716686 -5.908804421e-22)
(-0.0520825987689 -0.00395186803328 -6.84081104213e-22)
(-0.0603182681741 -0.00097058574148 -3.70631070443e-21)
(-0.0728053265313 0.000219642637494 -8.90477986477e-21)
(-0.0518531070783 0.000106120768248 -8.9860610424e-21)
(0.0363645495047 -0.00290587123311 -4.99419715463e-21)
(-0.0174044547738 -0.000505513837234 -1.83997143422e-21)
(-0.014841851693 -0.000223262445285 -8.67898950508e-22)
(-0.014388996922 -0.00109764201449 -4.51792292564e-22)
(-0.0148288442475 -0.00154081215593 -1.67925426635e-22)
(-0.0156174469792 -0.00209170060593 -7.16937419059e-23)
(-0.0166577828536 -0.00266914627631 9.51585586915e-24)
(-0.017953645065 -0.00327915739806 1.35445165652e-23)
(-0.0195223840083 -0.00393003713736 7.44100360988e-24)
(-0.0214046315534 -0.00461915960736 -2.47257098593e-24)
(-0.0236546812526 -0.00535434655703 1.72751812087e-23)
(-0.0263018117882 -0.00615041933954 6.24401502315e-24)
(-0.0294503062228 -0.00701331848311 3.24462177663e-24)
(-0.0332057211693 -0.00797381532366 9.16776115863e-23)
(-0.0377973791214 -0.00905633779704 1.84840417769e-22)
(-0.0437994544117 -0.0103351483194 -2.07718482783e-22)
(-0.0521079230585 -0.0123899574659 -6.47617915702e-22)
(-0.0619856911819 -0.0104140210383 4.033337822e-22)
(-0.0756124430965 -0.015570482872 -5.05189975682e-21)
(-0.0578415057265 -0.00873732608839 -5.74041544957e-21)
(0.0113764424304 0.0751206238901 -5.43683830054e-21)
(-0.0170555289308 -0.000606539339238 -1.42428439536e-21)
(-0.0143019019672 -0.000524969383024 -1.95863377708e-22)
(-0.0138105135606 -0.00156612532145 -2.2554674421e-22)
(-0.0141972088892 -0.0022385071298 -1.14094866631e-22)
(-0.0149398753154 -0.00300502417613 -1.12073471785e-23)
(-0.0159337046289 -0.00382118441752 -2.17844125994e-24)
(-0.0171825354293 -0.00469325294761 -1.02724336018e-24)
(-0.0187020812326 -0.00563247800837 1.65053035594e-23)
(-0.0205202269669 -0.00665731547671 1.15816743505e-23)
(-0.0226893440527 -0.0077690682479 1.64310873925e-23)
(-0.0252554268362 -0.0090058545702 -6.6556448198e-24)
(-0.0282737511681 -0.010399751729 -1.17698740405e-23)
(-0.0318593250469 -0.0119853301744 1.51598216645e-22)
(-0.0361617445286 -0.0138530468659 3.37546149583e-22)
(-0.041661007553 -0.0162302345715 -2.37434600546e-22)
(-0.049249733755 -0.0200867320493 -2.83535570819e-21)
(-0.0599204109232 -0.0198131623593 -1.43196749711e-20)
(-0.0861360173382 -0.0279330473427 -5.13526813517e-21)
(-0.122744211667 -0.0202314817749 -2.18415164018e-21)
(-0.113095838157 0.165846505719 1.68926515204e-21)
(-0.0164724520096 -0.000667972406827 -3.62195149215e-22)
(-0.01356042665 -0.000806254841334 9.63705856709e-22)
(-0.0129996366955 -0.00201800497161 1.29660484959e-22)
(-0.0133390301633 -0.0028734846453 2.78851870009e-23)
(-0.0140385775862 -0.0038561619932 -8.6785665093e-25)
(-0.0149776864274 -0.00491054210135 -1.39702599873e-23)
(-0.0161441554787 -0.00604050051891 -1.78205801365e-23)
(-0.0175726667601 -0.00725820725046 -1.25141153801e-23)
(-0.0192864579049 -0.00859561027813 1.29959900369e-23)
(-0.0213231705986 -0.010078381007 -5.96829917658e-24)
(-0.0237359586106 -0.0117190851049 -5.87259068942e-24)
(-0.0265603412076 -0.0135735947448 3.69798031297e-24)
(-0.029884254791 -0.0156833349595 4.9023000581e-23)
(-0.0338327936197 -0.0180921444926 -4.51212179581e-23)
(-0.0387829130462 -0.0209772851634 -1.04710668153e-21)
(-0.0454546376623 -0.0250023492689 -5.61470385433e-21)
(-0.0561689465666 -0.0244134363834 -1.85146932506e-20)
(-0.0908531211364 -0.0294160995947 -7.16054284219e-21)
(-0.183368619873 -0.0274509929602 -1.65354952702e-20)
(-0.115434216528 -0.0233193042248 3.30276490428e-21)
(-0.0156670353922 -0.000751459646951 4.83282562505e-23)
(-0.0126225646166 -0.00107699142042 2.1681519391e-21)
(-0.0119693724385 -0.0024352358619 9.7743672266e-23)
(-0.0122622036173 -0.00349737384663 1.52132438495e-23)
(-0.0129162009246 -0.00467415923247 -2.40802460425e-24)
(-0.0137836928223 -0.00592497597327 7.41906576119e-25)
(-0.0148564164716 -0.00728072668413 -5.28428819013e-25)
(-0.0161616174813 -0.00876492129719 -3.19038171859e-23)
(-0.017722607573 -0.0103960716306 1.57645390584e-24)
(-0.0195932436633 -0.0122058295953 2.46346461432e-24)
(-0.0217885134365 -0.0142264471819 -5.10889772705e-23)
(-0.0243745637676 -0.0165066610324 3.27732923465e-23)
(-0.0274059242028 -0.0190898638787 9.19791261606e-24)
(-0.0310434791361 -0.0220120377686 -1.80935324069e-22)
(-0.0356341403544 -0.0253519079836 -2.41651236906e-21)
(-0.0419885530446 -0.0295997958696 -1.35496080823e-20)
(-0.0525721048464 -0.0299373490736 -2.20305897683e-20)
(-0.0846656412304 -0.033098093194 -6.56074033378e-21)
(-0.183697528311 -0.0429853916602 -5.76745660401e-21)
(-0.0928534571991 -0.0662252823926 1.8423766336e-21)
(-0.0147476123877 -0.00081791378274 -6.2877875119e-22)
(-0.0115432005171 -0.00132434542143 1.84470291351e-22)
(-0.0108307135091 -0.00281319664141 -2.12992254208e-22)
(-0.0110590883277 -0.00405713800503 -6.5720902306e-23)
(-0.0116133787477 -0.00541139299171 -3.77033675076e-23)
(-0.0123739081752 -0.00684961884042 -2.26419930588e-23)
(-0.0133270799256 -0.00841094981347 -1.36600124871e-24)
(-0.0144983436284 -0.0101143271803 -1.51456630132e-23)
(-0.0158996994724 -0.0120151944619 -3.82666740759e-24)
(-0.0175361746705 -0.0141307561097 -5.55754882638e-24)
(-0.0194744583845 -0.0164830479144 -3.41919634048e-23)
(-0.0217621000815 -0.0191512556263 -5.49876245371e-24)
(-0.0244492359056 -0.0221915366129 -3.24636815103e-23)
(-0.0277144213248 -0.025609062987 -1.74888185227e-22)
(-0.0319310152211 -0.0295587588569 -1.54720808297e-21)
(-0.0379200285887 -0.0345187132982 -7.93754870713e-21)
(-0.0478849277664 -0.036519086282 -1.08015091265e-20)
(-0.0758974378731 -0.039314873775 -7.80351778533e-21)
(-0.167080011969 -0.0544139011185 -7.75564198454e-21)
(-0.0856381205264 -0.0868506371038 -2.83015635249e-21)
(-0.0136767453261 -0.000872429099601 -1.16768419246e-21)
(-0.0103159506786 -0.00156432157871 -4.05262753115e-22)
(-0.00951624050799 -0.00317206645419 -3.55836025429e-22)
(-0.00966748096822 -0.00453453563933 -1.38926590308e-22)
(-0.0101359859263 -0.00602634799646 -4.64860486859e-23)
(-0.0107916600333 -0.00763805863291 -5.23727393754e-24)
(-0.0116177476271 -0.00939760097377 -5.01823327495e-24)
(-0.012601399753 -0.0113268420432 -1.12476184387e-23)
(-0.0137920471518 -0.0134206856428 1.37573963395e-23)
(-0.0151762590859 -0.0157660371707 -7.20434611713e-24)
(-0.0168216053678 -0.018433909743 -1.42449575578e-23)
(-0.0187555644922 -0.02144355194 1.57085755059e-23)
(-0.0210563703895 -0.0248901480265 -4.58033943624e-23)
(-0.023832420747 -0.0288092514159 -9.48467239214e-23)
(-0.0275531742305 -0.0333992209007 -3.43605444812e-22)
(-0.0328943767632 -0.0392882950249 -4.31170928536e-21)
(-0.0416430070792 -0.0433958990501 -4.3936559685e-21)
(-0.0649418450728 -0.0458757462959 -6.99380352797e-21)
(-0.141867786194 -0.064800608175 -6.30904310489e-21)
(-0.0756632140826 -0.10430549143 -4.6919600655e-21)
(-0.0124640610196 -0.000908442285738 -1.28303146853e-21)
(-0.00894934602377 -0.00175144117212 3.44930636992e-24)
(-0.00805261645687 -0.0034516103142 2.26965820326e-22)
(-0.00811321659621 -0.00495009715065 -5.90144441051e-23)
(-0.00850131794355 -0.00657650677775 -1.75198662674e-23)
(-0.00904066843279 -0.00833024313636 4.82770423166e-24)
(-0.00971300977457 -0.010211533105 4.57274900731e-24)
(-0.0104963790376 -0.0122763178746 9.03986610889e-24)
(-0.0114403490757 -0.0145755327028 5.9534258216e-24)
(-0.0125665546234 -0.0171441738375 6.57134160856e-24)
(-0.0138681987291 -0.0200429233658 8.05953396716e-24)
(-0.0153854580978 -0.0233494890132 3.59011352378e-23)
(-0.0171890846133 -0.0271253962635 2.85171156711e-23)
(-0.0193920578991 -0.0314522168029 -1.84869029251e-22)
(-0.0223976190878 -0.0366804270519 -1.89079833941e-21)
(-0.026717790739 -0.0435135076152 -3.95394968087e-21)
(-0.0337334072655 -0.0496102389174 -3.27348089496e-21)
(-0.0519828968876 -0.052015439958 -4.17595569423e-21)
(-0.112753174708 -0.0739080146492 -3.38573614366e-21)
(-0.0639594962789 -0.115990354481 -7.86308063598e-22)
(-0.0111648962561 -0.000929717400941 -9.77194635732e-22)
(-0.00751790046624 -0.00191841266425 -1.38631783412e-22)
(-0.00651363024972 -0.00368848622161 1.34952916982e-22)
(-0.00648130264364 -0.00527461793469 7.23853326752e-23)
(-0.00675777400438 -0.00699683085593 1.89124563965e-24)
(-0.00716080562041 -0.00884678842315 -7.19364475559e-24)
(-0.00765631332733 -0.0108415970711 -8.49411669516e-24)
(-0.00826665425083 -0.0130394022497 -2.12917225058e-24)
(-0.00895729808938 -0.0154741619669 -8.16351624243e-24)
(-0.00976433744636 -0.0181755032093 3.2138537434e-24)
(-0.0106833738115 -0.02123170202 1.28096376542e-23)
(-0.0117407880401 -0.0247289798731 7.57844216526e-24)
(-0.012957799518 -0.0287646758511 6.90044414783e-23)
(-0.014464163552 -0.0333958837938 1.98510835658e-22)
(-0.0165645471047 -0.0389856582149 3.65154480905e-22)
(-0.0195099656632 -0.0466964514664 -5.32953082931e-21)
(-0.0242790290832 -0.0545106989483 -5.45746453361e-21)
(-0.0373612439215 -0.0572283297541 -2.68956850212e-21)
(-0.0835232695317 -0.0803925058649 -3.07884430256e-21)
(-0.0508901535636 -0.12042559327 3.11200220659e-21)
(-0.00976589438824 -0.000948805601147 -8.01474566026e-22)
(-0.00598090786078 -0.00203743373133 4.3604328175e-22)
(-0.00488443627148 -0.00383022326714 1.00637780421e-22)
(-0.00475967717615 -0.00550083352549 6.53053936946e-23)
(-0.0049285049493 -0.00729840030954 5.1160428936e-24)
(-0.00519638216736 -0.00922201830061 -1.09370141048e-23)
(-0.0055264277463 -0.0113019272034 -1.79876884994e-23)
(-0.00591962668892 -0.0135594886842 -1.84453823483e-23)
(-0.00635003153275 -0.0160540310019 -1.80617438104e-23)
(-0.00683497618237 -0.0188498690665 -2.58382905364e-23)
(-0.00737106956674 -0.0219960894534 8.75648153075e-24)
(-0.00794458123863 -0.0255889436253 -2.2980267437e-23)
(-0.00855339046516 -0.0297301341159 1.58774166658e-22)
(-0.00926111595718 -0.0344690306574 5.11187957415e-22)
(-0.0103262498262 -0.0401563381656 1.59268697943e-22)
(-0.0117309093986 -0.0484732787422 -4.11794131315e-21)
(-0.0137621649691 -0.0572777369652 -5.9380762368e-22)
(-0.0214694444328 -0.0609336098822 -5.92662305088e-21)
(-0.0571324322816 -0.083432886607 -8.68546478973e-21)
(-0.0373375949342 -0.116847854568 -3.46557660537e-22)
(-0.00826922426277 -0.000936726556086 -4.99599591406e-22)
(-0.00436394453006 -0.00212927148056 3.70495383998e-23)
(-0.00319803796016 -0.00393448920829 -3.70937202444e-23)
(-0.00298341428789 -0.00563474406169 7.57694459817e-23)
(-0.00304383182384 -0.00747249938316 -5.63246456316e-24)
(-0.00317282510844 -0.00943284999181 -1.7002831829e-23)
(-0.00332782789092 -0.0115450872155 -1.33864593834e-23)
(-0.00349646623472 -0.013841976231 -1.90935392955e-23)
(-0.0036857439023 -0.0163679324761 -2.65559725007e-23)
(-0.00386567883154 -0.0191742529855 -2.40940213351e-23)
(-0.00401940531213 -0.0223160925792 -2.06532564801e-23)
(-0.00411619870769 -0.0258760644651 -1.15409717641e-23)
(-0.0041090815922 -0.0299761167568 1.60769364208e-22)
(-0.0040163519947 -0.0346145907725 1.65822277999e-22)
(-0.00400064556442 -0.0400480378612 5.04122332492e-22)
(-0.00380125310932 -0.0484365742911 -3.57873709006e-21)
(-0.00301177440727 -0.0573659799563 -7.28170884061e-21)
(-0.00520455209282 -0.0624843059629 -5.37474626157e-21)
(-0.0386208865094 -0.0826016035905 -6.11021513126e-21)
(-0.0252837867395 -0.105052692371 -3.37007594234e-21)
(-0.00679802183302 -0.00088831290315 -4.02585319283e-22)
(-0.0027599428569 -0.00216789403265 1.10283689512e-22)
(-0.00148942330492 -0.00395276709542 -2.58143461063e-22)
(-0.00118258350071 -0.00566816844215 -4.5484719599e-23)
(-0.00113515075533 -0.00752209565006 -3.80398158521e-23)
(-0.00112859389292 -0.00948869478364 -1.53767083214e-23)
(-0.00111789512985 -0.0116016641154 -6.75914983468e-24)
(-0.0010892784967 -0.0138930596543 -4.20563246374e-24)
(-0.00103178477038 -0.0163988330739 -1.46596200418e-23)
(-0.000921761738748 -0.0191585948192 -2.54557048459e-23)
(-0.000723968559851 -0.0222189029867 4.56171527547e-24)
(-0.000391425939157 -0.0256411564997 -3.86120183194e-23)
(0.000153258918409 -0.0295331591527 1.90971030755e-22)