/*--------------------------------*- C++ -*----------------------------------*\
| =========                 |                                                 |
| \\      /  F ield         | OpenFOAM: The Open Source CFD Toolbox           |
|  \\    /   O peration     | Version:  v2012                                 |
|   \\  /    A nd           | Website:  www.openfoam.com                      |
|    \\/     M anipulation  |                                                 |
\*---------------------------------------------------------------------------*/
FoamFile
{
    version     2.0;
    format      ascii;
    class       volScalarField;
    location    "4.8";
    object      alpha.water;
}
// * * * * * * * * * * * * * * * * * * * * * * * * * * * * * * * * * * * * * //

dimensions      [0 0 0 0 0 0 0];


internalField   nonuniform List<scalar> 
167
(
1.00000015958
0.999998336001
0.999999102392
1.00000327515
1
0.999999985317
0.717746130302
0.0415835960187
-4.01020959424e-17
1.00000083802
1.00000130145
1.00000363954
1.00000000001
0.999999966018
0.736876714966
0.0501959909389
-1.70733390941e-19
1.0000029594
1.00000314303
1.00000358135
1.00000000369
0.999999979413
0.757117794615
0.0619960041093
-8.36450292121e-18
1.00000265751
1.00000371367
1.00000418859
1.00000359156
1.00000001325
1.00000004384
0.778185386636
0.0766201016425
-2.98374213421e-18
1.00000111529
1.00000322127
1.00000444288
1.00000393881
1.00000001303
1.00000000072
0.798291623047
0.0934576272205
-1.73014368649e-18
0.99999979862
1.00000223218
1.00000394236
1.00000365336
1.00000000379
0.999999956293
0.81584545
0.1125130336
-1.22736599786e-17
0.999996658183
0.999998998558
1.00000077387
1.00000240284
1.00000199259
1.00000000105
0.999999935881
0.835812067334
0.13185665699
-1.98797059351e-17
0.999993084502
0.999995849362
0.999997973648
0.999999359165
0.999999863118
0.999999973439
0.999999995731
0.999999796264
0.861513495679
0.15199039478
-2.35486043347e-19
0.999989176638
0.999994511148
0.999995659368
0.99999587194
0.999996234027
0.999997549485
0.999999246396
0.999998806371
0.887732236435
0.174997756506
-1.54082938738e-19
0.999986397008
0.999991494205
0.999991892905
0.999991606388
0.999992868531
0.999995847281
0.999996280932
0.906993760812
0.199035685331
-4.76842757917e-22
0.999979972314
0.99998627483
0.999987738383
0.999987357243
0.999988514709
0.999992729358
0.999992410207
0.925321977339
0.228773756746
-1.91164294913e-22
0.999973354925
0.999982358968
0.999984568444
0.99998319711
0.999984931792
0.999991510465
0.999990859625
0.947098078962
0.262030170874
-4.4015975326e-21
0.999969463614
0.999977337668
0.999982020272
0.999980171199
0.999983240515
0.999991415103
0.999991398686
0.965467029267
0.289707433693
-2.99897531323e-25
0.999969759813
0.999977284814
0.999980786947
0.999980004875
0.999983068724
0.999991798757
0.999991480255
0.97606067513
0.309758072481
-6.41976648129e-36
0.999966761816
0.999974605674
0.999979492459
0.999979639538
0.999980524697
0.999984734073
0.999992448992
0.999992052321
0.977545584372
0.324585811158
1.83670992316e-38
0.999967135378
0.999977991982
0.99998172472
0.999981839457
0.999982418498
0.99998571909
0.999993254774
0.999993206121
0.970855005092
0.347613017333
-1.27447352891e-55
0.999980476913
0.999988927075
0.999991372414
0.999991783535
0.999992547185
0.999993790492
0.999993783673
0.999993776855
0.945926215296
0.426588561301
0.00200003369328
)
;

boundaryField
{
    back
    {
        type            zeroGradient;
    }
    sides
    {
        type            zeroGradient;
    }
    bottom
    {
        type            zeroGradient;
    }
    front
    {
        type            zeroGradient;
    }
    atmosphere
    {
        type            inletOutlet;
        inletValue      uniform 0;
        value           nonuniform List<scalar> 
17
(
0
0
0
0
0
0
0
0
0
0
0
0
0
0
0
0
0.00200003369328
)
;
    }
    floatingObject
    {
        type            zeroGradient;
    }
    procBoundary11to9
    {
        type            processor;
        value           nonuniform List<scalar> 9(0.999998788985 0.999996233213 0.999995812374 1.00000141957 1 0.999999998836 0.699554643849 0.035226084231 -3.08236519316e-14);
    }
    procBoundary11to10
    {
        type            processor;
        value           nonuniform List<scalar> 
23
(
0.999999699717
1.00000115873
1.00000115873
1.00000254733
1.00000254733
1.00000136408
1.00000096706
0.999999324225
0.999999324225
0.999997355715
0.999997355715
0.999996515413
0.999994777499
0.999986396834
0.999986396834
0.999986922436
0.999983967298
0.999982913098
0.999976119145
0.999976119145
0.999978684365
0.999981739719
0.999988860813
)
;
    }
}


// ************************************************************************* //
