/*--------------------------------*- C++ -*----------------------------------*\
| =========                 |                                                 |
| \\      /  F ield         | OpenFOAM: The Open Source CFD Toolbox           |
|  \\    /   O peration     | Version:  v2012                                 |
|   \\  /    A nd           | Website:  www.openfoam.com                      |
|    \\/     M anipulation  |                                                 |
\*---------------------------------------------------------------------------*/
FoamFile
{
    version     2.0;
    format      ascii;
    class       volScalarField;
    location    "4.8";
    object      epsilon;
}
// * * * * * * * * * * * * * * * * * * * * * * * * * * * * * * * * * * * * * //

dimensions      [0 2 -3 0 0 0 0];


internalField   nonuniform List<scalar> 
167
(
0.000827272499365
0.000852644768463
0.000914453384895
0.00108598317307
0.00159161314937
0.00320082079288
0.010496835897
0.048753934428
0.165017534571
0.000850737914124
0.000912491252936
0.00108284260711
0.00158423162626
0.0031530609875
0.00995327975976
0.0465172129387
0.164474720987
0.000848749935101
0.000910558003397
0.00108030503348
0.00158330309437
0.00315350352077
0.00960017848569
0.0435651417203
0.1633406608
0.00082048436791
0.00084696207934
0.000909435644787
0.00107957108968
0.0015829801186
0.0031316224847
0.00915047257335
0.0409991069835
0.162690414412
0.000818172460074
0.000845310692955
0.000908903304685
0.00107972773602
0.0015704061324
0.00302166030688
0.00853922352322
0.0400856808429
0.162578385378
0.00081580853138
0.000843526369467
0.0009079902985
0.00107880618905
0.00155850937495
0.00293038980078
0.00805005916082
0.0381964542472
0.160578792296
0.000799346768481
0.000813356768405
0.000841456710888
0.000906178226742
0.00107602009986
0.00155066334621
0.00290799952438
0.00782029906274
0.0346135879778
0.155270381338
0.000788280853222
0.000796565987276
0.00081084391506
0.000839154608349
0.000903478536911
0.00107045982042
0.00153420187089
0.00284190579191
0.0074060494506
0.0313513229526
0.150392306869
0.000785296093486
0.000793795651047
0.000808339267388
0.000836854662838
0.000900853659495
0.0010654669728
0.00151843700251
0.00276612969931
0.0068774204603
0.0268032474984
0.131877392213
0.000791011676134
0.000805856420765
0.000834718357188
0.000898924567782
0.00106266220006
0.00150779497843
0.00272350046035
0.0067387641074
0.0261948570056
0.126261823509
0.000788121516585
0.000803296500078
0.0008326317641
0.000897397565753
0.00106075599889
0.00149827619706
0.00266793852314
0.00649955170518
0.0255460718901
0.127682011522
0.000784668252002
0.000800180857449
0.000830036889692
0.000895419033599
0.00105811855708
0.00148762961334
0.00261421412315
0.00629557368945
0.0250864346029
0.115474405304
0.000779337737957
0.000795134435445
0.00082542845007
0.000891246094977
0.00105303987576
0.00147444538561
0.00256232829076
0.00615205916929
0.0260844871086
0.139737496945
0.000768577623314
0.000784426105003
0.000814781094174
0.000880361485895
0.00104011561104
0.00145438389988
0.00251660302917
0.00598874512587
0.0270550668935
0.160102524176
0.000733557005359
0.000742839645625
0.000758220484804
0.000787542474667
0.000850717297528
0.00100483519977
0.00140821342008
0.00244909571213
0.00579904954465
0.0267405754274
0.178284415929
0.000668796031603
0.000677368065696
0.000691234687526
0.000717274472523
0.000773012689025
0.000910097115098
0.00127702315543
0.00224472997978
0.00532134903274
0.025910018169
0.199517465334
0.000643123030935
0.00065206234321
0.000665465121487
0.000688965604487
0.00073665398514
0.000851402794626
0.00117429707485
0.00208514125105
0.0049605827226
0.0229249032352
0.208256725942
)
;

boundaryField
{
    back
    {
        lowReCorrection 0;
        blending        stepwise;
        n               2;
        type            epsilonWallFunction;
        value           nonuniform List<scalar> 
167
(
0.000827272499365
0.000852644768463
0.000914453384895
0.00108598317307
0.00159161314937
0.00320082079288
0.010496835897
0.048753934428
0.165017534571
0.000850737914124
0.000912491252936
0.00108284260711
0.00158423162626
0.0031530609875
0.00995327975976
0.0465172129387
0.164474720987
0.000848749935101
0.000910558003397
0.00108030503348
0.00158330309437
0.00315350352077
0.00960017848569
0.0435651417203
0.1633406608
0.00082048436791
0.00084696207934
0.000909435644787
0.00107957108968
0.0015829801186
0.0031316224847
0.00915047257335
0.0409991069835
0.162690414412
0.000818172460074
0.000845310692955
0.000908903304685
0.00107972773602
0.0015704061324
0.00302166030688
0.00853922352322
0.0400856808429
0.162578385378
0.00081580853138
0.000843526369467
0.0009079902985
0.00107880618905
0.00155850937495
0.00293038980078
0.00805005916082
0.0381964542472
0.160578792296
0.000799346768481
0.000813356768405
0.000841456710888
0.000906178226742
0.00107602009986
0.00155066334621
0.00290799952438
0.00782029906274
0.0346135879778
0.155270381338
0.000788280853222
0.000796565987276
0.00081084391506
0.000839154608349
0.000903478536911
0.00107045982042
0.00153420187089
0.00284190579191
0.0074060494506
0.0313513229526
0.150392306869
0.000785296093486
0.000793795651047
0.000808339267388
0.000836854662838
0.000900853659495
0.0010654669728
0.00151843700251
0.00276612969931
0.0068774204603
0.0268032474984
0.131877392213
0.000791011676134
0.000805856420765
0.000834718357188
0.000898924567782
0.00106266220006
0.00150779497843
0.00272350046035
0.0067387641074
0.0261948570056
0.126261823509
0.000788121516585
0.000803296500078
0.0008326317641
0.000897397565753
0.00106075599889
0.00149827619706
0.00266793852314
0.00649955170518
0.0255460718901
0.127682011522
0.000784668252002
0.000800180857449
0.000830036889692
0.000895419033599
0.00105811855708
0.00148762961334
0.00261421412315
0.00629557368945
0.0250864346029
0.115474405304
0.000779337737957
0.000795134435445
0.00082542845007
0.000891246094977
0.00105303987576
0.00147444538561
0.00256232829076
0.00615205916929
0.0260844871086
0.139737496945
0.000768577623314
0.000784426105003
0.000814781094174
0.000880361485895
0.00104011561104
0.00145438389988
0.00251660302917
0.00598874512587
0.0270550668935
0.160102524176
0.000733557005359
0.000742839645625
0.000758220484804
0.000787542474667
0.000850717297528
0.00100483519977
0.00140821342008
0.00244909571213
0.00579904954465
0.0267405754274
0.178284415929
0.000668796031603
0.000677368065696
0.000691234687526
0.000717274472523
0.000773012689025
0.000910097115098
0.00127702315543
0.00224472997978
0.00532134903274
0.025910018169
0.199517465334
0.000643123030935
0.00065206234321
0.000665465121487
0.000688965604487
0.00073665398514
0.000851402794626
0.00117429707485
0.00208514125105
0.0049605827226
0.0229249032352
0.208256725942
)
;
    }
    sides
    {
        lowReCorrection 0;
        blending        stepwise;
        n               2;
        type            epsilonWallFunction;
        value           nonuniform List<scalar> 
11
(
0.000643123030935
0.00065206234321
0.000665465121487
0.000688965604487
0.00073665398514
0.000851402794626
0.00117429707485
0.00208514125105
0.0049605827226
0.0229249032352
0.208256725942
)
;
    }
    bottom
    {
        lowReCorrection 0;
        blending        stepwise;
        n               2;
        type            epsilonWallFunction;
        value           nonuniform List<scalar> 0();
    }
    front
    {
        lowReCorrection 0;
        blending        stepwise;
        n               2;
        type            epsilonWallFunction;
        value           nonuniform List<scalar> 
167
(
0.000827272499365
0.000852644768463
0.000914453384895
0.00108598317307
0.00159161314937
0.00320082079288
0.010496835897
0.048753934428
0.165017534571
0.000850737914124
0.000912491252936
0.00108284260711
0.00158423162626
0.0031530609875
0.00995327975976
0.0465172129387
0.164474720987
0.000848749935101
0.000910558003397
0.00108030503348
0.00158330309437
0.00315350352077
0.00960017848569
0.0435651417203
0.1633406608
0.00082048436791
0.00084696207934
0.000909435644787
0.00107957108968
0.0015829801186
0.0031316224847
0.00915047257335
0.0409991069835
0.162690414412
0.000818172460074
0.000845310692955
0.000908903304685
0.00107972773602
0.0015704061324
0.00302166030688
0.00853922352322
0.0400856808429
0.162578385378
0.00081580853138
0.000843526369467
0.0009079902985
0.00107880618905
0.00155850937495
0.00293038980078
0.00805005916082
0.0381964542472
0.160578792296
0.000799346768481
0.000813356768405
0.000841456710888
0.000906178226742
0.00107602009986
0.00155066334621
0.00290799952438
0.00782029906274
0.0346135879778
0.155270381338
0.000788280853222
0.000796565987276
0.00081084391506
0.000839154608349
0.000903478536911
0.00107045982042
0.00153420187089
0.00284190579191
0.0074060494506
0.0313513229526
0.150392306869
0.000785296093486
0.000793795651047
0.000808339267388
0.000836854662838
0.000900853659495
0.0010654669728
0.00151843700251
0.00276612969931
0.0068774204603
0.0268032474984
0.131877392213
0.000791011676134
0.000805856420765
0.000834718357188
0.000898924567782
0.00106266220006
0.00150779497843
0.00272350046035
0.0067387641074
0.0261948570056
0.126261823509
0.000788121516585
0.000803296500078
0.0008326317641
0.000897397565753
0.00106075599889
0.00149827619706
0.00266793852314
0.00649955170518
0.0255460718901
0.127682011522
0.000784668252002
0.000800180857449
0.000830036889692
0.000895419033599
0.00105811855708
0.00148762961334
0.00261421412315
0.00629557368945
0.0250864346029
0.115474405304
0.000779337737957
0.000795134435445
0.00082542845007
0.000891246094977
0.00105303987576
0.00147444538561
0.00256232829076
0.00615205916929
0.0260844871086
0.139737496945
0.000768577623314
0.000784426105003
0.000814781094174
0.000880361485895
0.00104011561104
0.00145438389988
0.00251660302917
0.00598874512587
0.0270550668935
0.160102524176
0.000733557005359
0.000742839645625
0.000758220484804
0.000787542474667
0.000850717297528
0.00100483519977
0.00140821342008
0.00244909571213
0.00579904954465
0.0267405754274
0.178284415929
0.000668796031603
0.000677368065696
0.000691234687526
0.000717274472523
0.000773012689025
0.000910097115098
0.00127702315543
0.00224472997978
0.00532134903274
0.025910018169
0.199517465334
0.000643123030935
0.00065206234321
0.000665465121487
0.000688965604487
0.00073665398514
0.000851402794626
0.00117429707485
0.00208514125105
0.0049605827226
0.0229249032352
0.208256725942
)
;
    }
    atmosphere
    {
        type            inletOutlet;
        inletValue      uniform 0.1;
        value           nonuniform List<scalar> 
17
(
0.1
0.1
0.1
0.1
0.1
0.1
0.1
0.1
0.1
0.1
0.1
0.1
0.1
0.1
0.1
0.1
0.208256725942
)
;
    }
    floatingObject
    {
        lowReCorrection 0;
        blending        stepwise;
        n               2;
        type            epsilonWallFunction;
        value           nonuniform List<scalar> 0();
    }
    procBoundary11to9
    {
        type            processor;
        value           nonuniform List<scalar> 9(0.000829303873426 0.000854273188574 0.000915823600826 0.00108851767104 0.00160569876036 0.00330025421922 0.0111629573117 0.050209274297 0.16472514415);
    }
    procBoundary11to10
    {
        type            processor;
        value           nonuniform List<scalar> 
23
(
0.000815110589532
0.00082507485385
0.00082507485385
0.000822788992736
0.000822788992736
0.000807510808815
0.000804838704952
0.000802108876135
0.000802108876135
0.000791276741831
0.000791276741831
0.000782654790272
0.000779493553786
0.00078229329922
0.00078229329922
0.00077918884216
0.000775515196489
0.000770027516993
0.000759175606955
0.000759175606955
0.000727039152859
0.000662591728323
0.000636152467399
)
;
    }
}


// ************************************************************************* //
