/*--------------------------------*- C++ -*----------------------------------*\
| =========                 |                                                 |
| \\      /  F ield         | OpenFOAM: The Open Source CFD Toolbox           |
|  \\    /   O peration     | Version:  v2012                                 |
|   \\  /    A nd           | Website:  www.openfoam.com                      |
|    \\/     M anipulation  |                                                 |
\*---------------------------------------------------------------------------*/
FoamFile
{
    version     2.0;
    format      ascii;
    class       volScalarField;
    location    "4.8";
    object      nut;
}
// * * * * * * * * * * * * * * * * * * * * * * * * * * * * * * * * * * * * * //

dimensions      [0 2 -1 0 0 0 0];


internalField   nonuniform List<scalar> 
167
(
0.000514276270399
0.000519650935006
0.000532429398904
0.00056519348043
0.000645268403188
0.000830662957154
0.00127836981551
0.00206818075936
0.00306394210777
0.000519349076388
0.000532309207693
0.000565459963871
0.000646551189551
0.000832662486388
0.00127357377752
0.00205802669884
0.00306514518583
0.000519023257037
0.000532172418361
0.000565802301833
0.000648659196201
0.000836976324486
0.00126648439947
0.00205113158213
0.00307028014202
0.000512962437841
0.000518726293479
0.000532147868271
0.000566261463748
0.000649986830811
0.000836994012501
0.0012588064978
0.00207229937721
0.00308212437681
0.000512503909026
0.000518442641633
0.000532170302019
0.000566431669224
0.000647890154648
0.000826454601381
0.00125084888767
0.00211294563722
0.00309506200093
0.000512026458124
0.000518115445577
0.000532061769068
0.000566297450962
0.000645592894359
0.000815057411067
0.0012269082729
0.00209613673785
0.00309537723569
0.00050843892608
0.000511525304722
0.000517718443427
0.000531777489443
0.000566060309438
0.000645332051639
0.000813018922222
0.00119503575019
0.00199350948587
0.00308870615098
0.000506031484464
0.000507853703665
0.000511003341042
0.0005172529405
0.00053127592198
0.000565237660113
0.000643811572659
0.00080950613127
0.001178555725
0.0019605404104
0.00308778479106
0.000505394252127
0.000507266300775
0.000510476097258
0.000516773586448
0.000530741018443
0.000564320664937
0.000641710698168
0.000802618390748
0.00115928055775
0.00198571464181
0.00317943919055
0.000506673657606
0.000509948485082
0.000516313231385
0.000530283498671
0.00056354783648
0.000639338814542
0.000797379501213
0.00115174598027
0.00197019690756
0.00320008436797
0.000506054312965
0.000509397603932
0.000515845296834
0.000529822500365
0.000562546716241
0.000635476602638
0.000784189641362
0.00111958757159
0.00192517230261
0.00316923586703
0.000505310196975
0.000508724289081
0.000515261196657
0.000529245379755
0.000561313807838
0.000631265616904
0.000768511031125
0.00106793341166
0.00181231743842
0.00325510401953
0.000504158184215
0.000507634172783
0.000514259803389
0.00052826774765
0.000559857105056
0.00062758273512
0.000757927290856
0.00103969376827
0.00176557949322
0.00312452243886
0.000501797032288
0.000505311283171
0.000511986274773
0.00052599145853
0.000557282028684
0.00062402642096
0.00075179773428
0.00102928710929
0.00178660218358
0.0031264998782
0.000493968208896
0.000496067477893
0.000499556394547
0.000506136830752
0.000519920689689
0.00055084788118
0.000617579729042
0.000745584693516
0.00101908932499
0.00183340244704
0.00324454473605
0.000478883272507
0.000480942072178
0.000484276536027
0.000490476430486
0.000503428895288
0.000532928414056
0.000598416131236
0.000728346449697
0.00101463161633
0.00188831061794
0.00335620403275
0.000321988509617
0.000323476441215
0.000325711495011
0.000329604496607
0.000337383513977
0.000355197225187
0.000398112695003
0.000491042665854
0.000717426366314
0.0012063734321
0.00245492882952
)
;

boundaryField
{
    back
    {
        type            nutkWallFunction;
        blending        stepwise;
        Cmu             0.09;
        kappa           0.41;
        E               9.8;
        value           nonuniform List<scalar> 
167
(
5.44932676812e-05
5.49992170848e-05
5.61920253858e-05
5.92332915521e-05
6.65924844447e-05
8.26774211637e-05
0.00011954856558
0.00019376447801
0.000346420298478
5.49639293306e-05
5.61616780293e-05
5.92006211122e-05
6.65521647819e-05
8.24402714865e-05
0.000118004245273
0.000190764538847
0.000346189081468
5.4926825261e-05
5.61312941304e-05
5.91771747329e-05
6.65925793887e-05
8.25398558973e-05
0.000116884303041
0.000187108230137
0.000345771602878
5.43595144162e-05
5.48933199305e-05
5.6114951991e-05
5.91789464393e-05
6.6620467054e-05
8.24096393183e-05
0.000115450022512
0.00018439820915
0.000345760579012
5.43135574763e-05
5.48621117972e-05
5.61080133725e-05
5.91849471719e-05
6.64508658754e-05
8.15071069282e-05
0.000113479339132
0.000183816575994
0.000346039097957
5.42662866967e-05
5.48278547337e-05
5.60925781246e-05
5.91702589606e-05
6.62824405274e-05
8.06852552409e-05
0.000111471099107
0.000181122454871
0.000345063361117
5.3928710219e-05
5.42170381966e-05
5.47876489983e-05
5.6060263808e-05
5.91298188288e-05
6.6200301637e-05
8.04987595416e-05
0.000110073703698
0.00017483773254
0.000342234658784
5.36998188956e-05
5.3871826799e-05
5.41662794302e-05
5.4742289106e-05
5.6010181601e-05
5.90406151968e-05
6.6004353552e-05
8.00000988335e-05
0.000108371114002
0.000170099031221
0.00033970643844
5.36380833272e-05
5.38149461331e-05
5.4115434552e-05
5.46965614526e-05
5.59602769223e-05
5.89560589458e-05
6.58005138258e-05
7.93554813844e-05
0.000106156753229
0.000164448463337
0.000331812589338
5.37576227386e-05
5.40648300714e-05
5.4653663724e-05
5.59220063052e-05
5.89023399107e-05
6.56400088568e-05
7.89579648141e-05
0.000105506157411
0.000163169201147
0.000328993733307
5.36979002907e-05
5.40124018145e-05
5.4611267717e-05
5.58893102157e-05
5.88544663607e-05
6.54552315986e-05
7.82910943237e-05
0.000103967189711
0.000161265250818
0.000329107311977
5.36262899491e-05
5.39484038814e-05
5.45584142291e-05
5.5847390105e-05
5.87917795238e-05
6.52503755227e-05
7.75725509715e-05
0.000102109208505
0.000158301719452
0.000323561758211
5.3515339716e-05
5.38444767284e-05
5.44652012583e-05
5.57645819185e-05
5.86927382893e-05
6.50317564976e-05
7.69764839973e-05
0.000100954954901
0.000158699017655
0.000334919139624
5.32892784194e-05
5.36225486145e-05
5.42497558318e-05
5.55542276887e-05
5.84666811304e-05
6.47456534419e-05
7.65204226727e-05
0.000100108111947
0.00016041525523
0.00034562222297
5.25381607729e-05
5.27396564693e-05
5.30708680964e-05
5.36909102505e-05
5.49773899811e-05
5.7856296893e-05
6.41205833003e-05
7.59052420149e-05
9.91526630203e-05
0.000160905728906
0.000357310897598
5.1082285873e-05
5.1280675875e-05
5.15989078841e-05
5.21860383092e-05
5.33985670479e-05
5.61429628089e-05
6.22617689237e-05
7.40208826487e-05
9.71362861981e-05
0.000160791853609
0.000369532392037
4.62529542619e-05
4.64473884911e-05
4.67364107764e-05
4.72350022639e-05
4.82160275651e-05
5.04192998442e-05
5.56750070263e-05
6.65463482272e-05
8.83524872473e-05
0.000141108082134
0.000319400211843
)
;
    }
    sides
    {
        type            nutkWallFunction;
        blending        stepwise;
        Cmu             0.09;
        kappa           0.41;
        E               9.8;
        value           nonuniform List<scalar> 
11
(
2.45393055581e-05
2.46433612814e-05
2.4798032201e-05
2.5064838824e-05
2.55897485502e-05
2.67683683627e-05
2.95784564394e-05
3.5385569892e-05
4.70158474085e-05
7.50881540798e-05
0.000169712089579
)
;
    }
    bottom
    {
        type            nutkWallFunction;
        blending        stepwise;
        Cmu             0.09;
        kappa           0.41;
        E               9.8;
        value           nonuniform List<scalar> 0();
    }
    front
    {
        type            nutkWallFunction;
        blending        stepwise;
        Cmu             0.09;
        kappa           0.41;
        E               9.8;
        value           nonuniform List<scalar> 
167
(
5.44932676812e-05
5.49992170848e-05
5.61920253858e-05
5.92332915521e-05
6.65924844447e-05
8.26774211637e-05
0.00011954856558
0.00019376447801
0.000346420298478
5.49639293306e-05
5.61616780293e-05
5.92006211122e-05
6.65521647819e-05
8.24402714865e-05
0.000118004245273
0.000190764538847
0.000346189081468
5.4926825261e-05
5.61312941304e-05
5.91771747329e-05
6.65925793887e-05
8.25398558973e-05
0.000116884303041
0.000187108230137
0.000345771602878
5.43595144162e-05
5.48933199305e-05
5.6114951991e-05
5.91789464393e-05
6.6620467054e-05
8.24096393183e-05
0.000115450022512
0.00018439820915
0.000345760579012
5.43135574763e-05
5.48621117972e-05
5.61080133725e-05
5.91849471719e-05
6.64508658754e-05
8.15071069282e-05
0.000113479339132
0.000183816575994
0.000346039097957
5.42662866967e-05
5.48278547337e-05
5.60925781246e-05
5.91702589606e-05
6.62824405274e-05
8.06852552409e-05
0.000111471099107
0.000181122454871
0.000345063361117
5.3928710219e-05
5.42170381966e-05
5.47876489983e-05
5.6060263808e-05
5.91298188288e-05
6.6200301637e-05
8.04987595416e-05
0.000110073703698
0.00017483773254
0.000342234658784
5.36998188956e-05
5.3871826799e-05
5.41662794302e-05
5.4742289106e-05
5.6010181601e-05
5.90406151968e-05
6.6004353552e-05
8.00000988335e-05
0.000108371114002
0.000170099031221
0.00033970643844
5.36380833272e-05
5.38149461331e-05
5.4115434552e-05
5.46965614526e-05
5.59602769223e-05
5.89560589458e-05
6.58005138258e-05
7.93554813844e-05
0.000106156753229
0.000164448463337
0.000331812589338
5.37576227386e-05
5.40648300714e-05
5.4653663724e-05
5.59220063052e-05
5.89023399107e-05
6.56400088568e-05
7.89579648141e-05
0.000105506157411
0.000163169201147
0.000328993733307
5.36979002907e-05
5.40124018145e-05
5.4611267717e-05
5.58893102157e-05
5.88544663607e-05
6.54552315986e-05
7.82910943237e-05
0.000103967189711
0.000161265250818
0.000329107311977
5.36262899491e-05
5.39484038814e-05
5.45584142291e-05
5.5847390105e-05
5.87917795238e-05
6.52503755227e-05
7.75725509715e-05
0.000102109208505
0.000158301719452
0.000323561758211
5.3515339716e-05
5.38444767284e-05
5.44652012583e-05
5.57645819185e-05
5.86927382893e-05
6.50317564976e-05
7.69764839973e-05
0.000100954954901
0.000158699017655
0.000334919139624
5.32892784194e-05
5.36225486145e-05
5.42497558318e-05
5.55542276887e-05
5.84666811304e-05
6.47456534419e-05
7.65204226727e-05
0.000100108111947
0.00016041525523
0.00034562222297
5.25381607729e-05
5.27396564693e-05
5.30708680964e-05
5.36909102505e-05
5.49773899811e-05
5.7856296893e-05
6.41205833003e-05
7.59052420149e-05
9.91526630203e-05
0.000160905728906
0.000357310897598
5.1082285873e-05
5.1280675875e-05
5.15989078841e-05
5.21860383092e-05
5.33985670479e-05
5.61429628089e-05
6.22617689237e-05
7.40208826487e-05
9.71362861981e-05
0.000160791853609
0.000369532392037
4.62529542619e-05
4.64473884911e-05
4.67364107764e-05
4.72350022639e-05
4.82160275651e-05
5.04192998442e-05
5.56750070263e-05
6.65463482272e-05
8.83524872473e-05
0.000141108082134
0.000319400211843
)
;
    }
    atmosphere
    {
        type            calculated;
        value           nonuniform List<scalar> 
17
(
0.009
0.009
0.009
0.009
0.009
0.009
0.009
0.009
0.009
0.009
0.009
0.009
0.009
0.009
0.009
0.009
0.00245492882952
)
;
    }
    floatingObject
    {
        type            nutkWallFunction;
        blending        stepwise;
        Cmu             0.09;
        kappa           0.41;
        E               9.8;
        value           nonuniform List<scalar> 0();
    }
    procBoundary11to9
    {
        type            processor;
        value           nonuniform List<scalar> 9(0.000514659488781 0.00051988869254 0.00053242097167 0.000564818963516 0.000644808503008 0.000830963413666 0.00127914648487 0.00206511299655 0.00306089644675);
    }
    procBoundary11to10
    {
        type            processor;
        value           nonuniform List<scalar> 
23
(
0.000511682445342
0.000513857746707
0.000513857746707
0.000513413850369
0.000513413850369
0.000510136284352
0.000509584392421
0.000509018409682
0.000509018409682
0.000506668431829
0.000506668431829
0.000504798467359
0.000504121702177
0.000504752685788
0.000504752685788
0.000504082995109
0.000503289310234
0.000502085932845
0.000499695932507
0.000499695932507
0.000492468767357
0.000477369633561
0.000320815407895
)
;
    }
}


// ************************************************************************* //
