/*--------------------------------*- C++ -*----------------------------------*\
| =========                 |                                                 |
| \\      /  F ield         | OpenFOAM: The Open Source CFD Toolbox           |
|  \\    /   O peration     | Version:  v2012                                 |
|   \\  /    A nd           | Website:  www.openfoam.com                      |
|    \\/     M anipulation  |                                                 |
\*---------------------------------------------------------------------------*/
FoamFile
{
    version     2.0;
    format      ascii;
    class       volVectorField;
    location    "4.7";
    object      ddtCorrDdt0(U);
}
// * * * * * * * * * * * * * * * * * * * * * * * * * * * * * * * * * * * * * //

dimensions      [0 1 -2 0 0 0 0];


internalField   nonuniform List<vector> 
167
(
(0.0103635479651 -0.142683369868 -4.25139720273e-22)
(0.0110571008843 -0.163862313246 -5.68319581537e-22)
(0.0118827349245 -0.187101326335 -6.7466223262e-24)
(0.0128638064343 -0.212557470106 -3.79725477697e-23)
(0.014079607782 -0.240612887377 4.4088788042e-23)
(0.0156601171953 -0.271819468615 3.01994989964e-22)
(0.0176188214577 -0.306592758137 3.37504819351e-22)
(0.0204279794127 -0.350024129579 -2.10926373053e-22)
(0.0265547717423 -0.391650395662 -2.02929995855e-21)
(0.0483468109116 -0.33858452619 3.01482572299e-21)
(0.194345638676 -0.444295569795 1.77732136163e-19)
(0.648982855969 -5.68828895338 1.31851049185e-18)
(0.0310090361214 -0.14107718441 -4.19025735211e-22)
(0.0331700608719 -0.161974301187 3.57834114981e-22)
(0.0357157333296 -0.184855200916 3.1938600933e-22)
(0.0387662168949 -0.209839637106 8.64214302824e-22)
(0.0425042388473 -0.237211610119 2.39212349924e-22)
(0.0472381083739 -0.267339939153 1.06509437564e-22)
(0.0532117873478 -0.300713626415 -2.38826514521e-21)
(0.0615907287127 -0.340423551482 4.01694874596e-21)
(0.0764044358199 -0.374380804461 -3.06351081162e-21)
(0.10822999653 -0.3150058666 -1.49645052051e-20)
(0.487430280841 -0.335585057128 -8.75024304099e-20)
(37.1829199449 -18.3361532615 3.50409924377e-18)
(0.0509786533162 -0.138274296989 -4.49169995928e-23)
(0.0544908485744 -0.158686662004 1.74274074265e-23)
(0.0586393846669 -0.180963758286 5.74859837964e-23)
(0.0635566605508 -0.205154852804 9.81185638354e-23)
(0.0695281500969 -0.231422917358 -3.1421683579e-23)
(0.0768873195508 -0.259911140346 7.43251518623e-22)
(0.0859144100612 -0.290616522096 -6.1593339154e-24)
(0.0970318042959 -0.324137045799 6.5687944431e-21)
(0.10961882062 -0.344901273 3.27007335376e-20)
(0.103514446732 -0.270228910801 -2.01506143833e-20)
(0.24222224047 -0.264326373185 -3.72743587375e-19)
(35.9669688368 12.0980864014 -9.33436594762e-19)
(0.0752065858946 -0.154098695167 -1.73947943271e-24)
(0.0808192794004 -0.175512121686 2.55555512046e-23)
(0.0873958110288 -0.198659696614 -7.92750708228e-24)
(0.0952883937856 -0.223595410883 1.34342381474e-23)
(0.104816355356 -0.250437561743 -1.65203065253e-22)
(0.116359820035 -0.279682977358 8.11937833378e-22)
(0.129422684046 -0.313959884826 -2.5542941558e-21)
(0.141523487235 -0.355146474571 -1.96751357066e-21)
(0.0908952740959 -0.323385402634 1.22347888664e-22)
(-0.0465443756491 -0.39261240363 -4.26907557172e-20)
(12.7436096324 4.86078411436 3.38277506264e-19)
(0.101907122202 -0.168656744113 3.72015189384e-24)
(0.110001302591 -0.190547375315 -8.01742193009e-23)
(0.119542354186 -0.213884424999 -4.71531503321e-23)
(0.130896158799 -0.238709832922 -5.93102572365e-22)
(0.144963474779 -0.265344314783 -3.23378487248e-22)
(0.162431449602 -0.297178349094 -3.58091237764e-21)
(0.188555288486 -0.356094824871 2.92609227909e-20)
(0.149695554005 -0.369310087232 4.19868027128e-21)
(-0.0846418537917 -0.481389732206 1.08686905254e-19)
(6.87873805138 2.67625632672 -6.08558535631e-19)
(0.121749637856 -0.160443956774 4.56852378774e-24)
(0.131172644913 -0.180986819166 -1.02474520189e-22)
(0.142048835827 -0.202635545208 -8.06623330941e-23)
(0.154630410518 -0.225068477511 -3.99997673543e-22)
(0.169672042958 -0.24739949862 -1.29437673688e-22)
(0.187447693513 -0.268978790698 -4.65317141459e-21)
(0.21078456805 -0.297922563697 1.61118857871e-20)
(0.180345212958 -0.38441227556 4.6781402546e-20)
(0.0874266667414 -0.607008629018 -4.23194476738e-19)
(2.39980639054 3.42762437374 2.80518022661e-19)
(0.14035797329 -0.151069606723 -1.08999010882e-23)
(0.15092430876 -0.170250683245 -5.27447944537e-23)
(0.162862872778 -0.190386137732 -5.18426600774e-23)
(0.176154921668 -0.211197082726 -2.86494061276e-22)
(0.190942740341 -0.23204146617 -1.29614033051e-21)
(0.206534758942 -0.25439172587 1.7784902019e-21)
(0.222689771211 -0.298095222536 2.88347891899e-20)
(0.174738291064 -0.305955199298 2.82840046996e-20)
(0.369472916133 -0.332210233948 -2.78628760534e-19)
(-2.72012231094 -0.752211331701 1.66295333065e-19)
(0.157732762707 -0.140633144412 -4.18246692513e-23)
(0.169379621378 -0.15848928324 -1.70498345503e-22)
(0.182318157078 -0.177373238269 1.94438820841e-24)
(0.196234016551 -0.197099038074 -1.71907687209e-22)
(0.210709062512 -0.216943107043 -2.29567566996e-22)
(0.224403981025 -0.235957586347 -2.33227028401e-21)
(0.250625260837 -0.325901033989 4.27264803431e-20)
(0.205523387433 -0.39868099342 -6.86251460777e-21)
(0.44644421792 -0.597109128365 -1.33989926251e-20)
(2.49282425855 -0.181000058308 4.83128360641e-21)
(0.17385497906 -0.129178534724 6.20165317259e-23)
(0.186635456445 -0.145688996123 -7.38347761693e-23)
(0.200811526868 -0.163536874941 2.71900393652e-23)
(0.215893750574 -0.182936611225 -3.88557553429e-23)
(0.23059264136 -0.204000877504 8.73255262432e-22)
(0.234595022184 -0.213548826836 3.23382924612e-21)
(0.269721594748 -0.335450119158 -9.1479319932e-22)
(0.264202335537 -0.395409701185 -3.80535403338e-21)
(0.625522383061 -0.529275045347 -1.53000680034e-20)
(0.367062696683 -0.422198433474 -6.70640292325e-20)
(0.188611841484 -0.116664854392 -1.53531106432e-23)
(0.202614720943 -0.131592790164 -1.58669341898e-22)
(0.218472078404 -0.14817115098 1.52196699541e-23)
(0.236179709736 -0.167515260176 -5.34145445086e-22)
(0.257561616386 -0.198357688781 -1.02369475841e-22)
(0.272008046917 -0.195183162469 -2.28267185965e-21)
(0.281273073891 -0.276953788906 2.33398008983e-20)
(0.336012587905 -0.322706588008 -8.3435272626e-21)
(0.766769633602 -0.411734083598 6.10519260282e-20)
(0.766866668007 -0.575041627262 8.13841626263e-20)
(0.201755990649 -0.103088260959 -1.88127580615e-23)
(0.216891549787 -0.115929017062 -1.26797965907e-22)
(0.234504446449 -0.13002826282 2.13805463281e-22)
(0.254970523634 -0.144041238536 -8.53093172801e-22)
(0.28040616462 -0.168115869467 -9.11354632428e-22)
(0.317128435997 -0.186680097229 9.16046827125e-22)
(0.319121250222 -0.22080302834 2.65785589942e-21)
(0.372889449714 -0.218223303857 6.44065737645e-21)
(0.767250599737 -0.260569659277 -1.48181596484e-20)
(-0.53863470949 -0.091913408817 1.82275259548e-20)
(0.213035588794 -0.0885773833168 1.26896205883e-23)
(0.228955035255 -0.0989482407815 -1.51083726895e-22)
(0.247510468881 -0.110112254343 -3.44620326392e-23)
(0.26927585988 -0.121853372259 -1.09796096841e-21)
(0.293925101745 -0.135641556372 -3.1185835479e-22)
(0.331844168905 -0.147984114135 -2.70884388423e-21)
(0.359520882082 -0.154014319943 3.47446565609e-21)
(0.389396599098 -0.143316065069 3.74449873912e-21)
(0.704576293261 -0.154519751423 -3.67292201048e-20)
(0.0671481309172 -0.147908615693 -8.11926026255e-21)
(0.222051911965 -0.073457699763 -1.23477030919e-23)
(0.238349784875 -0.0815475699037 -1.89280001929e-22)
(0.257164870582 -0.0897152859475 5.97190870253e-24)
(0.279095942106 -0.0978730944235 -1.14598170521e-21)
(0.304540176299 -0.104939096982 2.6492486728e-21)
(0.335403928736 -0.110939100837 2.79918849741e-21)
(0.359431973805 -0.103949443121 3.76993563169e-20)
(0.381425845591 -0.0905517183981 1.1454225714e-20)
(0.712971032909 -0.0642874853382 -3.45007116449e-20)
(0.479053355231 -0.171072941552 -2.17030555978e-20)
(0.228753064465 -0.0583319801809 3.19885072607e-24)
(0.245123043198 -0.0639452442851 -7.35170036699e-23)
(0.263927449434 -0.0693939231913 2.55444965047e-22)
(0.285409342032 -0.0746520748798 -6.87747362432e-22)
(0.309638915863 -0.0788585137601 -1.02863476091e-21)
(0.335561035206 -0.0844446195684 1.18362074768e-21)
(0.353510235951 -0.0828918215981 -1.52506191209e-20)
(0.372890937541 -0.0865127504112 9.91223407458e-21)
(0.693695862459 -0.0852051634885 -1.66407230962e-20)
(0.606871514946 0.0459777602999 -2.68046764778e-20)
(0.233350838519 -0.0431411319908 1.56307521636e-23)
(0.249531311501 -0.0464818863745 -1.20935090489e-22)
(0.268031319931 -0.049462220921 -4.25637738929e-24)
(0.289098313242 -0.0522528177829 -5.37070069033e-22)
(0.31290214313 -0.0544617283589 -3.93870046257e-22)
(0.33932682214 -0.0591965429651 6.27613625885e-21)
(0.360614228759 -0.0676913607491 1.34456493382e-20)
(0.392334024627 -0.0837051476126 9.45257009835e-22)
(0.696331199922 -0.144919483063 -3.26771993622e-20)
(0.577289502697 -0.112673714291 -4.5809998528e-21)
(0.235818200126 -0.0281918366652 3.81152826331e-23)
(0.251556983023 -0.0293227405665 -3.96557059962e-23)
(0.269569923449 -0.0298286610216 7.1610014133e-23)
(0.290184810115 -0.029818236784 -1.26542182743e-22)
(0.313954877968 -0.0286010846919 1.15454140169e-22)
(0.342137543697 -0.028852238254 6.5139285783e-21)
(0.369284519023 -0.0310254823868 -9.35414077365e-21)
(0.420800580748 -0.04363119073 -3.27951861155e-21)
(0.758050793969 -0.062224432138 4.6193735031e-20)
(0.537568512024 -0.0713903825897 2.61644784841e-20)
)
;

boundaryField
{
    back
    {
        type            calculated;
        value           uniform (0 0 0);
    }
    sides
    {
        type            calculated;
        value           uniform (0 0 0);
    }
    bottom
    {
        type            calculated;
        value           nonuniform List<vector> 0();
    }
    front
    {
        type            calculated;
        value           uniform (0 0 0);
    }
    atmosphere
    {
        type            calculated;
        value           nonuniform List<vector> 
16
(
(0.648982854255 -5.68828895338 1.3185104915e-18)
(64.9603584784 -18.3361532615 4.06813095606e-18)
(-3.16451901853e-08 12.0980864014 -2.82134976504e-27)
(-0.26369725529 4.86078411436 2.07316095046e-20)
(-2.11349062089 2.67625632672 3.25482758311e-20)
(-4.02610854486 3.42762437374 5.63892016418e-18)
(13.3057888208 -0.752211331701 -2.911951233e-18)
(8.46597166699 -0.181000058308 1.84251764338e-19)
(-1.12418240941 -0.422198433474 -7.92501883625e-21)
(-0.123186374044 -0.575041627262 -3.17912444804e-19)
(-0.712182044608 -0.091913408817 -1.47142544022e-20)
(-0.307799735753 -0.147908615693 -4.76022970131e-20)
(-0.0683863244679 -0.171072941552 1.14072805878e-20)
(0.0866241038473 0.0459777602999 -1.11076146919e-21)
(0.00228984310367 -0.112673714291 -1.35492262369e-22)
(0.000976784393427 -0.0713903825897 -3.78728662208e-23)
)
;
    }
    floatingObject
    {
        type            calculated;
        value           nonuniform List<vector> 0();
    }
    procBoundary1to0
    {
        type            processor;
        value           nonuniform List<vector> 10((0.236224616011 -0.0137065639062 -1.59290994044e-23) (0.251268806569 -0.0127052641527 -3.47287705875e-23) (0.268452870998 -0.0107666513142 -1.29411776334e-22) (0.28808080617 -0.00782639956259 -7.40104873159e-22) (0.310792534951 -0.00262726971961 -6.57859041072e-22) (0.337888842565 0.00339090665241 -1.84641238426e-21) (0.368625833079 0.00945008295545 -7.80726309457e-21) (0.427480421919 -0.00276341290675 -1.22048546964e-21) (0.757178712008 0.00965213066925 -1.31181627067e-20) (0.51135165954 0.101020061405 -1.94545171022e-20));
    }
    procBoundary1to2
    {
        type            processor;
        value           nonuniform List<vector> 
18
(
(0.00975686367015 -0.123138371178 -5.46993841707e-22)
(0.0291399427034 -0.121776308697 6.17230820946e-22)
(0.0479044086729 -0.119378912172 -1.48055076795e-23)
(0.070408392448 -0.134349104921 -7.03268963663e-24)
(0.070408392448 -0.134349104921 -7.03268963663e-24)
(0.0949453751045 -0.148222489165 -1.15398674616e-23)
(0.0949453751045 -0.148222489165 -1.15398674616e-23)
(0.113570256603 -0.141158370071 -2.41243462403e-23)
(0.131112458434 -0.133018704373 -1.02865417489e-22)
(0.147484403567 -0.123894083125 -1.22940869581e-23)
(0.162623639765 -0.113854832245 -8.45153987546e-23)
(0.176416799386 -0.102930002896 -5.12407469231e-23)
(0.188682429088 -0.0911880972156 -1.57558436312e-23)
(0.199230366532 -0.0787336974789 -7.62435912926e-23)
(0.208003531954 -0.0657438845685 -2.819648748e-23)
(0.214696530199 -0.0527501315556 -1.84173166138e-23)
(0.219323296569 -0.0395575041179 -5.66211033128e-23)
(0.222127650254 -0.0265918754282 -5.67033282111e-23)
)
;
    }
}


// ************************************************************************* //
