/*--------------------------------*- C++ -*----------------------------------*\
| =========                 |                                                 |
| \\      /  F ield         | OpenFOAM: The Open Source CFD Toolbox           |
|  \\    /   O peration     | Version:  v2012                                 |
|   \\  /    A nd           | Website:  www.openfoam.com                      |
|    \\/     M anipulation  |                                                 |
\*---------------------------------------------------------------------------*/
FoamFile
{
    version     2.0;
    format      ascii;
    class       volScalarField;
    location    "4.7";
    object      k_0;
}
// * * * * * * * * * * * * * * * * * * * * * * * * * * * * * * * * * * * * * //

dimensions      [0 2 -2 0 0 0 0];


internalField   nonuniform List<scalar> 
167
(
0.00157783474669
0.00158947832577
0.00160422783909
0.00162628172191
0.00166477230977
0.00174150473943
0.00191973067623
0.00238558693284
0.00350211935561
0.00587898015659
0.0134770858436
0.0495133233187
0.00196292697274
0.0019752845326
0.00199209651802
0.00201927846002
0.00206995176686
0.00217644886193
0.00242895264402
0.00305671148609
0.00448308280994
0.00785052110331
0.0194922358293
0.0680534497002
0.00208811118529
0.00210071204715
0.00211834839017
0.00214755379286
0.00220280898472
0.00231972398903
0.00259480744198
0.00326400517715
0.00476333883671
0.00841751879617
0.0220894524679
0.0795514225487
0.00214916450302
0.00216692812897
0.00219663221749
0.0022531204861
0.00237309799536
0.00265553320973
0.00333706770166
0.00484689636925
0.00852826886955
0.0224937121247
0.0784718436603
0.00218701169456
0.00221640717443
0.00227245245386
0.00239224112513
0.00267678493475
0.00336510759741
0.0048761419542
0.00846375232952
0.021961362455
0.0732762038654
0.00219683296066
0.00222558215601
0.00228053640134
0.00239894365667
0.00268394280331
0.00338052220281
0.00490870861012
0.00836217669865
0.0196488793554
0.0598995071947
0.00220316319569
0.00223117869699
0.00228495401486
0.00240174233137
0.00268593854171
0.00338722999193
0.00493868852567
0.00842584870193
0.0194137872522
0.0622639665814
0.00220846184929
0.00223576023408
0.00228842878785
0.00240359476657
0.00268589217766
0.00338703071261
0.00495427871924
0.00857650791578
0.0206517610015
0.0612452883298
0.00221356595733
0.00224017973944
0.00229180411913
0.00240530711813
0.00268507270324
0.00338423592183
0.00496653731633
0.00876172821933
0.0218160362239
0.0689018000972
0.00221872384598
0.00224469973989
0.00229542805308
0.00240765365724
0.00268564611479
0.00338547514527
0.00499033036098
0.00889415188857
0.0220096486131
0.067174115493
0.00222396700299
0.00224936950904
0.00229940367558
0.00241111719245
0.00269013663969
0.00339889109045
0.0050491626633
0.00914967500835
0.0237125962566
0.06894668514
0.00222922912514
0.00225408329216
0.00230355201286
0.00241521010393
0.00269650036954
0.00341692737255
0.00510477493665
0.00927465457859
0.0234623822034
0.0666926033495
0.00223445845176
0.00225871080597
0.00230734133207
0.00241822154704
0.00270009532015
0.00343006703894
0.00515260108812
0.00951877777626
0.0256330131283
0.0720475017411
0.00223959518627
0.00226320861085
0.0023107536185
0.00241987094092
0.00270040155682
0.0034345545222
0.00518357225678
0.00969999503934
0.0267411152937
0.0734296794346
0.00224460062241
0.00226760429245
0.00231409290218
0.00242141736588
0.00270011690087
0.00343704026463
0.00522034908709
0.00996811281641
0.0278563304315
0.0742839756043
0.00224942121292
0.00227191924674
0.00231767067752
0.00242437136419
0.00270424274829
0.00344994600787
0.00527991041749
0.0104133024175
0.029302548268
0.0746109419414
)
;

boundaryField
{
    back
    {
        type            kqRWallFunction;
        value           nonuniform List<scalar> 
167
(
0.00157783474669
0.00158947832577
0.00160422783909
0.00162628172191
0.00166477230977
0.00174150473943
0.00191973067623
0.00238558693284
0.00350211935561
0.00587898015659
0.0134770858436
0.0495133233187
0.00196292697274
0.0019752845326
0.00199209651802
0.00201927846002
0.00206995176686
0.00217644886193
0.00242895264402
0.00305671148609
0.00448308280994
0.00785052110331
0.0194922358293
0.0680534497002
0.00208811118529
0.00210071204715
0.00211834839017
0.00214755379286
0.00220280898472
0.00231972398903
0.00259480744198
0.00326400517715
0.00476333883671
0.00841751879617
0.0220894524679
0.0795514225487
0.00214916450302
0.00216692812897
0.00219663221749
0.0022531204861
0.00237309799536
0.00265553320973
0.00333706770166
0.00484689636925
0.00852826886955
0.0224937121247
0.0784718436603
0.00218701169456
0.00221640717443
0.00227245245386
0.00239224112513
0.00267678493475
0.00336510759741
0.0048761419542
0.00846375232952
0.021961362455
0.0732762038654
0.00219683296066
0.00222558215601
0.00228053640134
0.00239894365667
0.00268394280331
0.00338052220281
0.00490870861012
0.00836217669865
0.0196488793554
0.0598995071947
0.00220316319569
0.00223117869699
0.00228495401486
0.00240174233137
0.00268593854171
0.00338722999193
0.00493868852567
0.00842584870193
0.0194137872522
0.0622639665814
0.00220846184929
0.00223576023408
0.00228842878785
0.00240359476657
0.00268589217766
0.00338703071261
0.00495427871924
0.00857650791578
0.0206517610015
0.0612452883298
0.00221356595733
0.00224017973944
0.00229180411913
0.00240530711813
0.00268507270324
0.00338423592183
0.00496653731633
0.00876172821933
0.0218160362239
0.0689018000972
0.00221872384598
0.00224469973989
0.00229542805308
0.00240765365724
0.00268564611479
0.00338547514527
0.00499033036098
0.00889415188857
0.0220096486131
0.067174115493
0.00222396700299
0.00224936950904
0.00229940367558
0.00241111719245
0.00269013663969
0.00339889109045
0.0050491626633
0.00914967500835
0.0237125962566
0.06894668514
0.00222922912514
0.00225408329216
0.00230355201286
0.00241521010393
0.00269650036954
0.00341692737255
0.00510477493665
0.00927465457859
0.0234623822034
0.0666926033495
0.00223445845176
0.00225871080597
0.00230734133207
0.00241822154704
0.00270009532015
0.00343006703894
0.00515260108812
0.00951877777626
0.0256330131283
0.0720475017411
0.00223959518627
0.00226320861085
0.0023107536185
0.00241987094092
0.00270040155682
0.0034345545222
0.00518357225678
0.00969999503934
0.0267411152937
0.0734296794346
0.00224460062241
0.00226760429245
0.00231409290218
0.00242141736588
0.00270011690087
0.00343704026463
0.00522034908709
0.00996811281641
0.0278563304315
0.0742839756043
0.00224942121292
0.00227191924674
0.00231767067752
0.00242437136419
0.00270424274829
0.00344994600787
0.00527991041749
0.0104133024175
0.029302548268
0.0746109419414
)
;
    }
    sides
    {
        type            kqRWallFunction;
        value           nonuniform List<scalar> 
12
(
0.00157783474669
0.00158947832577
0.00160422783909
0.00162628172191
0.00166477230977
0.00174150473943
0.00191973067623
0.00238558693284
0.00350211935561
0.00587898015659
0.0134770858436
0.0495133233187
)
;
    }
    bottom
    {
        type            kqRWallFunction;
        value           nonuniform List<scalar> 0();
    }
    front
    {
        type            kqRWallFunction;
        value           nonuniform List<scalar> 
167
(
0.00157783474669
0.00158947832577
0.00160422783909
0.00162628172191
0.00166477230977
0.00174150473943
0.00191973067623
0.00238558693284
0.00350211935561
0.00587898015659
0.0134770858436
0.0495133233187
0.00196292697274
0.0019752845326
0.00199209651802
0.00201927846002
0.00206995176686
0.00217644886193
0.00242895264402
0.00305671148609
0.00448308280994
0.00785052110331
0.0194922358293
0.0680534497002
0.00208811118529
0.00210071204715
0.00211834839017
0.00214755379286
0.00220280898472
0.00231972398903
0.00259480744198
0.00326400517715
0.00476333883671
0.00841751879617
0.0220894524679
0.0795514225487
0.00214916450302
0.00216692812897
0.00219663221749
0.0022531204861
0.00237309799536
0.00265553320973
0.00333706770166
0.00484689636925
0.00852826886955
0.0224937121247
0.0784718436603
0.00218701169456
0.00221640717443
0.00227245245386
0.00239224112513
0.00267678493475
0.00336510759741
0.0048761419542
0.00846375232952
0.021961362455
0.0732762038654
0.00219683296066
0.00222558215601
0.00228053640134
0.00239894365667
0.00268394280331
0.00338052220281
0.00490870861012
0.00836217669865
0.0196488793554
0.0598995071947
0.00220316319569
0.00223117869699
0.00228495401486
0.00240174233137
0.00268593854171
0.00338722999193
0.00493868852567
0.00842584870193
0.0194137872522
0.0622639665814
0.00220846184929
0.00223576023408
0.00228842878785
0.00240359476657
0.00268589217766
0.00338703071261
0.00495427871924
0.00857650791578
0.0206517610015
0.0612452883298
0.00221356595733
0.00224017973944
0.00229180411913
0.00240530711813
0.00268507270324
0.00338423592183
0.00496653731633
0.00876172821933
0.0218160362239
0.0689018000972
0.00221872384598
0.00224469973989
0.00229542805308
0.00240765365724
0.00268564611479
0.00338547514527
0.00499033036098
0.00889415188857
0.0220096486131
0.067174115493
0.00222396700299
0.00224936950904
0.00229940367558
0.00241111719245
0.00269013663969
0.00339889109045
0.0050491626633
0.00914967500835
0.0237125962566
0.06894668514
0.00222922912514
0.00225408329216
0.00230355201286
0.00241521010393
0.00269650036954
0.00341692737255
0.00510477493665
0.00927465457859
0.0234623822034
0.0666926033495
0.00223445845176
0.00225871080597
0.00230734133207
0.00241822154704
0.00270009532015
0.00343006703894
0.00515260108812
0.00951877777626
0.0256330131283
0.0720475017411
0.00223959518627
0.00226320861085
0.0023107536185
0.00241987094092
0.00270040155682
0.0034345545222
0.00518357225678
0.00969999503934
0.0267411152937
0.0734296794346
0.00224460062241
0.00226760429245
0.00231409290218
0.00242141736588
0.00270011690087
0.00343704026463
0.00522034908709
0.00996811281641
0.0278563304315
0.0742839756043
0.00224942121292
0.00227191924674
0.00231767067752
0.00242437136419
0.00270424274829
0.00344994600787
0.00527991041749
0.0104133024175
0.029302548268
0.0746109419414
)
;
    }
    atmosphere
    {
        type            inletOutlet;
        inletValue      uniform 0.1;
        value           nonuniform List<scalar> 
16
(
0.0495133233187
0.1
0.1
0.1
0.1
0.1
0.1
0.1
0.1
0.1
0.1
0.1
0.1
0.1
0.1
0.1
)
;
    }
    floatingObject
    {
        type            kqRWallFunction;
        value           nonuniform List<scalar> 0();
    }
    procBoundary1to0
    {
        type            processor;
        value           nonuniform List<scalar> 10(0.00225400732774 0.00227606821238 0.00232125519472 0.00242803614951 0.00271089860497 0.00346993334625 0.0053548547642 0.0109152386111 0.0310684834985 0.0748523669392);
    }
    procBoundary1to2
    {
        type            processor;
        value           nonuniform List<scalar> 
18
(
0.00156751110509
0.00195237868115
0.0020775512498
0.00213661802001
0.00213661802001
0.0021694823292
0.0021694823292
0.00217973841852
0.00218656493076
0.00219236250085
0.00219795351814
0.00220356129755
0.00220921222541
0.00221486139371
0.0022204622992
0.00222595327371
0.00223128286328
0.00223639388582
)
;
    }
}


// ************************************************************************* //
