/*--------------------------------*- C++ -*----------------------------------*\
| =========                 |                                                 |
| \\      /  F ield         | OpenFOAM: The Open Source CFD Toolbox           |
|  \\    /   O peration     | Version:  v2012                                 |
|   \\  /    A nd           | Website:  www.openfoam.com                      |
|    \\/     M anipulation  |                                                 |
\*---------------------------------------------------------------------------*/
FoamFile
{
    version     2.0;
    format      ascii;
    class       volVectorField;
    location    "4.7";
    object      U;
}
// * * * * * * * * * * * * * * * * * * * * * * * * * * * * * * * * * * * * * //

dimensions      [0 1 -1 0 0 0 0];


internalField   nonuniform List<vector> 
167
(
(-0.00079055023505 0.00580804265765 4.83850495922e-22)
(-0.000933936514357 0.00707557163549 4.93380166441e-22)
(-0.00112874213108 0.00864487554443 2.58976361395e-22)
(-0.00138158550962 0.0106199135703 -1.8345979833e-23)
(-0.00172542109698 0.0131395920394 -7.69778041368e-23)
(-0.00222328680974 0.016474143081 -1.04575196916e-21)
(-0.00262632639901 0.0204139053138 -1.93074341559e-21)
(-0.00240018889911 0.0274286709704 -2.60019256371e-21)
(-0.00346206576089 0.0326263814168 -4.99517394941e-21)
(-0.00676852231528 0.0436341248985 3.08331876786e-22)
(-0.0628500068661 0.0509234345362 7.98376671446e-20)
(-0.325530473918 0.306972276134 7.00525487371e-20)
(-0.00165718868084 0.00526276343651 4.0045260454e-23)
(-0.00204517936008 0.00641889305068 1.79296823803e-22)
(-0.00256267087266 0.00785767389524 -6.57169328144e-23)
(-0.00325251376858 0.00967426268265 -8.44419570958e-23)
(-0.00419378785523 0.0119791219345 -1.97654804885e-22)
(-0.00549729078257 0.0149676676203 -9.79026299989e-22)
(-0.00719499439858 0.0185855826787 -2.69824766432e-21)
(-0.00861771067723 0.0250925904686 -7.17677695905e-21)
(-0.0114131789284 0.0301487644366 -8.35250266227e-21)
(-0.01413675551 0.0441848066185 -5.67271748577e-21)
(-0.0711121558086 0.0494762813313 -2.12999125722e-20)
(-0.235672822821 -0.041385992449 -1.6809862477e-20)
(-0.00259885874639 0.00438051643039 3.08177262549e-23)
(-0.00320313432449 0.00534515831521 -5.52668158002e-23)
(-0.00401013164502 0.00653480506307 -1.32185524475e-22)
(-0.00508253066594 0.0080278513096 -1.09612731314e-22)
(-0.00652972389402 0.00989958953751 -2.65316034725e-22)
(-0.00851661596531 0.0122792499521 -1.76387475929e-21)
(-0.0112496763294 0.0150431534122 -3.83957663327e-23)
(-0.0140273079862 0.0204811421674 -6.01503901936e-21)
(-0.0183011523137 0.0246515476124 -1.6753674149e-20)
(-0.0242155298103 0.0399272737411 -1.67453204577e-20)
(-0.0622235464824 0.0459541289904 -1.49476412337e-19)
(-0.107964465603 -0.0344947672094 -1.38689411051e-19)
(-0.00416062377689 0.00428146242364 2.86464199186e-24)
(-0.00518142546257 0.00518289203162 -7.20365349244e-23)
(-0.00653206243211 0.00627327423223 -8.66904451893e-23)
(-0.00833304330412 0.00759514929199 -3.01336614877e-22)
(-0.0107825885339 0.00922724855126 -7.85902032919e-22)
(-0.0142502213087 0.0109247816732 -8.91280591289e-22)
(-0.0181143575883 0.0148785039516 4.39142142714e-22)
(-0.0240486486444 0.0164854121583 -4.90781088931e-21)
(-0.0322895976062 0.0323033917633 -7.46872647173e-21)
(-0.0431125789196 0.0402010875076 -1.6433863764e-20)
(-0.0652001965902 -0.0203448683417 -1.81812853305e-20)
(-0.00598677320075 0.00380185679854 -3.37057826382e-23)
(-0.00748424431845 0.00447942214361 -6.53931701611e-23)
(-0.00945054172113 0.00522889350175 -3.91680204506e-22)
(-0.012095598131 0.00606964290773 -1.4615187152e-21)
(-0.0158357133082 0.0065876116827 -1.56957215829e-21)
(-0.0201276034707 0.00876075004324 -1.99952889587e-21)
(-0.0264385581155 0.00617987677235 -1.0028954347e-20)
(-0.0380793788312 0.0192078027174 -9.66082737365e-21)
(-0.037040622156 0.0199755145883 -1.04362957354e-20)
(-0.0378042203759 0.0059561719524 -9.68341418222e-21)
(-0.00644493035142 0.00239276809741 -3.7621302192e-23)
(-0.00796558939723 0.00267736072699 -9.38930113811e-23)
(-0.00993928361338 0.002911687259 -5.28786410396e-22)
(-0.0125357039731 0.00305234465548 -1.93103412454e-21)
(-0.016048756605 0.00259425050939 -2.43432801328e-21)
(-0.0199028452916 0.00329108121691 -6.43128630588e-21)
(-0.0245987952843 -0.00180239052845 -1.43657983499e-20)
(-0.0356913564983 0.00188441736121 -3.0025238019e-21)
(-0.0327945915536 -0.0148514170684 1.57675664195e-19)
(-0.0286528646203 -0.0158862962562 1.47099564452e-19)
(-0.00657458725038 0.00102726132922 -4.57800563087e-23)
(-0.00802821393556 0.000949454774598 -1.943853391e-22)
(-0.00989166057358 0.000741583321651 -6.33949816745e-22)
(-0.0122850984395 0.000377281493524 -1.89135693429e-21)
(-0.0153761231287 -0.000611254995303 -1.99222409066e-21)
(-0.0185871896386 -0.000402661415724 -1.45468775771e-20)
(-0.0210339755369 -0.0058287681291 -2.19231467593e-20)
(-0.028740308031 -0.00157863234009 -9.3683368288e-21)
(-0.046768878228 -0.0157373071837 8.76325687242e-20)
(-0.0497579005468 0.0078514252206 8.90933804176e-20)
(-0.00640451863529 -0.000250858076513 -5.33692213527e-23)
(-0.00773389039301 -0.000637718132076 -2.18383109466e-22)
(-0.00941290537242 -0.00120972834307 -5.99289204768e-22)
(-0.0115335904907 -0.00198300960714 -1.44071207212e-21)
(-0.0141972762808 -0.00341049476813 -4.05651221049e-22)
(-0.0170271158248 -0.00313084791521 -5.72802656027e-21)
(-0.0184055056632 -0.0103660533499 -1.51499026916e-20)
(-0.0252834604094 -0.00217163168657 -1.58730750963e-20)
(-0.0455361263761 -0.00996853167218 -1.44386898417e-20)
(-0.0435898700215 -0.0270311603331 -1.09425100262e-20)
(-0.00597654977449 -0.00139601022275 -4.54185692853e-23)
(-0.00713342033174 -0.00204425243732 -1.81774371991e-22)
(-0.00858665923606 -0.00291587973996 -4.58654391189e-22)
(-0.0104101274038 -0.00398916722532 -7.61089091194e-22)
(-0.0126767020061 -0.00583565553772 -1.49468354134e-21)
(-0.0150489983939 -0.00539229128056 4.24097100167e-22)
(-0.0167136086477 -0.0141565178477 -6.68579590255e-21)
(-0.0265272513421 -0.00245519646388 -9.52377988971e-21)
(-0.0336514562086 -0.00801493978899 -1.7624637714e-20)
(-0.0341070405883 -0.0269647448364 -1.63086881145e-20)
(-0.00533339542401 -0.0023826186388 -4.98621926133e-23)
(-0.00628141176386 -0.00324029067264 -1.75778961563e-22)
(-0.00748245949885 -0.0043540786521 -3.95738190501e-22)
(-0.00899542877949 -0.00571863101356 -5.65282456316e-22)
(-0.0108472573095 -0.00791168250586 -1.23456548897e-21)
(-0.0127519396727 -0.0076500988217 -1.0514037473e-21)
(-0.015073394249 -0.0167266342299 -8.46821410534e-21)
(-0.0283292007146 -0.00431290192918 -1.31539441283e-20)
(-0.027629396603 -0.0133516834527 -4.80362532499e-20)
(-0.0241516984277 -0.0299562402923 -4.19051329193e-20)
(-0.0045202855278 -0.00318256897643 -5.64441958624e-23)
(-0.00523252923797 -0.00420187379681 -1.95865268015e-22)
(-0.00614111122193 -0.00550882236233 -4.56262463209e-22)
(-0.00728952273049 -0.00708496433404 -4.76139107817e-22)
(-0.00866536902605 -0.00964619561621 -2.08824265581e-21)
(-0.00994285771307 -0.0100358554627 9.59508326105e-22)
(-0.0122554698556 -0.0197161201319 -6.10497657058e-21)
(-0.0279677327884 -0.0092239840759 -1.07427665651e-20)
(-0.0163688800003 -0.0260501464532 -9.56675466539e-21)
(-0.0159136657904 -0.0480919058032 -8.47147206144e-21)
(-0.00357914178092 -0.00375882915091 -6.17603862134e-23)
(-0.00403542927683 -0.00487423008798 -1.75970085605e-22)
(-0.00461883862494 -0.00629681996167 -2.68851043763e-22)
(-0.00535625720617 -0.00802249922617 -4.36539090795e-22)
(-0.00628830643077 -0.0106597947973 -1.3191511698e-21)
(-0.0069038792822 -0.0113304031173 -3.32309636848e-21)
(-0.00857482195821 -0.0190793634728 -1.12263125698e-20)
(-0.0237340003991 -0.0102446800256 -1.30172590549e-20)
(0.00399632293646 -0.0284275816779 -1.18766764147e-20)
(-0.00520928230251 -0.0544939466493 -9.96370230021e-21)
(-0.00257072405591 -0.00408774686943 -5.97420006031e-23)
(-0.00274979251171 -0.00524826374998 -1.52100928443e-22)
(-0.00299712191989 -0.00671505555492 -2.7450741485e-22)
(-0.00334074398227 -0.00850004829184 -4.23305410477e-22)
(-0.00387852908847 -0.0110561298617 -9.0228227507e-22)
(-0.00420026322647 -0.0119480693241 -5.96398120613e-21)
(-0.00574166006284 -0.0183098440351 -8.51620204934e-21)
(-0.0200062125295 -0.0111182163305 -1.06430080849e-20)
(0.0202866297012 -0.0269325652899 -3.10736718564e-21)
(0.00776543839049 -0.0518510974449 -2.04341716612e-21)
(-0.00154361790776 -0.00417396495334 -5.76801824052e-23)
(-0.00146003831253 -0.00530976042351 -1.11150467512e-22)
(-0.00136321981885 -0.00675991108812 -2.59092294059e-22)
(-0.00132119646129 -0.0085245304856 -1.97524844606e-22)
(-0.00144664482435 -0.0109443544491 -1.69764623978e-21)
(-0.00145573839136 -0.0121960808206 3.50151416954e-21)
(-0.00271831013518 -0.0193643041199 -9.12535470279e-22)
(-0.0152231286315 -0.0130659321295 -2.48958826598e-21)
(0.0399332396934 -0.0321938826319 8.31274282557e-21)
(0.0218367860007 -0.0635556743543 6.72308105357e-21)
(-0.000552183572557 -0.00402654282947 -3.83245943873e-23)
(-0.000236621469613 -0.00507431588714 -6.40172330116e-23)
(0.000171823873191 -0.00640770083156 -1.13970395806e-22)
(0.000582431461496 -0.00802715547209 -1.5276421117e-23)
(0.000903718127094 -0.0102269142503 4.33490418539e-23)
(0.0013702444282 -0.011678048351 4.44764283911e-21)
(0.00131367862568 -0.0187034624359 -2.34521386066e-22)
(-0.00811352859877 -0.0132536688499 -3.07141517703e-21)
(0.0682311522619 -0.0322062411008 -6.67646383106e-22)
(0.0361558775449 -0.0764741541257 -1.92339990122e-21)
(0.000343518498126 -0.00364771819399 -3.81189286858e-23)
(0.000867544376253 -0.00455137126383 -6.40608429854e-23)
(0.00152490968285 -0.00568760792623 -1.95790711027e-22)
(0.00225550636367 -0.00705041922824 -3.45715991807e-22)
(0.00296626300163 -0.00897635372265 -1.51038756675e-21)
(0.00386959745679 -0.0100718875635 2.24675851481e-21)
(0.00511935044611 -0.0158243794308 2.32133773072e-22)
(-0.00151605308121 -0.0110472849888 -4.88665702379e-21)
(0.0981605662448 -0.0270044813567 -9.60092011895e-21)
(0.0497082010598 -0.0629571938204 -7.42722856554e-21)
)
;

boundaryField
{
    back
    {
        type            noSlip;
    }
    sides
    {
        type            noSlip;
    }
    bottom
    {
        type            noSlip;
    }
    front
    {
        type            noSlip;
    }
    atmosphere
    {
        type            pressureInletOutletVelocity;
        value           nonuniform List<vector> 
16
(
(-0.325530473918 0.306972276134 7.00525487371e-20)
(0 -0.041385992449 0)
(0 -0.0344947672094 0)
(0 -0.0203448683417 0)
(-0.0378042203759 0.0059561719524 -9.68341418222e-21)
(0 -0.0158862962562 0)
(-0.0497579005468 0.0078514252206 8.90933804176e-20)
(0 -0.0270311603331 0)
(0 -0.0269647448364 0)
(0 -0.0299562402923 0)
(0 -0.0480919058032 0)
(0 -0.0544939466493 0)
(0 -0.0518510974449 0)
(0 -0.0635556743543 0)
(0 -0.0764741541257 0)
(0 -0.0629571938204 0)
)
;
    }
    floatingObject
    {
        type            movingWallVelocity;
        value           nonuniform List<vector> 0();
    }
    procBoundary1to0
    {
        type            processor;
        value           nonuniform List<vector> 10((0.00108795439703 -0.00305738873451 -4.54477925576e-24) (0.00177836714314 -0.00376979258631 -5.64392749158e-23) (0.00263261773364 -0.00462750625887 -1.32614021483e-22) (0.00359896169015 -0.00560048830544 -5.40815709717e-22) (0.00451154109522 -0.00709709727745 -2.12988337599e-21) (0.00559114134126 -0.00732359151527 -1.71141500522e-21) (0.00754422772597 -0.0111491984427 -7.54241716315e-21) (0.00388987439104 -0.00718667795546 -9.39794405673e-21) (0.124307875388 -0.0210014809114 -1.02197799089e-20) (0.0623892968723 -0.0551102911203 -6.41595557966e-21));
    }
    procBoundary1to2
    {
        type            processor;
        value           nonuniform List<vector> 
18
(
(-0.000681611227633 0.00477260208122 -1.86236518139e-23)
(-0.00136786841226 0.00431757531949 -1.81835753852e-22)
(-0.00214619175898 0.00358574583468 -1.01178795474e-22)
(-0.00339463469309 0.00352515834977 -1.58859631675e-23)
(-0.00339463469309 0.00352515834977 -1.58859631675e-23)
(-0.00484708678756 0.00320051166977 1.11824305738e-23)
(-0.00484708678756 0.00320051166977 1.11824305738e-23)
(-0.00526966973381 0.0021011494727 1.07636978639e-23)
(-0.00542893068049 0.00102608488349 4.25271602549e-24)
(-0.0053445024626 4.1076007454e-06 -1.35107699562e-23)
(-0.00504784503034 -0.000922369470272 -6.67500754064e-24)
(-0.00456793632259 -0.0017298398969 -1.40076110024e-24)
(-0.00393757515992 -0.00239001525278 -3.74693696169e-24)
(-0.0031983634044 -0.00288011734784 -1.73836865583e-23)
(-0.00239747521646 -0.00317038362985 -2.26844046503e-23)
(-0.00158062593398 -0.00327664919298 -1.13594339e-23)
(-0.000789003460741 -0.00318018373517 1.7137799277e-23)
(-5.87590590496e-05 -0.00290007017565 3.38352760308e-23)
)
;
    }
}


// ************************************************************************* //
