/*--------------------------------*- C++ -*----------------------------------*\
| =========                 |                                                 |
| \\      /  F ield         | OpenFOAM: The Open Source CFD Toolbox           |
|  \\    /   O peration     | Version:  v2012                                 |
|   \\  /    A nd           | Website:  www.openfoam.com                      |
|    \\/     M anipulation  |                                                 |
\*---------------------------------------------------------------------------*/
FoamFile
{
    version     2.0;
    format      ascii;
    class       volScalarField;
    location    "1.8";
    object      epsilon;
}
// * * * * * * * * * * * * * * * * * * * * * * * * * * * * * * * * * * * * * //

dimensions      [0 2 -3 0 0 0 0];


internalField   nonuniform List<scalar> 
164
(
0.00798984190097
0.00801435319764
0.00804388756247
0.00808667711887
0.00817284916119
0.00839646660623
0.00901666029929
0.0107362115231
0.0157585836148
0.0312524754412
0.0721923935183
0.170564195432
0.00800545335812
0.00803057302816
0.00806037868957
0.00810196171549
0.00818217664811
0.00838767826014
0.00896666628731
0.0106179086272
0.0155552176551
0.0307147313744
0.0685212944
0.155217066105
0.00807653096991
0.00811734891208
0.00819227325189
0.00838070193737
0.00891894667957
0.0104999847264
0.0153367269981
0.0302305124297
0.0683182589084
0.161624517375
0.00809224101676
0.00813277137358
0.00820315347118
0.00837516669299
0.00887207773234
0.0103765478912
0.0150934767182
0.0297343449219
0.0691665314261
0.168417631357
0.00810737692372
0.00814809641455
0.00821461117838
0.00837048231505
0.00882161855953
0.0102214219003
0.0147317974371
0.0291336809114
0.0698298601435
0.170342783807
0.00812176234516
0.0081631831745
0.00822663780121
0.00836724255424
0.00877067788006
0.0100440789895
0.014262923734
0.0285149569031
0.0717973048368
0.173431012316
0.00813516964313
0.00817778860977
0.00823896722422
0.00836491703616
0.00871726883402
0.00984313413318
0.0137291562807
0.0281490835991
0.0759223166149
0.177506285809
0.00814736490064
0.00819172909013
0.00825165676601
0.00836461069519
0.00866745307204
0.00964211759399
0.0132366815925
0.0278554157045
0.0815273065146
0.181081791964
0.00815811621466
0.0082048224635
0.00826489751201
0.0083686135573
0.00863786608115
0.00953893112623
0.0130877290989
0.0264160978661
0.0760399183522
0.160743536383
0.00816713034041
0.00821661371928
0.00827798714133
0.00837448978572
0.00860971427409
0.00941056102327
0.0128155861171
0.0267058525234
0.0747577976319
0.164895915143
0.00817416189663
0.00822697034491
0.00829138186812
0.00839300979713
0.00870954289748
0.0104055245657
0.0188228417195
0.0456853243775
0.101446801856
0.193523521011
0.0081788082282
0.00823500510701
0.00830118908336
0.00839543245675
0.00862330504964
0.00958814180082
0.0141177015169
0.0310581858768
0.0807388884401
0.192452151362
0.0081809964611
0.00824086654701
0.00830892519525
0.00839691227601
0.00856069461013
0.00908494681039
0.0116103169141
0.025651830349
0.0991246284339
0.210955857204
0.00818080684104
0.00824489866571
0.00831591035625
0.00840159666345
0.00854120873623
0.00892972983266
0.0108064551948
0.0222805868296
0.088062675366
0.223019011891
0.00817836373236
0.00824737791986
0.00832226201355
0.00840816130418
0.00853650450779
0.00891074536667
0.0110131162911
0.0249231706466
0.0770279678576
0.198601343258
0.00817390847259
0.00824874911804
0.0083284476077
0.00841689752278
0.00853950333158
0.0088962093782
0.0109063648516
0.0241828738368
0.0934448294543
0.223343548701
)
;

boundaryField
{
    back
    {
        lowReCorrection 0;
        blending        stepwise;
        n               2;
        type            epsilonWallFunction;
        value           nonuniform List<scalar> 
164
(
0.00798984190097
0.00801435319764
0.00804388756247
0.00808667711887
0.00817284916119
0.00839646660623
0.00901666029929
0.0107362115231
0.0157585836148
0.0312524754412
0.0721923935183
0.170564195432
0.00800545335812
0.00803057302816
0.00806037868957
0.00810196171549
0.00818217664811
0.00838767826014
0.00896666628731
0.0106179086272
0.0155552176551
0.0307147313744
0.0685212944
0.155217066105
0.00807653096991
0.00811734891208
0.00819227325189
0.00838070193737
0.00891894667957
0.0104999847264
0.0153367269981
0.0302305124297
0.0683182589084
0.161624517375
0.00809224101676
0.00813277137358
0.00820315347118
0.00837516669299
0.00887207773234
0.0103765478912
0.0150934767182
0.0297343449219
0.0691665314261
0.168417631357
0.00810737692372
0.00814809641455
0.00821461117838
0.00837048231505
0.00882161855953
0.0102214219003
0.0147317974371
0.0291336809114
0.0698298601435
0.170342783807
0.00812176234516
0.0081631831745
0.00822663780121
0.00836724255424
0.00877067788006
0.0100440789895
0.014262923734
0.0285149569031
0.0717973048368
0.173431012316
0.00813516964313
0.00817778860977
0.00823896722422
0.00836491703616
0.00871726883402
0.00984313413318
0.0137291562807
0.0281490835991
0.0759223166149
0.177506285809
0.00814736490064
0.00819172909013
0.00825165676601
0.00836461069519
0.00866745307204
0.00964211759399
0.0132366815925
0.0278554157045
0.0815273065146
0.181081791964
0.00815811621466
0.0082048224635
0.00826489751201
0.0083686135573
0.00863786608115
0.00953893112623
0.0130877290989
0.0264160978661
0.0760399183522
0.160743536383
0.00816713034041
0.00821661371928
0.00827798714133
0.00837448978572
0.00860971427409
0.00941056102327
0.0128155861171
0.0267058525234
0.0747577976319
0.164895915143
0.00817416189663
0.00822697034491
0.00829138186812
0.00839300979713
0.00870954289748
0.0104055245657
0.0188228417195
0.0456853243775
0.101446801856
0.193523521011
0.0081788082282
0.00823500510701
0.00830118908336
0.00839543245675
0.00862330504964
0.00958814180082
0.0141177015169
0.0310581858768
0.0807388884401
0.192452151362
0.0081809964611
0.00824086654701
0.00830892519525
0.00839691227601
0.00856069461013
0.00908494681039
0.0116103169141
0.025651830349
0.0991246284339
0.210955857204
0.00818080684104
0.00824489866571
0.00831591035625
0.00840159666345
0.00854120873623
0.00892972983266
0.0108064551948
0.0222805868296
0.088062675366
0.223019011891
0.00817836373236
0.00824737791986
0.00832226201355
0.00840816130418
0.00853650450779
0.00891074536667
0.0110131162911
0.0249231706466
0.0770279678576
0.198601343258
0.00817390847259
0.00824874911804
0.0083284476077
0.00841689752278
0.00853950333158
0.0088962093782
0.0109063648516
0.0241828738368
0.0934448294543
0.223343548701
)
;
    }
    sides
    {
        lowReCorrection 0;
        blending        stepwise;
        n               2;
        type            epsilonWallFunction;
        value           nonuniform List<scalar> 0();
    }
    bottom
    {
        lowReCorrection 0;
        blending        stepwise;
        n               2;
        type            epsilonWallFunction;
        value           nonuniform List<scalar> 0();
    }
    front
    {
        lowReCorrection 0;
        blending        stepwise;
        n               2;
        type            epsilonWallFunction;
        value           nonuniform List<scalar> 
164
(
0.00798984190097
0.00801435319764
0.00804388756247
0.00808667711887
0.00817284916119
0.00839646660623
0.00901666029929
0.0107362115231
0.0157585836148
0.0312524754412
0.0721923935183
0.170564195432
0.00800545335812
0.00803057302816
0.00806037868957
0.00810196171549
0.00818217664811
0.00838767826014
0.00896666628731
0.0106179086272
0.0155552176551
0.0307147313744
0.0685212944
0.155217066105
0.00807653096991
0.00811734891208
0.00819227325189
0.00838070193737
0.00891894667957
0.0104999847264
0.0153367269981
0.0302305124297
0.0683182589084
0.161624517375
0.00809224101676
0.00813277137358
0.00820315347118
0.00837516669299
0.00887207773234
0.0103765478912
0.0150934767182
0.0297343449219
0.0691665314261
0.168417631357
0.00810737692372
0.00814809641455
0.00821461117838
0.00837048231505
0.00882161855953
0.0102214219003
0.0147317974371
0.0291336809114
0.0698298601435
0.170342783807
0.00812176234516
0.0081631831745
0.00822663780121
0.00836724255424
0.00877067788006
0.0100440789895
0.014262923734
0.0285149569031
0.0717973048368
0.173431012316
0.00813516964313
0.00817778860977
0.00823896722422
0.00836491703616
0.00871726883402
0.00984313413318
0.0137291562807
0.0281490835991
0.0759223166149
0.177506285809
0.00814736490064
0.00819172909013
0.00825165676601
0.00836461069519
0.00866745307204
0.00964211759399
0.0132366815925
0.0278554157045
0.0815273065146
0.181081791964
0.00815811621466
0.0082048224635
0.00826489751201
0.0083686135573
0.00863786608115
0.00953893112623
0.0130877290989
0.0264160978661
0.0760399183522
0.160743536383
0.00816713034041
0.00821661371928
0.00827798714133
0.00837448978572
0.00860971427409
0.00941056102327
0.0128155861171
0.0267058525234
0.0747577976319
0.164895915143
0.00817416189663
0.00822697034491
0.00829138186812
0.00839300979713
0.00870954289748
0.0104055245657
0.0188228417195
0.0456853243775
0.101446801856
0.193523521011
0.0081788082282
0.00823500510701
0.00830118908336
0.00839543245675
0.00862330504964
0.00958814180082
0.0141177015169
0.0310581858768
0.0807388884401
0.192452151362
0.0081809964611
0.00824086654701
0.00830892519525
0.00839691227601
0.00856069461013
0.00908494681039
0.0116103169141
0.025651830349
0.0991246284339
0.210955857204
0.00818080684104
0.00824489866571
0.00831591035625
0.00840159666345
0.00854120873623
0.00892972983266
0.0108064551948
0.0222805868296
0.088062675366
0.223019011891
0.00817836373236
0.00824737791986
0.00832226201355
0.00840816130418
0.00853650450779
0.00891074536667
0.0110131162911
0.0249231706466
0.0770279678576
0.198601343258
0.00817390847259
0.00824874911804
0.0083284476077
0.00841689752278
0.00853950333158
0.0088962093782
0.0109063648516
0.0241828738368
0.0934448294543
0.223343548701
)
;
    }
    atmosphere
    {
        type            inletOutlet;
        inletValue      uniform 0.1;
        value           nonuniform List<scalar> 
16
(
0.1
0.155217066105
0.161624517375
0.1
0.1
0.1
0.1
0.1
0.160743536383
0.1
0.1
0.1
0.1
0.1
0.198601343258
0.1
)
;
    }
    floatingObject
    {
        lowReCorrection 0;
        blending        stepwise;
        n               2;
        type            epsilonWallFunction;
        value           nonuniform List<scalar> 0();
    }
    procBoundary5to0
    {
        type            processor;
        value           nonuniform List<scalar> 
12
(
0.00797344092971
0.00799754805084
0.00802706398942
0.00807140340528
0.00816399234897
0.00840609642019
0.00906595554083
0.0108401607373
0.0158760859205
0.0314461748668
0.0743528638137
0.172989043845
)
;
    }
    procBoundary5to3
    {
        type            processor;
        value           nonuniform List<scalar> 10(0.00816778901806 0.00824972807008 0.00833608873947 0.00842998478077 0.00854990000699 0.00885191960088 0.0104144080098 0.0215598066486 0.0960349315311 0.211913467234);
    }
    procBoundary5to4
    {
        type            processor;
        value           nonuniform List<scalar> 
18
(
0.00796836889549
0.00798334806489
0.00802020748542
0.00804616472982
0.00804616472982
0.00806099612289
0.00807492060593
0.00808775665125
0.00809928615404
0.00810924377624
0.00811739110558
0.00812346735055
0.00812719719429
0.00812829931327
0.00812659728464
0.00812198610276
0.0081144247838
0.00810392969462
)
;
    }
}


// ************************************************************************* //
