/*--------------------------------*- C++ -*----------------------------------*\
| =========                 |                                                 |
| \\      /  F ield         | OpenFOAM: The Open Source CFD Toolbox           |
|  \\    /   O peration     | Version:  v2012                                 |
|   \\  /    A nd           | Website:  www.openfoam.com                      |
|    \\/     M anipulation  |                                                 |
\*---------------------------------------------------------------------------*/
FoamFile
{
    version     2.0;
    format      ascii;
    class       volVectorField;
    location    "3.8";
    object      U_0;
}
// * * * * * * * * * * * * * * * * * * * * * * * * * * * * * * * * * * * * * //

dimensions      [0 1 -1 0 0 0 0];


internalField   nonuniform List<vector> 
164
(
(0.0218551521338 -0.000149813382669 -2.72456000069e-22)
(0.0202986461843 -0.000678992421021 -4.39649494515e-22)
(0.0195743708836 -0.0010564234456 -1.36823261074e-22)
(0.0196492894212 -0.00144000028652 5.85238473949e-23)
(0.0203692209115 -0.00184155344572 1.48377220422e-22)
(0.0215361273373 -0.00226929547497 1.44476511039e-22)
(0.0230546346074 -0.00273006024815 1.19753140881e-22)
(0.0248982142009 -0.00324404140782 1.13633163046e-22)
(0.0221616628036 -1.60895913717e-05 -6.63823884225e-23)
(0.0205826170256 -0.000283829285467 -1.79199253939e-22)
(0.0198490312481 -0.000416582366583 2.22634543302e-24)
(0.0199264840286 -0.000552003741753 9.26565147513e-23)
(0.0206604768764 -0.000699748972716 1.14209695417e-22)
(0.0218513509709 -0.000849785150589 9.5423080824e-23)
(0.0233936946279 -0.0010098831049 7.71831805369e-23)
(0.0252933371353 -0.00120337795905 4.40019496021e-23)
(0.0275516154879 -0.00145605890721 4.78953836736e-23)
(0.0302115993124 -0.0018111800404 2.95341251084e-23)
(0.0333547598172 -0.00233284610442 -3.4363014971e-23)
(0.0222103542295 0.000121018920678 1.6857833847e-22)
(0.0206148642875 0.000108829300782 1.37583174949e-23)
(0.0198675747571 0.000211199503131 5.07768137128e-23)
(0.01993681845 0.000332149247133 8.21710789226e-23)
(0.0206705646613 0.000453925215468 8.06708733898e-23)
(0.0218701730516 0.000578655204055 5.42527385752e-23)
(0.0234367448089 0.00073224997198 5.55004664366e-23)
(0.0253452215926 0.000896241497296 3.51235866958e-23)
(0.0276503519702 0.00103489579071 3.03436052842e-23)
(0.0304094474661 0.00114057651558 1.15042164327e-23)
(0.0337058509083 0.00116856651255 -1.06369353055e-22)
(0.0376380523585 0.00106284463437 -2.4454817519e-22)
(0.0422421556397 0.000689381994807 -1.5440408093e-21)
(0.0220129881095 0.000247483192545 2.44198757478e-23)
(0.0203955415443 0.00048483456635 -7.64004571153e-23)
(0.0196356201603 0.000823792054364 -1.39766541317e-23)
(0.0196898278241 0.0012001399488 3.47196184056e-23)
(0.0203989530969 0.00159346574374 5.35119414276e-23)
(0.0215705684307 0.00202290419553 5.25301845419e-23)
(0.0231178422153 0.00248301366195 6.58829904927e-23)
(0.0250100182605 0.00299502223339 7.83025969882e-23)
(0.0273061144089 0.00357140711958 2.99501019367e-23)
(0.0300674080741 0.00419189991331 5.65121617912e-23)
(0.0333984471921 0.00485025098481 -5.1929763937e-23)
(0.0374279640626 0.00553239246879 -3.60257661785e-22)
(0.0422515840798 0.00618232686551 -9.44689489992e-22)
(0.0476740478706 0.00679254699522 -2.68073648687e-21)
(0.0215687084781 0.000357372298649 -1.27116681897e-22)
(0.0199369299396 0.000840842030012 -1.35870144512e-22)
(0.019162363348 0.00141546517242 -7.74873820588e-23)
(0.0191898280421 0.00203584049412 1.52767414934e-23)
(0.0198572944177 0.00268855515852 5.68291396901e-23)
(0.0209683044633 0.00340186190034 4.48145153762e-23)
(0.0224321059015 0.00419156227977 5.79878616143e-23)
(0.0242616730477 0.00507685083444 3.72437657091e-23)
(0.0264773435043 0.00607338256341 3.09336900736e-23)
(0.029151224924 0.00720963336323 6.49348219552e-23)
(0.032375001943 0.00851100220725 -4.72013400069e-23)
(0.036278797697 0.00999352479387 -1.95433857204e-22)
(0.0409906993485 0.0116893109729 -8.20599559367e-22)
(0.046423151653 0.0136637950937 -2.43506031454e-21)
(0.0208957804046 0.000462332152944 -1.9474213201e-22)
(0.019255304535 0.00117705034194 -1.59708267433e-22)
(0.0184587893657 0.00197300641264 -1.06208780177e-22)
(0.0184476403758 0.00282304708435 -1.15116067763e-23)
(0.0190533551166 0.0037187871444 1.27089970082e-23)
(0.0200787760388 0.0047008130336 3.45060050752e-23)
(0.0214358473343 0.00579946587594 5.07205415042e-23)
(0.0231263891344 0.00703937114051 5.56649938142e-23)
(0.0251791760091 0.00845197610142 5.9106995885e-23)
(0.0276661315937 0.0100761348593 1.14416775018e-22)
(0.0306530854465 0.0119649786026 6.8447019542e-23)
(0.034251756855 0.0141839565841 3.29432008349e-23)
(0.0385804272817 0.016817549805 -1.50084799701e-22)
(0.0435948912962 0.0199840350221 -1.27424970909e-21)
(0.0200144782392 0.00056737650249 -1.78680588032e-22)
(0.0183662308466 0.00148675718279 -1.59903322363e-22)
(0.0175471275165 0.0024819422109 -8.48037754776e-23)
(0.0174818489041 0.00353944946505 1.69284980189e-23)
(0.0180044425742 0.00465552906848 1.64473900181e-23)
(0.0189183852087 0.00588367347835 2.24410589396e-23)
(0.020133235705 0.00726186409871 4.72911671907e-23)
(0.0216368933423 0.00881984387342 7.46536412942e-24)
(0.0234631096502 0.0106022900759 4.21332204989e-23)
(0.0256621566031 0.0126653242774 6.097949955e-23)
(0.0282995587596 0.0150771053035 1.58655899965e-23)
(0.0314605840856 0.0179253646216 8.88328737687e-23)
(0.0352318818492 0.0213189771181 -1.23688566491e-22)
(0.0395868176942 0.025406436267 -5.90316042362e-22)
(0.0189376031193 0.000648926050671 -1.98858212614e-22)
(0.0172892915214 0.00175603389786 -1.14587152043e-22)
(0.0164431749356 0.00292406731249 -5.73780771855e-23)
(0.0163109053333 0.00416333511816 2.97586713751e-23)
(0.0167324894574 0.00547776690091 1.43510215684e-23)
(0.0175091273997 0.0069219330688 -1.73181863848e-24)
(0.0185472290843 0.00853488343269 -9.95692343996e-25)
(0.0198271049998 0.0103628658354 -4.51972880525e-24)
(0.0213784092455 0.0124610130583 1.46011612397e-23)
(0.0232344753055 0.014888383054 1.07631148336e-23)
(0.0254478871363 0.0177288336439 -2.94845852134e-25)
(0.0280699481315 0.0210784004903 4.80095669253e-23)
(0.0311748249515 0.0250518710738 -1.19109519725e-22)
(0.0347604428847 0.0298057680532 -7.25741007682e-22)
(0.0177047640188 0.000706975548127 -2.2718565369e-22)
(0.0160503118413 0.00197790499385 -6.12367436914e-23)
(0.0151699463504 0.00329249219598 -2.50772021477e-23)
(0.0149655149327 0.00468411603183 1.28296931037e-23)
(0.0152729003872 0.00616047558798 4.75009898466e-24)
(0.0158906693736 0.00778082095451 1.85215637499e-23)
(0.0167243498194 0.00958980069334 -6.91973587007e-24)
(0.0177538095439 0.0116380090429 -2.26175746127e-23)
(0.0189908031852 0.013986553734 8.93218423065e-25)
(0.0204601189043 0.0167029203223 -2.90954811964e-24)
(0.0221967764853 0.0198651962326 3.06675395046e-24)
(0.0242350917651 0.0235819317656 4.96495516442e-23)
(0.0266283020303 0.0279731033357 -1.5202159571e-23)
(0.0293910974169 0.0331811460507 -4.66818224535e-22)
(0.0163304744489 0.000759708991849 -3.13260852995e-22)
(0.0146774329782 0.00215703063112 -1.13870035341e-22)
(0.0137660095326 0.00358303172179 -4.64959286362e-23)
(0.013484726911 0.00509120660645 -3.52406947701e-24)
(0.0136684149121 0.00669119507088 -1.19032347879e-23)
(0.014116188213 0.00844438205357 -4.5792149703e-25)
(0.0147300298628 0.0103992028863 -1.17484181282e-23)
(0.0154830602062 0.0126088522406 -1.28345795609e-23)
(0.0163779291376 0.0151366310733 -1.68084054798e-23)
(0.0174276020931 0.0180541696681 -9.41320532708e-24)
(0.0186507896077 0.0214475194501 1.06966119174e-23)
(0.0200785809828 0.0254205974551 8.3055073679e-23)
(0.0217411067017 0.0300874954569 1.59737032697e-22)
(0.0236635552776 0.035599123551 -6.09156136253e-23)
(0.0256212182468 0.0416475744963 -1.68974770134e-21)
(0.0267528162447 0.0507807984169 -7.11177354312e-21)
(0.014851958354 0.000796675382971 -3.45894211639e-22)
(0.0132082008117 0.00228569353512 -1.88439398761e-22)
(0.012266712172 0.00378851076326 -1.15145813021e-22)
(0.0119042295121 0.00537666881072 3.14015862274e-23)
(0.0119574124112 0.00706021047763 8.08128144149e-24)
(0.0122264770478 0.00890119239117 -1.09465980202e-23)
(0.0126104055058 0.0109497022931 -1.52857001152e-23)
(0.0130760333902 0.0132598760152 -4.48527644021e-24)
(0.01361604307 0.0158968045988 1.70490529225e-23)
(0.0142332197236 0.0189334292488 -5.88651411236e-24)
(0.0149318237088 0.0224574495644 3.01358435354e-23)
(0.0157230379139 0.0265727864391 8.53317350997e-23)
(0.0166325781081 0.0313885757003 2.66995718739e-22)
(0.0176903664021 0.0370683409925 4.79361245925e-22)
(0.0186528688068 0.0433204230665 -1.83382621196e-21)
(0.018778474069 0.0529417984599 -2.62749974122e-21)
(0.0133098638998 0.000808113608384 -4.26923398365e-22)
(0.0116775574433 0.00236021109569 -2.24853379159e-22)
(0.0107048986078 0.0039061772767 -1.49632785867e-22)
(0.0102607112722 0.00553707595698 6.59464892191e-23)
(0.0101816028815 0.00726398073608 2.65303060164e-23)
(0.0102694748669 0.00914718445859 4.79106318844e-24)
(0.0104205798081 0.0112372315194 -6.02898388268e-24)
(0.0105966823619 0.0135868761953 -2.31583603171e-24)
(0.0107798033397 0.0162607128563 6.80480029406e-24)
(0.0109600238572 0.0193316370841 -3.28675702908e-24)
(0.0111289940182 0.0228856477246 1.2050263213e-23)
(0.0112797818558 0.0270254464832 6.67314967263e-23)
(0.0114248546218 0.0318614606563 2.31284303805e-22)
(0.011608960616 0.0375565110588 5.9008020908e-22)
(0.0115707192427 0.043909627404 -1.20695837894e-21)
(0.0106837342902 0.053677038185 1.96877689209e-21)
)
;

boundaryField
{
    back
    {
        type            noSlip;
    }
    sides
    {
        type            noSlip;
    }
    bottom
    {
        type            noSlip;
    }
    front
    {
        type            noSlip;
    }
    atmosphere
    {
        type            pressureInletOutletVelocity;
        value           nonuniform List<vector> 0();
    }
    floatingObject
    {
        type            movingWallVelocity;
        value           nonuniform List<vector> 0();
    }
    procBoundary7to6
    {
        type            processor;
        value           nonuniform List<vector> 
11
(
(0.0523487541182 0.00684970702155 -4.97987322749e-21)
(0.051322073003 0.0155546231939 -7.57412581621e-21)
(0.0484181816861 0.0233965527283 -2.57799740191e-21)
(0.0439986939887 0.0299405656604 -3.32982864829e-21)
(0.0385064942071 0.0351243397469 -1.88357842289e-21)
(0.0322844133641 0.0389723799473 -2.56885529103e-21)
(0.0322844133641 0.0389723799473 -2.56885529103e-21)
(0.034428258379 0.0474292395827 -6.1583791089e-21)
(0.0264558772615 0.0551023615371 -1.6358808244e-20)
(0.017427475676 0.0559660696031 -1.03867110161e-20)
(0.00860775086748 0.0554569935555 -1.42496084242e-20)
)
;
    }
    procBoundary7to8
    {
        type            processor;
        value           nonuniform List<vector> 
17
(
(0.0212912141054 -0.000284230805271 -1.58492265427e-22)
(0.0197718277713 -0.00105832657302 -4.57622384211e-22)
(0.0190558331542 -0.00166714416312 -2.31678160775e-22)
(0.0191179619971 -0.0022940209139 4.29731810461e-23)
(0.0198168787841 -0.0029450927624 1.99772296552e-22)
(0.0209512333007 -0.00363623907492 1.97132293502e-22)
(0.0224191538547 -0.00437896074935 1.59611194488e-22)
(0.0241866878823 -0.0051934500245 1.23297310012e-22)
(0.0270696125174 -0.0038435377647 9.86842540023e-23)
(0.0270696125174 -0.0038435377647 9.86842540023e-23)
(0.0296044160207 -0.00459812441588 1.51188941221e-22)
(0.0324686639029 -0.0055381502477 1.64232403505e-22)
(0.0369855391813 -0.00310277864095 -1.83257388289e-22)
(0.0369855391813 -0.00310277864095 -1.83257388289e-22)
(0.0411270348246 -0.00430825709085 -8.45620456749e-22)
(0.0472957877035 -3.20095232748e-05 -2.06610113294e-21)
(0.0472957877035 -3.20095232748e-05 -2.06610113294e-21)
)
;
    }
    procBoundary7to9
    {
        type            processor;
        value           nonuniform List<vector> 
16
(
(0.0117399204957 0.000804642599128 -4.84366669923e-22)
(0.010119395111 0.00238381961544 -2.33786021594e-22)
(0.0091158069596 0.00393779432283 -1.1972332502e-22)
(0.00859253980474 0.0055758389845 4.0786796297e-23)
(0.00838433344259 0.00730570825213 1.97293589504e-23)
(0.00829495585263 0.00918599118908 -2.55447642519e-24)
(0.00821817175247 0.0112659977314 -8.61007049211e-25)
(0.00811042807889 0.013594976471 2.51012832282e-24)
(0.00794456978318 0.0162338433067 4.74090820544e-24)
(0.00769840223348 0.0192544745353 9.39249808645e-24)
(0.00734921814627 0.022737970157 -2.76203658817e-24)
(0.00687488315705 0.0267821780238 -1.99927277628e-23)
(0.00626745190494 0.0315025224098 -9.54561146217e-23)
(0.00556107573884 0.0370235811435 -2.63627249505e-22)
(0.00462741370708 0.043246341655 -1.67188850797e-21)
(0.00278481087272 0.0527896056524 5.76188543877e-22)
)
;
    }
}


// ************************************************************************* //
