/*--------------------------------*- C++ -*----------------------------------*\
| =========                 |                                                 |
| \\      /  F ield         | OpenFOAM: The Open Source CFD Toolbox           |
|  \\    /   O peration     | Version:  v2012                                 |
|   \\  /    A nd           | Website:  www.openfoam.com                      |
|    \\/     M anipulation  |                                                 |
\*---------------------------------------------------------------------------*/
FoamFile
{
    version     2.0;
    format      ascii;
    class       surfaceVectorField;
    location    "3.8";
    object      Uf;
}
// * * * * * * * * * * * * * * * * * * * * * * * * * * * * * * * * * * * * * //

dimensions      [0 1 -1 0 0 0 0];


internalField   nonuniform List<vector> 
300
(
(0.0248243195066 -0.000707028064856 -3.59334751631e-22)
(0.0259506225233 -0.000221159206099 -1.71724752421e-22)
(0.0237155119449 -0.00138105350845 -2.92332941875e-22)
(0.0244108888392 -0.000876074538708 -3.15090929315e-22)
(0.0234190337471 -0.00204649787345 -4.02996188646e-23)
(0.0237054716917 -0.00139065987605 -6.86490577635e-23)
(0.0238522863142 -0.00271905425646 1.03463902425e-22)
(0.0238101660584 -0.00191936246915 7.4963560464e-23)
(0.0248402592812 -0.00341717881585 1.47012330716e-22)
(0.0245884598849 -0.00246772641214 1.31554727046e-22)
(0.0262349742732 -0.00414991129892 1.32798405682e-22)
(0.025826459166 -0.00303751219138 1.20911286735e-22)
(0.0279724562905 -0.0049330480491 1.16721435281e-22)
(0.0274272663999 -0.00363755995264 9.91585028773e-23)
(0.0293665361809 -0.00429079005275 7.92937881232e-23)
(0.0253812715385 -0.000427497346709 -1.27480930105e-22)
(0.0263780955645 -8.08717267661e-05 4.88534000778e-23)
(0.0242588650695 -0.000842088868913 -9.14070452042e-23)
(0.0248254516949 -0.000465638669736 -8.60686737869e-23)
(0.0239631219242 -0.00124647642749 4.66141215651e-23)
(0.0241098339669 -0.000724973531132 2.60869961725e-23)
(0.0244102771411 -0.00166392606517 1.03054385084e-22)
(0.0242276065981 -0.000990280079887 8.69131520164e-23)
(0.0254243102342 -0.0020858696325 1.05453683064e-22)
(0.0250104229352 -0.00126673069332 9.76337548386e-23)
(0.026851739158 -0.00252292561617 8.72713839305e-23)
(0.0262635735295 -0.00155164582643 7.58781457908e-23)
(0.0286396224578 -0.00299317490788 6.1730855719e-23)
(0.0278976172151 -0.00183910721635 6.69633353191e-23)
(0.0307869047002 -0.00352260266382 4.61660440285e-23)
(0.0298961000546 -0.00215243340793 4.02667312309e-23)
(0.0333097909248 -0.00413985987134 3.82559865839e-23)
(0.0322638979004 -0.00252520785777 3.86061544209e-23)
(0.0362607102485 -0.00492082730802 3.64584261058e-25)
(0.0350539795344 -0.00298799846049 2.04936854205e-23)
(0.0383183166505 -0.0036004480044 -6.67822222611e-23)
(0.0256701633366 -0.000159244228407 9.02656563964e-23)
(0.026537318973 6.07047709545e-05 9.83565646713e-23)
(0.0245383414753 -0.000308036152052 3.14253675898e-23)
(0.0249742360879 -5.91832728623e-05 -3.69174919442e-23)
(0.0242350291678 -0.00045534196041 6.63860266238e-23)
(0.0242571597558 -6.93027911081e-05 1.84342377232e-23)
(0.0246844415623 -0.000594791034098 8.14925217707e-23)
(0.0243671201441 -6.4602962864e-05 5.88288029285e-23)
(0.0257115650965 -0.000733518503095 6.80582175654e-23)
(0.0251492700826 -5.80456596179e-05 6.73288413466e-23)
(0.0271666806152 -0.000881505527556 5.55700971795e-23)
(0.0264117354213 -4.23976074361e-05 5.35476582963e-23)
(0.0289855740437 -0.000994471442519 4.5499210831e-23)
(0.028010799021 -1.08841131255e-05 5.90532787736e-23)
(0.0311790705515 -0.00115971892164 3.27068416233e-23)
(0.0300615748659 3.34716174841e-05 5.60461501343e-23)
(0.0337971922312 -0.00136701884087 2.08438532574e-23)
(0.0324713961776 7.39698960067e-05 3.04506486078e-23)
(0.0369027169009 -0.00165843198945 -4.66531211017e-23)
(0.0353455039304 9.01836689305e-05 3.35004292766e-23)
(0.0405753577261 -0.00209512071758 -1.81118620413e-22)
(0.0387548866778 4.77891130625e-05 -7.94934473588e-23)
(0.044866021173 -0.00277633882254 -8.91777592926e-22)
(0.0428117712546 -0.000100221113376 -3.09726831006e-22)
(0.0475827210855 -0.000465142248273 -1.24640117786e-21)
(0.0256954493407 9.95847976279e-05 -2.88265836692e-23)
(0.0264377357619 0.000191165902656 -4.67355606853e-23)
(0.0245515297113 0.00020875507422 -4.99086218108e-23)
(0.0248650999239 0.000333478066225 -1.12198710419e-22)
(0.0242392402152 0.000328588307676 1.08770140279e-23)
(0.0241374137637 0.00057301886663 -4.50220004898e-23)
(0.0246765660014 0.000463405584242 4.46651225044e-23)
(0.0242324637749 0.000844538165583 2.67782045709e-23)
(0.0256881694634 0.0006215663869 5.28182820776e-23)
(0.0249913517204 0.00113214638302 5.55688650872e-23)
(0.0271338406884 0.000812651177948 5.70308398904e-23)
(0.0262209630426 0.00145624281306 4.8495348797e-23)
(0.0289530233247 0.000998678617317 6.96002180769e-23)
(0.027825121122 0.0018184368563 5.99650037464e-23)
(0.031157060464 0.00124698258463 5.37899571188e-23)
(0.0298136036779 0.00223359845512 5.75460350108e-23)
(0.033801997205 0.00151271699457 4.3107224627e-23)
(0.0322059120081 0.0027091389353 3.08813211828e-23)
(0.0369650737926 0.00177971873757 6.6010301945e-25)
(0.0350786009344 0.00324103507694 5.96044429589e-23)
(0.0407547462629 0.00202138559429 -2.08101657951e-22)
(0.0385130811351 0.00382766931596 -5.16135307723e-23)
(0.0452711940248 0.00219801857266 -6.64350415934e-22)
(0.04263457295 0.00445569007391 -2.82007536341e-22)
(0.0504456708917 0.00223750805238 -1.82011458486e-21)
(0.0475420704346 0.00509265503694 -8.96904853337e-22)
(0.0530568896481 0.00573636204446 -2.56871470781e-21)
(0.0254625204617 0.000350519860909 -1.30107687435e-22)
(0.0260872584874 0.000310420699969 -1.56895583095e-22)
(0.0243060507421 0.000713069863912 -1.07312089098e-22)
(0.0245026431453 0.000708813981108 -1.51328430556e-22)
(0.0239795996869 0.00109202898989 -2.91208099468e-23)
(0.0237586262281 0.0011945536319 -9.12239375007e-23)
(0.0243914714828 0.00149715445682 3.76819471538e-23)
(0.0238276119579 0.00172216856719 3.30130170649e-24)
(0.0253639575089 0.00194154328135 5.12459318067e-23)
(0.0245473427495 0.00227983015608 3.53700393154e-23)
(0.0267540059033 0.00244196779678 5.1429512653e-23)
(0.0257210014216 0.00289877913531 3.99635770148e-23)
(0.0285211568929 0.00300657098139 4.79108206803e-23)
(0.0272610117832 0.00359745871656 5.4219899049e-23)
(0.0306805365577 0.00365457822298 3.46373990747e-23)
(0.029166044348 0.0043925584793 4.72510256484e-23)
(0.033276772605 0.00438985056045 4.73785395147e-23)
(0.0314709531732 0.00530082660606 4.54704015821e-23)
(0.0363889468298 0.00523274983898 7.33080916715e-24)
(0.0342357975862 0.00634642540453 8.86431872569e-23)
(0.0401239846608 0.00618023294673 -1.25519409162e-22)
(0.037565412394 0.00755643645473 9.54790028208e-24)
(0.0446043452627 0.0072635805514 -5.14561973744e-22)
(0.0415505826348 0.00895568594314 -8.69177946397e-23)
(0.0498381015735 0.00850032864964 -1.64550497629e-21)
(0.0463041278589 0.0105793908639 -4.96523609956e-22)
(0.0517715433643 0.0124852219908 -1.89100061075e-21)
(0.0249840561252 0.000592639940734 -1.78116326215e-22)
(0.0254947117027 0.000428045808145 -1.81452058526e-22)
(0.0238151605153 0.00119560343957 -1.35240278958e-22)
(0.0238998374909 0.00106428164574 -1.61778488599e-22)
(0.0234645376741 0.00181838743942 -5.88018258474e-23)
(0.0231361011653 0.001781301485 -9.4421687314e-23)
(0.0238352605667 0.00247822712866 9.89393868163e-25)
(0.0231681590942 0.0025494077251 3.27462249428e-24)
(0.0247466372784 0.00319972827361 2.40876845235e-23)
(0.0238263567664 0.00336104749746 1.56086464885e-23)
(0.0260571702141 0.00400622027903 4.27539634109e-23)
(0.0249151190713 0.00425994726836 2.92054320963e-23)
(0.0277236004029 0.00492044284895 5.35601040172e-23)
(0.0263474245403 0.00527574536371 5.0169954232e-23)
(0.0297612850327 0.00596236469949 5.80840281558e-23)
(0.0281246875636 0.00643040448795 3.1820240588e-23)
(0.0322205789409 0.00716731669896 8.67350493243e-23)
(0.0302663905994 0.00775497113057 5.1502073008e-23)
(0.0351707836523 0.00855791772252 9.08602783719e-23)
(0.0328453217282 0.00928779225693 8.85066258648e-23)
(0.0387012818483 0.0101960431759 4.81495148042e-23)
(0.0359270986866 0.0110775329856 4.22909157713e-23)
(0.042926789599 0.0121323465663 -6.88794308515e-23)
(0.0396136334377 0.0131846292336 5.94874350714e-23)
(0.0478831879987 0.0144170876826 -7.42019244414e-22)
(0.0440182636212 0.0156835856989 -1.45041095043e-22)
(0.0491058041354 0.0186765794151 -9.53331164986e-22)
(0.0242760637801 0.000823614099187 -1.6511422091e-22)
(0.0246712348374 0.000534746948273 -1.81940035053e-22)
(0.0230948219095 0.00164665139171 -1.20959896955e-22)
(0.0230770100521 0.0013895642133 -1.35560055302e-22)
(0.0227115692477 0.00249077863133 -3.23452389723e-23)
(0.0222923032496 0.00231655184681 -6.9341618126e-23)
(0.0230225115266 0.0033854666696 1.78938751146e-23)
(0.0222739498509 0.00330403412718 2.42780828519e-23)
(0.0238488036971 0.00436449721838 2.07263940612e-23)
(0.0228479521759 0.00435058875355 1.61520634186e-23)
(0.0250488105591 0.00545823081787 3.66214229174e-23)
(0.0238221167195 0.00550719976652 1.10765423858e-23)
(0.0265724499178 0.00669569823797 2.84300908028e-23)
(0.0251107128708 0.00680836301699 2.47175036431e-23)
(0.0284320125487 0.00811423211221 2.52382854402e-23)
(0.0267068251881 0.00828716144767 1.50873582422e-24)
(0.0306718079951 0.00974653516268 5.32736495485e-23)
(0.0286345604002 0.00998700383081 2.99169824913e-23)
(0.0333529985428 0.011655731871 3.99372632642e-23)
(0.0309363117869 0.0119572113406 3.74779910615e-23)
(0.0365552399271 0.0139003021028 5.36288360386e-23)
(0.033682396428 0.0142628680998 8.1768912797e-24)
(0.0403703345422 0.0165533935627 -1.66742291205e-23)
(0.0369599949835 0.0169815848622 7.09259197877e-23)
(0.04483587648 0.0197187924764 -3.56353015616e-22)
(0.0408519767776 0.0202056729989 -1.23460263894e-22)
(0.0453656380575 0.0240608231842 -6.5599815503e-22)
(0.0233525784109 0.00102709290299 -1.52385869446e-22)
(0.0236442987981 0.000618912516043 -2.07075229023e-22)
(0.0221602792344 0.00205032814528 -8.39417764731e-23)
(0.0220540051364 0.0016739900885 -8.86225474506e-23)
(0.0217352813272 0.0030968867539 -1.27182963018e-23)
(0.0212461073057 0.00278704459323 -4.02812387164e-23)
(0.0219702678592 0.00421176204114 2.25362711559e-23)
(0.021159602684 0.00396896621244 2.25075554729e-23)
(0.0226885439273 0.00542478236615 6.50221174316e-24)
(0.021635621993 0.00522428608734 1.01611163359e-23)
(0.0237464629501 0.00677193606277 -8.27376888521e-25)
(0.0224757692911 0.00660744503371 9.09662903877e-24)
(0.025089629475 0.00829291009916 -2.20385133549e-24)
(0.0235905745588 0.00815703086896 -3.42603960901e-24)
(0.0267258257122 0.0100347957111 6.18743287531e-24)
(0.0249656901874 0.0099171801709 -1.45224071591e-23)
(0.0286906580867 0.0120480236159 1.41213240043e-23)
(0.0266218808858 0.0119405610123 1.12667820519e-23)
(0.0310328962842 0.0143889980752 5.71761907693e-24)
(0.0285956002357 0.0142838226844 4.56555158323e-24)
(0.0338125861426 0.0171466950061 2.54739750288e-23)
(0.0309246594568 0.0170192127051 8.09595576752e-25)
(0.037103226759 0.0203917029263 -3.58601149854e-23)
(0.033714612907 0.0202375586119 5.28719038606e-23)
(0.0409549899146 0.0242489657849 -4.23105403307e-22)
(0.0369941875036 0.0240410997419 -7.41673422985e-23)
(0.0408075094204 0.0285592039497 -5.94308107259e-22)
(0.0222438899097 0.00119821152478 -1.43311907028e-22)
(0.0224462250699 0.000689139385563 -2.64010442105e-22)
(0.0210336493481 0.0023968510679 -4.49620096939e-23)
(0.0208555707836 0.00191583663581 -9.00450983491e-23)
(0.0205598744624 0.00362517949745 -5.05538694175e-24)
(0.020018122045 0.00318626511006 -3.62774781094e-23)
(0.0207083190419 0.00492341550712 1.01324006528e-23)
(0.0198618848754 0.00453220560333 5.36781631406e-24)
(0.0212994271053 0.00633480813348 1.27555336315e-23)
(0.0202249204772 0.00596159481646 -2.76518853595e-24)
(0.0221883268493 0.00790078993946 6.49796631829e-24)
(0.0209106063774 0.00753293060615 1.0338316338e-23)
(0.0233205430799 0.00966697139586 -1.57445954326e-23)
(0.0218252535838 0.00929033761123 -9.07651068503e-24)
(0.0246958746611 0.0116833609492 -9.44305798249e-24)
(0.0229500885457 0.0112825719869 -1.89186175318e-23)
(0.0263382762631 0.0140086859932 1.71100963083e-24)
(0.0242971549758 0.0135678709435 -6.03763052885e-24)
(0.0282853227417 0.016712987726 -3.42471916943e-25)
(0.0258916275682 0.0162110188038 -6.82082959303e-24)
(0.0305822427217 0.0198667604259 2.82075244085e-23)
(0.0277709358959 0.0192882611521 6.12097606696e-24)
(0.0332871615692 0.0235913006514 1.45646765475e-23)
(0.029989880078 0.0228982712874 7.13960477087e-23)
(0.0364536330206 0.0279841936325 -2.4537004625e-22)
(0.0326009641533 0.0271488351228 6.49612306879e-23)
(0.03565690119 0.0321753049015 -2.67624277246e-22)
(0.020969938823 0.00134500498587 -2.10743633426e-22)
(0.0211012195123 0.000749153829949 -3.24471354586e-22)
(0.0197461450896 0.00268772494733 -8.13605667646e-23)
(0.0195129309395 0.00211299250991 -1.51254036105e-22)
(0.019221662438 0.00405985756349 -2.58542748536e-23)
(0.0186462230837 0.00350744374263 -8.0985766354e-23)
(0.0192748647804 0.00550894540719 -7.52977287473e-24)
(0.0184132312001 0.004982828345 1.42246103699e-23)
(0.0197261225767 0.00708140952183 -5.18240582944e-24)
(0.0186531006027 0.00654898963853 -8.47022031397e-25)
(0.0204293971394 0.00882291691042 -5.23616066529e-24)
(0.0191699177759 0.0082666212366 -4.73231232569e-24)
(0.0213256761311 0.0107821902014 -1.22505327842e-23)
(0.0198668911895 0.0101835870395 -1.33087709296e-23)
(0.0224075323817 0.0130148600762 -1.55131900781e-23)
(0.0207183018954 0.0123516706581 -8.80274445275e-24)
(0.0236893318231 0.015583470821 -1.45694697527e-23)
(0.0217292652737 0.0148327654342 2.21511556422e-24)
(0.0251958397249 0.0185614021378 -3.57381609125e-25)
(0.022914144248 0.0176966010366 -8.29174201992e-24)
(0.0269636827495 0.0220366912307 4.93094993671e-23)
(0.0242957769335 0.0210270552919 1.98274477032e-23)
(0.0290394649783 0.0261161350155 1.21792601849e-22)
(0.0259102657092 0.0249248498986 9.49060497661e-23)
(0.031472324455 0.0309150896963 4.27069996912e-23)
(0.0278016419616 0.0294983660941 2.032058747e-22)
(0.0341993092363 0.036542824389 -8.63351048155e-22)
(0.0300287697057 0.0349003457272 1.98095166181e-22)
(0.0367210675719 0.0431182194274 -4.28708919316e-21)
(0.0323948188344 0.0408474930058 -1.79874097388e-21)
(0.0341142205361 0.049887355149 -4.76944562148e-21)
(0.0195663593092 0.00146085140044 -2.64981757265e-22)
(0.0196401704492 0.000788898921863 -3.82168928272e-22)
(0.0183327509744 0.00291257758892 -1.50879235695e-22)
(0.0180611044353 0.00225920333949 -2.06460148507e-22)
(0.0177547498964 0.00439564265126 -4.09068811305e-23)
(0.017163248247 0.00374443053888 -1.30176219906e-22)
(0.0177053347838 0.00595835338711 2.09073612132e-23)
(0.0168508666766 0.00531333529521 5.0319453534e-23)
(0.0180063836735 0.00765106952585 -3.9692852765e-25)
(0.0169610120552 0.00697722138828 1.88635979904e-23)
(0.0185110279196 0.0095220519818 -1.280492259e-23)
(0.0172998147469 0.00879710796452 -8.65728393483e-25)
(0.0191558066763 0.0116222913037 -9.86098259816e-24)
(0.0177676920804 0.0108229742593 -9.66124707903e-24)
(0.0199254822275 0.0140071587248 8.9255611896e-24)
(0.0183344848559 0.0131077409899 -5.77780793634e-24)
(0.0208246755071 0.0167459981676 8.49284329702e-24)
(0.0189913022728 0.0157156084025 1.66619924015e-23)
(0.0218661693684 0.0199157426588 1.18930872924e-23)
(0.0197449274439 0.0187191954129 -2.27125847721e-24)
(0.0230700621915 0.0236100906952 6.54239981022e-23)
(0.0206015034095 0.022205447618 2.06847441169e-23)
(0.0244709702881 0.0279404960136 1.76319322617e-22)
(0.0215794872851 0.026278444942 8.71264827772e-23)
(0.0261177098274 0.03302106839 3.5859404119e-22)
(0.0227203653147 0.0310498289483 2.34282315831e-22)
(0.0279372247954 0.0389841618054 -7.37294759544e-22)
(0.0240648417528 0.0366838971742 5.197183971e-22)
(0.0294699968711 0.0459492339617 -2.28109740219e-21)
(0.0254289170777 0.04294654966 -1.57420598615e-21)
(0.0261433485427 0.0525028407352 -2.14132526676e-22)
(0.0180701902188 0.00153883459396 -3.23647319515e-22)
(0.0168266325708 0.00306764441125 -1.85757132718e-22)
(0.0161930849138 0.00462610588064 -3.89498852411e-23)
(0.0160379348653 0.00626600947814 4.82756903113e-23)
(0.0161837912109 0.0080372973623 1.83947981246e-23)
(0.0164831608497 0.00998929048769 2.27794711752e-24)
(0.0168685806137 0.0121733932814 -5.57807241721e-24)
(0.017316838864 0.0146492017943 1.95862327558e-24)
(0.0178206997567 0.0174808180537 5.8978906273e-24)
(0.0183799487987 0.0207522003793 6.52039834736e-24)
(0.0189988723142 0.0245559074317 4.2387228792e-23)
(0.0196956859034 0.0290109634094 1.45089475991e-22)
(0.020518991762 0.0342386050546 3.95406671741e-22)
(0.0213918102924 0.0403693379495 -3.17192829509e-22)
(0.0219093319878 0.0475273996818 4.92758889365e-22)
)
;

boundaryField
{
    back
    {
        type            calculated;
        value           uniform (0 0 0);
    }
    sides
    {
        type            calculated;
        value           nonuniform List<vector> 0();
    }
    bottom
    {
        type            calculated;
        value           uniform (0 0 0);
    }
    front
    {
        type            calculated;
        value           uniform (0 0 0);
    }
    atmosphere
    {
        type            calculated;
        value           nonuniform List<vector> 0();
    }
    floatingObject
    {
        type            calculated;
        value           nonuniform List<vector> 0();
    }
    procBoundary7to6
    {
        type            processor;
        value           nonuniform List<vector> 
11
(
(0.0554895980744 0.00201179607643 -3.79584925822e-21)
(0.0551437681478 0.00978428776189 -4.98952383214e-21)
(0.0531137623839 0.017081578051 -1.99443225185e-21)
(0.0496887697978 0.0234580550248 -1.97250937332e-21)
(0.0452316194066 0.0288065204699 -1.29317158058e-21)
(0.0400049087856 0.0331345305357 -1.50769218837e-21)
(0.038970615637 0.037709709556 -2.10341895928e-21)
(0.0416549737735 0.0459311674628 -6.41527183751e-21)
(0.0383852497381 0.0506587149719 -1.23137637044e-20)
(0.030039974195 0.0539194833587 -7.28815800329e-21)
(0.0216229657862 0.0556273262474 -7.31556383858e-21)
)
;
    }
    procBoundary7to8
    {
        type            processor;
        value           nonuniform List<vector> 
17
(
(0.0252436100574 -0.000359158226742 -2.16250329513e-22)
(0.0237369052337 -0.0012771228319 -4.49214781345e-22)
(0.0230401008947 -0.00204311997224 -1.85429144012e-22)
(0.0231377089781 -0.00282722426054 5.03962297827e-23)
(0.023890445223 -0.00363611746895 1.73560744435e-22)
(0.0250938183347 -0.00448331115373 1.71011225365e-22)
(0.0266441750685 -0.00537858955788 1.39708416514e-22)
(0.028507363007 -0.00634221263643 1.20235483084e-22)
(0.0300364712737 -0.00579219512521 1.04762375117e-22)
(0.031646458338 -0.00502794169155 7.16346310224e-23)
(0.0342728623206 -0.00590615210977 8.67700919899e-23)
(0.0373073587651 -0.00697530910064 6.3222186645e-23)
(0.0396697337053 -0.00593171979734 -1.0884160614e-22)
(0.0421310407675 -0.00443917871755 -2.23178004292e-22)
(0.0464975165051 -0.00567684459967 -1.19370921737e-21)
(0.0496608076837 -0.00386260807029 -1.83107170987e-21)
(0.0528330101517 -0.00111499687809 -2.40478511687e-21)
)
;
    }
    procBoundary7to9
    {
        type            processor;
        value           nonuniform List<vector> 
16
(
(0.018101002706 0.000808396969728 -4.51199866847e-22)
(0.016532060985 0.00235340336489 -2.29567199209e-22)
(0.0156047560552 0.00389533773383 -1.32905546944e-22)
(0.0152112129117 0.0055216558146 5.57904990146e-23)
(0.0151902882525 0.00724325105781 2.41954369982e-23)
(0.0153486755895 0.00912025546045 2.43764642577e-24)
(0.0155846361623 0.0112032871011 -2.55524734001e-24)
(0.0158597503036 0.0135441583289 -2.26921903056e-24)
(0.0161605736325 0.016206573607 7.82293491082e-24)
(0.0164740390856 0.0192647249049 5.09016642781e-24)
(0.0167977680974 0.0228053174156 1.94434575316e-24)
(0.0171238689177 0.0269331465531 2.63519501016e-23)
(0.0174917775789 0.0317674841054 5.83830529633e-23)
(0.0179329490551 0.0374609424226 1.64370945721e-22)
(0.0182697719501 0.0438693200655 -1.44272956685e-21)
(0.0180425838261 0.0536173218974 1.62092280791e-21)
)
;
    }
}


// ************************************************************************* //
