/*--------------------------------*- C++ -*----------------------------------*\
| =========                 |                                                 |
| \\      /  F ield         | OpenFOAM: The Open Source CFD Toolbox           |
|  \\    /   O peration     | Version:  v2012                                 |
|   \\  /    A nd           | Website:  www.openfoam.com                      |
|    \\/     M anipulation  |                                                 |
\*---------------------------------------------------------------------------*/
FoamFile
{
    version     2.0;
    format      ascii;
    class       volScalarField;
    location    "2";
    object      rAU;
}
// * * * * * * * * * * * * * * * * * * * * * * * * * * * * * * * * * * * * * //

dimensions      [-1 3 1 0 0 0 0];


internalField   nonuniform List<scalar> 
167
(
9.48977166143e-06
9.46353403984e-06
9.45970780498e-06
9.45804898049e-06
9.45811676105e-06
9.45743157054e-06
9.45688696708e-06
9.4563190742e-06
9.46125645519e-06
9.41368554393e-06
9.40690116949e-06
9.40510461981e-06
9.40490691186e-06
9.4040206755e-06
9.40329529494e-06
9.40258313381e-06
9.45752226068e-06
9.40496045575e-06
9.3981105581e-06
9.39627276198e-06
9.39607195823e-06
9.39519260812e-06
9.39450160592e-06
9.393792373e-06
9.45570988892e-06
9.4024629317e-06
9.39588586111e-06
9.3939814143e-06
9.3938400973e-06
9.39300736078e-06
9.39234693785e-06
9.39166560888e-06
9.39087076419e-06
9.45435816897e-06
9.40088573048e-06
9.39516539304e-06
9.39320709367e-06
9.39306297794e-06
9.39223114537e-06
9.39158851332e-06
9.39093177108e-06
9.39015032013e-06
9.3892632667e-06
9.45388600371e-06
9.40035409085e-06
9.39451215295e-06
9.39251066693e-06
9.39237883036e-06
9.39157202733e-06
9.3909655948e-06
9.39029616314e-06
9.38953390915e-06
9.38866317339e-06
9.45348877748e-06
9.39995947358e-06
9.39391837818e-06
9.3919279865e-06
9.39178457733e-06
9.39101017554e-06
9.3904167471e-06
9.38974653015e-06
9.38899732497e-06
9.38814855791e-06
9.45308352553e-06
9.39951818532e-06
9.39329374705e-06
9.39128780389e-06
9.39114946651e-06
9.39038476638e-06
9.38979353573e-06
9.38918604139e-06
9.38846409602e-06
9.38760384031e-06
9.45264765406e-06
9.39900176853e-06
9.39263132799e-06
9.39057891991e-06
9.39047205208e-06
9.38969459249e-06
9.38918961239e-06
9.38865449193e-06
9.38790541129e-06
9.38703350611e-06
9.45220117884e-06
9.39849208336e-06
9.39191610219e-06
9.38984364853e-06
9.3897778334e-06
9.38906301674e-06
9.38862306278e-06
9.38808508191e-06
9.38730026479e-06
9.38644809981e-06
9.45176272077e-06
9.39802300242e-06
9.39120597525e-06
9.389100501e-06
9.38906010801e-06
9.3884013254e-06
9.38798049866e-06
9.3873750464e-06
9.38663669904e-06
9.38587340857e-06
9.45122050566e-06
9.39755356639e-06
9.39031544023e-06
9.38826506598e-06
9.38829411285e-06
9.38768086115e-06
9.38725625769e-06
9.38669145042e-06
9.38609966917e-06
9.38534511659e-06
9.45044036622e-06
9.39665890485e-06
9.38924434347e-06
9.38736906131e-06
9.38748812373e-06
9.3869822965e-06
9.38662196477e-06
9.38622710385e-06
9.38569826914e-06
9.38478935135e-06
9.44969395134e-06
9.39571560342e-06
9.38842297971e-06
9.38652343818e-06
9.38672734061e-06
9.3863315564e-06
9.38611289324e-06
9.38575772135e-06
9.38511236666e-06
9.38424133028e-06
9.44927256983e-06
9.39536984278e-06
9.38772773045e-06
9.38575785892e-06
9.38603706444e-06
9.38577999232e-06
9.3856516659e-06
9.3852311917e-06
9.38465284748e-06
9.38389721546e-06
9.44879029247e-06
9.39470974172e-06
9.38697081329e-06
9.38498293629e-06
9.38540747298e-06
9.38535238728e-06
9.38538877994e-06
9.38502974196e-06
9.38450025315e-06
9.38363714898e-06
9.4466505242e-06
9.39303600482e-06
9.38524537926e-06
9.38365451896e-06
9.38475840834e-06
9.38513713495e-06
9.38533679387e-06
9.44392227315e-06
9.39099977821e-06
9.38308708791e-06
9.38290692268e-06
9.38465306758e-06
9.38300817539e-06
9.3833280524e-06
)
;

boundaryField
{
    back
    {
        type            calculated;
        value           nonuniform List<scalar> 
167
(
9.48977166143e-06
9.46353403984e-06
9.45970780498e-06
9.45804898049e-06
9.45811676105e-06
9.45743157054e-06
9.45688696708e-06
9.4563190742e-06
9.46125645519e-06
9.41368554393e-06
9.40690116949e-06
9.40510461981e-06
9.40490691186e-06
9.4040206755e-06
9.40329529494e-06
9.40258313381e-06
9.45752226068e-06
9.40496045575e-06
9.3981105581e-06
9.39627276198e-06
9.39607195823e-06
9.39519260812e-06
9.39450160592e-06
9.393792373e-06
9.45570988892e-06
9.4024629317e-06
9.39588586111e-06
9.3939814143e-06
9.3938400973e-06
9.39300736078e-06
9.39234693785e-06
9.39166560888e-06
9.39087076419e-06
9.45435816897e-06
9.40088573048e-06
9.39516539304e-06
9.39320709367e-06
9.39306297794e-06
9.39223114537e-06
9.39158851332e-06
9.39093177108e-06
9.39015032013e-06
9.3892632667e-06
9.45388600371e-06
9.40035409085e-06
9.39451215295e-06
9.39251066693e-06
9.39237883036e-06
9.39157202733e-06
9.3909655948e-06
9.39029616314e-06
9.38953390915e-06
9.38866317339e-06
9.45348877748e-06
9.39995947358e-06
9.39391837818e-06
9.3919279865e-06
9.39178457733e-06
9.39101017554e-06
9.3904167471e-06
9.38974653015e-06
9.38899732497e-06
9.38814855791e-06
9.45308352553e-06
9.39951818532e-06
9.39329374705e-06
9.39128780389e-06
9.39114946651e-06
9.39038476638e-06
9.38979353573e-06
9.38918604139e-06
9.38846409602e-06
9.38760384031e-06
9.45264765406e-06
9.39900176853e-06
9.39263132799e-06
9.39057891991e-06
9.39047205208e-06
9.38969459249e-06
9.38918961239e-06
9.38865449193e-06
9.38790541129e-06
9.38703350611e-06
9.45220117884e-06
9.39849208336e-06
9.39191610219e-06
9.38984364853e-06
9.3897778334e-06
9.38906301674e-06
9.38862306278e-06
9.38808508191e-06
9.38730026479e-06
9.38644809981e-06
9.45176272077e-06
9.39802300242e-06
9.39120597525e-06
9.389100501e-06
9.38906010801e-06
9.3884013254e-06
9.38798049866e-06
9.3873750464e-06
9.38663669904e-06
9.38587340857e-06
9.45122050566e-06
9.39755356639e-06
9.39031544023e-06
9.38826506598e-06
9.38829411285e-06
9.38768086115e-06
9.38725625769e-06
9.38669145042e-06
9.38609966917e-06
9.38534511659e-06
9.45044036622e-06
9.39665890485e-06
9.38924434347e-06
9.38736906131e-06
9.38748812373e-06
9.3869822965e-06
9.38662196477e-06
9.38622710385e-06
9.38569826914e-06
9.38478935135e-06
9.44969395134e-06
9.39571560342e-06
9.38842297971e-06
9.38652343818e-06
9.38672734061e-06
9.3863315564e-06
9.38611289324e-06
9.38575772135e-06
9.38511236666e-06
9.38424133028e-06
9.44927256983e-06
9.39536984278e-06
9.38772773045e-06
9.38575785892e-06
9.38603706444e-06
9.38577999232e-06
9.3856516659e-06
9.3852311917e-06
9.38465284748e-06
9.38389721546e-06
9.44879029247e-06
9.39470974172e-06
9.38697081329e-06
9.38498293629e-06
9.38540747298e-06
9.38535238728e-06
9.38538877994e-06
9.38502974196e-06
9.38450025315e-06
9.38363714898e-06
9.4466505242e-06
9.39303600482e-06
9.38524537926e-06
9.38365451896e-06
9.38475840834e-06
9.38513713495e-06
9.38533679387e-06
9.44392227315e-06
9.39099977821e-06
9.38308708791e-06
9.38290692268e-06
9.38465306758e-06
9.38300817539e-06
9.3833280524e-06
)
;
    }
    sides
    {
        type            calculated;
        value           nonuniform List<scalar> 8(9.48977166143e-06 9.46353403984e-06 9.45970780498e-06 9.45804898049e-06 9.45811676105e-06 9.45743157054e-06 9.45688696708e-06 9.4563190742e-06);
    }
    bottom
    {
        type            calculated;
        value           nonuniform List<scalar> 
18
(
9.48977166143e-06
9.46125645519e-06
9.45752226068e-06
9.45570988892e-06
9.45435816897e-06
9.45388600371e-06
9.45348877748e-06
9.45308352553e-06
9.45264765406e-06
9.45220117884e-06
9.45176272077e-06
9.45122050566e-06
9.45044036622e-06
9.44969395134e-06
9.44927256983e-06
9.44879029247e-06
9.4466505242e-06
9.44392227315e-06
)
;
    }
    front
    {
        type            calculated;
        value           nonuniform List<scalar> 
167
(
9.48977166143e-06
9.46353403984e-06
9.45970780498e-06
9.45804898049e-06
9.45811676105e-06
9.45743157054e-06
9.45688696708e-06
9.4563190742e-06
9.46125645519e-06
9.41368554393e-06
9.40690116949e-06
9.40510461981e-06
9.40490691186e-06
9.4040206755e-06
9.40329529494e-06
9.40258313381e-06
9.45752226068e-06
9.40496045575e-06
9.3981105581e-06
9.39627276198e-06
9.39607195823e-06
9.39519260812e-06
9.39450160592e-06
9.393792373e-06
9.45570988892e-06
9.4024629317e-06
9.39588586111e-06
9.3939814143e-06
9.3938400973e-06
9.39300736078e-06
9.39234693785e-06
9.39166560888e-06
9.39087076419e-06
9.45435816897e-06
9.40088573048e-06
9.39516539304e-06
9.39320709367e-06
9.39306297794e-06
9.39223114537e-06
9.39158851332e-06
9.39093177108e-06
9.39015032013e-06
9.3892632667e-06
9.45388600371e-06
9.40035409085e-06
9.39451215295e-06
9.39251066693e-06
9.39237883036e-06
9.39157202733e-06
9.3909655948e-06
9.39029616314e-06
9.38953390915e-06
9.38866317339e-06
9.45348877748e-06
9.39995947358e-06
9.39391837818e-06
9.3919279865e-06
9.39178457733e-06
9.39101017554e-06
9.3904167471e-06
9.38974653015e-06
9.38899732497e-06
9.38814855791e-06
9.45308352553e-06
9.39951818532e-06
9.39329374705e-06
9.39128780389e-06
9.39114946651e-06
9.39038476638e-06
9.38979353573e-06
9.38918604139e-06
9.38846409602e-06
9.38760384031e-06
9.45264765406e-06
9.39900176853e-06
9.39263132799e-06
9.39057891991e-06
9.39047205208e-06
9.38969459249e-06
9.38918961239e-06
9.38865449193e-06
9.38790541129e-06
9.38703350611e-06
9.45220117884e-06
9.39849208336e-06
9.39191610219e-06
9.38984364853e-06
9.3897778334e-06
9.38906301674e-06
9.38862306278e-06
9.38808508191e-06
9.38730026479e-06
9.38644809981e-06
9.45176272077e-06
9.39802300242e-06
9.39120597525e-06
9.389100501e-06
9.38906010801e-06
9.3884013254e-06
9.38798049866e-06
9.3873750464e-06
9.38663669904e-06
9.38587340857e-06
9.45122050566e-06
9.39755356639e-06
9.39031544023e-06
9.38826506598e-06
9.38829411285e-06
9.38768086115e-06
9.38725625769e-06
9.38669145042e-06
9.38609966917e-06
9.38534511659e-06
9.45044036622e-06
9.39665890485e-06
9.38924434347e-06
9.38736906131e-06
9.38748812373e-06
9.3869822965e-06
9.38662196477e-06
9.38622710385e-06
9.38569826914e-06
9.38478935135e-06
9.44969395134e-06
9.39571560342e-06
9.38842297971e-06
9.38652343818e-06
9.38672734061e-06
9.3863315564e-06
9.38611289324e-06
9.38575772135e-06
9.38511236666e-06
9.38424133028e-06
9.44927256983e-06
9.39536984278e-06
9.38772773045e-06
9.38575785892e-06
9.38603706444e-06
9.38577999232e-06
9.3856516659e-06
9.3852311917e-06
9.38465284748e-06
9.38389721546e-06
9.44879029247e-06
9.39470974172e-06
9.38697081329e-06
9.38498293629e-06
9.38540747298e-06
9.38535238728e-06
9.38538877994e-06
9.38502974196e-06
9.38450025315e-06
9.38363714898e-06
9.4466505242e-06
9.39303600482e-06
9.38524537926e-06
9.38365451896e-06
9.38475840834e-06
9.38513713495e-06
9.38533679387e-06
9.44392227315e-06
9.39099977821e-06
9.38308708791e-06
9.38290692268e-06
9.38465306758e-06
9.38300817539e-06
9.3833280524e-06
)
;
    }
    atmosphere
    {
        type            calculated;
        value           nonuniform List<scalar> 0();
    }
    floatingObject
    {
        type            calculated;
        value           nonuniform List<scalar> 0();
    }
    procBoundary2to0
    {
        type            processor;
        value           nonuniform List<scalar> 
14
(
9.38517481704e-06
9.38465170201e-06
9.38372227169e-06
9.38521222775e-06
9.38517481704e-06
9.38559548933e-06
9.44284217096e-06
9.38928324313e-06
9.38521222775e-06
9.38497807019e-06
9.38928324313e-06
9.38220125968e-06
9.38497807019e-06
9.38287941396e-06
)
;
    }
    procBoundary2to1
    {
        type            processor;
        value           nonuniform List<scalar> 
18
(
9.45564119337e-06
9.40177952028e-06
9.39296897594e-06
9.39296897594e-06
9.38996905444e-06
9.38996905444e-06
9.38818831897e-06
9.38760110656e-06
9.38710018323e-06
9.38657504019e-06
9.38602876081e-06
9.38545231891e-06
9.38490273794e-06
9.38433763559e-06
9.38375765797e-06
9.38331217262e-06
9.38274286414e-06
9.38212902914e-06
)
;
    }
}


// ************************************************************************* //
