/*--------------------------------*- C++ -*----------------------------------*\
| =========                 |                                                 |
| \\      /  F ield         | OpenFOAM: The Open Source CFD Toolbox           |
|  \\    /   O peration     | Version:  v2012                                 |
|   \\  /    A nd           | Website:  www.openfoam.com                      |
|    \\/     M anipulation  |                                                 |
\*---------------------------------------------------------------------------*/
FoamFile
{
    version     2.0;
    format      ascii;
    class       volScalarField;
    location    "0.2";
    object      nut;
}
// * * * * * * * * * * * * * * * * * * * * * * * * * * * * * * * * * * * * * //

dimensions      [0 2 -1 0 0 0 0];


internalField   nonuniform List<scalar> 
166
(
0.00193717627534
0.00273742405306
0.00275342242608
0.00275490992907
0.00275508205914
0.00275517334701
0.00275527301226
0.00275538498409
0.00275550763406
0.00275563872234
0.00275577569648
0.0027559157273
0.00275605573184
0.00275619269464
0.00275632767862
0.00275651742848
0.00275744733959
0.00276559493437
0.00282808791815
0.00316651183698
0.00193673001999
0.00273694873942
0.00275295559089
0.00275443815213
0.00275460210489
0.00275468313302
0.00275477063658
0.00275486866801
0.00275497576047
0.00275508990284
0.00275520883025
0.00275533004315
0.00275545086182
0.0027555686913
0.0027556844295
0.00275584774612
0.00275667767329
0.00276424291612
0.00282452651811
0.0031634274258
0.00193629447266
0.00273648872355
0.00275250551989
0.00275398465532
0.00275414233222
0.00275421544371
0.00275429355836
0.00275438083395
0.00275447594109
0.00275457704761
0.00275468210084
0.00275478886866
0.00275489498719
0.00275499818691
0.00275509921803
0.00275524186661
0.00275598853089
0.00276304574684
0.00282132359419
0.00316063093705
0.00193587203436
0.00273604560449
0.00275207338942
0.00275355036713
0.00275370338201
0.00275377055956
0.00275384162546
0.00275392081975
0.00275400691211
0.00275409819874
0.00275419279378
0.0027542886704
0.002754383707
0.00275447588205
0.00275456580704
0.00275469234513
0.00275536931279
0.00276198146565
0.00281843495612
0.00315808946766
0.00193546440793
0.00273562040665
0.00275165987822
0.00275313575724
0.00275328548438
0.00275334841482
0.00275341441284
0.00275348776876
0.00275356731827
0.00275365144929
0.00275373839667
0.00275382628482
0.00275391317275
0.00275399722482
0.00275407892003
0.00275419297606
0.00275481134038
0.00276103216648
0.00281582391108
0.00315577559921
0.00193507269781
0.00273521365544
0.00275126523562
0.00275274091062
0.00275288852808
0.00275294865228
0.00275301126184
0.00275308067141
0.00275315575291
0.00275323494941
0.00275331657638
0.00275339886088
0.0027534799887
0.0027535582643
0.00275363403901
0.00275373851948
0.00275430742241
0.00276018311627
0.00281345976061
0.00315366629086
0.00193469752181
0.00273482547827
0.00275088937801
0.00275236560334
0.00275251213054
0.00275257069341
0.00275263135376
0.00275269843182
0.00275277079882
0.00275284692854
0.00275292517547
0.00275300382599
0.00275308114539
0.00275315555119
0.00275322727193
0.00275332452436
0.00275385156157
0.00275942211235
0.00281131665794
0.00315174204038
0.00193433910892
0.00273445568272
0.0027505319428
0.00275200937777
0.00275215571434
0.00275221379996
0.00275227376774
0.00275233989742
0.00275241105199
0.00275248569283
0.00275256218957
0.00275263884704
0.00275271396956
0.00275278607005
0.00275285526197
0.00275294719934
0.00275343872704
0.00275873897316
0.00280937269256
0.0031499862272
0.00193399736495
0.00273410382702
0.00275019236857
0.00193367196249
0.00193336237461
0.00193306793472
)
;

boundaryField
{
    back
    {
        type            nutkWallFunction;
        blending        stepwise;
        Cmu             0.09;
        kappa           0.41;
        E               9.8;
        value           nonuniform List<scalar> 
166
(
0.000240695364856
0.000252699941941
0.000253835758328
0.000253933645014
0.000253944878301
0.000253951260755
0.000253958299278
0.000253966200627
0.000253974840642
0.000253984055495
0.000253993659701
0.00025400344889
0.00025401320075
0.000254022692092
0.000254031895751
0.000254043632138
0.000254095057823
0.000254565926031
0.000258491979923
0.000282231465413
0.00024065118861
0.000252665220954
0.000253801652266
0.000253899175035
0.00025390981773
0.000253915461364
0.000253921625522
0.000253928526347
0.000253936051985
0.000253944056104
0.000253952375002
0.000253960828578
0.000253969224295
0.000253977371003
0.00025398524634
0.000253995321605
0.000254041139816
0.000254478095496
0.000258262654487
0.000282004942072
0.000240608200192
0.000252631692005
0.000253768833826
0.000253866101297
0.000253876291605
0.000253881366784
0.000253886857851
0.000253892988939
0.000253899658745
0.000253906734542
0.000253914068346
0.000253921499841
0.000253928859702
0.000253935981477
0.000253942845302
0.000253951631827
0.000253992805845
0.000254400251192
0.0002580567306
0.000281800221604
0.000240566618353
0.000252599462365
0.000253737381853
0.000253834484772
0.000253844339523
0.000253848989779
0.000253853977025
0.000253859531669
0.000253865559956
0.000253871938777
0.000253878532553
0.000253885196091
0.000253891777778
0.000253898129933
0.000253904233228
0.000253912024643
0.000253949332489
0.000254330983087
0.000257871275932
0.000281614707599
0.00024052659355
0.000252568596949
0.000253707338121
0.000253804352199
0.00025381397058
0.000253818317694
0.000253822944043
0.00025382808379
0.000253833648228
0.000253839521151
0.000253845575931
0.000253851678455
0.00025385769028
0.000253863477768
0.000253869020571
0.000253876050028
0.000253910125325
0.000254269142019
0.00025770386223
0.000281446250804
0.000240488218859
0.000252539125173
0.000253678713654
0.000253775702783
0.000253785169699
0.000253789317422
0.000253793703619
0.00025379856433
0.000253803813619
0.000253809339497
0.000253815021196
0.000253820732315
0.00025382634348
0.000253831731576
0.000253836874094
0.00025384332783
0.000253874690705
0.000254213782758
0.000257552462653
0.00028129305553
0.000240451541055
0.000252511048187
0.000253651495588
0.000253748513975
0.000253757902674
0.000253761940297
0.000253766189608
0.000253770886808
0.000253775946344
0.000253781258162
0.000253786705206
0.000253792164228
0.000253797512572
0.000253802635266
0.000253807506828
0.00025381353489
0.000253842616021
0.000254164122528
0.000257415374264
0.000281153609538
0.000240416569962
0.000252484344714
0.000253625651989
0.000253722746786
0.000253732121663
0.00025373612689
0.000253740328905
0.000253744961504
0.000253749938029
0.00025375514873
0.0002537604755
0.000253765799356
0.000253770998326
0.000253775965538
0.00025378067148
0.000253786396
0.000253813554461
0.000254119508395
0.000257291155953
0.000281026629525
0.000240383285544
0.0002524589766
0.000253601136788
0.000240351646025
0.000240321591209
0.000240293048598
)
;
    }
    sides
    {
        type            nutkWallFunction;
        blending        stepwise;
        Cmu             0.09;
        kappa           0.41;
        E               9.8;
        value           nonuniform List<scalar> 0();
    }
    bottom
    {
        type            nutkWallFunction;
        blending        stepwise;
        Cmu             0.09;
        kappa           0.41;
        E               9.8;
        value           nonuniform List<scalar> 
12
(
0.00012792350801
0.000127900100252
0.000127877321868
0.000127855288772
0.000127834080689
0.000127813746939
0.00012779431231
0.000127775782009
0.000127758145422
0.000127741380414
0.000127725455091
0.000127710331039
)
;
    }
    front
    {
        type            nutkWallFunction;
        blending        stepwise;
        Cmu             0.09;
        kappa           0.41;
        E               9.8;
        value           nonuniform List<scalar> 
166
(
0.000240695364856
0.000252699941941
0.000253835758328
0.000253933645014
0.000253944878301
0.000253951260755
0.000253958299278
0.000253966200627
0.000253974840642
0.000253984055495
0.000253993659701
0.00025400344889
0.00025401320075
0.000254022692092
0.000254031895751
0.000254043632138
0.000254095057823
0.000254565926031
0.000258491979923
0.000282231465413
0.00024065118861
0.000252665220954
0.000253801652266
0.000253899175035
0.00025390981773
0.000253915461364
0.000253921625522
0.000253928526347
0.000253936051985
0.000253944056104
0.000253952375002
0.000253960828578
0.000253969224295
0.000253977371003
0.00025398524634
0.000253995321605
0.000254041139816
0.000254478095496
0.000258262654487
0.000282004942072
0.000240608200192
0.000252631692005
0.000253768833826
0.000253866101297
0.000253876291605
0.000253881366784
0.000253886857851
0.000253892988939
0.000253899658745
0.000253906734542
0.000253914068346
0.000253921499841
0.000253928859702
0.000253935981477
0.000253942845302
0.000253951631827
0.000253992805845
0.000254400251192
0.0002580567306
0.000281800221604
0.000240566618353
0.000252599462365
0.000253737381853
0.000253834484772
0.000253844339523
0.000253848989779
0.000253853977025
0.000253859531669
0.000253865559956
0.000253871938777
0.000253878532553
0.000253885196091
0.000253891777778
0.000253898129933
0.000253904233228
0.000253912024643
0.000253949332489
0.000254330983087
0.000257871275932
0.000281614707599
0.00024052659355
0.000252568596949
0.000253707338121
0.000253804352199
0.00025381397058
0.000253818317694
0.000253822944043
0.00025382808379
0.000253833648228
0.000253839521151
0.000253845575931
0.000253851678455
0.00025385769028
0.000253863477768
0.000253869020571
0.000253876050028
0.000253910125325
0.000254269142019
0.00025770386223
0.000281446250804
0.000240488218859
0.000252539125173
0.000253678713654
0.000253775702783
0.000253785169699
0.000253789317422
0.000253793703619
0.00025379856433
0.000253803813619
0.000253809339497
0.000253815021196
0.000253820732315
0.00025382634348
0.000253831731576
0.000253836874094
0.00025384332783
0.000253874690705
0.000254213782758
0.000257552462653
0.00028129305553
0.000240451541055
0.000252511048187
0.000253651495588
0.000253748513975
0.000253757902674
0.000253761940297
0.000253766189608
0.000253770886808
0.000253775946344
0.000253781258162
0.000253786705206
0.000253792164228
0.000253797512572
0.000253802635266
0.000253807506828
0.00025381353489
0.000253842616021
0.000254164122528
0.000257415374264
0.000281153609538
0.000240416569962
0.000252484344714
0.000253625651989
0.000253722746786
0.000253732121663
0.00025373612689
0.000253740328905
0.000253744961504
0.000253749938029
0.00025375514873
0.0002537604755
0.000253765799356
0.000253770998326
0.000253775965538
0.00025378067148
0.000253786396
0.000253813554461
0.000254119508395
0.000257291155953
0.000281026629525
0.000240383285544
0.0002524589766
0.000253601136788
0.000240351646025
0.000240321591209
0.000240293048598
)
;
    }
    atmosphere
    {
        type            calculated;
        value           uniform 0.009;
    }
    floatingObject
    {
        type            nutkWallFunction;
        blending        stepwise;
        Cmu             0.09;
        kappa           0.41;
        E               9.8;
        value           nonuniform List<scalar> 0();
    }
    procBoundary9to6
    {
        type            processor;
        value           nonuniform List<scalar> 4(0.00275831039251 0.00276712887509 0.00283206139926 0.00316992402553);
    }
    procBoundary9to7
    {
        type            processor;
        value           nonuniform List<scalar> 
16
(
0.00193762983757
0.0027379121121
0.0027539039998
0.00275539827724
0.00275558085197
0.00275568519652
0.00275580034358
0.0027559300726
0.00275607256279
0.002756225322
0.00275638544055
0.00275654965935
0.00275671440664
0.00275687613914
0.00275703609944
0.0027572596444
)
;
    }
    procBoundary9to10
    {
        type            processor;
        value           nonuniform List<scalar> 
15
(
0.00275167158852
0.00275181853304
0.00275187711688
0.00275193748974
0.00275200389197
0.00275207512758
0.00275214963405
0.00275222576989
0.00273376927499
0.00275167158852
0.00274986992945
0.00273376927499
0.00273345121525
0.00273314886486
0.00193278791211
)
;
    }
    procBoundary9to11
    {
        type            processor;
        value           nonuniform List<scalar> 9(0.00275230185869 0.00275237610589 0.0027524471847 0.00275251509088 0.00275260326908 0.00275306463354 0.00275812512186 0.00280760917286 0.0031483845967);
    }
}


// ************************************************************************* //
