/*--------------------------------*- C++ -*----------------------------------*\
| =========                 |                                                 |
| \\      /  F ield         | OpenFOAM: The Open Source CFD Toolbox           |
|  \\    /   O peration     | Version:  v2012                                 |
|   \\  /    A nd           | Website:  www.openfoam.com                      |
|    \\/     M anipulation  |                                                 |
\*---------------------------------------------------------------------------*/
FoamFile
{
    version     2.0;
    format      ascii;
    class       volVectorField;
    location    "5.6";
    object      U_0;
}
// * * * * * * * * * * * * * * * * * * * * * * * * * * * * * * * * * * * * * //

dimensions      [0 1 -1 0 0 0 0];


internalField   nonuniform List<vector> 
164
(
(0.00662631126347 0.00441904755147 4.7982146008e-18)
(0.0143342813295 0.0144149794724 3.83379390666e-18)
(0.0188540071168 0.0225087891963 2.59094997218e-18)
(0.0221843016595 0.0360017490744 1.82416705995e-18)
(0.022727048536 0.0493453209663 1.36853979373e-18)
(0.0235050651219 0.0544492883369 1.17643569248e-18)
(0.0808876007393 0.0704206219336 1.12207735048e-18)
(0.613361435075 0.8270289977 8.97462510683e-19)
(-0.00539296523559 -0.00347691271982 3.34862585705e-18)
(0.0014548771381 0.00648169023679 3.01204154046e-18)
(0.00495794918127 0.0149176415886 2.34377943337e-18)
(0.00633762447991 0.0318619152483 1.88344698092e-18)
(0.00619186037792 0.0492630354549 1.55007918384e-18)
(0.00345282492031 0.057971167592 1.37864671526e-18)
(-0.0599763327795 0.0803697337656 1.38697803169e-18)
(-0.873689847649 0.913738752459 1.02135859613e-18)
(0.00260895380754 -0.00363090369101 3.35997148417e-18)
(-0.00462775469355 0.00611829801942 3.02577595008e-18)
(-0.00889257403733 0.0143729962247 2.35790490191e-18)
(-0.0114968092889 0.0307370757875 1.89125826578e-18)
(-0.0125503427346 0.0468162163378 1.53908869051e-18)
(-0.0156363625849 0.0560985923795 1.38140523172e-18)
(-0.113033210338 0.0713075845378 1.31331866194e-18)
(-1.30928511739 -0.165966212437 1.12861514675e-18)
(-0.00902697078232 0.00425295044275 4.8294367752e-18)
(-0.0171185266101 0.0137934875204 3.86324145936e-18)
(-0.0222271874898 0.0213045370736 2.60342202692e-18)
(-0.0261659003478 0.0337342629235 1.82588757425e-18)
(-0.0274556672294 0.0455022489671 1.35476434036e-18)
(-0.0287749863566 0.0521968585496 1.17732584925e-18)
(-0.133190757689 0.0658431570568 1.01479204305e-18)
(-0.594692830838 -0.114367860705 7.89883056034e-19)
(-0.0271256895454 0.0360436997698 3.0667813693e-18)
(-0.0337492819722 0.0399865748918 1.69956674706e-18)
(-0.0366356356523 0.0455349805593 1.09329739444e-18)
(-0.0394913857172 0.049293146797 8.88666954618e-19)
(-0.147844558824 0.0646988582195 8.48258924163e-19)
(-0.361102543928 -0.00915098084918 5.88476899973e-19)
(-0.025840177669 0.0395879378404 2.96880588814e-18)
(-0.0366735966373 0.0416639809962 1.29347023382e-18)
(-0.0418520452863 0.0438682051457 6.94178439165e-19)
(-0.0469819244213 0.046934962192 5.51615186118e-19)
(-0.125558039571 0.0543297923676 4.82092529155e-19)
(-0.300437147197 -0.0265589995829 3.68601412556e-19)
(-0.0278095390906 0.0396290049993 1.81988104073e-18)
(-0.0378078053874 0.0406241018107 7.33865202231e-19)
(-0.0437608840222 0.0396304746313 3.50837855656e-19)
(-0.0493337197891 0.0397334265275 2.62996400907e-19)
(-0.0983125700992 0.0444568231288 2.29929339529e-19)
(-0.169028399606 -0.0563326685406 2.50224213393e-19)
(-0.0294325947504 0.0375202805653 7.03926427067e-19)
(-0.0377072084594 0.0382845939274 2.6750161007e-19)
(-0.043212069099 0.0368416945949 1.16742197856e-19)
(-0.0470926032055 0.0365621778433 8.0962593534e-20)
(-0.0745014215057 0.0379411012429 6.6745952968e-20)
(-0.0977438684703 -0.0172133506203 6.76721595149e-20)
(-0.0308953119436 0.0345604876697 1.8525559053e-19)
(-0.037265881999 0.0353428015778 5.55840052901e-20)
(-0.0418449150652 0.0331295426021 1.12812090573e-20)
(-0.0451326209818 0.0334598903288 4.11315229891e-21)
(-0.0645874246146 0.034727777746 -4.26936229875e-20)
(-0.0637607536445 -0.0141693982449 -1.66827508359e-20)
(-0.0323691853171 0.0314617115043 2.76164501604e-20)
(-0.0370639788514 0.032792296638 -1.38459067831e-20)
(-0.040662275761 0.0314423135619 -3.80348724331e-20)
(-0.043774225669 0.034318185722 -4.26489358184e-20)
(-0.0490477454097 0.0367683633548 -6.40301907277e-20)
(-0.00623588025349 -0.0292469517545 -5.31941680384e-20)
(-0.0339865767863 0.0279222220437 -1.44269595723e-20)
(-0.0376663494433 0.0299955838716 -5.07853321549e-20)
(-0.0411759454517 0.0299358053481 -7.12977811975e-20)
(-0.0452466339195 0.034912049992 -7.17608473764e-20)
(-0.0360428723902 0.0384780476757 -8.86463160288e-20)
(0.112265938136 -0.0475826342525 -8.50741520881e-20)
(-0.0357129676255 0.0238249578432 -3.21078163426e-20)
(-0.0390734829988 0.0263773773342 -7.36256949259e-20)
(-0.0432013678666 0.0273700080001 -1.00065760307e-19)
(-0.048166371485 0.0328261631172 -1.07481495274e-19)
(-0.0373183583707 0.0319896723149 -1.04480627861e-19)
(0.0922015446093 0.157651556677 -1.18878192744e-19)
(-0.0373730100227 0.0193750268603 -4.15656150974e-20)
(-0.0409087051828 0.0220831810892 -8.169806713e-20)
(-0.0460089122497 0.0235480294635 -1.16065488686e-19)
(-0.0521697643249 0.0296424245472 -1.2468599413e-19)
(-0.0632474508721 0.0277663239158 -1.31293271133e-19)
(-0.151470763698 0.183162056858 -1.33908605758e-19)
(-0.0388215287855 0.0147548330514 -3.81356323021e-20)
(-0.0426344935625 0.0171283250852 -8.42204993764e-20)
(-0.0484394690582 0.0178514272811 -1.11505855318e-19)
(-0.0564316422831 0.0255854643111 -1.21981840752e-19)
(-0.0882098514276 0.0236266371452 -1.40018876419e-19)
(-0.263438379458 -0.034712038928 -1.81423657215e-19)
(-0.0397912958972 0.0100683410027 -3.31564113388e-20)
(-0.0437943141801 0.0117329869152 -6.25425624699e-20)
(-0.0495946333448 0.0109696543085 -9.08028706252e-20)
(-0.0589076964881 0.0193677395812 -1.11306026225e-19)
(-0.0913932886741 0.0141359456735 -1.20156993623e-19)
(-0.155950454672 -0.0178709440296 -1.14599775368e-19)
(-0.040022656525 0.00566792246114 -2.271706971e-20)
(-0.0442350593234 0.00657764932276 -4.67459030098e-20)
(-0.0493498792137 0.00398872497775 -6.20665303911e-20)
(-0.0584826741118 0.0110108595688 -6.03905312723e-20)
(-0.0794367313682 0.000298176296095 -4.6953449184e-20)
(-0.107583082234 -0.0339681173121 -6.84743188635e-21)
(-0.0395517546286 0.00227758079109 -1.54834191104e-20)
(-0.0441285641934 0.00274453488781 -2.22741424523e-20)
(-0.0482402289752 -0.000915583887528 -4.02058997439e-20)
(-0.0553824274253 0.00445888372111 -4.23812207864e-20)
(-0.0644724856556 -0.0118004153073 -1.16303652937e-20)
(-0.0772801150464 -0.0477371652005 -2.52676004043e-20)
(-0.0386884331305 0.000214776658966 -8.55194905779e-21)
(-0.0438065601928 0.000682708375105 -1.56671980751e-20)
(-0.0472003323325 -0.00312866243739 -2.62650087041e-20)
(-0.0518261381767 0.00268743615145 -2.72413103245e-20)
(-0.0470720129104 -0.00907987614385 -2.95523737791e-20)
(-0.0623092865836 -0.034647978858 -1.90960669318e-20)
(-0.0376843144307 -0.000831083920366 -5.65154692486e-21)
(-0.0433293033753 -0.0001764949071 -1.54801992566e-20)
(-0.0467330024642 -0.00405253015879 -2.04015661704e-20)
(-0.0502161780628 0.00194577628292 -3.16241843701e-20)
(-0.0326322437834 -0.00578435548543 -1.65191142214e-20)
(-0.0449746408822 -0.0191818657336 9.84390321071e-22)
(-0.0366997670638 -0.00150697562993 -7.61390750007e-21)
(-0.0424045695183 -0.00089842847887 -8.78022554916e-21)
(-0.0460711203212 -0.00538596510189 -1.51808644333e-20)
(-0.0499980477062 9.16276032339e-05 -1.30195173149e-20)
(-0.0286403054182 -0.0083366332415 1.25686001141e-20)
(-0.0331525146822 -0.0153876078574 3.14440612181e-21)
(-0.0358172176377 -0.00236247445216 -3.5700665011e-21)
(-0.0407810377876 -0.00199620996292 -1.04745345109e-20)
(-0.0442975886305 -0.00799411108854 -1.25681438819e-20)
(-0.0480247536899 -0.00306636187908 -1.57826020916e-20)
(-0.0232549702335 -0.0158490388551 -2.93222418324e-20)
(-0.0259569730871 -0.0207108311116 -2.03214574402e-20)
(-0.034882820564 -0.00341380894438 -3.90808001882e-21)
(-0.0388414194945 -0.00323862716039 -1.74856761244e-21)
(-0.0418615491603 -0.00878618778787 -9.4444985861e-21)
(-0.044883684617 -0.0036211429525 -1.88993743341e-20)
(-0.0161289064666 -0.0155954379105 -2.91886560144e-20)
(-0.0203682145676 -0.025645200863 -2.42228818089e-20)
(-0.0339399790795 -0.0046899869088 -2.06900875392e-21)
(-0.0371810728803 -0.00477148279212 -4.03886040471e-21)
(-0.0396615887017 -0.00952683329953 -1.02344866139e-20)
(-0.0421929693219 -0.00424140688377 -1.54035613315e-20)
(-0.00934549435327 -0.0146482482715 -2.43409146405e-20)
(-0.0152944839419 -0.0188584559207 -1.95780994465e-20)
(-0.0330687317595 -0.00615076586751 -2.77658793492e-21)
(-0.0357218348675 -0.0063763005877 -6.06998699734e-21)
(-0.037822393786 -0.0103881462919 -1.01464924772e-20)
(-0.040464058192 -0.00526466975658 -1.34871881036e-20)
(-0.00742210353099 -0.0137240680714 -2.41924079064e-20)
(-0.0127622258859 -0.0140799165701 -1.79692005922e-20)
(-0.0363275302435 -0.0110848475196 -6.64415067878e-21)
(-0.0391207121462 -0.00586627162145 -7.9586597175e-21)
(-0.00581111606903 -0.0137074285539 -1.99692803788e-20)
(-0.0108334812474 -0.0188853117881 -1.48792704602e-20)
(-0.0351665056348 -0.0123667075709 -4.57141470323e-21)
(-0.0378709970786 -0.00724328261911 -5.70334767926e-21)
(-0.000107164585816 -0.0153442790441 -9.6692788349e-21)
(-0.00917061558627 -0.0280725761641 -7.8874582289e-21)
(-0.0341329201686 -0.0138763378807 -2.34459883655e-21)
(-0.0364140893663 -0.00897208948522 -4.04636034133e-21)
(0.0106127263091 -0.0175964434857 -2.53494974247e-21)
(-0.00306320655544 -0.0381989151194 6.61359929289e-22)
)
;

boundaryField
{
    back
    {
        type            noSlip;
    }
    sides
    {
        type            noSlip;
    }
    bottom
    {
        type            noSlip;
    }
    front
    {
        type            noSlip;
    }
    atmosphere
    {
        type            pressureInletOutletVelocity;
        value           nonuniform List<vector> 
27
(
(0.613361435075 0.8270289977 8.97462510683e-19)
(-0.873689847649 0.913738752459 1.02135859613e-18)
(0 -0.165966212437 0)
(0 -0.114367860705 0)
(0 -0.00915098084918 0)
(0 -0.0265589995829 0)
(0 -0.0563326685406 0)
(0 -0.0172133506203 0)
(0 -0.0141693982449 0)
(0 -0.0292469517545 0)
(0 -0.0475826342525 0)
(0.0922015446093 0.157651556677 -1.18878192744e-19)
(-0.151470763698 0.183162056858 -1.33908605758e-19)
(0 -0.034712038928 0)
(0 -0.0178709440296 0)
(0 -0.0339681173121 0)
(0 -0.0477371652005 0)
(0 -0.034647978858 0)
(0 -0.0191818657336 0)
(0 -0.0153876078574 0)
(0 -0.0207108311116 0)
(0 -0.025645200863 0)
(0 -0.0188584559207 0)
(0 -0.0140799165701 0)
(0 -0.0188853117881 0)
(0 -0.0280725761641 0)
(0 -0.0381989151194 0)
)
;
    }
    floatingObject
    {
        type            movingWallVelocity;
        value           nonuniform List<vector> 4((0 0 0) (0 0 0) (-1.38777878078e-16 0 0) (0 0 0));
    }
    procBoundary6to3
    {
        type            processor;
        value           nonuniform List<vector> 8((0.007507445896 0.0431689405467 9.97388461583e-18) (0.0165405538059 0.0401851811639 5.59263784113e-18) (0.0244415575571 0.0382275542326 3.09800220978e-18) (0.0310210204061 0.0430702948591 1.72264239322e-18) (0.0335399111471 0.049721249639 1.11290143508e-18) (0.0363823136707 0.05354792068 9.00897659065e-19) (0.130501745876 0.0651702352336 8.26959006268e-19) (1.27487243192 0.0399886189698 5.64325381899e-19));
    }
    procBoundary6to7
    {
        type            processor;
        value           nonuniform List<vector> 
11
(
(-0.0335655801322 0.000501832706549 -3.36906528448e-21)
(-0.0328241455941 -0.000332658393258 -3.05979427418e-21)
(-0.0323298560533 -0.00127230505898 -2.01084286675e-21)
(-0.0319064378631 -0.00246908720387 -1.09925362398e-21)
(-0.031440846653 -0.003835437372 -1.00990957088e-21)
(-0.0309052391422 -0.00532844381539 -8.97998920888e-22)
(-0.032202229405 -0.0076273766505 -2.62633895414e-21)
(-0.0345001224626 -0.00816015872039 -5.34497626263e-21)
(-0.0345001224626 -0.00816015872039 -5.34497626263e-21)
(-0.0334597667582 -0.0101091375082 -1.84155106478e-21)
(-0.0322842128237 -0.0121009549825 -2.09965380845e-22)
)
;
    }
    procBoundary6to8
    {
        type            processor;
        value           nonuniform List<vector> 
16
(
(-0.00896461505667 0.042295703436 9.93637445316e-18)
(-0.0187091295259 0.0386311460298 5.57429699374e-18)
(-0.0187091295259 0.0386311460298 5.57429699374e-18)
(-0.0127784225693 0.0397110088399 5.29716983105e-18)
(-0.0175032784519 0.0372184251505 3.29610135701e-18)
(-0.0215890498165 0.0348157665338 1.32666430375e-18)
(-0.0251288936096 0.032066289545 3.67609689088e-19)
(-0.0282150749649 0.0290950205633 7.50432377239e-20)
(-0.0308472099279 0.0257935867295 7.56033537479e-21)
(-0.0329854967108 0.0220829830091 -7.64099442735e-21)
(-0.0345926176989 0.018021216716 -1.20621906808e-20)
(-0.0357604538 0.01388097435 -1.27120050812e-20)
(-0.0364198549074 0.00991712579316 -1.13593859328e-20)
(-0.0363490317551 0.00631952101925 -8.8068808403e-21)
(-0.0356099699845 0.00351422455711 -5.6700195452e-21)
(-0.0345616673772 0.00163595547972 -4.38828342998e-21)
)
;
    }
    procBoundary6to9
    {
        type            processor;
        value           nonuniform List<vector> 4((-0.0329935049833 -0.0156838235245 -4.73376319316e-21) (-0.0348169189256 -0.0111155085562 -5.08283583206e-21) (0.0267225981627 -0.019905358254 -4.43927641516e-21) (0.00422691022168 -0.0486402488899 -4.45021756855e-21));
    }
}


// ************************************************************************* //
