/*--------------------------------*- C++ -*----------------------------------*\
| =========                 |                                                 |
| \\      /  F ield         | OpenFOAM: The Open Source CFD Toolbox           |
|  \\    /   O peration     | Version:  v2012                                 |
|   \\  /    A nd           | Website:  www.openfoam.com                      |
|    \\/     M anipulation  |                                                 |
\*---------------------------------------------------------------------------*/
FoamFile
{
    version     2.0;
    format      ascii;
    class       volScalarField;
    location    "2.2";
    object      nut;
}
// * * * * * * * * * * * * * * * * * * * * * * * * * * * * * * * * * * * * * //

dimensions      [0 2 -1 0 0 0 0];


internalField   nonuniform List<scalar> 
167
(
0.0006059691484
0.000607780268559
0.000609939342594
0.000613122117744
0.00061915533203
0.00063195184692
0.000657309291069
0.000701813633982
0.000770279821175
0.0008731393217
0.0010790908257
0.00178687228264
0.000898215571407
0.000900384849498
0.000903174165458
0.000907791891266
0.000917266999516
0.000937576463666
0.00097693387576
0.00104230785789
0.00113511304072
0.00127403273503
0.00160255896553
0.00270363271385
0.000924193343936
0.00092628072223
0.000929030227642
0.000933703855018
0.000943402402392
0.000964147104048
0.00100412534503
0.00107028243392
0.00116363184247
0.00130322061351
0.00164441197486
0.00290922490394
0.000935490493105
0.000938189813418
0.000942807255462
0.000952407458253
0.000972955863231
0.00101266445839
0.00107882503982
0.0011729891935
0.00131321375015
0.00165833309763
0.00302151427918
0.000941650880147
0.000946170696365
0.000955586441665
0.000975814401064
0.00101512994876
0.00108115762621
0.00117614145754
0.00131784545773
0.00164872338753
0.00289779191458
0.000943205528379
0.000947603828921
0.000956802353208
0.000976677049546
0.00101559659701
0.00108148591813
0.00117702418289
0.00131609722566
0.00160377598404
0.00286973621697
0.000944164311992
0.000948426533544
0.000957387332102
0.00097688513713
0.00101539282474
0.00108115238197
0.001177553559
0.00132008228342
0.00162990890228
0.00287465442605
0.0009449623334
0.000949078148764
0.000957782348991
0.000976873512367
0.00101493890762
0.00108053988189
0.00117791552505
0.00132646766841
0.00167333953302
0.00290520772776
0.000945730263565
0.000949692531341
0.000958122679475
0.000976772062271
0.00101434337433
0.00107972998029
0.00117812485913
0.00133239406396
0.00170243229746
0.00294282647979
0.000946499795719
0.000950302947048
0.000958442562873
0.000976611796752
0.00101362404899
0.00107871403169
0.00117798306249
0.00133427604035
0.00166843313168
0.00250989535548
0.000947273144844
0.00095091319204
0.000958747724916
0.000976398305805
0.00101277801659
0.00107747151491
0.00117761746453
0.00133683253932
0.00165118928605
0.00223846522288
0.000948045217884
0.000951520815787
0.000959037789752
0.00097613325131
0.00101180190088
0.0010759758031
0.00117699101491
0.00134235976953
0.00168000561464
0.00233104469307
0.000948809451154
0.000952122972819
0.000959319438718
0.00097583457269
0.00101071669289
0.00107420675398
0.00117574366943
0.00134942805357
0.00175785178781
0.0025711302985
0.000949562262928
0.000952720410524
0.000959605752235
0.00097555359083
0.00100964002229
0.00107230842768
0.00117380864442
0.00135268949295
0.00179001803613
0.00286187107625
0.000950302851965
0.000953319078066
0.000959925375737
0.000975384068346
0.00100882654343
0.00107083751164
0.00117157565385
0.00134692089608
0.00176870756056
0.00292780500797
0.000951029692335
0.00095392314393
0.000960302569286
0.000975414374131
0.00100858377664
0.00107085295884
0.00117146492556
0.00133347078923
0.00167568979701
0.00287801993688
)
;

boundaryField
{
    back
    {
        type            nutkWallFunction;
        blending        stepwise;
        Cmu             0.09;
        kappa           0.41;
        E               9.8;
        value           nonuniform List<scalar> 
167
(
8.1936455566e-05
8.21580675246e-05
8.24229915332e-05
8.28165254181e-05
8.35708158813e-05
8.51850126979e-05
8.83988144923e-05
9.40394489873e-05
0.000102646764272
0.000115319925443
0.0001395879496
0.000257587199232
9.02127657113e-05
9.04096491476e-05
9.06639298201e-05
9.10890473034e-05
9.19713091649e-05
9.38776521355e-05
9.75821427417e-05
0.000103717642955
0.000112331827791
0.000124827893932
0.000154023552382
0.000296448371493
9.25831982932e-05
9.27723836266e-05
9.30226921552e-05
9.34521488655e-05
9.43526957138e-05
9.62930627331e-05
0.000100041576443
0.000106227815759
0.00011486570758
0.000127378101165
0.000157478885609
0.000309450883119
9.36118089667e-05
9.38575007606e-05
9.42815618912e-05
9.51719662793e-05
9.70910096698e-05
0.000100808218754
0.0001069854644
0.000115690209606
0.000128267598054
0.000157782620341
0.000318925852224
9.41723610077e-05
9.45873335986e-05
9.54601259387e-05
9.73476447421e-05
0.000101024617941
0.000107183011531
0.000115955223153
0.000128713859611
0.000157520239293
0.000310398709417
9.43129884764e-05
9.47167938861e-05
9.55690609943e-05
9.74223416726e-05
0.000101059474271
0.000107199574199
0.000116020722814
0.000128610614843
0.000153488480938
0.000294245053057
9.43991181061e-05
9.47904045534e-05
9.56202780409e-05
9.74372211797e-05
0.000101033241465
0.000107156066819
0.000116047827801
0.000128907619794
0.000155590229558
0.000307931287163
9.44704891058e-05
9.48483100532e-05
9.56540607984e-05
9.74319831085e-05
0.000100984281876
0.000107087576444
0.000116057257035
0.000129377336622
0.000159805794795
0.000320207253732
9.45390738841e-05
9.49027626943e-05
9.56828005375e-05
9.74185346947e-05
0.000100922501477
0.000107001461941
0.000116054006878
0.000129852525176
0.000163250027767
0.000323563694585
9.46077589634e-05
9.49568087933e-05
9.57096430383e-05
9.73997461791e-05
0.000100849605978
0.000106897269408
0.000116024484603
0.000130067206655
0.000162669479372
0.000289743425625
9.4676755809e-05
9.5010789853e-05
9.57351134033e-05
9.73761509556e-05
0.000100765422916
0.000106773227014
0.000115975803743
0.000130332670674
0.000163037570638
0.000265135807886
9.47455806441e-05
9.5064461352e-05
9.575913891e-05
9.73478520039e-05
0.000100669596793
0.000106626919942
0.000115901655882
0.000130791691488
0.000167113413921
0.000273569484682
9.48136234094e-05
9.51175267607e-05
9.57822608678e-05
9.73163513794e-05
0.00010056380121
0.000106456392069
0.000115768511127
0.000131284168761
0.000175092959034
0.000311780444869
9.48805189278e-05
9.51699929807e-05
9.58055472603e-05
9.72860665392e-05
0.000100458308549
0.000106273768016
0.000115575749176
0.000131550414173
0.000180690809277
0.000323573580996
9.49461761114e-05
9.52223805241e-05
9.58315612822e-05
9.72654198797e-05
0.000100375851826
0.000106128155318
0.000115363654478
0.000131157590007
0.000181439015698
0.000324808318993
9.50104964647e-05
9.5275130512e-05
9.58627659092e-05
9.72632884996e-05
0.000100346410356
0.000106118534562
0.000115342429369
0.000130026928012
0.000174529876144
0.000308701004336
)
;
    }
    sides
    {
        type            nutkWallFunction;
        blending        stepwise;
        Cmu             0.09;
        kappa           0.41;
        E               9.8;
        value           nonuniform List<scalar> 
12
(
4.35960290095e-05
4.3714179837e-05
4.38554195384e-05
4.40652201199e-05
4.44673295579e-05
4.53277755839e-05
4.70405878159e-05
5.00458668251e-05
5.46296558104e-05
6.13745748713e-05
7.42851807828e-05
0.000135605946011
)
;
    }
    bottom
    {
        type            nutkWallFunction;
        blending        stepwise;
        Cmu             0.09;
        kappa           0.41;
        E               9.8;
        value           nonuniform List<scalar> 0();
    }
    front
    {
        type            nutkWallFunction;
        blending        stepwise;
        Cmu             0.09;
        kappa           0.41;
        E               9.8;
        value           nonuniform List<scalar> 
167
(
8.1936455566e-05
8.21580675246e-05
8.24229915332e-05
8.28165254181e-05
8.35708158813e-05
8.51850126979e-05
8.83988144923e-05
9.40394489873e-05
0.000102646764272
0.000115319925443
0.0001395879496
0.000257587199232
9.02127657113e-05
9.04096491476e-05
9.06639298201e-05
9.10890473034e-05
9.19713091649e-05
9.38776521355e-05
9.75821427417e-05
0.000103717642955
0.000112331827791
0.000124827893932
0.000154023552382
0.000296448371493
9.25831982932e-05
9.27723836266e-05
9.30226921552e-05
9.34521488655e-05
9.43526957138e-05
9.62930627331e-05
0.000100041576443
0.000106227815759
0.00011486570758
0.000127378101165
0.000157478885609
0.000309450883119
9.36118089667e-05
9.38575007606e-05
9.42815618912e-05
9.51719662793e-05
9.70910096698e-05
0.000100808218754
0.0001069854644
0.000115690209606
0.000128267598054
0.000157782620341
0.000318925852224
9.41723610077e-05
9.45873335986e-05
9.54601259387e-05
9.73476447421e-05
0.000101024617941
0.000107183011531
0.000115955223153
0.000128713859611
0.000157520239293
0.000310398709417
9.43129884764e-05
9.47167938861e-05
9.55690609943e-05
9.74223416726e-05
0.000101059474271
0.000107199574199
0.000116020722814
0.000128610614843
0.000153488480938
0.000294245053057
9.43991181061e-05
9.47904045534e-05
9.56202780409e-05
9.74372211797e-05
0.000101033241465
0.000107156066819
0.000116047827801
0.000128907619794
0.000155590229558
0.000307931287163
9.44704891058e-05
9.48483100532e-05
9.56540607984e-05
9.74319831085e-05
0.000100984281876
0.000107087576444
0.000116057257035
0.000129377336622
0.000159805794795
0.000320207253732
9.45390738841e-05
9.49027626943e-05
9.56828005375e-05
9.74185346947e-05
0.000100922501477
0.000107001461941
0.000116054006878
0.000129852525176
0.000163250027767
0.000323563694585
9.46077589634e-05
9.49568087933e-05
9.57096430383e-05
9.73997461791e-05
0.000100849605978
0.000106897269408
0.000116024484603
0.000130067206655
0.000162669479372
0.000289743425625
9.4676755809e-05
9.5010789853e-05
9.57351134033e-05
9.73761509556e-05
0.000100765422916
0.000106773227014
0.000115975803743
0.000130332670674
0.000163037570638
0.000265135807886
9.47455806441e-05
9.5064461352e-05
9.575913891e-05
9.73478520039e-05
0.000100669596793
0.000106626919942
0.000115901655882
0.000130791691488
0.000167113413921
0.000273569484682
9.48136234094e-05
9.51175267607e-05
9.57822608678e-05
9.73163513794e-05
0.00010056380121
0.000106456392069
0.000115768511127
0.000131284168761
0.000175092959034
0.000311780444869
9.48805189278e-05
9.51699929807e-05
9.58055472603e-05
9.72860665392e-05
0.000100458308549
0.000106273768016
0.000115575749176
0.000131550414173
0.000180690809277
0.000323573580996
9.49461761114e-05
9.52223805241e-05
9.58315612822e-05
9.72654198797e-05
0.000100375851826
0.000106128155318
0.000115363654478
0.000131157590007
0.000181439015698
0.000324808318993
9.50104964647e-05
9.5275130512e-05
9.58627659092e-05
9.72632884996e-05
0.000100346410356
0.000106118534562
0.000115342429369
0.000130026928012
0.000174529876144
0.000308701004336
)
;
    }
    atmosphere
    {
        type            calculated;
        value           nonuniform List<scalar> 
16
(
0.00178687228264
0.009
0.009
0.009
0.009
0.009
0.009
0.009
0.009
0.009
0.00223846522288
0.00233104469307
0.0025711302985
0.009
0.009
0.009
)
;
    }
    floatingObject
    {
        type            nutkWallFunction;
        blending        stepwise;
        Cmu             0.09;
        kappa           0.41;
        E               9.8;
        value           nonuniform List<scalar> 0();
    }
    procBoundary1to0
    {
        type            processor;
        value           nonuniform List<scalar> 10(0.000951741634332 0.000954528278877 0.000960715822394 0.000975558091149 0.00100871202213 0.00107267182846 0.00117961435683 0.00134761031425 0.00159805266586 0.00272557981123);
    }
    procBoundary1to2
    {
        type            processor;
        value           nonuniform List<scalar> 
18
(
0.000604292982962
0.000896259363004
0.000922335884077
0.000933460489824
0.000933460489824
0.000939017214032
0.000939017214032
0.000940651439579
0.000941698489434
0.000942589829226
0.000943453907945
0.000944320058619
0.000945190113482
0.000946056247583
0.000946911464924
0.000947750965585
0.000948571047665
0.000949368527085
)
;
    }
}


// ************************************************************************* //
