/*--------------------------------*- C++ -*----------------------------------*\
| =========                 |                                                 |
| \\      /  F ield         | OpenFOAM: The Open Source CFD Toolbox           |
|  \\    /   O peration     | Version:  v2012                                 |
|   \\  /    A nd           | Website:  www.openfoam.com                      |
|    \\/     M anipulation  |                                                 |
\*---------------------------------------------------------------------------*/
FoamFile
{
    version     2.0;
    format      ascii;
    class       surfaceVectorField;
    location    "2.1";
    object      Uf;
}
// * * * * * * * * * * * * * * * * * * * * * * * * * * * * * * * * * * * * * //

dimensions      [0 1 -1 0 0 0 0];


internalField   nonuniform List<vector> 
304
(
(0.0642340022016 0.0214691392148 2.147503967e-23)
(0.065893441607 0.022786985929 -1.28999913725e-22)
(0.0643138837681 0.0230874638035 7.30501168134e-23)
(0.0677985412598 0.0237747297584 -1.32044447523e-21)
(0.0661700535662 0.0242938265251 -2.62038508277e-22)
(0.0702882931631 0.0243337703065 -4.89493156105e-21)
(0.0684407008436 0.0252745968282 -2.45539071133e-21)
(0.0734783568847 0.0250512236034 -1.2358868637e-20)
(0.0711362614223 0.0261822959332 -8.41119020353e-21)
(0.0767744760956 0.0255755518229 -1.48700854103e-20)
(0.0750072459207 0.0240726985803 -2.18143285923e-20)
(0.0679623581639 0.0284509825897 -1.20909507045e-20)
(0.0771937077331 0.0210032475396 -1.83541307315e-20)
(0.0142486708633 0.0457433295127 -1.63159108034e-20)
(0.0503375171272 0.0320450189079 -1.77642294206e-20)
(-0.0409223757 0.0624400410312 -1.06434620962e-20)
(0.0647593742775 0.0244937274196 -5.99884777381e-23)
(0.0629916337098 0.0248940781321 5.27046748195e-23)
(0.0670090209447 0.0255221371125 -1.39698474438e-21)
(0.0651416634707 0.0261379823657 -9.02112531168e-23)
(0.0695374098572 0.0262972606564 -5.97164935381e-21)
(0.0676655399838 0.0270370436425 -1.79947943307e-21)
(0.0727428941324 0.0275920494833 -1.78666501589e-20)
(0.069841421932 0.0278006345071 -6.14820478585e-21)
(0.0752618787955 0.0283043226291 -2.52983739136e-20)
(0.0742949411982 0.0260156743337 -1.93049515144e-20)
(0.0572098227221 0.0288652135519 -2.40274094476e-20)
(0.0766321766206 0.023258993616 -2.19260589187e-20)
(-0.00205212796176 0.0486983519956 -1.20917807134e-20)
(0.0305030501731 0.0319907858578 -2.16462556032e-20)
(-0.0332868786451 0.0307050973573 -1.95037290153e-21)
(0.0635421927118 0.0265409416947 2.24818994407e-23)
(0.0615749363172 0.0269832092504 6.93823433493e-23)
(0.066096195435 0.0276329302083 -4.92705941809e-22)
(0.0640496136985 0.0283457573379 -1.77500125111e-22)
(0.0687441809722 0.0282951132625 -1.97603486511e-21)
(0.0670032518731 0.029063848107 -8.61715237899e-22)
(0.0720589470629 0.0283539365081 -7.58650614139e-21)
(0.069782497021 0.0296449978717 -1.61684423965e-21)
(0.075459677291 0.0290605896037 -1.59326365196e-20)
(0.0735882386728 0.0275070686367 -1.0243679023e-20)
(0.0523403597474 0.0279746656529 -1.95449050743e-20)
(0.0777178737549 0.0261319633689 -1.9077945592e-20)
(0.00672765849506 0.0344676326123 -1.15048477913e-20)
(0.0240095134214 0.0315964908683 -1.88263433087e-20)
(0.00662439309883 0.00709911711548 -9.97279991463e-22)
(0.0597022847071 0.0273007903974 2.69219191825e-23)
(0.057531818767 0.0275535702861 -1.99046209775e-23)
(0.0622200594136 0.0288679105491 -1.30599681203e-22)
(0.060007718494 0.0293764965959 9.56666377708e-23)
(0.0651898884724 0.0300397121069 -5.46509421201e-22)
(0.0628776371801 0.030991775791 -4.12016370066e-22)
(0.0683381908107 0.0306177477223 -5.02524612437e-22)
(0.066424999653 0.0316969546119 -6.98805438365e-22)
(0.0715650186842 0.030572743201 -4.2740171213e-21)
(0.0698273187961 0.0328856404196 -4.74413386638e-21)
(0.0763560959337 0.0314160904187 -1.33889880955e-20)
(0.0727448070435 0.0304080407517 -1.20382272034e-20)
(0.052438085084 0.028471742631 -1.83593838264e-20)
(0.0806621340218 0.0305461890401 -1.77479621286e-20)
(0.0215971419198 0.025474774965 -8.31877550881e-21)
(0.0270062312464 0.0337198037721 -1.90159216952e-20)
(0.0373576527359 0.0034326622703 -1.71374982701e-21)
(0.0578711553945 0.0297420944856 4.88400976108e-23)
(0.0554460897713 0.0299722569327 4.99207006924e-23)
(0.0607107825611 0.0315732089812 -1.85750051092e-22)
(0.0581763401147 0.0320917502903 8.53062690553e-23)
(0.0641555153837 0.0330376192102 -5.64312387229e-22)
(0.0614128758533 0.0341271198097 -3.64065011884e-22)
(0.0678886952379 0.0339365718203 -4.94041469231e-21)
(0.0655256687672 0.035040279293 -2.11615681723e-21)
(0.071088563394 0.0343302574804 -1.25083439485e-20)
(0.0694333221934 0.0373568154262 -8.10569638918e-21)
(0.0773634082476 0.0350762711681 -1.63972012365e-20)
(0.0719986549487 0.0347592259802 -1.64321384202e-20)
(0.05601506196 0.0324478979927 -1.84044999974e-20)
(0.0832904555609 0.036288515937 -1.68465179767e-20)
(0.0409907211489 0.0275750254289 -1.24108960134e-20)
(0.0318789409736 0.0379948679316 -1.907847156e-20)
(0.0690721905966 0.00953187639041 -8.78666527705e-21)
(0.055728681424 0.0324635463358 8.6386872137e-23)
(0.0530085057644 0.0325877717209 3.80387140771e-23)
(0.0588540713941 0.0346700827158 -9.30086917359e-23)
(0.0559693184524 0.0350983615693 -8.78104962662e-23)
(0.0627130747718 0.0366055643128 -1.91590944189e-21)
(0.0594768103604 0.0376781978684 -8.14459884433e-22)
(0.0669620405544 0.038128401097 -5.2814385141e-21)
(0.0640022231724 0.0389709252078 -4.50142343786e-21)
(0.0703481945347 0.0391559650506 -1.20294908609e-20)
(0.0684052745972 0.0426164035347 -4.81041346753e-21)
(0.0779770831986 0.0400866182608 -1.68814551603e-20)
(0.0710677902121 0.040226198624 -2.06061044312e-20)
(0.0593253672864 0.0385965473381 -1.75204895393e-20)
(0.0847804775274 0.0431734098019 -2.50512277996e-20)
(0.0594974530992 0.0350484721463 -1.54542408237e-20)
(0.0354268424431 0.0443102461122 -2.83144517225e-20)
(0.0961873912128 0.0295965322413 -3.53426458138e-20)
(0.0503887829205 0.0325331101521 9.68605280766e-25)
(0.0475996845557 0.0322686860866 4.02282409212e-24)
(0.0531794821288 0.035357490936 -1.36158654326e-22)
(0.0501835501879 0.0353405951155 -2.84047810386e-23)
(0.0565001671573 0.0380682919493 -8.09261688964e-22)
(0.0532577642059 0.0383136736535 -1.26788492146e-22)
(0.0606490375279 0.0406163175943 -3.3999738804e-21)
(0.05692790298 0.0415061610711 -1.59734459344e-21)
(0.0652997978854 0.0428714358988 -4.03039839128e-21)
(0.0617462135604 0.0433180776408 -4.15234386832e-21)
(0.0690118187534 0.0447544158345 -1.33870270379e-20)
(0.0665216013917 0.0483658546174 -3.50180765466e-21)
(0.0777121604736 0.046332161637 -2.87758770705e-20)
(0.0694897454326 0.0464774218033 -2.35575857346e-20)
(0.0620717890372 0.0463800376951 -3.58451899827e-20)
(0.0847325410603 0.0509291185974 -3.00528718033e-20)
(0.0654037628899 0.0414107251136 -4.82028567126e-20)
(0.0403959718664 0.0524265084585 -3.89999505722e-20)
(0.0822485270982 0.0283231916385 -4.41411741701e-20)
(0.0449152613541 0.0318300077817 -1.04583557682e-23)
(0.0421322555386 0.0311920034195 1.15731188718e-23)
(0.0473110004225 0.0351121526201 -2.53505622273e-23)
(0.0443169005831 0.0346561470684 -1.1360013285e-23)
(0.0501563177123 0.0383921409461 -1.90346188581e-23)
(0.0469027190072 0.0381487103647 -5.22994949736e-23)
(0.0535553154899 0.0416467162947 -9.14871396623e-22)
(0.050002124199 0.0416240710109 -1.83072194285e-24)
(0.0578580899 0.0448730365347 -2.34971458136e-21)
(0.0537003683539 0.0454679402285 -1.28420410472e-21)
(0.0627577824159 0.0479668491409 -3.6237531317e-21)
(0.058651203234 0.0479083660499 -2.71441865806e-21)
(0.0667622719589 0.0508944586164 -1.36723663514e-20)
(0.0635930763598 0.054380348864 -1.07321961025e-20)
(0.076171065477 0.0535459349244 -2.48345804674e-20)
(0.0668378827442 0.0532116182398 -1.90158848907e-20)
(0.0649399313827 0.0554252903763 -3.32076323927e-20)
(0.082853110496 0.0591738190157 -1.89476826155e-20)
(0.0749695847434 0.0468161557424 -3.49382680297e-20)
(0.0490048964222 0.0615370635224 -3.01791929296e-20)
(0.123574642939 0.0156265807527 -2.58020821201e-20)
(0.0414520676445 0.0340208819827 1.0671461355e-23)
(0.0438085267231 0.0376992909442 -3.83089460313e-23)
(0.0406375169037 0.0370054260477 -1.38931552687e-23)
(0.0466219794393 0.0414498007575 -3.50955980583e-23)
(0.0431510638412 0.0409253626324 -6.58525880923e-23)
(0.0499836819012 0.0452755940886 -3.7116343004e-22)
(0.0461749486693 0.0449147392244 -5.99692242664e-24)
(0.0542852696301 0.0492139750158 -1.64890818143e-21)
(0.049760459653 0.0494126019761 -1.05721948413e-21)
(0.0592250979835 0.0532071721361 -9.82286162887e-21)
(0.0546565299051 0.0525345135913 -9.09012411623e-22)
(0.0633532583629 0.0573025482923 -1.60757146419e-20)
(0.0594966025966 0.0603587593796 -1.77844004333e-20)
(0.0730857486737 0.0613000397479 -1.31289870388e-20)
(0.0628399410701 0.0600327550501 -1.84730345557e-20)
(0.0676932972472 0.0651594274921 -1.59192431524e-20)
(0.0789936337904 0.0672689733299 -1.4726363317e-20)
(0.0901435782396 0.0570561236966 -2.10430070201e-20)
(0.0571079685108 0.0697784083291 -2.70931786709e-20)
(0.170362797228 0.0294574153179 -2.10058557474e-20)
(0.0398716774863 0.04021253825 -4.14367973298e-23)
(0.0365661772241 0.0392489235731 -5.9680022112e-24)
(0.0425665624005 0.0444329956217 -3.67539124606e-23)
(0.0389292095187 0.0435855161328 -1.73117684307e-23)
(0.0457763589247 0.0488244484467 -6.92052976515e-22)
(0.0417818736226 0.0480736181579 -7.25104103587e-23)
(0.049915265047 0.0534558946835 -3.17323714323e-22)
(0.0451272679134 0.0531870635734 -1.1031938845e-21)
(0.0546769919542 0.0583248225321 -8.87055121608e-21)
(0.0497859665059 0.0569899970616 6.00014177943e-22)
(0.0587034465495 0.0635042365247 -2.01817203471e-20)
(0.0543160143378 0.0659936064755 -1.03408970114e-20)
(0.0681666058609 0.06880269796 -2.00704108339e-20)
(0.0575410174992 0.0664133393468 -1.48530179386e-20)
(0.069283678596 0.0755027773319 -2.59002988356e-20)
(0.0722934637066 0.0746397434954 -1.38578107627e-20)
(0.148675183997 0.0697301673708 -2.70560273983e-20)
(0.0628803753515 0.0740130235265 -1.28850955992e-20)
(0.204512908182 0.118412683524 -1.88735853383e-20)
(0.0355159068307 0.0425752508458 1.81570266879e-23)
(0.0321245256314 0.0413222238341 7.40527410093e-24)
(0.0380073839945 0.0472362158127 -5.30682663288e-23)
(0.0342667355675 0.046046100845 1.5335012787e-23)
(0.0409593249337 0.0521630416558 -4.83651318342e-22)
(0.0368533471226 0.050996192643 1.75676323791e-23)
(0.0447877266171 0.0574345466687 -1.85855992232e-22)
(0.0398539967881 0.05665607832 -8.51668170895e-22)
(0.049201734983 0.063115105874 -8.70331617386e-22)
(0.0441038158716 0.0611193824386 8.09586469033e-23)
(0.0530330035352 0.069215340556 -5.01219460288e-21)
(0.0482146939342 0.0711740952153 -2.03536678805e-21)
(0.0616136190028 0.0752467472772 -8.64041786739e-21)
(0.0515092117147 0.0723483986985 -9.89478939999e-21)
(0.0607900124711 0.083255382288 -8.42607526344e-22)
(0.0642847668038 0.0818717224235 -1.01204262914e-20)
(0.109937100262 0.102957148739 -4.70265353923e-21)
(0.0431776312922 0.0817078818452 7.82066341716e-22)
(0.0890882675568 0.183450164344 -1.26577288808e-20)
(0.0307721609721 0.0447179887139 4.58326020003e-24)
(0.0273468994878 0.0431688727048 4.09362203943e-23)
(0.0329814794025 0.0497787950573 8.59709114948e-23)
(0.0292045194479 0.0482341596634 2.48417889217e-23)
(0.0355846168258 0.0551908542735 -3.50449220174e-22)
(0.0314397566538 0.0535946666885 2.43555266418e-22)
(0.0389660920393 0.0610215870367 -5.8485353176e-22)
(0.0340217427549 0.0597085707162 -1.36649850711e-21)
(0.0428510759664 0.0674571547806 -1.08407652376e-21)
(0.0376669580034 0.0647684436314 -7.42995921659e-22)
(0.0462832954227 0.0745911322679 -6.91796158516e-21)
(0.041079905736 0.075728789584 -2.96946349529e-21)
(0.0535796187417 0.0822737817043 -1.1374797824e-20)
(0.0438263048756 0.0776338341295 -1.58023457178e-20)
(0.0466082485706 0.0920640313651 -8.49575242339e-21)
(0.0544944917912 0.0886573404278 -1.27602871724e-20)
(0.0106358795913 0.103377394395 -7.17300899982e-21)
(0.0318626459167 0.0935328814613 -1.99472201386e-20)
(0.00966891472266 0.1074824551 -1.18317741269e-20)
(0.0256839864024 0.0465850181351 6.1194749116e-23)
(0.0222800984394 0.0447603858689 1.41924163375e-22)
(0.0275465327382 0.0519851952543 1.82426143845e-22)
(0.0238032686122 0.050112139439 1.38853381524e-22)
(0.0297270983145 0.0577956567321 -7.72494020517e-22)
(0.0256281959879 0.0558192839372 2.87674788945e-22)
(0.0325467400126 0.0641114782543 -1.52464089701e-21)
(0.0277049173946 0.0622896183002 -1.07825918302e-21)
(0.0357039779804 0.0711457276087 -2.62838289319e-21)
(0.0306319478858 0.0678259559185 -1.08740844378e-21)
(0.0384540207085 0.0790903385779 -1.18538476279e-20)
(0.0331349074702 0.0794902208587 -1.39796936e-20)
(0.0448617114619 0.0876717235579 -1.71878350661e-20)
(0.0352448480739 0.0819825635118 -1.82167534124e-20)
(0.0414234666668 0.0969386577616 -2.42117548876e-20)
(0.0452275475379 0.0939209720684 -1.232839904e-20)
(0.0311516911888 0.0938032733586 -2.46059852657e-20)
(0.0349980053089 0.100848721884 -2.97187941065e-20)
(0.071897946538 0.0342815067548 -1.5033624775e-20)
(0.0203188698141 0.048167674213 2.19582795783e-22)
(0.0169754949355 0.0461468004682 2.96019492798e-22)
(0.0217859526982 0.0538466756178 2.44102026625e-22)
(0.0181237216405 0.0517313611108 5.88355787552e-22)
(0.0234876086919 0.059983086966 -1.80903735571e-23)
(0.0194913196523 0.0577175243346 4.66117737683e-22)
(0.025668798948 0.0666564903794 -6.41026729788e-22)
(0.0210311951894 0.0644604210333 -7.27086458684e-22)
(0.0279704636975 0.0741558422023 -1.24387191506e-20)
(0.0231324838864 0.0703546669145 1.10284964163e-21)
(0.0299657575425 0.0827773696221 -2.03425993845e-20)
(0.024513452627 0.0825898918545 -2.11967179387e-20)
(0.0358980316012 0.0920195551692 -1.33573173863e-20)
(0.0260027668929 0.0857750139319 -1.8810842672e-20)
(0.0369121332103 0.101449445307 -1.78354382589e-20)
(0.0357976801616 0.0980585331952 -1.4815632066e-20)
(0.0774095149095 0.104732089967 -2.01464336158e-20)
(0.0317153813798 0.107452869425 -4.03299214988e-20)
(0.186777536743 -0.000423773745893 -2.23061799331e-20)
(0.0137390840501 0.044080297995 1.10268527018e-22)
(0.0108332897387 0.0421537338993 -1.77506867031e-22)
(0.0146165176059 0.0495762101824 6.64792484566e-22)
(0.0114795396766 0.0475637848712 5.90329866522e-22)
(0.0156446456271 0.0554754062197 8.10371498611e-22)
(0.0122245866096 0.0533336507549 1.21623106568e-21)
(0.0168175265166 0.061861856321 -2.42878347444e-22)
(0.0131050680116 0.0595224439923 8.2274001694e-22)
(0.0182434835833 0.0688009958768 1.01678991273e-21)
(0.0140924000101 0.0664403599197 -7.96537658286e-22)
(0.0194425073023 0.0766754541227 -7.65514914646e-21)
(0.0152584694 0.0725329715864 3.10580564912e-21)
(0.0202984462132 0.0859548485183 -1.96649612262e-20)
(0.0152344687348 0.0851881326338 -6.13710885671e-21)
(0.0256120550744 0.0958666217425 -2.02691573517e-20)
(0.0160911901276 0.0887080576013 -1.24809459429e-20)
(0.0353124799579 0.105170264805 -3.7310115306e-20)
(0.0264940709067 0.100954623275 -1.34906725357e-20)
(0.161472814065 0.0860957975638 -4.24896678161e-20)
(0.0507900098698 0.108337253954 -3.64152929101e-20)
(0.36473424089 -0.0393434088176 -2.44593262745e-20)
(0.0085650362054 0.0455160000998 3.02554472473e-22)
(0.0055035525047 0.0436550813162 2.39426407537e-22)
(0.0090716947521 0.0511779492302 1.14176844763e-21)
(0.00581796456201 0.0492295017834 8.4552422671e-22)
(0.00965539635497 0.0572347798714 1.22859958401e-21)
(0.00616825159255 0.0551450861203 1.53200857905e-21)
(0.0103008580012 0.0637633399316 2.69080706098e-22)
(0.00657713699278 0.0614407452956 1.4352632195e-21)
(0.01086509419 0.0707919854356 1.2924780781e-21)
(0.00706446689998 0.0684535849496 -1.480248415e-21)
(0.0106104036974 0.0788174878242 4.62384593887e-21)
(0.00723366147579 0.0743821063168 4.6513146321e-21)
(0.0105267830633 0.0882898420549 1.04690642657e-21)
(0.00576261175004 0.0865985266149 -4.43090817376e-21)
(0.0159612232156 0.0979453864981 -5.70246112685e-21)
(0.00643583893082 0.0877417114552 -1.57255655291e-20)
(0.0370983271577 0.107187532733 -1.25958501398e-20)
(0.0172519623476 0.0984997909835 -1.52368898007e-20)
(0.29424738766 0.0897471391667 -1.83849513684e-20)
(0.0682304407045 0.103563304883 4.99047204482e-20)
(0.591875888484 0.241767802692 3.34454149538e-20)
(0.00306031036867 0.0472346129583 7.82396161774e-22)
(0.00325197171196 0.0530528569018 1.23576435812e-21)
(0.00348566014042 0.0592214525817 1.73867221454e-21)
(0.00384518097866 0.0657989789115 -3.14065901604e-22)
(0.00405841089553 0.0728638376602 1.87858813899e-21)
(0.00304023313462 0.0800978186197 -4.40343948054e-21)
(0.00240650713521 0.0858605981204 -2.12033801294e-20)
(0.00879104621777 0.0922964612539 -2.52599942029e-20)
(0.0421411492184 0.109548406267 4.72636807872e-20)
(0.223690859109 0.177781025127 1.0173508677e-19)
)
;

boundaryField
{
    back
    {
        type            calculated;
        value           uniform (0 0 0);
    }
    sides
    {
        type            calculated;
        value           uniform (0 0 0);
    }
    bottom
    {
        type            calculated;
        value           nonuniform List<vector> 0();
    }
    front
    {
        type            calculated;
        value           uniform (0 0 0);
    }
    atmosphere
    {
        type            calculated;
        value           nonuniform List<vector> 
17
(
(-0.0291103715171 0.0758812466196 -2.09591747314e-20)
(-0.0426515751493 0.0410622552913 -3.27749461023e-22)
(0 -0.00544389019674 0)
(0 -0.00525866680158 0)
(0 -0.00413968499589 0)
(0.0846491916638 0.00793308113225 -1.2567394541e-20)
(0.0916721628096 0.0553493060391 -5.81178970866e-20)
(0.104081448406 0.00548969860666 -3.01644512536e-20)
(0.12605540818 0.0102676015598 -2.14397129866e-20)
(0.234746077135 0.0355789476336 -2.05719985082e-20)
(0.166831749816 0.218382926767 -1.71751721683e-20)
(-0.0126022976763 0.182799738322 -8.14028559317e-21)
(0.029477572053 0.031573068162 -1.55232626605e-20)
(0 -0.0101474000372 0)
(0 -0.0918607906543 0)
(0 -0.137392164882 0)
(0.37790460618 0.769652264286 8.57411094799e-20)
)
;
    }
    floatingObject
    {
        type            calculated;
        value           nonuniform List<vector> 0();
    }
    procBoundary11to9
    {
        type            processor;
        value           nonuniform List<vector> 9((0.0641406038575 0.0200588944201 -8.59395903293e-23) (0.0656314694574 0.021573853937 2.47803663096e-23) (0.0671576435524 0.0228843653408 -4.58704930987e-22) (0.0689996997224 0.0239265670471 -2.60472532742e-21) (0.0718537353358 0.0249187563036 -7.23388875512e-21) (0.075531606332 0.0221133595421 -1.52411456329e-20) (0.080070557232 0.0201203182925 -1.07383507399e-20) (0.0676356311132 0.0322507749521 -1.01767054033e-20) (-0.0107809948267 0.0759879979663 -1.32934957187e-20));
    }
    procBoundary11to10
    {
        type            processor;
        value           nonuniform List<vector> 
23
(
(0.0626290287123 0.019937646888 -7.91615607821e-24)
(0.0626096381658 0.0216252874548 -3.46421431608e-23)
(0.0628192193279 0.023171244693 1.69329339826e-23)
(0.0613295697232 0.0251241429307 1.67491497425e-23)
(0.0593710094234 0.0253584679564 -2.57112744243e-23)
(0.0574718019758 0.0254614722229 -2.54674528756e-23)
(0.0554155879464 0.0276565940294 6.81765197797e-24)
(0.0530755763419 0.0300263659207 6.09786058899e-23)
(0.0505076059841 0.0299113372905 2.39084970936e-23)
(0.0480219856071 0.029625681497 2.5698402551e-23)
(0.045398652204 0.0291606108607 1.12172226906e-23)
(0.0428812217139 0.0285642801916 -5.79946553953e-24)
(0.0394602897494 0.0304112516914 2.27864749474e-23)
(0.0385217361087 0.0331820057827 1.99948831246e-23)
(0.0376221179554 0.0361428474282 -4.56973349912e-24)
(0.0334392287003 0.038135459848 2.07122737012e-23)
(0.0289285374365 0.0399421701012 1.86699829679e-23)
(0.0241243804757 0.0415197185342 7.63548004576e-23)
(0.0190842693674 0.0428639326957 1.52145614041e-22)
(0.0159985611567 0.0409103710291 -3.36053517392e-23)
(0.0129869095839 0.0389154881051 2.9663051514e-22)
(0.00812145802729 0.0401858813425 4.59877755875e-22)
(0.00289017785031 0.0417306595127 1.03891383074e-21)
)
;
    }
}


// ************************************************************************* //
