/*--------------------------------*- C++ -*----------------------------------*\
| =========                 |                                                 |
| \\      /  F ield         | OpenFOAM: The Open Source CFD Toolbox           |
|  \\    /   O peration     | Version:  v2012                                 |
|   \\  /    A nd           | Website:  www.openfoam.com                      |
|    \\/     M anipulation  |                                                 |
\*---------------------------------------------------------------------------*/
FoamFile
{
    version     2.0;
    format      ascii;
    class       volScalarField;
    location    "4.9";
    object      ddt0(epsilon);
}
// * * * * * * * * * * * * * * * * * * * * * * * * * * * * * * * * * * * * * //

dimensions      [0 2 -4 0 0 0 0];


internalField   nonuniform List<scalar> 
164
(
-0.000409064988391
-0.000414142840124
-0.000419969397008
-0.000427199060967
-0.000438343879451
-0.000463399933589
-0.00053543505745
-0.000773287080259
-0.00172035531145
-0.00553062691573
-0.0179030716713
-0.0675452267777
-0.296805644961
-0.000331114066577
-0.000341532778125
-0.00037302365494
-0.0003861302077
-0.000397811341373
-0.000402446674365
-0.000407339597023
-0.000412794587159
-0.000419227342158
-0.00042707837586
-0.000438163260267
-0.000461587029163
-0.000531885469042
-0.000780791292881
-0.00179751042091
-0.00570334797925
-0.0178140688639
-0.061389852615
-0.00272013291289
-0.000327574537286
-0.000338271174604
-0.000369773033497
-0.000383081728838
-0.000390088921288
-0.000395233251236
-0.000400076809427
-0.000405154532928
-0.000410991189254
-0.000418354194742
-0.00042749963717
-0.000439444309413
-0.000462714073932
-0.000534742886344
-0.000794451508628
-0.00185867201142
-0.00582971838727
-0.0174051779956
-0.0483048487029
0.481159735309
-0.000323872304405
-0.000334992596069
-0.000366482834154
-0.000379929563988
-0.000387064052368
-0.000392232749422
-0.000396910826488
-0.000401656864537
-0.000407784871168
-0.000416427825801
-0.000427370711084
-0.000440891281574
-0.000463774776057
-0.000543437465697
-0.000814259061864
-0.00190367578642
-0.00594480302998
-0.0171713041843
-0.0608186943579
-0.329199147215
-0.000320204517393
-0.000331733415759
-0.000363251396165
-0.000376688566143
-0.000383629171413
-0.000388196336477
-0.000391750154415
-0.000395045316246
-0.000400522798779
-0.000409959263493
-0.000423146786833
-0.000437554730891
-0.000461329249743
-0.000562322677007
-0.000860809377347
-0.00198633697343
-0.00604464356263
-0.0165619020135
-0.0547216164563
-0.504895623288
-0.000316609286638
-0.000328684427055
-0.000360192111094
-0.000373450131877
-0.000379491806171
-0.000381757089449
-0.000381321027126
-0.000380185862611
-0.000377131022991
-0.000385903864518
-0.00040048264592
-0.000426011552305
-0.000468534730637
-0.000605442221587
-0.000945157302462
-0.0021167538726
-0.00623970916671
-0.0175554189926
-0.0336361295247
-0.334688306274
-0.000313207112351
-0.000325788613407
-0.000357330391876
-0.000370026565555
-0.000373915724782
-0.000368951029407
-0.00035029881649
-0.00032556250465
-0.000380796119787
-0.000392007608734
-0.000424912741912
-0.000580588334126
-0.000514852779873
-0.000695911307149
-0.00108207526722
-0.00228889820701
-0.00636275487734
-0.0175451831535
-0.0182601748542
0.520865018184
-0.000309955482857
-0.000323555384265
-0.000354920929463
-0.000366663163399
-0.000368414723059
-0.000361026051428
-0.000337079846929
-0.000364060668041
-0.000307838944078
-0.000322272726542
-0.00035386796702
-0.000365402798339
-0.000366111333203
-0.000355739531252
-0.000325429585
-0.000321723243709
-0.000307961786103
-0.000322308097115
-0.000353900546351
-0.000365426923963
-0.000366137786643
-0.000355781206938
-0.000325511352177
-0.000321873267592
-0.000310134878367
-0.000323676471156
-0.000355004122393
-0.000366745686123
-0.000368509516781
-0.000361170040581
-0.000337128050804
-0.000364264793444
)
;

boundaryField
{
    back
    {
        type            calculated;
        value           nonuniform List<scalar> 
164
(
-0.000409064988391
-0.000414142840124
-0.000419969397008
-0.000427199060967
-0.000438343879451
-0.000463399933589
-0.00053543505745
-0.000773287080259
-0.00172035531145
-0.00553062691573
-0.0179030716713
-0.0675452267777
-0.296805644961
-0.000331114066577
-0.000341532778125
-0.00037302365494
-0.0003861302077
-0.000397811341373
-0.000402446674365
-0.000407339597023
-0.000412794587159
-0.000419227342158
-0.00042707837586
-0.000438163260267
-0.000461587029163
-0.000531885469042
-0.000780791292881
-0.00179751042091
-0.00570334797925
-0.0178140688639
-0.061389852615
-0.00272013291289
-0.000327574537286
-0.000338271174604
-0.000369773033497
-0.000383081728838
-0.000390088921288
-0.000395233251236
-0.000400076809427
-0.000405154532928
-0.000410991189254
-0.000418354194742
-0.00042749963717
-0.000439444309413
-0.000462714073932
-0.000534742886344
-0.000794451508628
-0.00185867201142
-0.00582971838727
-0.0174051779956
-0.0483048487029
0.481159735309
-0.000323872304405
-0.000334992596069
-0.000366482834154
-0.000379929563988
-0.000387064052368
-0.000392232749422
-0.000396910826488
-0.000401656864537
-0.000407784871168
-0.000416427825801
-0.000427370711084
-0.000440891281574
-0.000463774776057
-0.000543437465697
-0.000814259061864
-0.00190367578642
-0.00594480302998
-0.0171713041843
-0.0608186943579
-0.329199147215
-0.000320204517393
-0.000331733415759
-0.000363251396165
-0.000376688566143
-0.000383629171413
-0.000388196336477
-0.000391750154415
-0.000395045316246
-0.000400522798779
-0.000409959263493
-0.000423146786833
-0.000437554730891
-0.000461329249743
-0.000562322677007
-0.000860809377347
-0.00198633697343
-0.00604464356263
-0.0165619020135
-0.0547216164563
-0.504895623288
-0.000316609286638
-0.000328684427055
-0.000360192111094
-0.000373450131877
-0.000379491806171
-0.000381757089449
-0.000381321027126
-0.000380185862611
-0.000377131022991
-0.000385903864518
-0.00040048264592
-0.000426011552305
-0.000468534730637
-0.000605442221587
-0.000945157302462
-0.0021167538726
-0.00623970916671
-0.0175554189926
-0.0336361295247
-0.334688306274
-0.000313207112351
-0.000325788613407
-0.000357330391876
-0.000370026565555
-0.000373915724782
-0.000368951029407
-0.00035029881649
-0.00032556250465
-0.000380796119787
-0.000392007608734
-0.000424912741912
-0.000580588334126
-0.000514852779873
-0.000695911307149
-0.00108207526722
-0.00228889820701
-0.00636275487734
-0.0175451831535
-0.0182601748542
0.520865018184
-0.000309955482857
-0.000323555384265
-0.000354920929463
-0.000366663163399
-0.000368414723059
-0.000361026051428
-0.000337079846929
-0.000364060668041
-0.000307838944078
-0.000322272726542
-0.00035386796702
-0.000365402798339
-0.000366111333203
-0.000355739531252
-0.000325429585
-0.000321723243709
-0.000307961786103
-0.000322308097115
-0.000353900546351
-0.000365426923963
-0.000366137786643
-0.000355781206938
-0.000325511352177
-0.000321873267592
-0.000310134878367
-0.000323676471156
-0.000355004122393
-0.000366745686123
-0.000368509516781
-0.000361170040581
-0.000337128050804
-0.000364264793444
)
;
    }
    sides
    {
        type            calculated;
        value           nonuniform List<scalar> 0();
    }
    bottom
    {
        type            calculated;
        value           nonuniform List<scalar> 10(-0.000331114066577 -0.000327574537286 -0.000323872304405 -0.000320204517393 -0.000316609286638 -0.000313207112351 -0.000309955482857 -0.000307838944078 -0.000307961786103 -0.000310134878367);
    }
    front
    {
        type            calculated;
        value           nonuniform List<scalar> 
164
(
-0.000409064988391
-0.000414142840124
-0.000419969397008
-0.000427199060967
-0.000438343879451
-0.000463399933589
-0.00053543505745
-0.000773287080259
-0.00172035531145
-0.00553062691573
-0.0179030716713
-0.0675452267777
-0.296805644961
-0.000331114066577
-0.000341532778125
-0.00037302365494
-0.0003861302077
-0.000397811341373
-0.000402446674365
-0.000407339597023
-0.000412794587159
-0.000419227342158
-0.00042707837586
-0.000438163260267
-0.000461587029163
-0.000531885469042
-0.000780791292881
-0.00179751042091
-0.00570334797925
-0.0178140688639
-0.061389852615
-0.00272013291289
-0.000327574537286
-0.000338271174604
-0.000369773033497
-0.000383081728838
-0.000390088921288
-0.000395233251236
-0.000400076809427
-0.000405154532928
-0.000410991189254
-0.000418354194742
-0.00042749963717
-0.000439444309413
-0.000462714073932
-0.000534742886344
-0.000794451508628
-0.00185867201142
-0.00582971838727
-0.0174051779956
-0.0483048487029
0.481159735309
-0.000323872304405
-0.000334992596069
-0.000366482834154
-0.000379929563988
-0.000387064052368
-0.000392232749422
-0.000396910826488
-0.000401656864537
-0.000407784871168
-0.000416427825801
-0.000427370711084
-0.000440891281574
-0.000463774776057
-0.000543437465697
-0.000814259061864
-0.00190367578642
-0.00594480302998
-0.0171713041843
-0.0608186943579
-0.329199147215
-0.000320204517393
-0.000331733415759
-0.000363251396165
-0.000376688566143
-0.000383629171413
-0.000388196336477
-0.000391750154415
-0.000395045316246
-0.000400522798779
-0.000409959263493
-0.000423146786833
-0.000437554730891
-0.000461329249743
-0.000562322677007
-0.000860809377347
-0.00198633697343
-0.00604464356263
-0.0165619020135
-0.0547216164563
-0.504895623288
-0.000316609286638
-0.000328684427055
-0.000360192111094
-0.000373450131877
-0.000379491806171
-0.000381757089449
-0.000381321027126
-0.000380185862611
-0.000377131022991
-0.000385903864518
-0.00040048264592
-0.000426011552305
-0.000468534730637
-0.000605442221587
-0.000945157302462
-0.0021167538726
-0.00623970916671
-0.0175554189926
-0.0336361295247
-0.334688306274
-0.000313207112351
-0.000325788613407
-0.000357330391876
-0.000370026565555
-0.000373915724782
-0.000368951029407
-0.00035029881649
-0.00032556250465
-0.000380796119787
-0.000392007608734
-0.000424912741912
-0.000580588334126
-0.000514852779873
-0.000695911307149
-0.00108207526722
-0.00228889820701
-0.00636275487734
-0.0175451831535
-0.0182601748542
0.520865018184
-0.000309955482857
-0.000323555384265
-0.000354920929463
-0.000366663163399
-0.000368414723059
-0.000361026051428
-0.000337079846929
-0.000364060668041
-0.000307838944078
-0.000322272726542
-0.00035386796702
-0.000365402798339
-0.000366111333203
-0.000355739531252
-0.000325429585
-0.000321723243709
-0.000307961786103
-0.000322308097115
-0.000353900546351
-0.000365426923963
-0.000366137786643
-0.000355781206938
-0.000325511352177
-0.000321873267592
-0.000310134878367
-0.000323676471156
-0.000355004122393
-0.000366745686123
-0.000368509516781
-0.000361170040581
-0.000337128050804
-0.000364264793444
)
;
    }
    atmosphere
    {
        type            calculated;
        value           nonuniform List<scalar> 7(-0.00426085043702 0.112487465302 -0.100444414911 -0.167126883748 0.0838384910472 -0.104262649918 -0.139183993951);
    }
    floatingObject
    {
        type            calculated;
        value           nonuniform List<scalar> 8(-0.000380796119787 -0.000392007608734 -0.000424912741912 -0.000580588334126 -0.000364060668041 -0.000321723243709 -0.000321873267592 -0.000364264793444);
    }
    procBoundary3to4
    {
        type            processor;
        value           nonuniform List<scalar> 
13
(
-0.000410595008198
-0.000415302221232
-0.000420737346119
-0.00033439199051
-0.000344703902567
-0.000376163547468
-0.000389060486664
-0.000400160664616
-0.000404485111171
-0.000404485111171
-0.00039291111296
-0.00039291111296
-0.00039291111296
)
;
    }
    procBoundary3to5
    {
        type            processor;
        value           nonuniform List<scalar> 10(-0.000427771351746 -0.000439771885619 -0.000467888600134 -0.000544271578458 -0.000773179383897 -0.00164968816284 -0.00538341834383 -0.0181305699812 -0.0704849010445 -0.361844346001);
    }
    procBoundary3to6
    {
        type            processor;
        value           nonuniform List<scalar> 8(-0.000663989760607 -0.000775267733538 -0.00129666299819 -0.00249159220578 -0.00637915064172 -0.0176673218892 -0.0322236983447 0.811784969078);
    }
    procBoundary3to8
    {
        type            processor;
        value           nonuniform List<scalar> 8(-0.000313358702034 -0.000325917359376 -0.000357457706636 -0.000370157804378 -0.000374076290267 -0.00036911235127 -0.000350601966955 -0.000325957472639);
    }
}


// ************************************************************************* //
