/*--------------------------------*- C++ -*----------------------------------*\
| =========                 |                                                 |
| \\      /  F ield         | OpenFOAM: The Open Source CFD Toolbox           |
|  \\    /   O peration     | Version:  v2012                                 |
|   \\  /    A nd           | Website:  www.openfoam.com                      |
|    \\/     M anipulation  |                                                 |
\*---------------------------------------------------------------------------*/
FoamFile
{
    version     2.0;
    format      ascii;
    class       surfaceScalarField;
    location    "4.9";
    object      phi;
}
// * * * * * * * * * * * * * * * * * * * * * * * * * * * * * * * * * * * * * //

dimensions      [0 3 -1 0 0 0 0];
oriented        oriented;


internalField   nonuniform List<scalar> 
296
(
5.08478915597e-05
3.50626931297e-05
5.76878991363e-05
3.47636101859e-05
6.43520441718e-05
3.41595890429e-05
7.2021511396e-05
3.16591394627e-05
8.17945876425e-05
2.76289442375e-05
9.27143259811e-05
2.49912719534e-05
0.000100843532697
2.62727766149e-05
0.000102830402448
2.7930749603e-05
9.84179194493e-05
3.27794142927e-05
9.2000305601e-05
3.59157131299e-05
8.52386341124e-05
3.29720671747e-05
8.22884955094e-05
4.01086267005e-05
-0.00011163434677
4.94373106655e-06
2.38791347776e-05
1.03041958566e-05
2.73237706355e-05
1.60795037429e-05
3.03489415031e-05
3.16358313778e-05
3.57218192395e-05
3.01629037232e-05
4.29259116099e-05
2.87654300167e-05
5.02279521325e-05
2.77624680688e-05
5.64031024551e-05
2.85919168151e-05
6.17134243683e-05
2.8854038421e-05
6.87100690531e-05
2.46682030744e-05
7.9589075827e-05
1.67556633415e-05
9.34086672588e-05
1.11766810226e-05
0.000102229463163
1.74554822061e-05
0.000101948920883
2.8213276567e-05
9.38225071866e-05
4.09066162497e-05
8.50902366156e-05
4.46480441977e-05
7.58942790229e-05
4.21591232351e-05
6.48378855037e-05
5.11424264422e-05
-3.77788828727e-05
4.63208395804e-06
1.92471477564e-05
9.68330193619e-06
2.22724393837e-05
1.51845693084e-05
2.48473214816e-05
2.11216520974e-05
2.5698347829e-05
2.75107406011e-05
2.4964506244e-05
3.43971322156e-05
2.32766698461e-05
4.17922322083e-05
2.13712331983e-05
4.89821305593e-05
2.05744311145e-05
5.37794628178e-05
2.37976288791e-05
5.61056535819e-05
2.65319377227e-05
6.12682866513e-05
1.95103101586e-05
7.36382638579e-05
4.39041187037e-06
9.27943336278e-05
-7.97536512286e-06
0.000102722566269
7.5301031275e-06
0.000100844066662
3.00933660404e-05
9.03918137885e-05
5.13594825714e-05
8.05843412628e-05
5.44555660013e-05
7.127365913e-05
5.14643779395e-05
6.28683938095e-05
5.95321337817e-05
2.44196018331e-05
4.292619469e-06
1.49545919944e-05
8.93829997649e-06
1.76267170635e-05
1.40467672668e-05
1.97386800435e-05
1.95579490771e-05
2.01869745422e-05
2.5452912658e-05
1.90695254018e-05
3.18652627196e-05
1.68647227604e-05
3.89756273371e-05
1.42619645958e-05
4.62859512328e-05
1.32660563484e-05
4.84870837127e-05
2.15994280107e-05
4.57743106942e-05
2.92484641419e-05
4.7941926193e-05
1.73469434248e-05
6.26684437352e-05
-1.033198036e-05
8.98645619305e-05
-3.5168017303e-05
0.000102099100909
-4.70201604609e-06
9.87436973442e-05
3.34500596695e-05
8.67088484821e-05
6.33947653803e-05
7.70846694867e-05
6.40797439962e-05
7.11771583324e-05
5.73678028319e-05
7.17559879589e-05
5.89380578908e-05
8.86477425639e-05
3.83569678736e-06
1.11189146558e-05
8.05550576377e-06
1.34068789072e-05
1.25740872445e-05
1.52200268482e-05
1.73641314658e-05
1.5396904266e-05
2.21683182287e-05
1.42655184444e-05
2.70104797138e-05
1.20231500053e-05
3.34246582162e-05
7.84899461425e-06
4.1835805898e-05
4.85689014353e-06
4.28357322946e-05
2.06023999609e-05
3.64157709831e-05
3.56720544907e-05
3.50736129121e-05
1.86930785634e-05
5.04256468868e-05
-2.56802149411e-05
8.49765092427e-05
-6.97155168058e-05
9.63171764032e-05
-1.60402635439e-05
9.08812976165e-05
3.8887077542e-05
7.95706183633e-05
7.47055900339e-05
7.2979286998e-05
7.06709037133e-05
7.3183536329e-05
5.71594766986e-05
0.000105383750132
2.67063759145e-05
2.37390336898e-05
3.33426520576e-06
7.78464886285e-06
7.03904720228e-06
9.70208091879e-06
1.11841100001e-05
1.10749572639e-05
1.51061988219e-05
1.14748927741e-05
1.81125888376e-05
1.12594173682e-05
1.93006247183e-05
1.08357726179e-05
2.35210551655e-05
3.62976740198e-06
3.72933317658e-05
-8.91329780025e-06
4.19665013975e-05
1.59321841265e-05
4.10477194913e-05
3.65943948332e-05
4.48954162599e-05
1.48491735408e-05
6.14996228871e-05
-4.22803607485e-05
8.3087765594e-05
-9.12998648036e-05
8.17029495682e-05
-1.46530016013e-05
7.3712378636e-05
4.68784101996e-05
6.77358131061e-05
8.06819473103e-05
6.76032641774e-05
7.08032173938e-05
7.47067684499e-05
5.00445921049e-05
9.37564143534e-05
7.59374605969e-06
8.1823753929e-05
2.60741990488e-06
5.17723107301e-06
5.6850739229e-06
6.62443176672e-06
8.93572177719e-06
7.82434303387e-06
1.202829438e-05
8.38244075942e-06
1.50885500678e-05
8.19946050878e-06
1.86513507645e-05
7.27357848442e-06
2.5571250208e-05
-3.28890132873e-06
5.20364551503e-05
-3.53766958599e-05
6.79702899467e-05
0.00010456653851
0.000119417824771
7.71396854189e-05
5.86270645646e-05
4.59031864229e-05
4.30592120407e-05
5.11252018107e-05
6.19133130871e-05
7.39798106708e-05
7.21230882452e-05
2.50051639484e-06
2.67672773586e-06
5.7054992497e-06
3.41946648279e-06
9.5847218482e-06
3.94516071072e-06
1.36349768285e-05
4.33228320845e-06
1.72260719799e-05
4.60858668578e-06
1.96779206457e-05
4.8222117764e-06
1.7145217435e-05
-7.55478269423e-07
-1.82311928898e-05
2.0995425706e-06
5.77175160853e-07
4.96751784323e-06
5.51473523619e-07
8.38896890863e-06
5.23685943096e-07
1.21846153687e-05
5.36624850626e-07
1.62367213348e-05
5.56520452852e-07
2.04476917698e-05
6.114305386e-07
1.90575690852e-05
6.35025387362e-07
8.26653799634e-07
2.10996879162e-06
-1.53286232646e-06
4.99295947746e-06
-2.33162676148e-06
8.39575931581e-06
-2.87927035405e-06
1.2183888725e-05
-3.25168500402e-06
1.62496337091e-05
-3.50938186533e-06
2.04238434448e-05
-3.56274502213e-06
1.90157001136e-05
2.04356492023e-06
1.98426461513e-05
2.54782064197e-06
5.72238620061e-06
9.59071265819e-06
1.36111429162e-05
1.71599813259e-05
1.98243069298e-05
1.70188473931e-05
)
;

boundaryField
{
    back
    {
        type            calculated;
        value           uniform 0;
    }
    sides
    {
        type            calculated;
        value           nonuniform List<scalar> 0();
    }
    bottom
    {
        type            calculated;
        value           uniform 0;
    }
    front
    {
        type            calculated;
        value           uniform 0;
    }
    atmosphere
    {
        type            calculated;
        value           nonuniform List<scalar> 7(3.94218241936e-06 -9.02931844919e-06 6.59188676277e-07 7.5133760743e-06 0.00017025600151 3.56276111606e-05 9.15106442805e-06);
    }
    floatingObject
    {
        type            calculated;
        value           uniform 0;
    }
    procBoundary3to4
    {
        type            processor;
        value           nonuniform List<scalar> 
13
(
-4.22561824346e-05
-4.15957063128e-05
-4.08137111687e-05
-2.88228915538e-05
-3.26846971038e-05
-3.6124903936e-05
-3.7808834106e-05
-3.70972775087e-05
-4.36512473882e-05
-3.59686929531e-05
2.22508421277e-05
-2.87885638976e-05
-3.13547131459e-05
)
;
    }
    procBoundary3to5
    {
        type            processor;
        value           nonuniform List<scalar> 10(-3.93154641197e-05 -3.73894868613e-05 -3.58996406443e-05 -3.4394038066e-05 -2.9912720949e-05 -2.83651059089e-05 -2.94978897407e-05 -2.62269830923e-05 -3.72296180612e-05 0.000189930499618);
    }
    procBoundary3to6
    {
        type            processor;
        value           nonuniform List<scalar> 8(-7.27836310167e-05 -1.92687098876e-06 4.97229979458e-05 7.26157154226e-05 6.00145343948e-05 3.79585988047e-05 9.38713723153e-06 0.000144753007067);
    }
    procBoundary3to8
    {
        type            processor;
        value           nonuniform List<scalar> 8(-4.08081737601e-06 -5.5064175481e-06 -6.74788915928e-06 -7.27245340755e-06 -7.058479155e-06 -6.2270831613e-06 4.84942069076e-06 3.68618712001e-05);
    }
}


// ************************************************************************* //
