/*--------------------------------*- C++ -*----------------------------------*\
| =========                 |                                                 |
| \\      /  F ield         | OpenFOAM: The Open Source CFD Toolbox           |
|  \\    /   O peration     | Version:  v2012                                 |
|   \\  /    A nd           | Website:  www.openfoam.com                      |
|    \\/     M anipulation  |                                                 |
\*---------------------------------------------------------------------------*/
FoamFile
{
    version     2.0;
    format      ascii;
    class       surfaceVectorField;
    location    "4.9";
    object      Uf;
}
// * * * * * * * * * * * * * * * * * * * * * * * * * * * * * * * * * * * * * //

dimensions      [0 1 -1 0 0 0 0];


internalField   nonuniform List<vector> 
296
(
(0.00768933933345 0.0101695783119 1.11673777347e-20)
(0.00701253862593 0.00939479325203 2.76251800866e-20)
(0.00756335492314 0.0115375798273 1.39948938891e-20)
(0.00695272203718 0.0107873090708 3.95985213119e-20)
(0.00730753116323 0.0128704088344 1.55356200328e-20)
(0.00683191780859 0.0119704814384 4.50424656123e-20)
(0.00686134074933 0.0144043022792 1.76601994481e-20)
(0.00633182789253 0.013180177184 4.98947113272e-20)
(0.00642702203875 0.0163589175285 1.90850683241e-20)
(0.00552578884749 0.0149198513947 5.93615582205e-20)
(0.0062126046887 0.0185428651962 1.73290005209e-20)
(0.00499825439067 0.0173804843117 5.88430913341e-20)
(0.00595903789773 0.0201687065394 1.15710028849e-20)
(0.00525455532297 0.019734062177 4.78905508437e-20)
(0.00588670467095 0.0205660804896 5.47523028058e-21)
(0.0055861499206 0.0206019292943 2.07747147395e-20)
(0.00629120969387 0.0196835838899 4.7397198088e-21)
(0.00655588285855 0.0208528586722 9.81080090375e-21)
(0.00625543597973 0.0184000611202 8.11360188369e-21)
(0.00718314262597 0.0152377734297 9.08487703549e-21)
(0.00679860884781 0.0170477268225 9.92351218885e-21)
(0.00659441343493 0.0153234394755 1.10337957585e-20)
(-0.0118322858896 0.0164576991019 7.22431115676e-21)
(0.00802172534009 0.0192798411583 1.06209826757e-20)
(-0.0223268693539 0.00372455344862 3.79571302858e-21)
(0.00563449038417 0.00098874621331 9.85394676751e-22)
(0.00477582695552 0.000385279007036 1.40242935883e-21)
(0.00632062956254 0.00206083917133 4.90062183138e-22)
(0.00546475412711 0.00151218083292 7.83791974845e-22)
(0.00679342782571 0.00321590074858 6.31621441534e-22)
(0.00606978830063 0.00255189038056 7.28877544163e-22)
(0.00632716627557 0.00372400040651 2.24146760898e-21)
(0.00660226573313 0.0071443638479 1.65452046489e-20)
(0.00603258074465 0.00631172645532 2.53781253167e-20)
(0.00638882094113 0.00858518232198 3.48900673049e-20)
(0.00575308600333 0.00773124942621 6.48289430951e-20)
(0.00629474334956 0.0100455904265 5.60563236638e-20)
(0.00555249361377 0.00923028196499 1.26049569408e-19)
(0.00626192331089 0.011280620491 7.06460930351e-20)
(0.00571838336301 0.0105506549217 1.80947491076e-19)
(0.00592606898114 0.0123426848737 7.94015569067e-20)
(0.00577080768419 0.0113769797745 2.0501314234e-19)
(0.00508811178887 0.0137420138106 9.15960700995e-20)
(0.00493364061488 0.0121149241477 2.33660198449e-19)
(0.00420359874257 0.0159178151654 9.91195812305e-20)
(0.00335113266829 0.0137716215816 2.94963488779e-19)
(0.00417730482863 0.0186817334518 8.9404641657e-20)
(0.00223533620453 0.0169639687729 2.85551572369e-19)
(0.0050607238389 0.0204458926327 5.70942626984e-20)
(0.00349109644123 0.0200278852391 2.13629899861e-19)
(0.00647760697446 0.0203897841767 2.51102853627e-20)
(0.0056426553134 0.0207742883216 8.90751227938e-20)
(0.00772025408285 0.0187645014373 1.41559581304e-20)
(0.00818132324994 0.0202892408092 3.46251001879e-20)
(0.00783106005978 0.0170180473231 1.20050709103e-20)
(0.00892960883953 0.0143884306493 2.52145580468e-20)
(0.0083082393076 0.0151788558046 1.17312662453e-20)
(0.00843182464701 0.0142348453753 2.72808527342e-20)
(-0.00259222436726 0.0129675771007 7.19238454753e-21)
(0.0102284852884 0.0177806054021 2.65445565648e-20)
(-0.00755577657455 0.00260896141309 7.49264405623e-21)
(0.00462979392614 0.000926416791608 1.20082665693e-21)
(0.00384942955127 0.000355021837938 1.60810618445e-21)
(0.00523411631642 0.00193666038724 1.02260733587e-21)
(0.00445448787674 0.00140985420468 1.24440383226e-21)
(0.00561952009156 0.00303691386169 2.3387237116e-21)
(0.00496946429631 0.00237898934788 2.25228673223e-21)
(0.00567426931665 0.00422433041949 8.28773973372e-21)
(0.0051396695658 0.00349060028447 8.30790412244e-21)
(0.0054758706597 0.00550214812021 2.71907261446e-20)
(0.00499290124879 0.00468341355535 3.10149832581e-20)
(0.00516347916131 0.00687942644312 7.36618637629e-20)
(0.00465533396922 0.00595426570363 1.00276800766e-19)
(0.00490637654319 0.00835844644166 1.55988445198e-19)
(0.00427424663967 0.00733224867158 2.57320902945e-19)
(0.00497017351961 0.00979642611187 2.5094073682e-19)
(0.0041148862229 0.00887293976994 4.97526182086e-19)
(0.00521565218039 0.0107558925636 3.1531454038e-19)
(0.00475952577582 0.0100537329411 6.98319904936e-19)
(0.00476327265028 0.0112211307164 3.59271783881e-19)
(0.00530638754453 0.0102366629348 7.67244447807e-19)
(0.00320617066395 0.0122536573303 4.37027617128e-19)
(0.00390206203172 0.0101838824015 8.84449390615e-19)
(0.00143459735276 0.0147276527716 4.81395479917e-19)
(0.000878082374073 0.0115191000997 1.17928323482e-18)
(0.0016684909979 0.0185588667256 4.09776830573e-19)
(-0.00159507302457 0.0159308021984 1.10196357333e-18)
(0.00425447229243 0.0205445132538 2.45610759957e-19)
(0.0015060206255 0.0202164915309 7.81001759467e-19)
(0.00753303149793 0.0201688133323 9.8589937619e-20)
(0.00601867320808 0.020681155894 3.28540365151e-19)
(0.00958251746846 0.0180783627577 4.56837001042e-20)
(0.0102718965143 0.0197501151223 1.2203887373e-19)
(0.00965550454597 0.0161168682526 4.04903398707e-20)
(0.0108911132003 0.0137578993596 8.02895030722e-20)
(0.0102358143796 0.014254731826 4.20941430537e-20)
(0.0102928755879 0.013481260192 7.62994565844e-20)
(0.0051663513165 0.0125736787619 2.68448160735e-20)
(0.0119064267563 0.0167089933038 7.50760805002e-20)
(0.00488392036663 0.00470769402716 1.89809806292e-20)
(0.00369675766158 0.0008585238938 1.65168335978e-21)
(0.00299091839888 0.000317049589985 1.8069599582e-21)
(0.00421661461491 0.0017876599953 2.47408322863e-21)
(0.00352534341269 0.00128366993995 2.21978162038e-21)
(0.00451038316845 0.00280935345336 8.22146714307e-21)
(0.0039477360087 0.00216278646392 6.72784772191e-21)
(0.00447015705896 0.00391158981542 3.10351476468e-20)
(0.00403739490844 0.0031806720213 2.73379563427e-20)
(0.00415856999187 0.00509058253161 1.0410105788e-19)
(0.00381390508035 0.00425072829271 1.0333667459e-19)
(0.00372385024453 0.00637305254392 2.83935839949e-19)
(0.00337294455209 0.00534324826793 3.37887720538e-19)
(0.00344166585262 0.00779512546741 5.98858639833e-19)
(0.00285239291915 0.00652277412063 8.68550695869e-19)
(0.0039331245607 0.00925719024656 9.44905350203e-19)
(0.00265321126968 0.0081125703607 1.66494527853e-18)
(0.00496507295685 0.00969741674253 1.15024981236e-18)
(0.00431988560214 0.00924943816809 2.2773406425e-18)
(0.00461030152757 0.00915486213885 1.29242205454e-18)
(0.00584969282838 0.00880066695048 2.37713349186e-18)
(0.00173889199618 0.0095883852386 1.62670500831e-18)
(0.00346938868495 0.00783042454331 2.54770226307e-18)
(-0.00195516393239 0.012533688747 1.79985132823e-18)
(-0.00206639607199 0.00859829200189 3.27399402948e-18)
(-0.00156353804475 0.0179729123861 1.47318850222e-18)
(-0.0070336034606 0.0142948419529 3.06812046854e-18)
(0.00344499424964 0.0204198201817 8.63931364661e-19)
(-0.000940403209218 0.0201004279612 2.08353325823e-18)
(0.00896109250133 0.0197487394688 3.51989301262e-19)
(0.00669001193391 0.0197402182063 8.94333312341e-19)
(0.0117218396095 0.0173417696964 1.56644676698e-19)
(0.0126789530761 0.0186731768811 3.57380597093e-19)
(0.0114211248395 0.0154169338973 1.16098619786e-19)
(0.0128159487992 0.0130154730784 2.24003265274e-19)
(0.0114955476855 0.0142354316665 1.09281394031e-19)
(0.0114735605664 0.0129718959466 2.00831892852e-19)
(0.0121326660426 0.0143511975918 6.72122450559e-20)
(0.0117876115782 0.0163860375183 1.98928057019e-19)
(0.0177295485128 0.0188885350637 4.15949847106e-20)
(0.00284710571711 0.000767139357471 2.3750582188e-21)
(0.00222378293117 0.000262870063494 1.9704455658e-21)
(0.00329365274518 0.00161110115275 6.47354611366e-21)
(0.00268137578145 0.00113890506235 4.43377824393e-21)
(0.00353406906972 0.00251481744889 2.58443369215e-20)
(0.00304400536963 0.00192669743344 1.78959040989e-20)
(0.00345947739801 0.00347282629315 9.96394832861e-20)
(0.0030793808532 0.00281839808552 7.49668133566e-20)
(0.00311128959291 0.00443366364575 3.37123337248e-19)
(0.00285310368888 0.00370018222843 2.83710944034e-19)
(0.00253662388077 0.00540209594277 9.22502576458e-19)
(0.00240463000106 0.00441068381383 9.35119780462e-19)
(0.0019511389481 0.00668493164324 1.93463733456e-18)
(0.00156979892285 0.00490196279604 2.39749839599e-18)
(0.00287124940229 0.00836716117959 2.99738057082e-18)
(0.000971378028706 0.00672152893626 4.50330331788e-18)
(0.00505111126825 0.00856714645893 3.504224322e-18)
(0.00412047999218 0.00860121303639 6.07243252275e-18)
(0.00451798924693 0.00728315419661 3.63241370039e-18)
(0.00713441089815 0.00826292176257 6.04251430005e-18)
(-0.000812009724441 0.00701472258243 4.19499128425e-18)
(0.00373861571268 0.00747625863335 5.47400497112e-18)
(-0.0072862432998 0.0100851293774 4.5422631698e-18)
(-0.00513604298822 0.008320019637 6.63413344575e-18)
(-0.00606648878423 0.0169953018485 3.67846522455e-18)
(-0.0139431033612 0.0138907739431 5.56134239484e-18)
(0.00252262832894 0.0192634352806 2.1139352059e-18)
(-0.00320805270877 0.0191017430554 3.73575275531e-18)
(0.0105910124202 0.0181762595233 8.99724608173e-19)
(0.0077774155084 0.0170210082625 1.72344320117e-18)
(0.0138566028659 0.0159141236727 4.2473918567e-19)
(0.0149411180068 0.0163293021587 7.66562424774e-19)
(0.0127146581023 0.0145958573996 3.0873653834e-19)
(0.0141341807427 0.0118562805898 5.02413409893e-19)
(0.0103083201821 0.0146367072658 2.9047855584e-19)
(0.0114318953397 0.0126432547974 4.32226725829e-19)
(0.00896830257124 0.0210767500264 1.73310796674e-19)
(0.0053412751829 0.0162031786149 4.29153021199e-19)
(0.00474780673796 0.0222435212303 1.14416209054e-19)
(0.00207961817945 0.000666853041152 4.02916559094e-21)
(0.00155692977257 0.000194933867482 2.41268982408e-21)
(0.0024376891028 0.00140780944046 1.58561362292e-20)
(0.00194041618376 0.000962879061743 9.04517961745e-21)
(0.00259329875144 0.00223682200002 6.7018380534e-20)
(0.00221499145277 0.00163057802187 3.96339242116e-20)
(0.00248142934839 0.00302123976438 2.59038274104e-19)
(0.00229497855482 0.00237225171889 1.63274540583e-19)
(0.0021461463785 0.00362251776752 8.81707387247e-19)
(0.00225188347365 0.00308734127819 6.03688480421e-19)
(0.00153806793619 0.00386012494366 2.4101156e-18)
(0.00216715452357 0.003632602146 1.94028677315e-18)
(0.000808084479795 0.0047042110331 4.96616437931e-18)
(0.000725953480395 0.00388346955294 4.97238403171e-18)
(0.00247094506874 0.00745866635315 7.5783552698e-18)
(-0.00178265956005 0.00647551301695 9.44965696243e-18)
(0.00646902254198 0.0083933002795 8.6107225008e-18)
(0.00318643682529 0.0102848238465 1.43292266432e-17)
(0.00665134874344 0.00820954389826 7.88410557077e-18)
(0.00731887896664 0.0118903538491 1.40312600106e-17)
(0.000250791077009 0.00897908325197 7.91314713263e-18)
(0.00296983470816 0.0179134665473 9.99959558797e-18)
(-0.0105818015209 0.0122999245774 7.6532126708e-18)
(-0.0084560721497 0.0140962329273 1.11772645339e-17)
(-0.0103366825103 0.0166175531188 5.6186299256e-18)
(-0.0182599729607 0.0128148428653 6.70415219805e-18)
(0.0022854058887 0.0163405899136 3.34526075058e-18)
(-0.00293060032026 0.014971283519 4.54841600266e-18)
(0.012101071551 0.0147424757272 1.59028101777e-18)
(0.00937568203993 0.0113198048106 2.33864539622e-18)
(0.0151710742454 0.0135471626212 8.44236648997e-19)
(0.0161363894621 0.0123751375458 1.20367893078e-18)
(0.0128340595424 0.0135206528355 6.25903597381e-19)
(0.0141606434788 0.0102771017023 8.4634275638e-19)
(0.00736243679966 0.01494135369 5.70901191188e-19)
(0.010008918421 0.0124947711947 7.29062441966e-19)
(0.00728535170534 0.0187512828707 3.7025843358e-19)
(0.00151874921194 0.0157863476541 7.23717676964e-19)
(0.0163647507858 0.00972265293237 1.85138271726e-19)
(0.00146513038008 0.000521483980977 7.42870385059e-21)
(0.0010354462146 0.000146097613884 3.62402986542e-21)
(0.00178820175944 0.00113701478458 3.28229675998e-20)
(0.00132488635334 0.000850428554247 1.66308607347e-20)
(0.00200861630214 0.00178714435544 1.3589008426e-19)
(0.00156486860677 0.00146923311714 7.1601620778e-20)
(0.00212120308069 0.002405658876 5.07924746899e-19)
(0.00167648815188 0.00217929807155 2.7801671437e-19)
(0.00213332232386 0.00301771001355 1.66226786633e-18)
(0.00163989210176 0.00296338101622 9.53777279422e-19)
(0.000955863640852 0.0037302701529 4.50255520487e-18)
(0.00145471569688 0.00341557254714 2.86653892087e-18)
(-0.00261958556566 0.0051142500416 9.45587661484e-18)
(-0.000657780265745 0.00434868580074 6.81513440612e-18)
(-0.00158213043696 0.0104072910301 1.62005283358e-17)
(-0.00707533917199 0.00419123352363 1.23894272308e-17)
(0.00377716142592 0.0135940579893 1.97497641529e-17)
(0.00313606655339 0.020913307702 1.61467500277e-17)
(-0.00695114553469 0.0238835649542 1.32637129893e-17)
(-0.0161675677955 0.0154279370838 1.02282040612e-17)
(-0.00984676216657 0.0117254129129 5.63393827511e-18)
(0.00408686418011 0.00918063728458 3.5418006483e-18)
(0.0130117322113 0.00861184240814 1.95204330923e-18)
(0.0148720605854 0.0102250403621 1.20578503816e-18)
(0.0115735533902 0.0123826626174 9.49501600965e-19)
(0.00554217300882 0.0147959621342 8.81878927742e-19)
(0.00994266646293 0.014424617649 5.3859751511e-19)
(0.000898993425685 0.000500103278968 1.28261867495e-20)
(0.000535345547173 0.00010917285022 5.69092902997e-21)
(0.00111912435584 0.00114109984994 5.54095139129e-20)
(0.000683893296557 0.000781047236801 2.58040621564e-20)
(0.00130157051462 0.00191694436964 2.13728250887e-19)
(0.000789032142144 0.00139605431373 1.09765458164e-19)
(0.00142981417665 0.0027269953657 7.23869246892e-19)
(0.00086645664169 0.00211475314105 4.07291290548e-19)
(0.00145814036824 0.00344521439598 2.15804833397e-18)
(0.000921717337155 0.00299976847356 1.29579588795e-18)
(0.000429648945909 0.00393558412914 5.17911812212e-18)
(0.000964442355281 0.00345433555954 3.80647363089e-18)
(-0.00338751200097 0.003429043487 9.74868502205e-18)
(-0.000151095653885 0.00458718151057 8.94964097166e-18)
(-0.00364623857796 0.00198546424239 1.83990416028e-17)
(0.000347766724407 0.00041990851412 1.86688044369e-20)
(0.000115435032171 8.49871772237e-05 7.19126097084e-21)
(0.000394149517233 0.000993503568647 8.0160006408e-20)
(0.000110294704724 0.00072436198852 3.06996508938e-20)
(0.000404632446341 0.00167779378173 3.03328497825e-19)
(0.000104737188619 0.00130573616914 1.29900634998e-19)
(0.000367878661565 0.00243692307374 9.79217931606e-19)
(0.000107324970125 0.00198283240758 4.7674836923e-19)
(0.000287291450885 0.00324734426696 2.94422118488e-18)
(0.00011130409057 0.00283895437447 1.48218292616e-18)
(0.000176698003639 0.00408953835396 7.57699648042e-18)
(0.00012228610772 0.0034795759511 4.40742385122e-18)
(-0.00116502101902 0.00381151381703 1.75999975525e-17)
(0.000127005077472 0.00442355971704 1.07492378867e-17)
(0.000165330759927 0.00269452272761 2.44523824677e-17)
(-0.000119833625041 0.000421993758325 1.92221074278e-20)
(-0.000306572465293 0.000113922177401 6.67709824335e-21)
(-0.000174576925011 0.000998591895491 8.04402794841e-20)
(-0.000466325352296 0.000786816419007 2.62579041829e-20)
(-0.000187969547686 0.00167915186316 3.03320506403e-19)
(-0.00057585407081 0.00139969164086 1.09934262977e-19)
(-0.000147081921715 0.002436777745 9.79713363783e-19)
(-0.000650337000803 0.00211472550655 4.07189756589e-19)
(-5.20784485794e-05 0.00324992674182 2.94538559251e-18)
(-0.000701876373067 0.00299670119432 1.29679838498e-18)
(8.81972625172e-05 0.00408476868896 7.57966525748e-18)
(-0.000712549004425 0.00345068411869 3.80830746455e-18)
(0.00148300010729 0.00380314002272 1.76016228019e-17)
(0.000408712984047 0.00458869331049 8.95415895245e-18)
(0.00396852923025 0.00197172133976 1.8406038351e-17)
(-0.000674061836215 0.000509564128393 1.37128949985e-20)
(-0.0008980753872 0.00114447724012 5.5751887676e-20)
(-0.00108102842798 0.00191814253164 2.13803513164e-19)
(-0.00120391675724 0.00272222858325 7.24274777791e-19)
(-0.00122516521911 0.00343199626517 2.15972025703e-18)
(-0.000175515429027 0.00396486138595 5.18280115953e-18)
(0.00367504188808 0.00340376947863 9.75857450147e-18)
)
;

boundaryField
{
    back
    {
        type            calculated;
        value           uniform (0 0 0);
    }
    sides
    {
        type            calculated;
        value           nonuniform List<vector> 0();
    }
    bottom
    {
        type            calculated;
        value           uniform (0 0 0);
    }
    front
    {
        type            calculated;
        value           uniform (0 0 0);
    }
    atmosphere
    {
        type            calculated;
        value           nonuniform List<vector> 7((-0.0313068805999 0.000788436483872 4.73644273647e-21) (0 -0.00180586368984 0) (-0.000775142819937 0.000131837735255 1.21303047918e-20) (0.0121942411002 0.00150267521486 2.58316564666e-20) (0.00902185395178 0.034051200302 5.73583129546e-20) (0.0109596601367 0.00712552223212 1.71474105154e-19) (0.0181967220008 0.00183021288561 1.98802438298e-19));
    }
    floatingObject
    {
        type            calculated;
        value           nonuniform List<vector> 8((0 -1.66533453694e-15 2.08166817117e-16) (0 0 2.08166817117e-16) (0 0 0) (0 -3.33066907388e-15 2.08166817117e-16) (4.16333634234e-16 0 0) (0 0 2.08166817117e-16) (0 0 2.08166817117e-16) (0 0 0));
    }
    procBoundary3to4
    {
        type            processor;
        value           nonuniform List<vector> 
13
(
(0.00845123648693 0.00951042422073 5.4832205204e-21)
(0.00831914126256 0.0109256724165 7.81218189046e-21)
(0.00816274223375 0.0122793425925 8.80721001304e-21)
(0.00576457831075 0.000417682204032 1.29212311899e-21)
(0.00653693942075 0.00159786590812 5.62551833549e-22)
(0.0072249807872 0.00269229038902 2.37850192982e-22)
(0.00756176682119 0.00390611374357 5.66774333945e-22)
(0.00741945550175 0.00653117060185 5.662496385e-21)
(0.00783651912897 0.00873024947764 6.98910505726e-21)
(0.00719373859061 0.00793485184421 1.42539922755e-20)
(0.00693171060307 0.00445016842555 1.98622703601e-21)
(0.00682238639476 0.00575771277951 6.21989833285e-21)
(0.00627094262918 0.00497758629688 8.03249916075e-21)
)
;
    }
    procBoundary3to5
    {
        type            processor;
        value           nonuniform List<vector> 10((0.00786309282394 0.0136852509114 9.6484795471e-21) (0.00747789737226 0.0153799185428 1.13450263861e-20) (0.00717992812887 0.0173982296944 1.15561969206e-20) (0.00687880761321 0.0193463086455 9.73255287311e-21) (0.0059825441898 0.0203163154754 5.57508179914e-21) (0.00567302118178 0.0215334339456 2.7828936787e-21) (0.00589957794815 0.0163747924657 6.351557447e-21) (0.00524539661846 0.0168168096709 1.21349132724e-20) (0.00744592361224 0.0213560695258 1.20650552682e-20) (-0.0379860999236 0.0029523510805 5.3476612562e-21));
    }
    procBoundary3to6
    {
        type            processor;
        value           nonuniform List<vector> 8((-0.0145567262033 0.00177357542267 5.54899647855e-18) (-0.000385374197752 0.00508749325685 4.02566976271e-18) (0.00994459958917 0.00215903502311 2.4398792946e-18) (0.0145231430845 0.00710579067196 1.53119280293e-18) (0.012002906879 0.0084977003453 1.17058777827e-18) (0.00759171976095 0.0125326334356 1.04418790226e-18) (0.00187742744631 0.0149029247677 1.03546278678e-18) (0.0289506014134 0.00286249339695 2.47696437819e-19));
    }
    procBoundary3to8
    {
        type            processor;
        value           nonuniform List<vector> 8((-0.000816163475201 0.000153457742486 4.7291848971e-21) (-0.00110128350962 0.000858639954163 1.70535933223e-20) (-0.00134957783186 0.00147307310336 7.17317792722e-20) (-0.00145449068151 0.0021777844036 2.77746999519e-19) (-0.001411695831 0.00294984285508 9.54896613586e-19) (-0.00124541663226 0.0033948195748 2.87074158477e-18) (0.000969884138153 0.00431083240631 6.83065848255e-18) (0.00737237424002 0.00417000994755 1.24092158637e-17));
    }
}


// ************************************************************************* //
