/*--------------------------------*- C++ -*----------------------------------*\
| =========                 |                                                 |
| \\      /  F ield         | OpenFOAM: The Open Source CFD Toolbox           |
|  \\    /   O peration     | Version:  v2012                                 |
|   \\  /    A nd           | Website:  www.openfoam.com                      |
|    \\/     M anipulation  |                                                 |
\*---------------------------------------------------------------------------*/
FoamFile
{
    version     2.0;
    format      ascii;
    class       surfaceScalarField;
    location    "1.6";
    object      alphaPhi0.water;
}
// * * * * * * * * * * * * * * * * * * * * * * * * * * * * * * * * * * * * * //

dimensions      [0 3 -1 0 0 0 0];
oriented        oriented;


internalField   nonuniform List<scalar> 
3840
(
4.30769745124e-06
-4.30775179915e-06
3.84650290879e-06
4.61137363778e-07
2.56733229608e-06
1.27911980791e-06
1.85103299122e-06
7.16261790636e-07
1.50148439159e-06
3.49529780873e-07
1.35754006742e-06
1.43975512432e-07
1.3244299485e-06
3.32031082816e-08
1.33969474598e-06
-1.51307946551e-08
1.35074459249e-06
-1.0839940424e-08
1.30835121792e-06
4.25477045401e-08
1.17924665243e-06
1.292721351e-07
1.07542692413e-06
1.03985619414e-07
1.66149200754e-06
-5.85918881629e-07
4.33994308521e-06
-2.67834342474e-06
9.48866636294e-06
-5.14867644592e-06
-3.95772312247e-06
1.34993061321e-05
-1.00039215724e-05
1.95254223535e-05
-4.63600554356e-14
3.15262874836e-06
8.32284982622e-22
1.80811904116e-16
-5.07890659161e-24
-6.87787855809e-07
-3.62002324502e-06
-1.71299608903e-06
1.48628609626e-06
-2.92215058037e-06
2.4882235404e-06
-4.35187450991e-06
2.14595047266e-06
-5.82172190042e-06
1.81936314813e-06
-7.28978731141e-06
1.61207475957e-06
-8.74964299434e-06
1.49315849654e-06
-1.02147443974e-05
1.45011171612e-06
-1.17155958894e-05
1.4902618815e-06
-1.33060942288e-05
1.63323504919e-06
-1.50871295438e-05
1.9104877941e-06
-1.73046299602e-05
2.32166024351e-06
-2.06111677895e-05
2.72076773615e-06
-2.62451065206e-05
2.95561244294e-06
-3.58277486086e-05
4.43400343275e-06
-3.67396474636e-05
1.44109999009e-05
-1.53874526055e-05
2.01884412824e-05
4.79663508676e-10
-2.57543769252e-06
5.2265087688e-13
4.79159555924e-10
1.78832497879e-13
-1.96361721524e-06
-1.65646660328e-06
-3.32066364347e-06
2.84327280264e-06
-4.64977653473e-06
3.81728611288e-06
-6.2976745557e-06
3.79381406327e-06
-8.07616763056e-06
3.59784307897e-06
-9.8865366582e-06
3.42247719462e-06
-1.16960530875e-05
3.30275078064e-06
-1.35057071648e-05
3.25993760305e-06
-1.533827362e-05
3.32307730006e-06
-1.72392581677e-05
3.53445522162e-06
-1.92811761376e-05
3.95260385342e-06
-2.15901475419e-05
4.63081224566e-06
-2.4473969516e-05
5.60473751927e-06
-2.8436876808e-05
6.9186310363e-06
-3.32587034066e-05
9.25589210592e-06
-3.37995832262e-05
1.49514177961e-05
-1.41305212875e-05
2.12982362352e-05
-4.79400916974e-10
-3.63289751177e-06
-1.27192853941e-13
4.63081105607e-17
4.080960709e-24
-1.63521119223e-06
-2.13152707126e-08
-3.35420958421e-06
4.56221252658e-06
-5.075692784e-06
5.53871997502e-06
-6.89299091651e-06
5.61107831301e-06
-8.75932745902e-06
5.46416606534e-06
-1.06244696067e-05
5.28763688556e-06
-1.24631188226e-05
5.14147952555e-06
-1.42705547529e-05
5.06750633023e-06
-1.60601226508e-05
5.11299002349e-06
-1.78661981974e-05
5.34085697549e-06
-1.97482546371e-05
5.83489021698e-06
-2.17930373467e-05
6.67578674083e-06
-2.41346162621e-05
7.94647146274e-06
-2.69072547818e-05
9.6913817523e-06
-2.98613773256e-05
1.22100540916e-05
-3.08835217079e-05
1.59733639124e-05
-1.32383398795e-05
2.22912083036e-05
-1.07929015116e-13
-7.56004747087e-06
1.14738693276e-21
9.01556618414e-17
-6.38367827496e-25
-1.34911337236e-06
1.32774003858e-06
-3.22092552328e-06
6.43396785615e-06
-5.16563140649e-06
7.483378057e-06
-7.10353489875e-06
7.54894902069e-06
-9.01382817842e-06
7.37444634935e-06
-1.08727242855e-05
7.14654587123e-06
-1.26611779958e-05
6.92998837951e-06
-1.43690502427e-05
6.77551014798e-06
-1.59969134754e-05
6.74107708343e-06
-1.75597385448e-05
6.90408846911e-06
-1.90906318486e-05
7.36615274515e-06
-2.06372631871e-05
8.22262128378e-06
-2.22515694734e-05
9.56094032617e-06
-2.39165681908e-05
1.13565003005e-05
-2.53173091514e-05
1.36108713304e-05
-2.51410627245e-05
1.57971971777e-05
-1.0065199551e-05
2.18939880759e-05
-9.54069120658e-14
-1.0688873998e-05
9.08680389963e-22
1.82647586702e-16
-3.21029851714e-24
-1.22288992363e-06
2.55057417922e-06
-3.18385451402e-06
8.39487779884e-06
-5.25761049088e-06
9.557087992e-06
-7.28497003711e-06
9.57627712786e-06
-9.23425871985e-06
9.323723491e-06
-1.10842076806e-05
8.99650842616e-06
-1.28131366101e-05
8.65896641881e-06
-1.44014206648e-05
8.36391937458e-06
-1.5833961433e-05
8.17383590927e-06
-1.71021458743e-05
8.17255191368e-06
-1.82050153679e-05
8.46940221846e-06
-1.91445403389e-05
9.16235979719e-06
-1.99094625911e-05
1.03260359665e-05
-2.0411745772e-05
1.18589143887e-05
-2.03662529144e-05
1.35654561001e-05
-1.90732599707e-05
1.45042921956e-05
-6.87247703966e-06
2.05740264033e-05
-7.35671996401e-14
-1.39141787324e-05
3.50541322373e-22
2.68091550641e-16
-6.44365251647e-24
-1.20952782778e-06
3.76004852085e-06
-3.25237838925e-06
1.04376757898e-05
-5.428139858e-06
1.17328049574e-05
-7.53923499413e-06
1.1687341792e-05
-9.53732346166e-06
1.13218013624e-05
-1.13933821433e-05
1.08525824574e-05
-1.30771311787e-05
1.03427655652e-05
-1.45563327346e-05
9.84324506914e-06
-1.57980417281e-05
9.41576729185e-06
-1.67693633486e-05
9.14415303446e-06
-1.74368826229e-05
9.1373158856e-06
-1.77627631571e-05
9.4884650311e-06
-1.76923067843e-05
1.02557656667e-05
-1.71105872568e-05
1.12773384974e-05
-1.57603933163e-05
1.22153469303e-05
-1.3376878566e-05
1.21208891944e-05
-3.65457951032e-06
1.82592062109e-05
-7.29407467892e-14
-1.72057718261e-05
3.31578529207e-22
-3.5930151884e-14
7.5261938974e-22
-1.27276890468e-06
5.03276591213e-06
-3.41505982707e-06
1.25799157773e-05
-5.69982059229e-06
1.4017522176e-05
-7.908377854e-06
1.3895868786e-05
-9.97722349187e-06
1.33906362025e-05
-1.18665769858e-05
1.27419515891e-05
-1.35349657874e-05
1.20112054282e-05
-1.4935992117e-05
1.12443969009e-05
-1.6018207511e-05
1.04982081333e-05
-1.67249276767e-05
9.85115880078e-06
-1.69933056389e-05
9.406099233e-06
-1.67520899183e-05
9.24748332414e-06
-1.5915138225e-05
9.41901180987e-06
-1.43563219846e-05
9.7186793215e-06
-1.18377904986e-05
9.69692852548e-06
-8.37995804085e-06
8.66312938076e-06
-4.18750069163e-07
1.46390226924e-05
-1.10396644043e-11
-2.05409821342e-05
1.91436774114e-18
-1.10907154316e-11
1.32632427077e-18
-1.39575398137e-06
6.42846979035e-06
-3.66858438496e-06
1.48526962003e-05
-6.08784801855e-06
1.64367424357e-05
-8.42228239146e-06
1.6230272138e-05
-1.05960250837e-05
1.55643666905e-05
-1.25585931972e-05
1.47045338038e-05
-1.42569099319e-05
1.37095725515e-05
-1.56302540646e-05
1.26178655413e-05
-1.66089848869e-05
1.14771617179e-05
-1.71133763137e-05
1.03558401271e-05
-1.70521578533e-05
9.34529307847e-06
-1.63232362006e-05
8.5188022636e-06
-1.48105070999e-05
7.90648993716e-06
-1.23695269919e-05
7.27786946573e-06
-8.74371549348e-06
6.0711766776e-06
-4.24531966267e-06
4.16427556777e-06
1.51513380629e-06
9.63093771216e-06
-3.01583192518e-09
-2.38942153893e-05
4.09974656699e-16
-3.02707095628e-09
1.69153135733e-16
-1.5704558522e-06
7.99887626799e-06
-4.01283596299e-06
1.72950264793e-05
-6.60358658146e-06
1.90274488996e-05
-9.10354757824e-06
1.87302002914e-05
-1.14273757851e-05
1.78881798608e-05
-1.35153707608e-05
1.67925396678e-05
-1.53038608766e-05
1.54981095311e-05
-1.67187892036e-05
1.40329158195e-05
-1.76732114239e-05
1.2431800265e-05
-1.80650633912e-05
1.07479783622e-05
-1.77753472366e-05
9.05598369305e-06
-1.6668319749e-05
7.41201746035e-06
-1.45898642915e-05
5.82824416683e-06
-1.13619181e-05
4.05008541743e-06
-6.68569869415e-06
1.39508469569e-06
-1.0649560913e-06
-1.44484971192e-06
9.11618901742e-07
2.87381163171e-06
-2.75807377593e-09
-2.72630944943e-05
1.06948705281e-13
-5.80113503236e-09
4.03780439568e-14
-1.7935128337e-06
9.7923397392e-06
-4.44887780185e-06
1.9950340937e-05
-7.25507414524e-06
2.18335993385e-05
-9.96827773738e-06
2.14433679919e-05
-1.24964138039e-05
2.04162966653e-05
-1.47728368392e-05
1.90689680465e-05
-1.67253432122e-05
1.74506568817e-05
-1.82685539755e-05
1.55762394459e-05
-1.93003262237e-05
1.34637795003e-05
-1.96980736476e-05
1.11460038404e-05
-1.93151645662e-05
8.67342718387e-06
-1.79815887082e-05
6.07871621616e-06
-1.55005463816e-05
3.34736934706e-06
-1.16451892201e-05
1.94894538963e-07
-6.04198248741e-06
-4.20739358341e-06
9.9933021921e-07
-8.48651511483e-06
4.25603269271e-06
-6.43513630448e-06
-2.40172864973e-09
-3.0539094892e-05
1.58761487503e-11
-8.29683474834e-09
3.44124718872e-13
-2.06355935648e-06
1.18558491143e-05
-4.97745056052e-06
2.2864180255e-05
-8.04683202689e-06
2.49029322501e-05
-1.10261856262e-05
2.44226815452e-05
-1.38194734348e-05
2.3209559368e-05
-1.63559225356e-05
2.16054153576e-05
-1.85577290071e-05
1.96524951564e-05
-2.03313862423e-05
1.73499987559e-05
-2.15628185266e-05
1.46953955366e-05
-2.21121839455e-05
1.16956208733e-05
-2.18080575157e-05
8.36966086182e-06
-2.04445039063e-05
4.7153861932e-06
-1.77766102354e-05
6.79681335637e-07
-1.35088626011e-05
-4.07268887504e-06
-7.16570970981e-06
-1.05516360986e-05
1.53179303761e-06
-1.71826605001e-05
6.77272963635e-06
-1.82161414461e-05
-1.45581466254e-09
-3.37137416109e-05
-3.50604427763e-14
-9.78277493323e-09
3.09096335467e-13
-2.3790989917e-06
1.42348971154e-05
-5.59707696832e-06
2.60821045773e-05
-8.97851305757e-06
2.8284316619e-05
-1.22792862753e-05
2.77234097651e-05
-1.54023441122e-05
2.63325854302e-05
-1.82760562867e-05
2.44791167721e-05
-2.08207468804e-05
2.21972070381e-05
-2.29390599147e-05
1.94683963185e-05
-2.45100613975e-05
1.6266560173e-05
-2.53821511643e-05
1.25679280491e-05
-2.53644550199e-05
8.35228757878e-06
-2.42195841734e-05
3.57072035328e-06
-2.1654739633e-05
-1.88497152067e-06
-1.72978492248e-05
-8.42942452587e-06
-1.05486653579e-05
-1.73003264192e-05
-1.40604709863e-07
-2.75843502533e-05
7.869794317e-06
-3.24466803007e-05
1.09005803907e-09
-3.69725451887e-05
3.00797581288e-13
-8.72497391654e-09
6.0991502765e-13
-2.7372330154e-06
1.69720782388e-05
-6.30262202713e-06
2.96474384274e-05
-1.00434610762e-05
3.20251009859e-05
-1.37202735625e-05
3.14001725274e-05
-1.72381430824e-05
2.98504166192e-05
-2.05282765372e-05
2.77692315962e-05
-2.35136073201e-05
2.51825480443e-05
-2.60982109466e-05
2.20530663708e-05
-2.81607597526e-05
1.83292433929e-05
-2.95468497671e-05
1.39542026995e-05
-3.00578285944e-05
8.86353892802e-06
-2.94385460703e-05
2.95162851613e-06
-2.73579354079e-05
-3.96537844931e-06
-2.33723568902e-05
-1.24148524003e-05
-1.67997092142e-05
-2.38735039168e-05
-5.27717097355e-06
-3.91071309079e-05
6.55171887087e-06
-4.9031333264e-05
3.78887648416e-09
-4.0873089575e-05
-6.03371195104e-13
-4.93623144669e-09
6.54383732424e-15
-3.1329819291e-06
2.01050083157e-05
-7.08444387551e-06
3.35988449542e-05
-1.1227760182e-05
3.61683611257e-05
-1.53314398921e-05
3.55037996876e-05
-1.9306226181e-05
3.38251606204e-05
-2.30900664253e-05
3.15530405026e-05
-2.66123311372e-05
2.87047992364e-05
-2.97844593058e-05
2.52252379992e-05
-3.24935451697e-05
2.10384472359e-05
-3.45935298775e-05
1.60543304539e-05
-3.58949577947e-05
1.01652246834e-05
-3.61519031883e-05
3.20878841338e-06
-3.50378495322e-05
-5.07923107442e-06
-3.21184442882e-05
-1.53340760228e-05
-2.65556370994e-05
-2.94364891454e-05
-1.61084541628e-05
-4.95543252103e-05
9.64557255081e-07
-6.74004196284e-05
4.90712904168e-09
-4.71337684248e-05
-6.51057393144e-15
-2.84561473523e-11
3.32634099234e-17
-3.55931497571e-06
2.36642677099e-05
-7.92834569386e-06
3.79678166039e-05
-1.25100657761e-05
4.0750024701e-05
-1.7084911017e-05
4.00785920213e-05
-2.15717376171e-05
3.83119190977e-05
-2.59179024643e-05
3.58991509324e-05
-3.00651309325e-05
3.28520079049e-05
-3.39386070073e-05
2.9098737063e-05
-3.74404530501e-05
2.45403568905e-05
-4.04447576049e-05
1.90587755388e-05
-4.27906374994e-05
1.25112991785e-05
-4.42759905039e-05
4.69432652715e-06
-4.46419704181e-05
-4.71303699106e-06
-4.35542609473e-05
-1.64215769704e-05
-4.02966873827e-05
-3.26940451184e-05
-3.38555050857e-05
-5.59954148316e-05
-1.25849825956e-05
-8.70987951209e-05
-2.07361236509e-09
-6.02295669045e-05
1.69775271991e-13
-2.1033966297e-09
1.5960254194e-13
-4.00677448317e-06
2.76709819019e-05
-8.81546476107e-06
4.27764479146e-05
-1.38621712383e-05
4.57966705993e-05
-1.89410944768e-05
4.51574223675e-05
-2.39824386169e-05
4.33531937932e-05
-2.89490183526e-05
4.08656687893e-05
-3.37978627203e-05
3.77008024752e-05
-3.84700673487e-05
3.37709252921e-05
-4.28891787537e-05
2.89595500752e-05
-4.69572545816e-05
2.31269917904e-05
-5.05525838563e-05
1.61068128945e-05
-5.35413385355e-05
7.68332846327e-06
-5.58040725186e-05
-2.4499984388e-06
-5.7295099868e-05
-1.49303435782e-05
-5.81501191138e-05
-3.18389342028e-05
-5.75976316324e-05
-5.65477485215e-05
-4.52896836928e-05
-9.67861584518e-05
-3.55756742253e-07
-9.05805810543e-05
2.65982587789e-11
-3.5788576891e-07
2.68347401531e-11
-4.46347088351e-06
3.21343926811e-05
-9.72179968224e-06
4.80347105527e-05
-1.52461907768e-05
5.13209719442e-05
-2.08490275679e-05
5.07601866543e-05
-2.6475912801e-05
4.89799847227e-05
-3.21039143369e-05
4.64935502718e-05
-3.77087060157e-05
4.33055371685e-05
-4.32553861619e-05
3.93175877102e-05
-4.86909236407e-05
3.43951074697e-05
-5.39423448426e-05
2.83784686883e-05
-5.89185693918e-05
2.1083139553e-05
-6.35255675398e-05
1.22904255783e-05
-6.77149165325e-05
1.73948019969e-06
-7.16152717552e-05
-1.10298828357e-05
-7.59932141192e-05
-2.7460938669e-05
-8.12454939895e-05
-5.12953109848e-05
-8.40968352476e-05
-9.22862161543e-05
-7.75748584835e-06
-0.000126184426132
-6.70084488775e-09
-6.90317684729e-06
-5.5241081312e-18
-4.91633289075e-06
3.70506445369e-05
-1.06194809155e-05
5.37377678733e-05
-1.66194178998e-05
5.73208142673e-05
-2.27500419585e-05
5.68907225553e-05
-2.89719570134e-05
5.52017726894e-05
-3.52826751314e-05
5.28042107799e-05
-4.16815164944e-05
4.97043358388e-05
-4.81564336776e-05
4.57924795609e-05
-5.46795418563e-05
4.09182159334e-05
-6.12017592891e-05
3.49007132341e-05
-6.76469413493e-05
2.75283788205e-05
-7.39067235027e-05
1.85502864024e-05
-7.98321443292e-05
7.66498289357e-06
-8.5202204493e-05
-5.65975138632e-06
-8.99821083125e-05
-2.26809778517e-05
-9.30302745359e-05
-4.82470562092e-05
-9.29849202164e-05
-9.23314128248e-05
-2.08646429063e-05
-0.000139127370553
5.48466544542e-18
-1.67897513734e-05
-3.94426249009e-20
-5.34754258547e-06
4.23981472029e-05
-1.14751374987e-05
5.9865313568e-05
-1.79321250909e-05
6.37777081837e-05
-2.4574865601e-05
6.35333718218e-05
-3.13840563689e-05
6.20109053367e-05
-3.83796280279e-05
5.97997303846e-05
-4.55851776855e-05
5.69098431613e-05
-5.30167830109e-05
5.32240548722e-05
-6.06768740556e-05
4.85782942836e-05
-6.85463684196e-05
4.27702148665e-05
-7.65721730212e-05
3.55542141214e-05
-8.46473635847e-05
2.66255313109e-05
-9.2574934586e-05
1.55926319144e-05
-0.000100008417207
1.77376295442e-06
-0.000106082763622
-1.66065884717e-05
-0.000110261515844
-4.40682578406e-05
-0.000111942588517
-9.06502517691e-05
-3.37715566577e-05
-0.000137895228359
3.91753887436e-20
-2.54845499181e-05
-2.66954979536e-22
-5.74038144841e-06
4.81384944194e-05
-1.22536379636e-05
6.63785285383e-05
-1.91296909841e-05
7.06537145034e-05
-2.625071134e-05
7.06543412653e-05
-3.36172641754e-05
6.93774065137e-05
-4.12729940569e-05
6.74554120263e-05
-4.92698762398e-05
6.49066826117e-05
-5.76572251762e-05
6.16113688193e-05
-6.64757518276e-05
5.73967971972e-05
-7.57495151835e-05
5.2043968812e-05
-8.5472370611e-05
4.527707828e-05
-9.5585213792e-05
3.67384051597e-05
-0.0001059352104
2.59426833786e-05
-0.000116220194896
1.20587751856e-05
-0.000125880116295
-6.94664472551e-06
-0.000134716670612
-3.5231679703e-05
-0.000144165167522
-8.12016572973e-05
-4.94724804198e-05
-0.000127532839033
2.65424573616e-22
-3.20123036453e-05
-1.76807706064e-24
-6.07861217263e-06
5.42170768329e-05
-1.29211321711e-05
7.32210127172e-05
-2.01584489752e-05
7.78909892769e-05
-2.77004684963e-05
7.819631611e-05
-3.55679597177e-05
7.72448514216e-05
-4.38298958288e-05
7.57173028545e-05
-5.2569691565e-05
7.36464349421e-05
-6.18745517946e-05
7.09161895515e-05
-7.18312134396e-05
6.73534257513e-05
-8.25208351408e-05
6.27335669468e-05
-9.40098766521e-05
5.67661099105e-05
-0.000106334008778
4.90625474997e-05
-0.00011946399052
3.90727055386e-05
-0.000133254441368
2.58492595051e-05
-0.00014739436546
7.19327433434e-06
-0.000162800608645
-1.98254466401e-05
-0.00018123736938
-6.27647812522e-05
-6.77605272619e-05
-0.000109179055095
1.71457442597e-24
-3.52451840362e-05
-1.28427283295e-26
-6.34601634508e-06
6.05630660546e-05
-1.34430589805e-05
8.03180237956e-05
-2.09619050724e-05
8.54097978498e-05
-2.8843306585e-05
8.60776772322e-05
-3.71277926916e-05
8.55292944604e-05
-4.5910422609e-05
8.4499887994e-05
-5.53075394642e-05
8.30435058431e-05
-6.54465088548e-05
8.10551133443e-05
-7.64646768138e-05
7.83715499135e-05
-8.85097526581e-05
7.47786033427e-05
-0.000101738740947
6.9995067391e-05
-0.000116317462025
6.36412548702e-05
-0.000132410862733
5.51661264357e-05
-0.00015015728639
4.35957649698e-05
-0.00016985945734
2.68953706488e-05
-0.000191800438684
2.11545926497e-06
-0.000218825315774
-3.57398117082e-05
-8.84017208828e-05
-8.09176107945e-05
-8.12015033969e-27
-3.4274693603e-05
1.20977144692e-27
-6.52846790035e-06
6.70915093049e-05
-1.37851298201e-05
8.75746571537e-05
-2.1481677295e-05
9.31063112271e-05
-2.95970222085e-05
9.41929840062e-05
-3.81874523172e-05
9.41196820922e-05
-4.73734909374e-05
9.36858799086e-05
-5.73034828072e-05
9.29734469141e-05
-6.81433745326e-05
9.18949485257e-05
-8.00801970015e-05
9.03083139409e-05
-9.33298274481e-05
8.80281745916e-05
-0.000108143160706
8.48083452811e-05
-0.000124822485711
8.03205394723e-05
-0.00014374802369
7.40916629642e-05
-0.00016532650351
6.51743473179e-05
-0.000190044362734
5.16131293892e-05
-0.000219562245954
3.16332351817e-05
-0.000255545769607
2.43824365858e-07
-0.000109718942091
-4.18249088867e-05
4.449839546e-27
-2.89087862102e-05
5.80140927292e-29
-6.61837679279e-06
7.37098644024e-05
-1.39127029237e-05
9.48689576674e-05
-2.16567731697e-05
0.000100850350899
-2.98809075735e-05
0.000102417083084
-3.86409581615e-05
0.000102879692045
-4.80839639504e-05
0.000103128839028
-5.83850101362e-05
0.000103274435205
-6.97433923368e-05
0.000103253267409
-8.23878972717e-05
0.000102952749186
-9.65958240418e-05
0.00010223602851
-0.000112702116001
0.00010091456754
-0.000131125303588
9.87436724106e-05
-0.000152440595523
9.54069450494e-05
-0.000177397180599
9.01310699132e-05
-0.000206632271244
8.08481001559e-05
-0.000242271482145
6.72723248272e-05
-0.000288244184991
4.62166541548e-05
-0.000128722680918
6.84092788135e-06
-1.55004990027e-12
-2.04659930727e-05
-1.55004990028e-12
-6.57630568313e-06
8.02861416013e-05
-1.3752606438e-05
0.000102045225102
-2.142573578e-05
0.000108523441316
-2.96193807572e-05
0.000110610683193
-3.83912529422e-05
0.000111651511977
-4.79221586584e-05
0.000112659681724
-5.84007131421e-05
0.000113752914371
-7.00517926043e-05
0.000114904255321
-8.31323319322e-05
0.000116033175755
-9.79641085771e-05
0.000117067708259
-0.000114948496681
0.000117898859247
-0.000134586385577
0.000118381480655
-0.000157551581663
0.00011837211335
-0.000184922826892
0.000117502487142
-0.000217940670025
0.000113865785021
-0.000258466184368
0.000107797682273
-0.000312064850783
9.98154097249e-05
-0.000143988451491
6.61782115143e-05
-7.26853161366e-11
-1.08975098545e-05
-7.42226353918e-11
-6.28190085772e-06
8.65680234961e-05
-1.32280255583e-05
0.000108991326609
-2.07560191953e-05
0.000116051408283
-2.87271083338e-05
0.000118581742511
-3.73456089155e-05
0.000120269978045
-4.67713021117e-05
0.000122085332199
-5.72096931181e-05
0.000124191254585
-6.88772105439e-05
0.000126571708975
-8.20827184127e-05
0.00012923860588
-9.7129608147e-05
0.000132114537
-0.000114480817102
0.000135250009716
-0.000134684060588
0.000138584680699
-0.000158464200984
0.000142152259043
-0.000186933868468
0.000145972378531
-0.000222074185576
0.000149006097705
-0.000265450983628
0.000151174487953
-0.000324160252644
0.000158524885708
-0.000152907256047
0.000133302481833
-3.41136827505e-09
-1.4041208823e-06
-1.07181777204e-11
-5.97385687489e-06
9.2541853914e-05
-1.25232417501e-05
0.000115540679792
-1.96279270778e-05
0.000123156059906
-2.72630655281e-05
0.000126216846989
-3.55573190465e-05
0.000128564196536
-4.4686006696e-05
0.000131213984272
-5.48405081186e-05
0.00013434571447
-6.62842707906e-05
0.000138015412907
-7.92678230755e-05
0.000142222085186
-9.4154102683e-05
0.000147000749624
-0.000111320772165
0.000152416617539
-0.000131336808968
0.000158600675212
-0.000154885029608
0.000165700474002
-0.000183002545641
0.000174090077122
-0.000217615578046
0.000183619170455
-0.000260929183659
0.000194488108569
-0.00031974751096
0.000217343344109
-0.000152585081747
0.000203397576797
-7.05063993273e-11
7.9724789717e-06
-8.12342285583e-11
-5.54070512354e-06
9.80825266124e-05
-1.15638407206e-05
0.000121563776883
-1.81005238426e-05
0.000129692704384
-2.51919893596e-05
0.000133308276931
-3.29604684211e-05
0.000136332644818
-4.1555060128e-05
0.000139808534763
-5.12007938187e-05
0.000143991395029
-6.21132318564e-05
0.000148927808273
-7.45645861343e-05
0.000154673405281
-8.88564524122e-05
0.000161292596756
-0.000105327812797
0.000168887956163
-0.000124402540864
0.000177675378995
-0.000146711770935
0.000188009704937
-0.000172914134806
0.000200292587805
-0.000204694680466
0.000215399605704
-0.000244101866737
0.000233895134652
-0.00029709036803
0.000270331759741
-0.000141921739905
0.000269009900851
-2.55617519795e-10
1.59366770272e-05
-3.3685437144e-10
-4.95272613002e-06
0.000103035216765
-1.02976161978e-05
0.000126908627943
-1.61128304191e-05
0.000135507880137
-2.24896438242e-05
0.0001396850552
-2.95227656532e-05
0.000143365728276
-3.73832714772e-05
0.000147669007112
-4.62636312575e-05
0.000152871739069
-5.63913831733e-05
0.000159055529219
-6.79910248783e-05
0.000166273040218
-8.12936208042e-05
0.000174595198368
-9.66730154268e-05
0.000184267370194
-0.000114263418041
0.000195265783772
-0.000134465310066
0.000208211614359
-0.000157713922464
0.000223541327114
-0.000184253492157
0.000241939109203
-0.000215512201041
0.000265153799099
-0.000255452395139
0.000310271904697
-0.000123261841503
0.000325540617155
-4.36539945131e-10
2.3544350518e-05
-7.73394497175e-10
-4.18253404934e-06
0.00010721770245
-8.69136011789e-06
0.000131417393209
-1.36895411306e-05
0.00014050599614
-1.91636812513e-05
0.000145159133281
-2.52764194866e-05
0.000149478419957
-3.21886622084e-05
0.00015458123089
-4.00886677744e-05
0.000160771746828
-4.91762566565e-05
0.000168143117792
-5.96694875354e-05
0.000176766298873
-7.18190942165e-05
0.000186744847087
-8.56656235167e-05
0.000198113964941
-0.000101576912213
0.000211177104347
-0.000119454423525
0.00022608916362
-0.000139198545665
0.00024328557303
-0.000160877943612
0.000263618461037
-0.000183191005912
0.000287466822697
-0.000207592275752
0.000334673112055
-0.000103404798786
0.000373103444122
-5.17466704042e-08
3.57611217314e-05
-1.77825505294e-09
-3.29227239574e-06
0.000110509916068
-6.81868524124e-06
0.000134943739421
-1.08043535958e-05
0.000144491601341
-1.52135449324e-05
0.000149568269445
-2.02324691594e-05
0.000154497305564
-2.60053945047e-05
0.000160354148632
-3.27130205727e-05
0.000167479374114
-4.05405676264e-05
0.000175970697657
-4.96819015005e-05
0.000185907697392
-6.03075440347e-05
0.000197370574133
-7.25777845385e-05
0.000210384324053
-8.65060226689e-05
0.000225105405335
-0.000101974383332
0.000241557583718
-0.00011850936275
0.000259820688173
-0.00013506645401
0.000280175512385
-0.000147868017245
0.000300268387071
-0.00015685859653
0.000343663689656
-8.59230081439e-05
0.000422641878836
-1.47281472903e-08
6.13540142625e-05
-1.65064024142e-08
-2.25801140128e-06
0.000112767870208
-4.71904805436e-06
0.000137404714668
-7.45712184482e-06
0.00014722961818
-1.06631115808e-05
0.000152774212667
-1.44183623909e-05
0.000158252527892
-1.88744190581e-05
0.000164810186495
-2.42047333228e-05
0.000172809691497
-3.0575316027e-05
0.000182341334154
-3.81849664727e-05
0.000193517449095
-4.71994795547e-05
0.000206385213077
-5.77744170916e-05
0.000220959436142
-6.99314764887e-05
0.000237262557058
-8.34153350756e-05
0.000255041521361
-9.72751132418e-05
0.000273680579097
-0.000112218886414
0.000295119825319
-0.000113511167554
0.000301560668988
-0.000117818778097
0.00034797129733
-6.84744590657e-05
0.000469341177903
-1.43492502408e-07
0.000109041775316
-1.5999890482e-07
-1.05703633205e-06
0.000113824856211
-2.43308031392e-06
0.000138780699273
-3.76579687786e-06
0.000148562284594
-5.56994932121e-06
0.000154578324091
-7.88138695095e-06
0.000160563915997
-1.08478580943e-05
0.000167776665766
-1.46128733507e-05
0.000176574778778
-1.93388305073e-05
0.000187067372774
-2.52509589398e-05
0.000199429712009
-3.25322550306e-05
0.00021366666804
-4.13401617177e-05
0.000229767565216
-5.18087521782e-05
0.000247731262302
-6.47014809649e-05
0.000267934342871
-7.61858572811e-05
0.00028516505654
-9.70692263223e-05
0.000316003473074
-0.00010305956604
0.000307551010017
-0.0001401412406
0.000385052970532
-3.36556768666e-05
0.000433355085003
-4.84725865111e-07
0.00020852366538
-6.44724769931e-07
1.31020530345e-07
0.000113693800416
3.31249584295e-07
0.000138580444066
3.27549391251e-07
0.000148565937619
1.16294928873e-08
0.00015489422164
-7.326206047e-07
0.000161308203325
-2.01580044828e-06
0.000169059882145
-3.98627431217e-06
0.000178545341849
-6.92381644513e-06
0.000190005015866
-1.09253463204e-05
0.000203431399935
-1.62334771118e-05
0.000218974974679
-2.3173411303e-05
0.00023670774597
-3.19359735873e-05
0.000256493946301
-4.33785679955e-05
0.000279377028596
-5.72269447536e-05
0.000299013522318
-7.21272896178e-05
0.000330903945571
-8.58265000246e-05
0.000321251138373
-6.83007914142e-05
0.000367527260719
6.10229577826e-06
0.000359158215499
-3.49947569766e-06
0.000395245781572
-4.14420046759e-06
1.4107251209e-06
0.000112283045597
3.11904946643e-06
0.000136872097423
4.69100383289e-06
0.000146994029148
6.01417075863e-06
0.000153571112396
6.99152499708e-06
0.000160330907045
7.51079285618e-06
0.000168540741827
7.40801111017e-06
0.000178648230584
6.54420105093e-06
0.000190868954535
4.65349708768e-06
0.000205322268196
1.47260629691e-06
0.000222156036107
-3.35692321022e-06
0.00024153750707
-1.06119286518e-05
0.000263749054864
-1.87150087733e-05
0.000287480173159
-3.95003045473e-05
0.000319798874041
-6.21920390118e-05
0.000353595838366
-0.000151045776576
0.000410105034372
-0.000278012422647
0.000494493914643
-0.000537852895871
0.000618999983086
0.000410856849824
-0.000168547003366
3.36054235315e-07
2.78111510284e-06
0.000109501951429
6.02199683073e-06
0.000133631266597
9.27228907598e-06
0.000143743792943
1.23547327329e-05
0.000150488725785
1.51923479059e-05
0.000157493422115
1.76918889861e-05
0.000166041319742
1.97129582149e-05
0.000176627265226
2.10803517749e-05
0.000189501693858
2.15692009711e-05
0.000204833564824
2.09414373513e-05
0.000222783933407
1.8941536972e-05
0.00024353758464
1.5301405111e-05
0.000267389235457
7.81744755326e-06
0.000294964135016
-4.91597646025e-06
0.000332532284935
-1.58594913721e-05
0.000364539371695
-6.63888287363e-05
0.000460633766941
-8.00022284289e-05
0.000508107337268
-3.87162849741e-05
0.000584094936682
-3.36054235315e-07
-0.000126908476458
-5.43574521675e-23
4.17591889261e-06
0.000105326088092
9.01409318457e-06
0.000128793147857
1.40043890541e-05
0.000138753552617
1.89391701325e-05
0.000145554086114
2.37579755369e-05
0.000152674730726
2.83881342503e-05
0.000161411263125
3.27016664774e-05
0.000172313835439
3.65190934898e-05
0.000185684384854
3.96236778687e-05
0.00020172908153
4.18005718785e-05
0.00022060710476
4.29007189696e-05
0.000242437514835
4.29370752182e-05
0.000267352838758
4.22933264717e-05
0.000295607794808
4.61214950128e-05
0.000328704006565
5.07846435002e-05
0.00035987612148
9.72491625976e-05
0.000414169630988
0.000180554309119
0.000424802247178
0.000381131026859
0.00038351821867
-2.04142820498e-22
0.000281824518235
2.27270890061e-23
5.56438481576e-06
9.976175875e-05
1.20285370676e-05
0.000122329051208
1.87949991769e-05
0.000131987221518
2.56474056913e-05
0.000138701788124
3.25480650555e-05
0.000145774186202
3.94485270984e-05
0.000154510902318
4.62311252952e-05
0.000165531349499
5.27067129954e-05
0.000179208894353
5.86266640498e-05
0.000195809173786
6.37423725857e-05
0.000215491371884
6.79194047081e-05
0.000238260404675
7.13339788317e-05
0.000263938075337
7.49117216657e-05
0.000292029799935
8.19213023787e-05
0.000321694144964
9.33746573018e-05
0.000348422503659
0.000141422551943
0.000366121566986
0.000171369387133
0.000394855411986
0.000328855126586
0.000226032479216
-9.78982553911e-24
0.000637484072304
1.27591722749e-23
6.90724150302e-06
9.28546363572e-05
1.49836263855e-05
0.00011425283331
2.35249916108e-05
0.000123445964656
3.23287859504e-05
0.00012989810334
4.13918250758e-05
0.0001367112292
5.06974938947e-05
0.00014520532516
6.01385320172e-05
0.000156090431719
6.95063117522e-05
0.00016984118536
7.84621218918e-05
0.000186853339627
8.66193780496e-05
0.000207333984106
9.36924377589e-05
0.000231187068986
9.96426900288e-05
0.000257987443729
0.000104915316328
0.000286756700852
0.000111237834195
0.000315371134968
0.000118446788904
0.000341213109086
0.000117913270349
0.000366654794852
0.000165841948719
0.000346926697272
5.62885425121e-05
0.000335585885398
0.00138841877759
-0.000587293057182
-2.29364399573e-09
8.17115618524e-06
8.46835498468e-05
1.7799640005e-05
0.000104624424243
2.80638214135e-05
0.000113181888766
3.88059397084e-05
0.00011915608989
5.00795990473e-05
0.000125437669055
6.19182190885e-05
0.000133366846488
7.42334889783e-05
0.000143775258342
8.68126576681e-05
0.000157262077794
9.9145430891e-05
0.000174520525263
0.000110574358227
0.000195904864879
0.000120537461268
0.000221223584887
0.00012866219952
0.000249862213909
0.000134520572735