/*--------------------------------*- C++ -*----------------------------------*\
| =========                 |                                                 |
| \\      /  F ield         | OpenFOAM: The Open Source CFD Toolbox           |
|  \\    /   O peration     | Version:  v2012                                 |
|   \\  /    A nd           | Website:  www.openfoam.com                      |
|    \\/     M anipulation  |                                                 |
\*---------------------------------------------------------------------------*/
FoamFile
{
    version     2.0;
    format      ascii;
    class       surfaceVectorField;
    location    "1.6";
    object      ddtCorrDdt0(Uf);
}
// * * * * * * * * * * * * * * * * * * * * * * * * * * * * * * * * * * * * * //

dimensions      [0 1 -2 0 0 0 0];


internalField   nonuniform List<vector> 
3840
(
(-0.0130127920588 0.0243864440041 -5.28491761184e-22)
(-0.0243877443877 0.0126839437838 3.72129105229e-22)
(-0.0126568342502 0.0444532387177 -3.57825273949e-22)
(-0.0200681511039 0.0289857200336 -1.05022663725e-22)
(-0.0123576775286 0.0629893309513 1.59050660903e-22)
(-0.0185373026963 0.048563151866 4.7522662047e-22)
(-0.0132151298649 0.0833451426778 -5.63866419566e-22)
(-0.0203567472686 0.0726583041397 -2.28233334907e-22)
(-0.0138419501359 0.104711229239 -6.97766632581e-22)
(-0.0213666828853 0.0937914254684 1.56185583978e-22)
(-0.0144236307351 0.126996427181 -4.54868709764e-22)
(-0.0222854679683 0.11573659216 -5.34559319429e-22)
(-0.0150269899927 0.150274485318 -4.27435875435e-22)
(-0.023278021266 0.138584550309 2.34422908186e-23)
(-0.0156818506305 0.174679784019 -2.24037820656e-23)
(-0.0244051302141 0.162468492618 -3.0973754763e-22)
(-0.0164057148319 0.200379789385 -4.2471700646e-22)
(-0.0256997180653 0.187547039131 3.88827038699e-22)
(-0.0172159055092 0.227568795023 -3.73635161311e-22)
(-0.0271891631854 0.213998473017 -2.5133377833e-22)
(-0.018148911923 0.256485207024 9.49246173437e-24)
(-0.0289169800407 0.242041880928 1.60451940656e-22)
(-0.0192773639349 0.287418035595 -3.28069894072e-22)
(-0.0309337792809 0.271889338675 6.3729792583e-22)
(-0.0206566089328 0.320622995064 -3.90906191799e-22)
(-0.0332061700489 0.30355616099 -1.03529285656e-21)
(-0.0219552758505 0.355290149518 -7.81966401556e-22)
(-0.0346684815269 0.33599332632 -6.22360531333e-22)
(-0.0120884986534 0.389917585995 -3.10110346918e-21)
(-0.0346285632804 0.346466188539 -8.49127977288e-21)
(-0.0217523687719 0.401592398273 -1.12285640527e-21)
(-0.0116754135643 0.472811111471 -1.39685888192e-20)
(-0.158241295457 0.453439757454 2.29769530231e-20)
(-0.0518475040659 0.485871784386 -2.4541737724e-21)
(-0.413993498687 0.643746052273 4.95905056839e-21)
(-0.190311952881 0.590859954359 3.12161578543e-20)
(-0.254974224301 0.894424439662 -1.62747884373e-20)
(-0.250683994574 0.551554213899 -2.09901463426e-22)
(-0.000685335305061 0.671844849453 -3.21950753702e-20)
(-0.0296407835168 0.0194469445817 7.95598202688e-22)
(-0.0438360757705 0.0120261456032 9.48897960324e-22)
(-0.0301024125916 0.0399164244114 7.28029230694e-22)
(-0.0405390010377 0.028931289596 1.74720334287e-21)
(-0.0301853718531 0.0615346460013 8.79426246596e-23)
(-0.040156696784 0.0485435531868 5.89993247403e-22)
(-0.0316869840607 0.082744577126 4.91818668638e-22)
(-0.0415675374776 0.0713477894023 -7.8438949402e-23)
(-0.0330409360895 0.104458921991 3.19392897131e-22)
(-0.0430815253116 0.092744658251 4.09033594457e-22)
(-0.0344842870359 0.126924488402 -5.6248318846e-23)
(-0.0447512188847 0.11467703004 -9.73753016613e-23)
(-0.0361071945368 0.150311932561 1.41140618623e-22)
(-0.0466654343141 0.137411819653 1.19313519974e-22)
(-0.0379607510369 0.174792159184 1.01493273134e-22)
(-0.0488849814032 0.161132536355 1.98090528184e-22)
(-0.0400801710095 0.200542956416 5.62210266828e-22)
(-0.0514505629009 0.186015013744 4.27313584905e-22)
(-0.0424998183978 0.227745117144 2.82753323636e-22)
(-0.0543916556189 0.212239735463 6.51398545839e-22)
(-0.0452668477585 0.256559495183 7.88257404751e-22)
(-0.057732131776 0.240023692059 -2.96487868981e-22)
(-0.048452540064 0.287118102791 -6.99250366555e-23)
(-0.0614935843214 0.26956090555 1.20411226282e-21)
(-0.0521007077012 0.319605064947 -1.26674719609e-21)
(-0.065694629792 0.300806489161 -9.12693221329e-22)
(-0.056240713309 0.355012146508 -8.33167390266e-21)
(-0.0700771102709 0.332364411851 1.49227718171e-21)
(-0.0500878410251 0.39408766933 -1.93587651229e-20)
(-0.0737054010129 0.354408990744 -1.10453969866e-20)
(-0.0554054438812 0.455922622033 -1.52999061863e-20)
(-0.0735110555903 0.481227085527 -3.76525311809e-20)
(-0.121134433625 0.495858559916 5.78503105877e-21)
(-0.0917836521476 0.495258626022 5.62304519544e-21)
(-0.131911545433 0.46444552887 2.60472058225e-20)
(-0.15890458098 0.595138807055 -7.5857685018e-21)
(-0.0574564088019 0.411340548267 -1.61301883963e-20)
(-0.197583613329 0.474068171258 -3.12902554305e-20)
(-0.0300071817939 0.434113135561 -3.71565357133e-20)
(-0.0484490004348 0.0179164270411 1.90050310051e-21)
(-0.061753850733 0.011430243967 1.15671014547e-21)
(-0.0492938279297 0.0387475727534 1.60916735958e-21)
(-0.0613714378009 0.02813700251 1.40622737615e-21)
(-0.0499899608993 0.0600642091734 4.23611673341e-22)
(-0.0614744024917 0.0476431609635 8.99662710486e-22)
(-0.0514181976292 0.0812151013135 -1.61224023583e-22)
(-0.0627191775719 0.0697741743473 1.39946779648e-22)
(-0.0531857565379 0.102703182695 -7.73460433545e-24)
(-0.0645699957928 0.0908359611189 -1.99969841357e-22)
(-0.0553065940884 0.12483812432 7.8186537159e-23)
(-0.0668862740853 0.112387868532 -5.27816404388e-23)
(-0.0578224995363 0.147837152957 1.76263429534e-22)
(-0.0696642614634 0.134692949282 -2.83635342204e-22)
(-0.0607725929601 0.171887508509 5.23910839954e-22)
(-0.0729355023075 0.157942972413 3.73844021824e-22)
(-0.0641916983686 0.197175451758 5.16501863916e-22)
(-0.0767382389259 0.182318403597 3.57547419014e-22)
(-0.0681126371986 0.223892204334 7.21573532225e-23)
(-0.0811093460028 0.208002793718 5.98206953042e-23)
(-0.0725587031896 0.252244617409 1.19366989089e-22)
(-0.0860856405416 0.235226828974 -5.67526329516e-23)
(-0.0775287743337 0.282453137451 3.61344078148e-22)
(-0.0917036285474 0.26422136796 1.79444492206e-22)
(-0.08292934536 0.314771170238 1.84633115647e-21)
(-0.0980144613548 0.295003361532 1.83358176094e-22)
(-0.0885485683003 0.349715101923 -1.22144590223e-21)
(-0.105022899022 0.3260395347 2.12202874915e-21)
(-0.0948089325434 0.388525934338 -2.93391630446e-20)
(-0.112517750153 0.346701183438 -2.2804202725e-21)
(-0.102934949079 0.437693990673 -1.67295797991e-20)
(-0.122679912885 0.463737208819 -2.4371902602e-20)
(-0.141615180397 0.478371968286 -7.74775436513e-21)
(-0.132461855605 0.474731395256 8.73172347171e-21)
(-0.171418796301 0.508033565987 -6.49232297548e-20)
(-0.188572522538 0.571459607012 -1.94463992247e-20)
(-0.082984825333 0.503181549759 -5.23166027475e-20)
(-0.192738151133 0.493660782511 -5.11532224932e-20)
(0.00614864971526 0.536980890663 -3.90817700171e-21)
(-0.0712307947405 0.0187181985614 6.62434421107e-22)
(-0.0804732808221 0.0116201325338 9.77212427232e-22)
(-0.0714624983459 0.0384478014013 6.96722727054e-22)
(-0.0811021899429 0.0280185371224 6.57220394615e-22)
(-0.0723441314975 0.0587162122261 6.15997816792e-22)
(-0.081743732957 0.0466231949739 1.32256515208e-21)
(-0.0740717221395 0.0792824161892 1.01200961873e-22)
(-0.0832859864569 0.0679682460097 3.16024063694e-22)
(-0.0764210832431 0.10029325138 -2.45016877461e-22)
(-0.0855810983639 0.0884215343607 -2.62346521586e-23)
(-0.0793319812568 0.121946177641 -4.14603519802e-22)
(-0.0885392203136 0.109404133354 -1.92649811374e-22)
(-0.0828146001904 0.144432194828 -8.60547499146e-23)
(-0.0921502755364 0.131125168896 -2.08829088946e-22)
(-0.0869004259863 0.167936176971 2.07480600884e-22)
(-0.096439324851 0.153758768073 1.47145042958e-22)
(-0.0916271956221 0.192640999379 -9.91337495978e-23)
(-0.101444161413 0.177479702684 6.23224904844e-23)
(-0.0970365127993 0.218739424109 -6.90892908699e-23)
(-0.107208657085 0.202468783941 -1.83984438142e-22)
(-0.103171108437 0.246435611758 3.32487016563e-24)
(-0.113783567444 0.228954262905 1.20458236257e-22)
(-0.110079552472 0.275943958574 1.45859015215e-24)
(-0.1212139347 0.257163753402 -8.80579819882e-23)
(-0.117790444681 0.307480802929 4.59055768772e-22)
(-0.12955351481 0.287117149559 2.51508058782e-22)
(-0.126237883143 0.341272757196 1.06305437888e-21)
(-0.138817027706 0.317345869746 1.58844989266e-21)
(-0.137087795262 0.377547577729 2.68684017012e-21)
(-0.148794328742 0.335447968652 4.65743588926e-22)
(-0.14871344438 0.418432578927 1.08940066888e-21)
(-0.163565842372 0.446276700185 1.81034309525e-21)
(-0.206839495125 0.456167767236 -2.96692138785e-21)
(-0.170197309721 0.458131601352 2.32914602762e-21)
(-0.247031732024 0.540701399083 -5.67639196312e-21)
(-0.273112870833 0.55428772313 -2.84421339999e-21)
(-0.11691106137 0.588844646938 -2.74479674742e-21)
(-0.240886996516 0.490564900877 -8.82497505205e-21)
(-0.0141479711785 0.575048254281 1.33787176961e-21)
(-0.0902512970611 0.0185435071921 9.71998400739e-22)
(-0.0990178571364 0.0114605972367 7.51387771927e-22)
(-0.0911293835788 0.0376473196685 1.28306281964e-21)
(-0.100206972001 0.0273462659793 3.43617717072e-22)
(-0.0924113297002 0.0571050049641 1.02259139898e-21)
(-0.10120216056 0.0452193180043 9.28331144047e-22)
(-0.0945513490589 0.0769594803366 1.88588449663e-22)
(-0.103140909744 0.0657818546592 3.04930523001e-22)
(-0.0974600551045 0.0973113262148 2.61324139287e-23)
(-0.105933095161 0.0854905432912 2.95758851882e-23)
(-0.101103972767 0.118307280607 1.31246194817e-23)
(-0.109535114348 0.105739595022 2.96419168202e-23)
(-0.105496670137 0.140111285612 2.4370703926e-23)
(-0.113954223863 0.126708979997 6.71396261946e-24)
(-0.110673054554 0.162894767422 1.9869325582e-24)
(-0.119223179871 0.148555083006 2.05264947232e-23)
(-0.116677874679 0.186836918497 -2.25281980595e-23)
(-0.125387361598 0.17144343239 4.87595480468e-25)
(-0.123563319718 0.212125410693 5.56308898481e-24)
(-0.132499739838 0.195549904861 1.24037963137e-23)
(-0.131383058335 0.238960843549 2.90753841028e-23)
(-0.140621812971 0.221099465593 1.07276083394e-23)
(-0.14018981223 0.267555234928 1.61991486642e-22)
(-0.149810786494 0.248320959709 2.20814947258e-23)
(-0.150021759778 0.298122184951 1.38090218267e-21)
(-0.160123086368 0.277245986626 2.5727631229e-22)
(-0.160750230895 0.330884264067 9.91139102706e-22)
(-0.171581631169 0.306516742992 1.40449688725e-21)
(-0.174325660009 0.365963910947 -4.10753485948e-22)
(-0.183875991814 0.321566941804 -1.36940837954e-21)
(-0.185345114962 0.40378873536 3.05008845399e-21)
(-0.20139173212 0.429295697558 -4.63215490949e-21)
(-0.243587352801 0.440259393544 2.45185401548e-21)
(-0.206668267039 0.446299773062 6.99819114551e-21)
(-0.277317948113 0.492528896908 -5.99279648891e-21)
(-0.325389480853 0.54206141177 2.52708999086e-21)
(-0.133877274587 0.540584985486 -4.74230653502e-21)
(-0.288949238272 0.443731603232 -1.0831040519e-20)
(-0.0185206462316 0.535011745751 1.548405328e-21)
(-0.108757540513 0.0180166954775 1.2300708826e-22)
(-0.117035434373 0.0111165306357 4.05282526898e-22)
(-0.110021597705 0.0364337858512 -1.11139585232e-23)
(-0.118624833517 0.0263469999823 4.15684279516e-22)
(-0.111649355901 0.0550994119949 2.10670268064e-22)
(-0.119868341104 0.0434560530737 4.67892938624e-22)
(-0.114235377821 0.0741543303703 1.45917958527e-22)
(-0.122196119041 0.063153337867 2.01406454583e-22)
(-0.117711618719 0.0937072296327 3.30853880797e-23)
(-0.12548604941 0.0820038334621 8.75599694062e-23)
(-0.122069792569 0.113887847356 2.32312599579e-23)
(-0.129715649271 0.101376468412 1.46960807818e-23)
(-0.127337423218 0.134843207359 2.86975341667e-24)
(-0.134909568537 0.121436607911 1.87155815831e-23)
(-0.133559514498 0.156732934996 1.90271576454e-23)
(-0.141113519501 0.142327540274 3.22856732723e-24)
(-0.140791143985 0.179728501308 3.54195898537e-23)
(-0.148384594463 0.164205321457 -9.75057063044e-24)
(-0.149096230831 0.204014820289 1.75683156683e-23)
(-0.156788606246 0.187239938317 1.37951540372e-22)
(-0.158540971995 0.229790306199 3.73371896232e-24)
(-0.166401130429 0.211653245741 -5.00480955808e-24)
(-0.169188091816 0.257269015817 1.17366320373e-22)
(-0.177292445763 0.237680507477 -3.99373795762e-23)
(-0.181084480084 0.286675474988 2.80871016877e-22)
(-0.189532587306 0.265380547114 2.48864301064e-22)
(-0.194050736519 0.318243227213 -9.56050594995e-22)
(-0.203152248886 0.293507288451 5.52073246998e-22)
(-0.209998626897 0.352095411034 -5.59080980309e-21)
(-0.217730442643 0.305295334233 -2.59586070042e-21)
(-0.222110173664 0.387945987113 -6.84052217971e-22)
(-0.237243507721 0.410038997478 -3.07064913312e-20)
(-0.288216637562 0.42449536324 7.07342712089e-21)
(-0.243217975943 0.433075747172 -1.51756436919e-21)
(-0.332217437693 0.474196678565 -2.31115403918e-21)
(-0.375097118971 0.529137607108 1.21224336732e-20)
(-0.168037021206 0.519461078994 -4.54032865594e-21)
(-0.334220546843 0.41579161135 -4.04788061346e-21)
(-0.028010831863 0.508947283663 -5.72754932195e-22)
(-0.126594726557 0.0172839997652 6.97959718154e-22)
(-0.134320120158 0.0106469447939 4.43287838965e-22)
(-0.128149093014 0.0348932675286 8.94691176663e-22)
(-0.136234671832 0.0251047794366 1.96388402294e-23)
(-0.130072642266 0.0526955542544 4.58629125143e-22)
(-0.137670998694 0.0413749433938 8.77592460836e-22)
(-0.133086669491 0.0708526526961 1.43048465462e-22)
(-0.140353363292 0.0600915138204 1.95741077283e-22)
(-0.137110157864 0.0894799343336 6.91706621084e-23)
(-0.144113304567 0.0779712454874 1.02073798251e-22)
(-0.142149351214 0.1086996965 1.0180402407e-23)
(-0.148935346069 0.0963354949041 -1.05387707205e-23)
(-0.14824619018 0.128647619232 1.90743954937e-23)
(-0.154857588653 0.115338978945 2.21000014815e-23)
(-0.155458944497 0.149472930744 -2.55491609487e-23)
(-0.161939711344 0.135113872409 2.73511964521e-23)
(-0.163856414055 0.171339287959 9.27813798882e-23)
(-0.170253090663 0.155806680806 -3.06871566224e-23)
(-0.173517874996 0.194427004795 1.15378415146e-22)
(-0.179879465388 0.177580302919 1.47401794708e-22)
(-0.18452629548 0.218934279292 -4.86759080966e-23)
(-0.190913070646 0.200651728756 1.54060920294e-23)
(-0.196962630312 0.245083671377 9.15606011141e-23)
(-0.203445240741 0.225264249353 -7.95568396758e-23)
(-0.21088779811 0.273118024787 5.20066531184e-22)
(-0.217570360778 0.251509501507 1.81514454847e-22)
(-0.226096749157 0.30329948363 -1.08773685842e-21)
(-0.233336876932 0.278286798022 1.24163926039e-22)
(-0.244063907036 0.335860726262 -2.77115422286e-20)
(-0.250294167927 0.286939895832 1.90792699297e-21)
(-0.257886007573 0.36977586514 -3.15400034825e-20)
(-0.271159964192 0.387473132583 -3.7685640421e-20)
(-0.330432747978 0.406322445215 3.53144218317e-21)
(-0.279764928846 0.417031942429 1.11833560974e-21)
(-0.37772075547 0.45186855735 1.0385707099e-20)
(-0.420649589521 0.512484569628 -8.83820285583e-21)
(-0.194203155757 0.493366134156 -8.03068897233e-23)
(-0.375724327572 0.383625042122 -2.80079468006e-20)
(-0.036314268262 0.475334312567 -3.02034266494e-21)
(-0.143600341934 0.0164020540094 -2.35033038959e-22)
(-0.150722670055 0.0100816944149 5.63326594753e-22)
(-0.145393865012 0.0330844367834 2.54012440217e-24)
(-0.152917436027 0.0236689705286 7.95809048436e-23)
(-0.147572311894 0.0499244538655 6.14704412976e-22)
(-0.154511219705 0.0390158104432 9.27384799485e-22)
(-0.150978090592 0.0670784868341 1.54766410072e-22)
(-0.157507417449 0.0566306700524 4.4472418242e-22)
(-0.15550998337 0.0846599119318 2.23643654223e-23)
(-0.161694643543 0.0734293128341 3.77233335871e-23)
(-0.161182275198 0.102783480585 1.38082835391e-24)
(-0.167058873759 0.0906618458236 -5.82700900834e-23)
(-0.168049803721 0.121574500776 3.037680244e-23)
(-0.173648834065 0.108471339345 5.441039157e-23)
(-0.1761851956 0.141171657878 2.22132007783e-23)
(-0.181537992103 0.126978246874 3.02113193481e-23)
(-0.185673243595 0.161729371104 2.39332581978e-23)
(-0.190813389587 0.146318039967 1.74587034255e-23)
(-0.196612293206 0.183421354178 4.74294715918e-23)
(-0.201575066433 0.166644160276 2.41863363797e-23)
(-0.209108265974 0.206443551144 -1.54748395498e-23)
(-0.213940683332 0.188165222451 -1.58434395544e-23)
(-0.223270728235 0.231025048111 1.03970140567e-23)
(-0.228030521288 0.211129453444 -3.02358635362e-23)
(-0.239186463455 0.257426578727 -2.14388150299e-22)
(-0.24397561948 0.23565173186 1.15682395042e-22)
(-0.256672361716 0.285941614054 3.11982777744e-21)
(-0.261855321878 0.260818544249 -1.55006563393e-22)
(-0.276381280022 0.316917229782 -8.06617119948e-21)
(-0.281272438561 0.266753312118 3.23752363241e-21)
(-0.292337250083 0.348668499103 -5.02730132882e-21)
(-0.302912651956 0.361021731311 -2.02212902544e-20)
(-0.369611410493 0.384224231976 -1.12513094292e-20)
(-0.315321062613 0.397247338131 3.86101703551e-21)
(-0.418527818318 0.423402487565 -4.72318567554e-20)
(-0.45983430237 0.491856054875 -1.8505165879e-20)
(-0.217741322416 0.459983654035 -3.09479825758e-20)
(-0.412310527879 0.345655078329 -3.08710956701e-20)
(-0.0436575750672 0.434947609335 1.20189286051e-21)
(-0.159644369404 0.015401560093 8.77940538555e-22)
(-0.166124552974 0.00943993015281 3.61450718856e-22)
(-0.161641692921 0.0310487504995 1.00442557993e-21)
(-0.168564840982 0.0220742470235 -6.268339585e-22)
(-0.164038252123 0.0468261444189 7.57404568928e-22)
(-0.170288676042 0.0364158208249 8.05860473982e-22)
(-0.167791022877 0.0628737487348 3.27681105934e-22)
(-0.173554945037 0.0528152295394 4.4027989553e-22)
(-0.172779518296 0.0792963721634 -4.29111219186e-23)
(-0.178117142303 0.0684294485945 2.94869475808e-23)
(-0.179023171266 0.0961983945942 -5.24052686731e-24)
(-0.183960893058 0.0844168502797 -3.53264077222e-23)
(-0.186588490908 0.113693217807 5.42449084781e-23)
(-0.191143998879 0.100906122838 5.72120153213e-23)
(-0.195562809912 0.131907192258 2.54568219952e-23)
(-0.199753314942 0.118003830677 -2.79521989663e-24)
(-0.20604815529 0.15098312582 1.77117816074e-23)
(-0.209892243224 0.135831770652 2.83445652068e-23)
(-0.21816447602 0.171084462504 -3.90865747666e-23)
(-0.221680401775 0.15452977967 4.51459165608e-23)
(-0.232047043966 0.19240002018 -3.06044635408e-23)
(-0.235262220065 0.174291376143 -3.99031428149e-23)
(-0.247843161717 0.215157690951 7.50495174493e-23)
(-0.250792252327 0.195367562516 1.83122804006e-24)
(-0.265681196531 0.239627484118 1.75063981948e-22)
(-0.2684493546 0.21787307249 3.56682312603e-23)
(-0.285447324711 0.266146680711 -3.73107084223e-23)
(-0.288378092668 0.241096355302 -1.14666539762e-22)
(-0.306577359956 0.295159406564 -8.91759542255e-21)
(-0.310287938761 0.245047009738 -5.84295892364e-22)
(-0.324896521111 0.324125591603 -1.13329718901e-20)
(-0.33188033106 0.330455039764 -7.72571057652e-21)
(-0.404760074526 0.358098819469 -3.39283941428e-21)
(-0.349294712789 0.373204220528 2.26632561205e-21)
(-0.453191214135 0.390345962411 -2.14440479373e-21)
(-0.492087133839 0.467710793316 -5.6967850534e-21)
(-0.238165549533 0.420846021186 1.27877976625e-21)
(-0.442815045979 0.302784288371 -1.70220300916e-20)
(-0.050459577939 0.388395612281 2.20215356177e-21)
(-0.174622207618 0.0143034439646 -1.1433237782e-21)
(-0.180428172598 0.0087367775347 1.3741343754e-22)
(-0.176793596555 0.0288212370033 -8.25399064444e-22)
(-0.183082711509 0.0203494364004 -4.25676412454e-22)
(-0.179372730911 0.0434441360802 4.88735800585e-22)
(-0.184911526575 0.0336115959677 1.33288726075e-22)
(-0.183421859271 0.0582902122963 1.42085737177e-22)
(-0.188400874592 0.0486957055224 3.46958944331e-22)
(-0.18880501227 0.0734512389682 3.70716617772e-23)
(-0.193278026813 0.0630334137977 3.1036735723e-23)
(-0.195545580122 0.0890179858585 2.71261344664e-23)
(-0.199527674963 0.0776747969524 4.07214295163e-23)
(-0.203720910994 0.105089274466 1.71886946539e-25)
(-0.20721572182 0.0927309868367 7.28265109989e-24)
(-0.213433097421 0.121776282502 9.25233149506e-26)
(-0.216441833816 0.108291734314 -5.62988781319e-24)
(-0.224802345661 0.139206820077 5.57787001603e-23)
(-0.227325904909 0.124461775755 5.39267194791e-23)
(-0.237971025038 0.157530230786 4.43293485126e-23)
(-0.24000803823 0.141363019727 7.10373103583e-23)
(-0.253103804583 0.176916485507 -7.46745123401e-24)
(-0.254654789099 0.159168015503 -7.30740795259e-24)
(-0.270392141017 0.197582179765 -3.75500581489e-23)
(-0.271462142828 0.178108895209 1.17259964605e-23)
(-0.290029609823 0.219795159872 -2.54062290449e-22)
(-0.290666375577 0.198300333871 6.20889867401e-23)
(-0.312005737167 0.243897531798 -6.61651723704e-22)
(-0.312484103668 0.219182990352 -3.96649071949e-22)
(-0.334151928714 0.270416017122 6.07588953666e-22)
(-0.336809236621 0.222229417922 -6.41365521546e-22)
(-0.355011154656 0.296147748995 5.87358692564e-21)
(-0.357613589799 0.295835002901 5.13424940867e-21)
(-0.435492924649 0.327950980257 -3.76200270591e-23)
(-0.381098376935 0.34449432925 7.7453974957e-21)
(-0.481030556693 0.353330116533 -2.05744103513e-20)
(-0.51747135224 0.440014862796 6.20831052283e-21)
(-0.254940020944 0.37650522081 -1.60986562961e-20)
(-0.465993744663 0.255374868308 -1.91084819053e-20)
(-0.0563008538739 0.335815669553 -3.34430148522e-21)
(-0.188446979947 0.013125737455 8.55060803286e-22)
(-0.193553970279 0.00798624550584 7.41608957854e-22)
(-0.190764517006 0.0264355655564 5.33011378064e-22)
(-0.196392514482 0.0185218459798 9.1827779085e-22)
(-0.193489260791 0.0398252550786 -8.48813017923e-24)
(-0.198301089732 0.030641053894 8.3669777868e-23)
(-0.197778735834 0.0533873652367 2.35909942877e-22)
(-0.201962795165 0.0443280927093 3.75926133619e-22)
(-0.203485711936 0.0671974145078 3.46865034621e-23)
(-0.207087931136 0.0573119404606 1.65148603484e-23)
(-0.210636831293 0.0813294813208 2.08779461499e-23)
(-0.213659810889 0.0705219757372 2.4271328323e-23)
(-0.219319452563 0.0958647338833 1.48087634016e-24)
(-0.221751469939 0.0840486095618 4.72730222725e-23)
(-0.229649913028 0.110895727851 4.82043083509e-23)
(-0.23147441115 0.097961600592 2.5514318002e-24)
(-0.241766439386 0.126530750161 6.91853296771e-23)
(-0.242964128116 0.112345080016 7.06211334958e-23)
(-0.255833088965 0.142898259601 1.94005538932e-23)
(-0.256379770351 0.127299277227 9.2472792952e-23)
(-0.272042204228 0.160149677531 1.18860397419e-23)
(-0.271912582502 0.14297018027 -3.56775836667e-23)
(-0.290628412362 0.178468990138 1.11365041349e-22)
(-0.289785637244 0.159554104896 8.76403849232e-23)
(-0.311850524771 0.198087534789 -8.04977947592e-23)
(-0.310288923378 0.177154903632 1.67177713231e-22)
(-0.335825877836 0.21931254675 -3.7636286979e-22)
(-0.333712693787 0.195300747839 -3.16054657647e-22)
(-0.358691492344 0.242626831844 3.88529493346e-21)
(-0.360126280767 0.198621994346 -2.37677230623e-21)
(-0.382105710459 0.265118635748 7.00605997872e-21)
(-0.380106905969 0.257507284353 1.44926652951e-21)
(-0.461294474204 0.293490107928 1.39913280456e-20)
(-0.409470278664 0.310821055613 3.16128601454e-21)
(-0.501635387814 0.31170485571 7.67423896876e-21)
(-0.535690625293 0.407797473274 7.83876941846e-21)
(-0.267291109023 0.32733637327 -6.35412709448e-21)
(-0.48162794 0.204416711122 -4.93622941418e-21)
(-0.0606888738258 0.279205989014 -1.54038295506e-21)
(-0.201048280021 0.0118864552896 8.04825945419e-22)
(-0.20544040511 0.00720207123213 9.20921175394e-22)
(-0.203483768113 0.023926508292 4.68936190654e-22)
(-0.208432476026 0.0166191015992 -5.78631013942e-22)
(-0.206315033855 0.0360201953629 4.68084041667e-22)
(-0.210394605658 0.0275443678964 7.35714385935e-22)
(-0.210783642188 0.0482317922037 1.56531051091e-22)
(-0.214174184488 0.0397736877151 2.7590920107e-22)
(-0.216735478241 0.0606180289103 6.09968520931e-24)
(-0.219474029664 0.0513439745679 6.39059601167e-23)
(-0.224199607261 0.0732334496578 5.06664044456e-23)
(-0.226275323055 0.0630559339786 4.33311139618e-23)
(-0.2332722967 0.0861384219891 4.83435777325e-23)
(-0.234656952838 0.0749761926835 8.29673079056e-23)
(-0.244083023475 0.0994033530364 2.49682569451e-23)
(-0.244740920624 0.0871512608269 6.83398934431e-23)
(-0.256786805326 0.113113285339 9.39085967707e-23)
(-0.256677120239 0.0996410753029 9.42984680786e-23)
(-0.27156798843 0.127372458599 3.73946553921e-23)
(-0.270643007418 0.112520465724 1.22391448739e-22)
(-0.28864405794 0.14230473463 4.00767615146e-23)
(-0.286850967636 0.125903816588 -2.8316564483e-23)
(-0.308278335973 0.158062187491 1.43453056805e-22)
(-0.305547075026 0.139954571387 2.03144703193e-22)
(-0.330775107094 0.1748086931 -6.83791496568e-23)
(-0.32703921714 0.154748521191 1.14303082192e-22)
(-0.356338422031 0.192752715384 -2.31646409409e-21)
(-0.351660095976 0.169871348354 -7.25846163254e-22)
(-0.379862194251 0.212171899467 -4.81280071018e-21)
(-0.37954807302 0.174305062079 -1.23942040447e-21)
(-0.405299934217 0.231539197181 -2.39550743468e-21)
(-0.399475646273 0.216535983408 -1.96160044634e-21)
(-0.48158020741 0.254203244263 -2.99127261258e-21)
(-0.432134732221 0.272115962733 1.48829220937e-20)
(-0.51538351352 0.266641290831 -4.77169896448e-21)
(-0.548132524795 0.368248430246 -9.2629852277e-21)
(-0.275402935321 0.275383622326 -1.22485274762e-22)
(-0.490372111924 0.154439624245 -1.6298599639e-20)
(-0.0641724815789 0.221102053142 2.00078580471e-22)
(-0.212373355761 0.0106038621407 -4.62535783967e-22)
(-0.21604420131 0.00639797172935 8.28543632051e-22)
(-0.214897818613 0.0213307966969 -3.11852818661e-22)
(-0.219159288491 0.0146694924651 -7.78994831941e-22)
(-0.217794101215 0.0320835709528 5.43539545338e-22)
(-0.221147195888 0.0243642660697 4.44012590386e-22)
(-0.222375936068 0.0428965594093 1.83284110095e-22)
(-0.22498696957 0.0350985472785 3.150975015e-22)
(-0.228486427967 0.053805592591 1.01137388869e-22)
(-0.230382938674 0.0452157305524 1.03050461522e-22)
(-0.236155802442 0.0648430401357 7.56320174218e-23)
(-0.237312865125 0.0553844261506 9.43264471533e-23)
(-0.245487700496 0.0760452444239 1.02963623616e-22)
(-0.245859643626 0.0656445104235 5.21865480099e-23)
(-0.256623411849 0.08745677387 1.37670104577e-22)
(-0.256153902094 0.0760157868716 6.38670813326e-23)
(-0.269734047867 0.0991354573497 1.22781320047e-22)
(-0.268358627127 0.086529863659 1.20265365976e-22)
(-0.285023770268 0.111157895924 5.66802288637e-23)
(-0.282669080906 0.097232287736 9.78663286921e-23)
(-0.302731503314 0.123620253748 1.34751377195e-22)
(-0.299318927145 0.108204688196 5.93291612762e-24)
(-0.323138839194 0.136644964624 1.7399472858e-22)
(-0.318575413956 0.119580863677 1.50800245881e-22)
(-0.346555796971 0.150351698676 -5.43163931405e-22)
(-0.340749404183 0.131434272397 2.21345386471e-23)
(-0.373165276654 0.164835450489 3.51197526362e-22)
(-0.366146915234 0.143446705697 -8.52831814463e-22)
(-0.397584410438 0.180052890819 1.61177985937e-21)
(-0.394767872132 0.149090405772 -2.54392578953e-21)
(-0.423607924224 0.196727834584 1.53168290821e-20)
(-0.416151900019 0.175164449548 -2.30069760263e-21)
(-0.495615241125 0.21117394603 8.6112094786e-21)
(-0.446581203723 0.228377142079 7.96245049372e-21)
(-0.524052429729 0.218351724251 -2.07898859022e-20)
(-0.555313446638 0.316695249768 -3.36272987857e-21)
(-0.279909931045 0.225438242098 -1.59760357838e-20)
(-0.497459732528 0.121536975389 -1.33314490933e-20)
(-0.062853379959 0.166607834178 -5.30549408933e-21)
(-0.222388274606 0.00929678925612 5.12084584076e-22)
(-0.225340912803 0.00558739829794 5.71048111177e-22)
(-0.224972048926 0.0186869445964 -2.3129422894e-23)
(-0.228549324762 0.0127018726082 -6.80253589789e-22)
(-0.227889646322 0.0280733449471 2.15570546548e-22)
(-0.23053342838 0.0211457950714 -2.17578700093e-22)
(-0.232515153589 0.0374602219843 2.34863852927e-22)
(-0.234373667543 0.0303723954299 3.53948576364e-22)
(-0.238692188728 0.0468607831025 9.62395198063e-23)
(-0.239783392892 0.0390192538979 -7.98188324352e-24)
(-0.246450199448 0.0562828123175 7.08809777414e-23)
(-0.246734982111 0.0476239270975 5.71269121855e-23)
(-0.255897951105 0.0657353617379 1.30900057263e-23)
(-0.255312615048 0.0561967563532 4.05407176381e-23)
(-0.267186685308 0.0752328801271 4.64623427321e-23)
(-0.265652689382 0.0647270393672 -3.71579062953e-23)
(-0.280503087738 0.0848011397943 9.53503746215e-23)
(-0.277929258463 0.0732125786742 6.28056457248e-23)
(-0.296073218117 0.0944848498275 4.7119015956e-23)
(-0.292356001864 0.081663193153 9.11173303998e-23)
(-0.314163495849 0.104354873709 2.19817848129e-23)
(-0.309193778292 0.0901228179476 1.04896321982e-23)
(-0.335079368143 0.114522031107 -1.0599440523e-24)
(-0.328745863732 0.0986994744006 8.75539697502e-23)
(-0.359133157349 0.125121359716 -2.87533344411e-22)
(-0.351351915986 0.107501429396 -8.89209865635e-23)
(-0.386393969572 0.136277576687 -3.74795513036e-21)
(-0.377306005366 0.116442252876 -3.78046342963e-22)
(-0.412166605529 0.1477760513 -6.45640325153e-21)
(-0.406268555191 0.122503621786 -3.94567477543e-21)
(-0.43746654038 0.162141738856 -9.65507619097e-21)
(-0.430518877996 0.13539444683 -6.19144658934e-21)
(-0.503881282599 0.171832853909 -4.01148886346e-21)
(-0.456272696288 0.179679396247 -2.38993491699e-21)
(-0.526110437695 0.173947128096 4.09570693036e-21)
(-0.557430259475 0.250763242809 4.16250430878e-21)
(-0.278272889242 0.169103480966 -2.66090739885e-21)
(-0.492616621057 0.125706859214 -3.51785921331e-21)
(-0.0609418553505 0.116084179052 -3.21761604772e-21)
(-0.231078624676 0.00798452348184 -6.21290062688e-22)
(-0.233325377195 0.00478309177514 2.04308994518e-22)
(-0.233691845578 0.0160344815383 -8.74702866988e-22)
(-0.236599196408 0.0107451514464 -6.08088710334e-22)
(-0.236585597221 0.0240496487454 -7.92006702767e-23)
(-0.238548469944 0.0179355067035 -5.12290659146e-22)
(-0.241183211675 0.0320052023708 1.11102840194e-22)
(-0.242329084468 0.0256668979686 1.38612629495e-22)
(-0.247330819498 0.0398906007536 -4.70944908643e-23)
(-0.24766871168 0.0328503606835 -9.05763122347e-23)
(-0.255054271167 0.047687135748 2.67866520823e-23)
(-0.254531592457 0.039897513858 -4.35131208699e-24)
(-0.264463910543 0.0553733346343 -9.70719438337e-24)
(-0.262999124352 0.0467868501288 1.86831018228e-23)
(-0.275717402422 0.0629284584252 -2.08146033025e-23)
(-0.273208832193 0.0534732127477 -3.29826362099e-23)
(-0.289015123658 0.0703381336816 5.85726015031e-23)