/*--------------------------------*- C++ -*----------------------------------*\
| =========                 |                                                 |
| \\      /  F ield         | OpenFOAM: The Open Source CFD Toolbox           |
|  \\    /   O peration     | Version:  v2012                                 |
|   \\  /    A nd           | Website:  www.openfoam.com                      |
|    \\/     M anipulation  |                                                 |
\*---------------------------------------------------------------------------*/
FoamFile
{
    version     2.0;
    format      ascii;
    class       volScalarField;
    location    "1.6";
    object      k_0;
}
// * * * * * * * * * * * * * * * * * * * * * * * * * * * * * * * * * * * * * //

dimensions      [0 2 -2 0 0 0 0];


internalField   nonuniform List<scalar> 
1984
(
0.00685900850514
0.00789502257381
0.00816896015465
0.00825542175573
0.00829977940193
0.00833650000429
0.00837251732204
0.00840912354662
0.00844687972337
0.00848754539337
0.00853870360893
0.00862873070221
0.0088464751833
0.00941759901422
0.0107953268829
0.0137244642598
0.0192952211226
0.0289934568973
0.0452977552755
0.0750180956185
0.00793002746765
0.0096109044139
0.0100418556672
0.0101725130449
0.0102269696288
0.010265124709
0.0103005739482
0.0103360443308
0.0103725594687
0.0104130588123
0.0104695133523
0.0105842710941
0.0108821453821
0.0116577652914
0.0134293989391
0.0167940297369
0.0222147718141
0.0299958347367
0.0422068884693
0.0631330756994
0.00827172378187
0.0101436049537
0.0106337577067
0.0107799632862
0.0108370618156
0.010875295613
0.0109108163909
0.0109467675064
0.010984236722
0.0110263367276
0.011085869754
0.0112071222566
0.0115176625969
0.0123128167117
0.0141076218462
0.0175178695341
0.0230590726013
0.0312619602318
0.0444943287712
0.0732876523918
0.008398141763
0.0103408296142
0.0108539868071
0.0110054893604
0.0110624792098
0.0110997767209
0.0111347062613
0.0111705811846
0.0112084177185
0.0112512906473
0.0113118263423
0.011433749441
0.0117423274205
0.0125269232011
0.0142959188872
0.0176802763123
0.0232522169008
0.0315985561601
0.0453914189477
0.0758506231178
0.0084554671661
0.0104233547388
0.0109444195059
0.0110967164273
0.0111522407212
0.0111878483412
0.0112214315455
0.0112563803314
0.0112936673147
0.0113361865706
0.0113961303591
0.011515831367
0.0118169554069
0.0125819445879
0.0143124272925
0.0176461795808
0.0231849736012
0.0315647833622
0.0453998812036
0.0758774042165
0.00849126834157
0.0104682165673
0.0109916564663
0.0111431187166
0.0111966986226
0.0112302776249
0.0112620786324
0.0112955468967
0.0113316165961
0.01137301895
0.0114313562315
0.0115472440851
0.01183808808
0.0125786314737
0.0142629982378
0.0175326545435
0.0230093863968
0.0313587640183
0.0451929827832
0.075808851406
0.00852044052927
0.0105012439721
0.0110253987085
0.0111756867304
0.0112273198292
0.0112588364602
0.0112887125011
0.0113204575831
0.0113549789903
0.0113948368083
0.0114510015525
0.0115621751462
0.0118410754883
0.0125539913183
0.0141863286976
0.0173804775848
0.0227730016288
0.031058096852
0.0448669127011
0.0756933982991
0.00854736954371
0.0105305819419
0.0110551705448
0.0112044205416
0.0112543038571
0.0112838846587
0.0113118683966
0.0113418405103
0.0113746937349
0.0114128190312
0.0114665224466
0.0115724635954
0.0118383152903
0.0125211418035
0.014096180602
0.0172041347778
0.0224931615426
0.0306911061068
0.0444710013595
0.0755651283942
0.00857324542319
0.0105586148445
0.0110837777039
0.0112322541369
0.0112806385862
0.0113084715928
0.0113346798621
0.0113629310388
0.0113941131968
0.0114304504803
0.0114815646025
0.0115819700856
0.0118339710881
0.0124845886922
0.0139972117844
0.0170083009821
0.0221755876422
0.0302664338547
0.044011360074
0.0754276451004
0.00859833882533
0.0105859595121
0.0111119327387
0.0112599052527
0.0113070355734
0.0113333203006
0.0113579021206
0.0113845327956
0.0114141008443
0.0114486666195
0.0114971548058
0.0115918568253
0.011829421817
0.0124460211059
0.013891508561
0.0167956287232
0.0218227802379
0.0297823986827
0.0434769051433
0.075274887565
0.00862267285151
0.0106127222053
0.0111397401889
0.01128744922
0.0113335449578
0.0113584713499
0.0113815826914
0.0114067136055
0.0114347549526
0.0114676062699
0.0115134915446
0.0116024338713
0.0118252245175
0.0124065367369
0.0137811943793
0.0165697132074
0.0214397397618
0.0292441118658
0.0428735995302
0.0751140125569
0.00864621150134
0.0106388740882
0.011167146503
0.0113147990113
0.0113600518094
0.0113837933563
0.0114055860037
0.0114293444409
0.0114559620721
0.0114871801128
0.0115305280393
0.0116137444584
0.0118216323202
0.0123668281746
0.0136677487788
0.0163336388468
0.0210344066068
0.0286728409537
0.0422430728973
0.0749774303349
0.00866890801026
0.0106643565502
0.0111940673373
0.0113418411709
0.0113864176381
0.0114091305547
0.0114297478951
0.011452261367
0.0114775654223
0.0115072480916
0.0115481571499
0.0116257655225
0.0118188499301
0.0123276739011
0.0135531273154
0.016090740472
0.0206080051924
0.0280514115584
0.0415513610171
0.0748622419863
0.00869071466186
0.0106891073988
0.0112204191403
0.0113684689484
0.0114125150204
0.0114343399996
0.0114539165267
0.0114753100162
0.0114994145036
0.01152766929
0.0115662660066
0.0116384586632
0.0118170571132
0.0122898452899
0.0134394529035
0.0158452856996
0.0201641029003
0.0273579831198
0.0407135567654
0.0746717557677
0.00871158302352
0.010713065493
0.0112461244652
0.0113945873229
0.0114382330687
0.0114592989203
0.0114779619934
0.0114983575323
0.01152137579
0.011548321963
0.0115847479088
0.0116517797039
0.0118163804295
0.0122539538077
0.0133287120338
0.0156030396783
0.0197084486374
0.026522230025
0.0391893405699
0.0729017916747
0.00873146285507
0.0107361704286
0.0112711113238
0.0114201121513
0.0114634774168
0.0114839050971
0.0115017771084
0.0115212945519
0.0115433467421
0.0115690985178
0.0116035284918
0.0116656885724
0.0118169019095
0.0122204151388
0.013222509948
0.0153701231117
0.0192459319382
0.0253433206016
0.0343073360067
0.0476421785359
0.00875030130464
0.01075836273
0.011295312325
0.0114449687687
0.0114881676137
0.0115080696536
0.0115252612679
0.0115440243034
0.0115652127436
0.0115899082488
0.0116225028738
0.0116801139042
0.0118185882473
0.01218918057
0.0131202326055
0.0151477934439
0.0188608460181
0.0246415723552
0.033082468408
0.0426637593962
0.00876804089863
0.0107795805327
0.0113186636538
0.0114690880438
0.0115122183181
0.0115316938278
0.0115482923697
0.0115663620044
0.0115868143568
0.0116105733268
0.0116415161054
0.0116949134252
0.0118213224333
0.012159943136
0.013019469195
0.0149223452219
0.0185033621372
0.0243909144739
0.0352810955777
0.0479327581569
0.00878461544145
0.0107997597812
0.0113410979579
0.0114923843963
0.011535539443
0.0115546417535
0.0115707585387
0.0115882825367
0.0116081152801
0.0116310676292
0.0116605368011
0.0117100676492
0.0118251708457
0.0121331352783
0.0129213478636
0.0146891555728
0.0181096048197
0.0244180812299
0.0391344382321
0.0737076788448
0.00879991909414
0.0108187919248
0.0113625243223
0.0115147805592
0.0115580200859
0.011576885583
0.0115926336037
0.011609730454
0.0116290667165
0.0116513535018
0.0116795445122
0.011725592109
0.0118303061753
0.0121097795487
0.0128313018273
0.0144722317683
0.0177193618832
0.0240548670697
0.0394774447322
0.0753041050419
0.00881386632924
0.0108365888812
0.011382828296
0.0115361689177
0.0115796245946
0.011598359161
0.0116138502741
0.0116306387823
0.0116496100947
0.0116713847107
0.0116985117217
0.0117414901494
0.0118368205942
0.0120903213523
0.0127510898596
0.0142780297957
0.0173699139394
0.0236349989046
0.0394051417117
0.0755777339856
0.00882635580199
0.0108530668078
0.0114019556378
0.0115564996851
0.0116002771941
0.0116189834765
0.0116343308677
0.0116509359054
0.0116696837467
0.0116911131255
0.011717407227
0.0117577471567
0.0118447045178
0.0120746969714
0.012680221023
0.0141040241583
0.0170589307205
0.0232660857436
0.0393632844727
0.0758976910277
0.0088372653393
0.0108681139179
0.0114198079289
0.0115756823196
0.0116198874345
0.0116386703856
0.0116539922635
0.0116705475145
0.0116892247649
0.0117104898602
0.0117361971245
0.0117743345611
0.011853890448
0.0120626542057
0.0126178718804
0.0139482152061
0.0167844673385
0.0229898522128
0.0395092335817
0.0762812746781
0.00884646145963
0.0108815981846
0.0114362665176
0.0115936103868
0.0116383544658
0.0116573250672
0.011672746976
0.0116893963231
0.0117081682698
0.0117294638301
0.0117548439201
0.0117912145272
0.0118642864758
0.0120538916141
0.012563143216
0.0138090005213
0.016549979538
0.0228308666846
0.0399043302896
0.0767055871938
0.00885380625603
0.0108933574298
0.0114511900652
0.0116101617539
0.0116555659284
0.0116748436632
0.0116905001229
0.0117073988863
0.0117264441824
0.0117479773159
0.01177330292
0.0118083394222
0.0118757831891
0.0120480936549
0.0125152540964
0.0136848278729
0.0163562180552
0.0227842509629
0.0404158461835
0.0770910509628
0.00885913619514
0.0109031370418
0.0114643838444
0.0116251812458
0.0116713864638
0.0116911030707
0.0117071383708
0.0117244534328
0.0117439645451
0.0117659529357
0.0117915077914
0.0118256407455
0.0118882549551
0.0120449974439
0.0124740371455
0.0135754835103
0.016192149881
0.0227552058788
0.0407530053124
0.0773329647758
0.00886230268345
0.0109104029688
0.011475455805
0.0116383866213
0.0116856016899
0.0117059147978
0.0117224828724
0.0117403816277
0.0117605554522
0.0117832349142
0.0118093199799
0.0118430087715
0.0119016543032
0.0120447470459
0.0124403208054
0.0134838729299
0.0160649392506
0.0227990313213
0.0411314845643
0.0775363995885
0.00886454822878
0.0109148573996
0.0114839118539
0.0116494487458
0.0116980197051
0.0117191485987
0.0117364284134
0.0117550975698
0.011776147462
0.011799767802
0.0118266982863
0.0118604584385
0.0119161015376
0.0120474619991
0.0124133131801
0.0134101444066
0.0160100125582
0.0231224547784
0.0420714032607
0.0778708540465
0.00886556392359
0.0109162836585
0.0114894660763
0.011658120345
0.0117084329013
0.0117306230423
0.0117488062233
0.0117684338992
0.0117905566839
0.0118153798858
0.0118434902923
0.0118778172039
0.0119313315615
0.0120523422966
0.0123906104488
0.0133484550473
0.0160155359979
0.0236484583968
0.0432137147727
0.0782069605287
0.00886481620848
0.0109144735427
0.0114919011707
0.0116641747078
0.0117166171659
0.0117401279243
0.0117594204615
0.0117802110085
0.0118036294212
0.011829907477
0.011859514383
0.011894846579
0.0119469494363
0.01205845532
0.0123683412069
0.0132783102769
0.0159661533699
0.0239212117793
0.0436457339066
0.0784058399647
0.00886188115164
0.0109091418099
0.0114909742106
0.0116673507837
0.0117223176219
0.0117474229226
0.0117680443616
0.0117902109767
0.0118151561581
0.0118431407766
0.0118745358266
0.0119112982647
0.0119626180117
0.0120652893778
0.0123457888843
0.0131939277403
0.0158151030585
0.0237622373312
0.0434637329647
0.0788513610528
0.00885652674307
0.010900008069
0.0114863799341
0.0116673427489
0.011725248941
0.0117522419017
0.0117744267092
0.0117981938218
0.0118248993624
0.0118548332756
0.0118882891384
0.0119268477646
0.0119779147535
0.0120720559859
0.0123192305405
0.0130806554647
0.0155597679545
0.0235112232221
0.0441189705303
0.0803376191435
0.00884844152889
0.0108867581296
0.0114777749847
0.0116638115132
0.0117250959821
0.0117542970472
0.0117782999373
0.0118039051392
0.0118326123426
0.0118647380349
0.0119005224329
0.0119411984629
0.0119925810606
0.0120789905236
0.0122907304101
0.0129376195307
0.0152006072251
0.0231530432055
0.046399164228
0.0834718052361
0.00883735781916
0.0108690469911
0.0114647940664
0.0116563874822
0.0117215143317
0.0117532761744
0.0117793797611
0.0118070850439
0.0118380541601
0.0118726296641
0.0119110025583
0.011954100082
0.0120064432051
0.012086661083
0.0122659681244
0.0127809588889
0.0146724209368
0.0215741880279
0.0488292333075
0.0877602842219
0.00882291685581
0.0108465640207
0.0114470868383
0.0116446865553
0.0117141356426
0.0117488438581
0.0117773666176
0.0118074650577
0.0118409859075
0.0118783001991
0.0119195440929
0.011965378544
0.0120192635756
0.0120957079462
0.012249576846
0.0126629477801
0.0141373101708
0.0205738325988
0.0496546073126
0.0913664662917
0.00880454225497
0.0108190835577
0.0114243522722
0.0116283442123
0.0117025815272
0.0117406459671
0.0117719433411
0.0118047699239
0.011841180813
0.0118815716977
0.0119260131719
0.0119749338283
0.0120309324553
0.0121056300746
0.0122422827693
0.0126263967268
0.0142478530589
0.0225902969949
0.0453592653021
0.0841839500355
0.0087818450565
0.010786328572
0.0113962349428
0.0116069568439
0.011686444104
0.0117282997857
0.0117627640406
0.0117986991111
0.0118383880783
0.011882261095
0.0119303202602
0.0119827850661
0.0120416105241
0.0121161173848
0.0122421740738
0.0126053769077
0.0143070766575
0.0229147483429
0.050888485916
0.0928093437793
0.00875449527464
0.010748046863
0.0113624069329
0.0115801262073
0.0116653069287
0.0117114119437
0.0117494802335
0.0117889597721
0.0118323813155
0.0118802131386
0.0119323836264
0.0119889291397
0.0120513318442
0.0121271157271
0.0122462471394
0.0125594896485
0.0139449127313
0.0218579537755
0.056524300015
0.0930311020956
0.00872220283327
0.0107040846384
0.0113226215467
0.0115474989423
0.0116387674209
0.0116895853898
0.0117317357504
0.0117752597367
0.0118229514553
0.0118753149683
0.0119321830726
0.0119933809741
0.0120598837952
0.0121374473001
0.0122500524089
0.0125114885073
0.0135818625055
0.0199551720145
0.0495370538924
0.0935681832553
0.00868475515659
0.0106544365726
0.0112767672424
0.0115088139378
0.0116064708648
0.0116624412363
0.0117091791094
0.01175731499
0.0118099109498
0.0118674990179
0.011929763674
0.0119962501179
0.012067280582
0.0121466101557
0.0122520418551
0.0124706020564
0.01331659191
0.0182419089836
0.0422284387229
0.0823862229467
0.00864205854205
0.0105992856245
0.0112249302755
0.0114639660447
0.011568165226
0.0116296561782
0.0116814928625
0.011734865006
0.0117931195114
0.0118567752934
0.0119253274465
0.0119979465674
0.0120742807621
0.0121563770844
0.0122588065992
0.0124720692416
0.0134130002333
0.0190431894702
0.043805257791
0.0903673840063
0.00859420559143
0.0105391096306
0.0111675034213
0.0114131123533
0.0115237805955
0.0115910301865
0.0116484206079
0.0117077098529
0.0117725081909
0.0118432850439
0.0119192181097
0.011999187372
0.0120825233332
0.0121706543759
0.0122755833873
0.0124843699593
0.0134205423186
0.0191257431988
0.0455138464822
0.0875548462256
0.00854158903044
0.0104748515624
0.0111053560203
0.011356797326
0.0114735506943
0.0115465457394
0.0116098357868
0.0116756859176
0.0117480971368
0.0118272452136
0.0119118621053
0.0120005856457
0.0120927712683
0.0121895756458
0.0123003099034
0.0124977110032
0.0133278780285
0.018577375939
0.0439271260785
0.0847516973504
0.00848503406639
0.0104081493471
0.0110400098168
0.0112961261768
0.0114180872791
0.0114964154469
0.0115656741567
0.0116386354331
0.011719798701
0.0118086539497
0.0119031794091
0.0120017755573
0.0121040397455
0.0122108014072
0.0123296862769
0.0125186388205
0.0132644665573
0.0182860304601
0.0453119631445
0.085779144707
0.00842598383526
0.0103415165006
0.0109738814754
0.0112329834047
0.0113585983794
0.0114410688513
0.0115152194485
0.0115941851638
0.0116840045807
0.0117830540403
0.0118882557049
0.0119978796649
0.0121116140975
0.0122295487882
0.012358459106
0.0125436478061
0.0132070233158
0.017829145061
0.0461898328885
0.0890938858456
0.00836653411671
0.0102783369504
0.0109102572765
0.0111700725647
0.0112966887727
0.0113797660907
0.0114520082321
0.0115233380838
0.0116109652034
0.011713813686
0.0118282309447
0.011952311499
0.0120856093792
0.0122246732712
0.01237089536
0.0125595191033
0.0131367558795
0.0172292999249
0.0445418990409
0.0926668979671
0.00830940345246
0.0102225844818
0.0108530734004
0.0111107184776
0.0112335631461
0.0113064102285
0.0113443124531
0.0113178261439
0.0113388105112
0.011411191416
0.0115262763287
0.0116786393965
0.0118793066153
0.0120930800224
0.0122965249048
0.0125127352013
0.0129646193153
0.0157730497698
0.0351244185698
0.0802946375471
0.00825767476114
0.0101778203201
0.0108060851704
0.0110582557705
0.011169354471
0.0112058922718
0.0111088598915
0.0106698500889
0.00994032972727
0.00978639748408
0.00988313338689
0.0101502597898
0.0110037184206
0.0115779204294
0.0119831283301
0.0123000583437
0.0127625095222
0.0164360544385
0.0482040795688
0.0945837826077
0.00821501863542
0.0101471091347
0.0107730513058
0.0110161850831
0.0111045101853
0.0110754768669
0.0107530902922
0.00920306377969
0.00992039775109
0.0110738470332
0.0116595342805
0.0120747121137
0.0126307872769
0.01625916414
0.0515389094859
0.0973044945901
0.00818689376623
0.0101287423209
0.0107554792544
0.0109952216142
0.0110725814538
0.0110080827003
0.0105831978474
0.00873657964696
0.00938482846018
0.010927182632
0.0115057699451
0.0119017639659
0.0124161159578
0.0147226573546
0.0341377833277
0.0815543227943
0.00818689827272
0.0101287476324
0.0107554829954
0.0109952230268
0.0110725803577
0.0110080794974
0.010583193593
0.00873658109439
0.00938491224559
0.0109273604236
0.0115060833247
0.01190211022
0.0124164593175
0.014722695766
0.0341375128188
0.0815543411742
0.00821503027621
0.0101471239886
0.0107730624269
0.0110161907256
0.0111045095442
0.0110754711376
0.0107530844927
0.0092030660296
0.00992058750467
0.0110741819221
0.0116601004268
0.0120753639025
0.0126314806477
0.0162598634356
0.0515395715348
0.0973048753057
0.0082576931932
0.0101778447832
0.0108061058953
0.0110582701683
0.0111693609599
0.0112058916841
0.0111088583806
0.0106698596902
0.0099403355064
0.00978642237019
0.00988318961454
0.0101503614928
0.0110039089352
0.0115782677195
0.0119837671456
0.0123008399418
0.0127633481113
0.0164368747329
0.0482047198334
0.094584426255
0.00830941337932
0.010222603447
0.0108530897177
0.0111107313533
0.0112335726435
0.0113064179217
0.0113443223466
0.0113178472464
0.0113388487195
0.0114112566935
0.0115263797211
0.0116787988981
0.0118795471532
0.0120934739421
0.0122972142398
0.0125135804185
0.0129655373319
0.0157739067996
0.035124790067
0.080294459801
0.00836654547349
0.0102783551446
0.0109102769628
0.0111700916463
0.0112967063024
0.011379787413
0.0114520378265
0.0115233815963
0.0116110313377
0.0117139113139
0.0118283701819
0.0119525042423
0.0120858829283
0.0122251016421
0.0123716255202
0.0125603819074
0.0131376538875
0.0172301432914
0.0445421827662
0.0926663084236
0.00842600111866
0.0103415352253
0.0109739052406
0.0112330064033
0.0113586161275
0.0114410966656
0.0115152638034
0.0115942504235
0.0116840967887
0.0117831800766
0.0118884242922
0.0119981025036
0.0121119148822
0.0122300019752
0.01235920821
0.0125444941973
0.013207863814
0.0178298724078
0.046190019455
0.0890936977697
0.00848505944543
0.0104081750982
0.0110400407398
0.0112961502763
0.0114180958012
0.0114964390206
0.0115657228834
0.0116387130202
0.0117199089249
0.01180879982
0.0119033673483
0.0120020183921
0.0121043611642
0.0122112739852
0.0123304455228
0.0125194633261
0.0132652579143
0.0182866460671
0.0453119539613
0.0857790314984
0.00854162519844
0.0104748976142
0.0111054034064
0.0113568413802
0.0114735807592
0.0115465767834
0.0116098901535
0.0116757717211
0.0117482205917
0.0118274037181
0.0119120612493
0.0120008436162
0.01209311258
0.0121900692346
0.0123010822073
0.0124985236877
0.0133286397073
0.0185779073012
0.0439270822608
0.0847516301696
0.00859427060557
0.0105391961264
0.0111675963142
0.0114132030132
0.0115238712972
0.011591120126
0.0116485233641
0.011707816982
0.0117726516154
0.011843456885
0.0119194256916
0.0119994613029
0.012082885479
0.0121711696118
0.0122763698235
0.0124851757429
0.0134212629335
0.0191261738986
0.0455139135512
0.0875549199389
0.00864215143962
0.0105994157433
0.0112250662423
0.0114641035726
0.0115683036552
0.0116298016976
0.0116816470484
0.0117350364884
0.0117933208843
0.0118570050119
0.0119255818964
0.0119982754052
0.0120747004136
0.0121569507723
0.0122596416563
0.0124729026054
0.0134137052259
0.0190434975708
0.0438051873819
0.0903674651724
0.00868487312924
0.0106546040728
0.0112769441899
0.0115089922502
0.0116066523724
0.0116626301739
0.0117093822663
0.0117575391176
0.0118101700404
0.0118677753933
0.0119300686723
0.0119966316104
0.0120677521588
0.0121472318343
0.0122529146319
0.0124714516714
0.0133173067136
0.0182422676753
0.0422286302769
0.0823863907591
0.00872234379176
0.0107042905015
0.0113228386273
0.0115477176024
0.0116389890588
0.0116898148045
0.0117319802441
0.0117755313133
0.0118232644672
0.0118756357111
0.0119325286305
0.011993813664
0.0120604014441
0.0121381112708
0.0122509475248
0.0125123385599
0.0135825836771
0.0199555236519
0.0495371428306
0.0935682186377
0.00875465190393
0.0107482771697
0.0113626511963
0.0115803730666
0.0116655568541
0.0117116694539
0.011749752922
0.0117892624953
0.0118327312075
0.0118805672228
0.0119327686895
0.0119894132859
0.012051890416
0.0121278183818
0.0122471555692
0.0125603291708
0.0139455912459
0.0218582283053
0.056524284881
0.0930310934643
0.00878200629368
0.0107865659555
0.0113964887443
0.0116072148654
0.0116867060462
0.0117285692116
0.0117630477957
0.0117990110287
0.0118387469224
0.011882627948
0.0119307270063
0.011983297494
0.0120421954144
0.0121168495183
0.0122430845526
0.0126061911871
0.01430772487
0.0229147440653
0.0508882219583
0.0928092840833
0.00880469863265
0.0108193113604
0.0114245994758
0.0116285988221
0.0117028427695
0.0117409164796
0.0117722275771
0.0118050758151
0.0118415196201
0.0118819312806
0.0119264160743
0.0119754371131
0.0120315139648
0.0121063636458
0.0122431734128
0.0126271954199
0.0142484755576
0.02259022433
0.0453585408803
0.0841836517954
0.00882307593385
0.0108467927098
0.0114473375054
0.011644947535
0.0117144057471
0.0117491249406
0.0117776611682
0.0118077761523
0.0118413162707
0.0118786508993
0.0119199309319
0.0119658449473
0.0120198126886
0.0120964055779
0.0122504198141
0.0126637175626
0.0141379499244
0.0205739343599
0.0496540873718
0.0913664169611
0.00883752003283
0.010869278068
0.0114650494982
0.0116566551213
0.0117217926224
0.0117535667285
0.0117796845724
0.011807406244
0.0118383929328
0.0118729877707
0.0119113914746
0.011954545167
0.0120069622541
0.0120873046421
0.0122667613764
0.0127816948694
0.0146730093621
0.0215742625466
0.0488289166
0.0877602565921
0.00884860620474
0.0108869924609
0.0114780346978
0.0116640844014
0.0117253802932
0.0117545943406
0.0117786121903
0.0118042343827
0.0118329596494
0.0118651056302
0.011900921003
0.0119416455647
0.0119930924282
0.0120796109043
0.0122914914304
0.0129383316361
0.0152011516806
0.023153118638
0.0463990036903
0.0834717809697
0.00885669318671
0.0109002454592
0.0114866429773
0.0116676193624
0.0117255374485
0.0117525438427
0.0117747439126
0.0117985279532
0.0118252516517
0.0118552075634
0.0118886964538
0.0119273021322
0.011978430202
0.0120726729083
0.0123199742607
0.0130813611216
0.0155603220605
0.0235114392214
0.0441190020841
0.0803376064796
0.00886204981493
0.0109093822089
0.0114912399666
0.0116676301531
0.0117226092414
0.0117477283359
0.0117683649227
0.0117905473384
0.0118155093685
0.0118435184449
0.0118749501643
0.0119117607322
0.0119631396466
0.0120659056019
0.0123465200478
0.0131946462553
0.0158157155495
0.0237625945972
0.0434638738355
0.078851365615
0.00886498647233
0.0109147161169
0.0114921690879
0.0116644564118
0.0117169115531
0.0117404364432
0.0117597436892
0.0117805477455
0.011803979829
0.0118302860272
0.0118599352255
0.0118953178267
0.0119474773498
0.012059067808
0.0123690572142
0.0132790450815
0.0159668093126
0.0239216368691
0.0436459320239
0.0784058520677
0.00886573482473
0.0109165273689
0.0114897356496
0.0116584043186
0.0117087302071
0.0117309350135
0.0117491323427
0.0117687703393
0.0117909021034
0.0118157591759
0.0118439190383
0.011878298532
0.0119318663397
0.0120529475057
0.0123913017465
0.0133491891607
0.0160162204889
0.023648933372
0.0432139290716
0.0782069771057
0.00886471777944
0.0109151010619
0.0114841824719
0.0116497347896
0.0116983200437
0.0117194645663
0.0117367583046
0.0117554344849
0.0117764884381
0.0118001512897
0.0118271381442
0.0118609518171
0.0119166428819
0.0120480563714
0.0124139667541
0.0134108480792
0.0160106934529
0.0231229262552
0.042071641881
0.0778708697953
0.00886246938832
0.0109106450744
0.0114757259714
0.0116386733408
0.0116859038523
0.0117062341099
0.0117228198166
0.0117407323875
0.0117609220155
0.0117836474459
0.0118097785878
0.0118435136186
0.0119022006944
0.0120453304649
0.0124409377443
0.0134845282842
0.0160656062422
0.0227995473787
0.0411316898089
0.0775363947385
0.00885929712717
0.0109033707737
0.0114646450819
0.0116254594581
0.0116716810545
0.0116914160744
0.0117074715812
0.0117248062745
0.0117443396045
0.0117663746343
0.011791972706
0.0118261486058
0.0118888016319
0.0120455722141
0.0124746276664
0.0135760951769
0.0161928098559
0.0227557795159
0.0407531752946
0.0773329515356
0.00885397186617
0.0108935950296
0.0114514556253
0.0116104461503
0.0116558692794
0.0116751683298
0.0116908488752
0.0117077740879
0.0117268497312
0.0117484237538
0.0117737909671
0.0118088693672
0.0118763492657
0.0120486804686
0.0125158413419
0.0136854069647
0.0163567764096
0.022784733916
0.040416074941
0.0770910449619
0.00884661908154
0.0108818221696
0.0114365166847
0.0115938797747
0.0116386441165
0.0116576374161
0.0116730850263
0.0116897637869
0.011708569242
0.0117299038421
0.0117553256951
0.0117917375726
0.0118648422591
0.0120544601974
0.0125636993337
0.0138095359603
0.0165505164089
0.0228313858452
0.0399046964088
0.076705641634
0.00883741617874
0.0108683277432
0.0114200463691
0.0115759412634
0.0116201692773
0.0116389773747
0.011654326672
0.0116709132728
0.0116896259468
0.011710930747
0.0117366805162
0.011774858484
0.0118544428383
0.0120632106962
0.012618402644
0.0139487115062
0.0167849585574
0.0229903573478
0.0395096957795
0.0762813708979
0.00882649623163
0.010853266124
0.0114021765581
0.011556742877
0.0116005470223
0.0116192823022
0.0116346592837
0.0116512978797
0.0116700828681
0.0116915534555
0.0117178914687
0.0117582713736
0.01184525183
0.0120752390799
0.0126807248457
0.0141044813064
0.0170593737519
0.0232665567501
0.0393638039314
0.075897814543
0.00881399368152
0.0108367701461
0.0113830264169
0.0115363914377
0.0115798770732
0.0115986460309
0.0116141695369
0.0116309948835
0.0116500054157
0.0116718232467
0.0116989968485
0.0117420154134
0.0118373616594
0.012090846972
0.0127515660108
0.0142784502164
0.0173703136842
0.0236354225105
0.0394056895549
0.0755778900459
0.00880003377203
0.0108189569497
0.0113627015603
0.0115149842759
0.011558251125
0.0115771558536
0.0115929388963
0.0116100774014
0.0116294554109
0.0116517879414
0.0116800303162
0.0117261198236
0.011830839068
0.01211028526
0.0128317494691
0.0144726213036
0.0177197335108
0.0240552583911
0.0394779552632
0.0753042797329
0.00878472656927
0.0107999293658
0.0113412941775
0.0114926070176
0.011535750727
0.0115548905468
0.0115710416321
0.0115886128146
0.011608489997
0.0116314911605
0.0116610186056
0.0117105982715
0.0118256921372
0.01213361536
0.0129217641306
0.0146895197741
0.0181099673827
0.0244184735762
0.0391349448942
0.0737078944347
0.00876816549704
0.01077977541
0.0113188824323
0.0114693221822
0.0115124412067
0.0115319149806
0.0115485402656
0.0115666582111
0.0115871581122
0.0116109671548
0.0116419825745
0.0116954352871
0.0118218224957
0.0121603828347
0.0130198388122
0.0149226647792
0.018503689824
0.0243912406833
0.0352814455035
0.0479328823444
0.00875042879212
0.0107585608431
0.0112955231873
0.0114451960554
0.01148839032
0.0115082976272
0.0115255017722
0.0115442776099
0.0115655158654
0.0115902660924
0.0116229404326
0.0116806189571
0.0118190587044
0.0121895709338
0.0131205362644
0.0151480295132
0.018861059988
0.0246417066769
0.0330824438167
0.0426637799827
0.00873158009372
0.0107363485964
0.0112712930893
0.0114202981017
0.0114636753037
0.0114841184014
0.0115020083244
0.0115215535584
0.0115436472005
0.0115694606174
0.0116039681106
0.0116661885793
0.011817357482
0.0122207859975
0.0132227860173
0.0153703315701
0.0192461130334
0.0253433698942
0.0343071412213
0.0476420281812
0.00871168246359
0.0107132067897
0.0112462744651
0.0113947507072
0.0114384148379
0.0114595024551
0.0114781909629
0.0114986203769
0.0115216851244
0.0115486866005
0.0115851968276
0.0116522623659
0.0118168137075
0.0122543055247
0.013328970567
0.0156032338271
0.0197086296231
0.0265222960798
0.0391891142899
0.0729016614747
0.00869079831574
0.0106892250372
0.0112205500582
0.0113686157464
0.0114126811916
0.0114345295244
0.0114541344756
0.0114755655442
0.011499717575
0.0115280322037
0.0115666978905
0.0116389108325
0.0118174494516
0.0122901640716
0.0134396791981
0.0158454568818
0.0201642861899
0.0273581366987
0.0407135079127
0.0746716931854
0.00866897672924
0.0106644551882
0.0111941826916
0.0113419727961
0.0113865681697
0.011409304188
0.0114299509482
0.0114525051955
0.0114778606995
0.0115076000899
0.0115485646747
0.0116261698028
0.0118192056407
0.0123279585891
0.0135533223653
0.0160908877007
0.0206081778295
0.0280515969184
0.0415514881336
0.074862273471
0.00864626666386
0.0106389591446
0.011167248015
0.0113149159652
0.0113601866551
0.0113839506245
0.0114057734196
0.0114295765519
0.0114562512729
0.0114875310104
0.0115309068798
0.0116141065498
0.0118219536013
0.012367080783
0.0136679161648
0.0163337660557
0.0210345658795
0.0286730240791
0.0422432392113
0.0749774857283
0.00862272031667
0.0106127959162
0.0111398287099
0.011287551788
0.011333663994
0.0113586116655
0.0113817532959
0.0114069312528
0.0114350382502
0.0114679371165
0.0115138354301
0.0116027496412
0.0118255096381
0.0124067566779
0.0137813350722
0.0165698210622
0.0214398836453
0.0292442823377
0.0428737685124
0.075114071629
0.00859837928574
0.0105860226739
0.0111120088652
0.0112599937527
0.0113071386988
0.011333442719
0.0113580527107
0.0113847290708
0.0114143546824
0.0114489623099
0.0114974448891
0.0115921322941
0.0118296708694
0.0124462086255
0.0138916242411
0.0167957195381
0.0218229102545
0.02978256013
0.0434770831771
0.0752749553104
0.00857327926141
0.0105586681175
0.0110838420933
0.0112323290727
0.0112807259494
0.0113085753179
0.0113348070679
0.0113630963117
0.0113943253628
0.0114307007669
0.0114818205077
0.0115822094877
0.0118341845095
0.0124847451063
0.0139973048251
0.0170083766719
0.0221757034386
0.0302665817717
0.0440115284004
0.0754277119267
0.00854739726936
0.0105306260919