/*--------------------------------*- C++ -*----------------------------------*\
| =========                 |                                                 |
| \\      /  F ield         | OpenFOAM: The Open Source CFD Toolbox           |
|  \\    /   O peration     | Version:  v2012                                 |
|   \\  /    A nd           | Website:  www.openfoam.com                      |
|    \\/     M anipulation  |                                                 |
\*---------------------------------------------------------------------------*/
FoamFile
{
    version     2.0;
    format      ascii;
    class       surfaceVectorField;
    location    "1.6";
    object      Uf_0;
}
// * * * * * * * * * * * * * * * * * * * * * * * * * * * * * * * * * * * * * //

dimensions      [0 1 -1 0 0 0 0];


internalField   nonuniform List<vector> 
3840
(
(0.000318166098237 0.000567785635332 1.08767907513e-21)
(-0.000567808755446 -0.000362651899696 3.66709345478e-22)
(0.000857920569435 0.000248356092266 8.40056851904e-22)
(0.000319405405555 0.000364777271106 1.403096058e-21)
(0.000879385360171 -0.000255290410543 -2.00541202112e-22)
(0.000503625695586 -0.000657268787118 -5.08073058921e-23)
(0.000794479944442 -0.000661398706701 -5.39671630156e-22)
(0.000406094288137 -0.00103862580998 -6.75058412129e-22)
(0.000743637392065 -0.00100005772534 -6.33844856476e-22)
(0.000338654644003 -0.0014939444052 -2.22548318721e-21)
(0.000722558906038 -0.00130702230435 -5.28413823513e-22)
(0.000306990589401 -0.00193264957992 -1.21395094651e-21)
(0.000719710315429 -0.00160370533568 6.43081529478e-22)
(0.000296746520407 -0.00236833014045 -1.52792508689e-21)
(0.000729903920402 -0.00190496579607 1.84084870277e-21)
(0.000301349294613 -0.00280960897166 5.68782984992e-22)
(0.000750253414211 -0.00222394638938 2.00740199261e-21)
(0.000319116642936 -0.00326369671292 1.42087874472e-21)
(0.000774980798093 -0.00257373767417 1.05186509428e-21)
(0.00034989168445 -0.0037397090111 6.3616703335e-23)
(0.000775023828353 -0.00296535166776 2.15582496153e-22)
(0.000391723506958 -0.00427358351162 -3.94882180275e-22)
(0.000632893122788 -0.00338206951635 3.4121363138e-22)
(0.000416828814447 -0.00489029111943 -3.92394463261e-22)
(0.000126241164559 -0.00368947788649 5.01802593797e-22)
(0.000307506749627 -0.00552403240052 -3.19777751318e-22)
(-0.000656871977168 -0.00361194869736 2.29828849453e-22)
(-7.74524744815e-05 -0.00611099571356 6.11863473309e-22)
(0.000338938459693 -0.0032333680026 -1.59711242889e-21)
(-0.000378533706418 -0.00662620904017 -6.26839100485e-22)
(0.00624738901346 -0.00578989433087 -6.49657848455e-21)
(0.00255654549699 -0.00370071560648 -5.75245652298e-21)
(0.0224045173151 -0.0110730006426 -1.99691314685e-20)
(0.005283109685 -0.0253471679715 -9.15058717672e-21)
(0.044848481086 -0.0190358990495 -2.92434458305e-20)
(0.00796248950538 -0.00935969385926 -2.63607578553e-20)
(0.0332725971405 -0.0433168625936 -1.48834741115e-20)
(0.0242798021858 -0.00526408741609 -2.59134380257e-20)
(0.025457142027 -0.0178474355407 3.57945005396e-21)
(-0.000363243082976 -0.000365125141938 6.82126328343e-22)
(-0.000202708822948 -0.000957986058995 6.36082338931e-22)
(0.000253168335966 -0.000854394210778 5.122319002e-22)
(0.000808649514044 -0.000320202370627 2.93275803914e-21)
(0.000312818599909 -0.00135130697958 -5.25324515908e-22)
(0.00100051807612 -0.00129343802049 3.7322242802e-22)
(0.000232393827424 -0.00189596036527 -2.36086996918e-21)
(0.000950735257735 -0.00178494393763 -6.64671586837e-22)
(0.000183182164457 -0.00245989455624 -2.80558927724e-21)
(0.000902587384181 -0.00235995384323 -2.30158471145e-21)
(0.000165217840646 -0.00303382452986 -2.21346220989e-21)
(0.000880947900547 -0.00295263711025 -1.08056664684e-21)
(0.000168610148779 -0.00361786940652 -1.60222363138e-21)
(0.000880860267697 -0.00355858272476 -1.46683431524e-21)
(0.000189939455828 -0.0042168473697 1.48813026946e-22)
(0.000900415569407 -0.00417707743996 -1.3323506573e-22)
(0.000230097875047 -0.00483913544597 -5.22906544557e-22)
(0.000941569966656 -0.0048110926068 6.45584805276e-22)
(0.000292214552797 -0.00549786521765 -1.38313057122e-21)
(0.00100874250615 -0.00546635544535 -1.36146366969e-21)
(0.000372550457431 -0.00621484104012 -1.00285913969e-21)
(0.00110881858548 -0.00617702914864 -4.27915993106e-22)
(0.000430488326725 -0.00704020305284 -1.05338584596e-21)
(0.00124230616225 -0.00698749865412 -5.83908439371e-22)
(0.00039225903461 -0.00811321860125 -2.09716871806e-22)
(0.00138062382467 -0.00788397619762 -2.80918865174e-22)
(0.000383063345037 -0.0096876832376 -2.4480447663e-22)
(0.00149708776391 -0.00887221739448 1.11154522927e-21)
(0.00155649566455 -0.0119340715197 -4.78218319457e-21)
(0.00186790187119 -0.00982805363416 -1.62429144932e-21)
(0.0023638971804 -0.0131043734868 -8.40646521515e-21)
(0.00372686631988 -0.00873012891597 -1.18863613763e-20)
(-0.00390464127608 -0.0138045346599 -1.55422135635e-20)
(0.00598326922183 -0.0277494898817 -7.69706929328e-21)
(-0.00515909826489 -0.00303047239409 -2.30307500505e-20)
(-0.00281200795966 -0.00937681001101 -2.46644526223e-20)
(0.0145869048918 0.0154237160952 -7.45051386029e-21)
(0.00582446301176 -0.00290206491372 -2.21215734619e-20)
(0.0092531613174 0.0195082888945 3.76232804157e-21)
(0.000651974213449 -0.000628029254832 2.88671404973e-21)
(0.000425294513126 -0.00102885882089 1.11554331748e-21)
(0.00117146168274 -0.00115083447359 2.79374856696e-21)
(0.00133142955813 -0.000447922157157 3.87678224609e-21)
(0.00125728369369 -0.0016793632322 2.33875357091e-22)
(0.00152902648602 -0.00146715073753 7.28148155765e-22)
(0.00123437946989 -0.00226935854046 -6.05386329105e-22)
(0.0015407183528 -0.00200077031218 -1.18809874249e-22)
(0.00120913387171 -0.00289121108708 -5.76562081046e-22)
(0.00152443860266 -0.00261069457413 -5.13146694202e-22)
(0.00119973504159 -0.0035283400246 -3.3393875219e-22)
(0.00151810397357 -0.00323796318826 -1.63016256468e-23)
(0.00120893312062 -0.00417647263296 2.15425040817e-24)
(0.00152904222718 -0.00387688976811 -9.06881405429e-23)
(0.00123997555578 -0.00483795957883 3.63536712599e-22)
(0.0015620196186 -0.00452496311196 1.92155662139e-22)
(0.00129821925709 -0.00551960485618 -1.9297231986e-22)
(0.00162336798104 -0.00518355769979 1.09127957616e-22)
(0.00139194915336 -0.00623288205021 -4.0624909158e-22)
(0.00172217760485 -0.005856088212 -2.35218893195e-22)
(0.00153178121511 -0.00699478925188 -8.96529278711e-24)
(0.00187085797457 -0.00657271175594 -1.07869952389e-22)
(0.00172657811789 -0.0078331044083 1.88558541414e-22)
(0.00208074310425 -0.00737644298739 1.06581609905e-22)
(0.00198724170973 -0.00881225673883 1.0403432359e-21)
(0.00235987899278 -0.00824161511317 8.85512028144e-23)
(0.00243063532667 -0.0100326897773 -2.67941743425e-22)
(0.00271759924023 -0.00907177040089 1.07578354611e-21)
(0.00363553982633 -0.011447448437 -8.72846963104e-21)
(0.00328270829001 -0.00954988332857 -1.1557001508e-21)
(0.00611456043317 -0.0122372838741 -1.11769654544e-20)
(0.00451672173056 -0.00786448171175 -5.64398101191e-21)
(0.00475560153859 -0.012932630848 -1.6819308352e-20)
(0.00667861508145 -0.026286127354 -5.35743802824e-21)
(0.00345999410739 -0.0128665048606 -2.37552760337e-20)
(-0.00287858817315 -0.00865230688281 -1.67163186964e-20)
(0.000220936810909 -0.00456496632448 -1.090873156e-20)
(-0.0024782088355 -0.00417535041365 -1.40537865533e-20)
(-0.000895991587911 0.000100934370126 -6.99884641757e-22)
(0.00119488400405 -0.000565686329747 2.10561151384e-21)
(0.000990955011471 -0.000955036953439 5.90853377615e-22)
(0.00174642317679 -0.00115257337898 1.8111818349e-21)
(0.00191829160673 -0.000393369008044 3.55456514088e-21)
(0.00186027828664 -0.00174706473571 3.75462924426e-22)
(0.00212349753917 -0.00148511642651 9.63782923e-22)
(0.00187093202687 -0.0023645714255 -2.65702393457e-23)
(0.00215821251443 -0.00204733911664 1.13794668656e-22)
(0.00186709228963 -0.00299803438174 4.71137611976e-23)
(0.00215789931594 -0.00266923399715 -4.72570332877e-23)
(0.00187320412942 -0.00363973355574 2.26948986001e-22)
(0.00215981851441 -0.00329777729717 1.36760073119e-22)
(0.00189835773531 -0.00428677807515 9.93132711878e-23)
(0.00217614229577 -0.00393041952493 1.59192102693e-22)
(0.00195040254171 -0.0049403921736 -6.22530928445e-23)
(0.00221571455382 -0.00456434672031 -3.54245185481e-23)
(0.00203913028903 -0.00560538791862 6.68813842811e-23)
(0.00228859859657 -0.00519923456467 -3.96840828665e-23)
(0.0021777145507 -0.00629103457318 6.31602459963e-23)
(0.00240803011866 -0.0058357511309 1.28170221073e-22)
(0.0023813761137 -0.00701163067814 7.67695030378e-24)
(0.00259161363549 -0.00649962970747 -5.36970202483e-23)
(0.00266593485883 -0.00778693550565 6.57427130594e-24)
(0.0028561791644 -0.0072305563552 5.18380653924e-23)
(0.00304419712035 -0.00864589727822 1.23991513022e-22)
(0.0032189501844 -0.00799740972649 7.37272884571e-23)
(0.00355993816245 -0.00961658576739 1.8802513874e-22)
(0.00368836913506 -0.00867011390301 7.27001243825e-22)
(0.0043980212939 -0.0106523274244 1.92878846834e-21)
(0.00431850122379 -0.00890131097239 -9.94647127411e-23)
(0.00596355643039 -0.0114036930295 1.75546414275e-22)
(0.00526810934786 -0.00674010815894 1.01895826325e-21)
(5.4524250843e-05 -0.0120729034547 -5.25444837259e-21)
(0.00734782543448 -0.0245500739008 -5.07868923303e-21)
(-0.00643166801931 -0.00693623452752 -7.01482921602e-21)
(-0.00801569931521 -0.00736824400586 -6.58039750596e-21)
(-0.00234077484833 -0.00480662944751 -3.844939635e-21)
(-0.00460889948252 -0.00109480636522 -6.41620946105e-21)
(0.000474795781197 -0.0047540972691 -7.68363645386e-22)
(0.00175849912991 -0.0005021051712 2.03980700465e-21)
(0.00149303492614 -0.000896656856759 -5.70504407266e-23)
(0.00235368703677 -0.00111401185478 2.70716622898e-21)
(0.00253017380969 -0.000347040748906 3.68261376828e-21)
(0.00247993830996 -0.0017439395143 7.02114667231e-22)
(0.00275340516356 -0.0014742719304 1.15733358992e-21)
(0.00250077061576 -0.00237727371213 9.31078747142e-23)
(0.00279153412321 -0.00205087088236 1.724833713e-22)
(0.00250348802005 -0.00301142065613 4.23892786334e-23)
(0.00279204364014 -0.00267734449124 2.34997045057e-23)
(0.00251303894577 -0.0036434900676 6.90031898109e-23)
(0.00279189926955 -0.0032997904811 3.79947154316e-23)
(0.00254098916617 -0.00427163793196 2.44543129571e-23)
(0.00280432739753 -0.00391661152697 4.15264083791e-23)
(0.00259805250624 -0.00489586659035 -1.28555085701e-23)
(0.00284003130589 -0.00452411851295 -1.68114286318e-23)
(0.00269738631382 -0.00551842389401 2.16047539251e-23)
(0.00291129884801 -0.00511986472392 -1.34557778607e-23)
(0.0028562783915 -0.00614451927666 1.1312954828e-23)
(0.00303440478845 -0.0057009258468 1.73322938641e-23)
(0.00309390310618 -0.0067832102107 -9.53590515974e-24)
(0.00323055634149 -0.00628674888457 -2.31573908936e-23)
(0.00342880297045 -0.0074465916257 1.18991082544e-22)
(0.00351970190061 -0.0069103739388 -1.21120067419e-23)
(0.0038702081184 -0.00814761496066 6.7673701926e-22)
(0.00392008932787 -0.00753452778798 2.64212169268e-22)
(0.00442362377613 -0.00888591067616 4.39511392344e-22)
(0.00442675249405 -0.00802129297527 1.0813230855e-21)
(0.00511361145118 -0.00960245518547 -1.00929491783e-21)
(0.00503510189647 -0.0080568315326 -3.66666272362e-22)
(0.00645271490819 -0.0100567089836 -4.23527738405e-21)
(0.00572238816455 -0.00539348382006 -2.63754396269e-21)
(-0.00118481241529 -0.0103676896146 -6.4046383664e-21)
(0.00765880732189 -0.022389032414 -7.61750985221e-21)
(-0.00758310963308 -0.00733748471828 -5.981777751e-21)
(-0.0110463358038 -0.0057194700687 -6.13599441199e-21)
(-0.00253057517125 -0.00507840921306 -3.33963347144e-21)
(-0.00686899086634 -0.00122300149529 -6.07775551231e-21)
(0.00142526361819 -0.0049003833733 -8.1093254839e-22)
(0.00230236642072 -0.000468891043376 1.5857563229e-21)
(0.00196190156159 -0.000862289084749 5.99573272783e-23)
(0.0029749089212 -0.00109023925384 2.13278112921e-21)
(0.00315149826338 -0.000328505873137 2.1993576411e-21)
(0.00311071643276 -0.00173644572098 6.27702293985e-22)
(0.00339959202729 -0.00146982647193 6.29350365086e-22)
(0.00312780683492 -0.00237798250125 1.02875201092e-22)
(0.00343305846001 -0.00205408512171 1.12249295715e-22)
(0.00312414024722 -0.00301004221124 1.91051413039e-23)
(0.00342410110147 -0.00268283809715 1.97586394322e-23)
(0.00312519492801 -0.00363004090716 1.05179339998e-23)
(0.0034119093141 -0.00329864704607 1.56979344353e-24)
(0.00314318459088 -0.00423544169972 2.60666790237e-25)
(0.00340976056685 -0.00389877367508 2.87855295591e-24)
(0.00319013417007 -0.00482422111418 -1.74116979224e-23)
(0.00342889434032 -0.00447770299067 -1.26092692912e-23)
(0.00328110053896 -0.00539539240569 -1.77282379217e-23)
(0.00348261739732 -0.0050303239439 -1.80054677905e-23)
(0.00343585093301 -0.00594943088799 -1.71380518575e-23)
(0.00358863107977 -0.00554970943211 -1.47920289485e-23)
(0.00367582537068 -0.00648849285748 -2.57334924758e-23)
(0.00376988447494 -0.00604806762198 -1.78340547312e-23)
(0.00401980183323 -0.00701567677477 1.33109079982e-22)
(0.00404703558026 -0.00655087921771 -1.43909693717e-23)
(0.00446951013202 -0.00753156493265 6.68798235503e-22)
(0.00443610169387 -0.00701630471884 2.65802951156e-22)
(0.00500457814715 -0.00802212638424 2.75145420789e-22)
(0.00491740910972 -0.00730586607198 8.80279847027e-22)
(0.00557353347043 -0.00843379864248 -1.99491531722e-21)
(0.00544683659125 -0.00716547779126 -1.41047698355e-21)
(0.00677195947602 -0.00862735653621 -6.01977643085e-21)
(0.00591597492645 -0.00405008021074 -1.11498544692e-20)
(-0.00239858499777 -0.00872345150937 -7.3488658978e-21)
(0.00775490515789 -0.0201338777232 -7.81923111117e-21)
(-0.0101323234602 -0.00624164780519 -6.2319721733e-21)
(-0.0135285423149 -0.00419417235762 -2.19688694447e-22)
(-0.00281740270763 -0.00452209788206 -3.54905458926e-21)
(-0.00858946748644 -0.000702902025894 -6.67658213702e-22)
(0.00267941855039 -0.00444410662819 1.45050563174e-22)
(0.00284777843235 -0.000456569617104 6.73558645478e-22)
(0.00241844770355 -0.000842109766105 1.8470339323e-22)
(0.00361543734737 -0.00108402067956 6.95926876975e-22)
(0.00377892634048 -0.000331069987729 2.41400524021e-21)
(0.00376119027282 -0.00173993560676 1.13897366817e-22)
(0.00405548777658 -0.00147885502601 5.9733727519e-22)
(0.00376781392642 -0.00238712479201 2.91327340556e-23)
(0.00408023527905 -0.00206986119047 9.00933894297e-23)
(0.00374888901065 -0.00301742644443 2.22329157182e-24)
(0.00405440064247 -0.00270176022759 7.54165156693e-24)
(0.0037314328634 -0.00362658305817 -6.06958760038e-24)
(0.00402107835767 -0.00331322200559 -3.28592817418e-24)
(0.00372762359512 -0.00421019906637 -9.9913831255e-24)
(0.0039934096627 -0.00389931674357 -9.20069071792e-24)
(0.00374974760559 -0.0047636025021 -1.32030391593e-23)
(0.00398238112102 -0.00445209302452 -1.06039428441e-23)
(0.00381344494129 -0.00528213017786 -1.50692588174e-23)
(0.00400129649796 -0.00496341554857 -1.10272967757e-23)
(0.00393926114507 -0.00576132005517 -1.54880318222e-23)
(0.00406801545685 -0.00542222764771 -1.88485971135e-23)
(0.00414903220992 -0.00619677474213 -6.49153162706e-24)
(0.00420561644961 -0.00583340534136 -3.29181644931e-23)
(0.00446011069195 -0.00658366547581 1.18302901803e-22)
(0.00443408464792 -0.00621507731665 -3.8088479174e-23)
(0.00486611991579 -0.00691393774971 4.77284562681e-22)
(0.00476650682907 -0.0065238205237 1.97729114172e-22)
(0.00532399898911 -0.00716827586026 -8.05342557309e-22)
(0.00517185076313 -0.00662546775884 6.69755439636e-22)
(0.00574753422257 -0.00729967591885 -1.05654161356e-20)
(0.00557830622211 -0.00633513045678 -2.83923611202e-21)
(0.00681992432 -0.00723924212011 -1.29493091496e-20)
(0.00585557436566 -0.00285040351119 -1.85864742109e-20)
(-0.00346350442263 -0.00711651984379 -6.90053907816e-22)
(0.00763218764428 -0.0178097024275 -1.29586664828e-20)
(-0.0120278547867 -0.00525527630156 5.34462526516e-21)
(-0.0153901506235 -0.00269993822439 -8.33593334144e-21)
(-0.00308394790443 -0.00375328122405 3.02644693874e-21)
(-0.0100922852411 -0.000279574530898 -8.33613891431e-21)
(0.00377502436284 -0.00379957907077 -4.08569569204e-22)
(0.00339614542221 -0.000458022765991 1.92514998796e-21)
(0.00287644786985 -0.000830260238864 3.74769233081e-22)
(0.00426613728674 -0.00109358934631 2.31541563842e-21)
(0.00441447061611 -0.000349992278186 3.02999318109e-21)
(0.00442170738762 -0.0017592903633 5.73533297803e-22)
(0.00472116990003 -0.00150380925931 8.36586941439e-22)
(0.00441327754625 -0.00241348722369 6.8502306941e-23)
(0.00473441961711 -0.00210448331957 9.43385814036e-23)
(0.00437175457389 -0.00304489864888 2.03243182092e-24)
(0.00468580964919 -0.00274312449325 3.92742234733e-24)
(0.00432630346099 -0.00364699167409 -6.41703129173e-24)
(0.00462318396256 -0.0033549880189 -7.19860190417e-24)
(0.00428871781131 -0.00421299385027 -9.81325043656e-24)
(0.00455944597119 -0.00393258153958 -8.53445366349e-24)
(0.00427076204767 -0.00473526811796 -8.42820046056e-24)
(0.00450473971256 -0.0044652678899 -8.33414732216e-24)
(0.00428763509617 -0.00520532814438 -1.48066350718e-23)
(0.00447151219663 -0.0049417711255 -4.09749346798e-24)
(0.0043594002151 -0.00561384352279 -3.62787297844e-23)
(0.00447673062079 -0.00534697161962 -1.21823296846e-23)
(0.00450704399748 -0.00595038130501 -6.451511204e-23)
(0.00454244146179 -0.0056785415585 -2.59855388548e-23)
(0.00474592880192 -0.00620334310894 4.13377331957e-23)
(0.00468721214879 -0.00594730374818 -7.12438484508e-23)
(0.00506361602222 -0.00635820707191 3.90199991128e-22)
(0.00492151161135 -0.00610966046669 4.9014988075e-23)
(0.00540078937733 -0.00639286818504 -1.36413811507e-21)
(0.00520662345249 -0.00603787764467 2.18163162294e-22)
(0.00565860040873 -0.00626415525462 -1.08602941873e-20)
(0.00544966985544 -0.0056139842988 -2.3220336256e-21)
(0.00660110896524 -0.00594235311788 -1.85958315441e-20)
(0.00553380983636 -0.00185721431096 -9.6803188442e-21)
(-0.00437062525796 -0.00552611507087 -2.06045459164e-20)
(0.00721595634763 -0.0154234355585 -1.36434885651e-20)
(-0.0134870336132 -0.00424914348087 -2.20166975209e-20)
(-0.0166674458862 -0.00122425260331 -1.64760775851e-20)
(-0.0032515792121 -0.00308915858243 -1.17711554222e-20)
(-0.0112529798612 0.000130104984185 -1.60682559202e-20)
(0.0048137929144 -0.00339841811783 -1.58627386111e-21)
(0.00395223203147 -0.000470074560282 1.47961242621e-21)
(0.00334650055492 -0.000823937636514 5.29984788545e-22)
(0.00492655230431 -0.00111867965214 1.55116448411e-21)
(0.00506305390505 -0.000383336413521 3.12031294755e-21)
(0.00509115636372 -0.00179801075442 3.57392225039e-22)
(0.00540048218342 -0.00154654128059 9.0439762252e-22)
(0.00506380690724 -0.00246359331115 2.97636968099e-23)
(0.00539998922072 -0.00216259175959 9.94902404496e-23)
(0.00499321481466 -0.00310153876936 -5.30361137776e-24)
(0.00532375190325 -0.00281405424238 6.7776617484e-24)
(0.0049108841153 -0.00370302620629 -9.31602427593e-24)
(0.00522468333548 -0.00343355161643 -4.17516143892e-24)
(0.00482789183306 -0.00425880805599 -7.05535054909e-24)
(0.00511526195929 -0.00401105151314 -7.25276117822e-24)
(0.004754816009 -0.00475823038858 -4.00344032958e-24)
(0.00500424674335 -0.00453327048554 -2.95772998515e-24)
(0.00470553565888 -0.00518902120292 -1.47318808071e-24)
(0.00490246116418 -0.00498586888394 -2.86440148819e-24)
(0.00469863558365 -0.00553710789679 -1.88913875491e-24)
(0.00482501917111 -0.00534984151415 -1.21481525046e-24)
(0.0047534430443 -0.00578627542572 -3.27142752656e-23)
(0.00479190240212 -0.0056158311244 -5.59257669719e-24)
(0.00488323647922 -0.00591851603534 -6.35665935715e-23)
(0.00481962359635 -0.00578696115974 -4.96634968971e-23)
(0.00507124627718 -0.00591296307265 -1.23021840759e-22)
(0.0049161056426 -0.00581927213853 3.67309572695e-23)
(0.00524438243756 -0.00574302143913 -7.39732348237e-22)
(0.00503679990937 -0.00559078964688 1.48959716803e-22)
(0.00530839430431 -0.00535955797255 -1.14205828247e-21)
(0.00506628884878 -0.00503567661987 -1.10683508582e-21)
(0.00608568703853 -0.00475900097964 -4.7279758652e-21)
(0.00493329435095 -0.00112690342676 -2.25393842581e-21)
(-0.00515489649954 -0.00397858467634 -9.51502023383e-21)
(0.00643554867033 -0.0130181042527 -1.01070836599e-20)
(-0.0144554963384 -0.00323984332593 -1.05276359844e-20)
(-0.017406467949 0.000156562973347 -1.01863855789e-20)
(-0.00318769101682 -0.00252115707593 -5.88337435902e-21)
(-0.0119722643409 0.000502221541382 -1.02573499709e-20)
(0.00595437103162 -0.00319358340544 -1.24244980135e-21)
(0.00452448403585 -0.000491315309777 2.17068530988e-21)
(0.00383779453674 -0.000821864824553 3.58033943243e-23)
(0.00560289329048 -0.00115964795093 2.47354608596e-21)
(0.00573136503509 -0.000430434932147 1.85519158395e-21)
(0.00577563245872 -0.00185888577106 6.46495637931e-22)
(0.00609970098992 -0.00160856228977 5.15803977299e-22)
(0.00572618013916 -0.00254261236071 7.65042053881e-23)
(0.00608370209867 -0.00224774841999 3.19299151735e-23)
(0.00562108640294 -0.00319487007221 7.90611168724e-24)
(0.00597600513424 -0.0029202100897 -4.7330890313e-24)
(0.00549414628585 -0.00380481821882 -2.11189834121e-24)
(0.0058346419023 -0.00355685849927 1.53822558727e-24)
(0.00535533649649 -0.00436091122633 -3.15514061428e-24)
(0.00567138756864 -0.00414539018701 -5.31213517414e-24)
(0.00521340281321 -0.00484965303794 -1.81869114375e-24)
(0.00549307220721 -0.0046701458304 1.0773899267e-24)
(0.00508005160214 -0.00525515197174 -2.60602865794e-24)
(0.00530811559703 -0.00511398686323 8.66424513646e-25)
(0.00497139343824 -0.0055587437637 -4.91825319274e-24)
(0.00512881176597 -0.00545433255778 1.02974314199e-24)
(0.0049041786648 -0.00573851820364 -2.25417983287e-23)
(0.00497196895677 -0.0056750936402 -1.43829989881e-23)
(0.00488894664368 -0.00576962011163 5.06340539439e-23)
(0.00485089760268 -0.00577131677504 -4.50678734576e-23)
(0.00490476809761 -0.0056235081071 3.08712514831e-22)
(0.00477014340263 -0.00569761849049 5.28296609633e-23)
(0.00486357734006 -0.00526656675666 -2.18143020778e-22)
(0.00467998038656 -0.00533662202134 4.53423242053e-22)
(0.00469075783024 -0.00464011305719 -2.21871522916e-21)
(0.00443992156014 -0.00464821309142 -5.1588175776e-22)
(0.00523670384764 -0.00375422397942 -7.6330462205e-21)
(0.00404744979085 -0.000748526965861 4.75989468056e-22)
(-0.0058668877168 -0.002560389723 -1.0778449005e-20)
(0.00524172465385 -0.0106848943963 -1.06374254607e-20)
(-0.0149381239389 -0.00231604435277 -9.91609956539e-21)
(-0.0176510520061 0.00133152170446 -1.30196203623e-20)
(-0.00281905624673 -0.00201487867076 -5.61642541318e-21)
(-0.0122739217484 0.000796964041916 -1.30039548778e-20)
(0.00728153976354 -0.00315341021577 -1.26890050636e-21)
(0.00512144626997 -0.000521275269754 -2.79690331606e-22)
(0.00435904887406 -0.000823567875056 -7.61622352633e-22)
(0.00630287141281 -0.00121710351504 -1.02550524713e-22)
(0.00642717188929 -0.00049121247296 5.94227132385e-22)
(0.00648309841807 -0.00194409094562 -9.87617454583e-23)
(0.00682666897983 -0.0016910533514 -2.61892422284e-24)
(0.00640920881526 -0.00265450285341 -4.9307379246e-23)
(0.00679409916634 -0.00236255211528 -8.35808477706e-23)
(0.00626547020021 -0.00333083147064 -1.11009751313e-23)
(0.00665232747282 -0.00306581953405 -2.55286102857e-23)
(0.00608780722531 -0.00396063959956 -1.66201124567e-24)
(0.00646445794976 -0.00373106032082 -6.11440655254e-24)
(0.00588467060927 -0.00453046425554 -1.07960463315e-24)
(0.00624124195387 -0.0043441416871 -1.38835619685e-24)
(0.00566231904493 -0.0050243380237 3.7625055841e-24)
(0.00598702509009 -0.00488750090691 -3.37984311657e-25)
(0.00542940970793 -0.00542313925793 4.50219631357e-24)
(0.00570706745458 -0.00534167303612 7.39790979868e-24)
(0.00519848146648 -0.00570394457225 -8.43500265337e-24)
(0.00540980886753 -0.0056810229313 3.66525248806e-24)
(0.00498250133284 -0.00583923695679 -3.6909074117e-23)
(0.00510754602491 -0.00588329941432 -1.91401902051e-23)
(0.00478822812612 -0.00579738921888 -4.28722664382e-23)
(0.00480921883883 -0.00593539866534 -5.53145335221e-23)
(0.00459032518641 -0.00554158917718 1.97540388185e-22)
(0.00451449200099 -0.00578924802464 5.71153473732e-23)
(0.00428535427707 -0.00502963214804 1.55684505072e-22)
(0.00416814568642 -0.00533035298472 5.60818364613e-22)
(0.00381704543435 -0.00419094109203 2.17882293946e-21)
(0.00360131850395 -0.00450870749469 1.45319850614e-22)
(0.00402706554157 -0.00301373505496 -2.52838977218e-21)
(0.00287029014195 -0.000797524422292 2.48779660329e-21)
(-0.00656638426625 -0.00136606418474 -1.28785968181e-20)
(0.0035940652242 -0.00851910504751 -1.02851123934e-20)
(-0.0149976969934 -0.0015258800639 -1.61074756747e-20)
(-0.0174914349287 0.00218447763984 -1.30742475953e-20)
(-0.00215144507338 -0.00159850030952 -8.65642997098e-21)
(-0.0122016971966 0.000977615335041 -1.2981629876e-20)
(0.00895197228878 -0.00355244855426 -1.33728610633e-21)
(0.00575147128714 -0.000559895801494 1.12295111358e-22)
(0.00491892408609 -0.000828875602337 -8.70017939564e-22)
(0.00703469248338 -0.00129161849129 6.94158732875e-22)
(0.00715887326261 -0.000565691655974 2.3371063271e-21)
(0.00722230530744 -0.0020551530337 1.25619734649e-23)
(0.00759018351947 -0.00179468506692 5.38509100851e-22)
(0.00712273576425 -0.00280203092927 -5.98020788103e-23)
(0.00754096084272 -0.00250852576014 -5.21738287831e-24)
(0.00693779919621 -0.00351371923375 -2.0542041707e-23)
(0.0073640071572 -0.00325352340388 -9.58891314111e-24)
(0.00670536406212 -0.00417671386503 -5.84075150372e-24)
(0.00712745729893 -0.00396024343426 -7.65491897821e-24)
(0.00643193007173 -0.00477618122096 -6.46735875349e-25)
(0.00684073446315 -0.00461330334971 -6.94898954799e-24)
(0.00612062573801 -0.00529427477185 3.29741990292e-24)
(0.00650519178003 -0.00519389896039 -5.02748553533e-24)
(0.00577616936915 -0.0057092472128 6.56096597316e-24)
(0.00612217753032 -0.00568094653043 7.16481894001e-24)
(0.0054063219723 -0.00599452096909 -7.03993506365e-24)
(0.00569526261427 -0.0060465659734 1.11566977543e-25)
(0.00501881658827 -0.00611753003879 -3.75456496101e-23)
(0.00523082065863 -0.00626333469418 -2.54704573826e-23)
(0.00461471137357 -0.00603950146055 4.46730802893e-23)
(0.00473135063459 -0.00631041316494 -5.3736148037e-23)
(0.00416253949295 -0.00571442589605 4.20393323801e-22)
(0.00418955922479 -0.00613595558473 1.79389361503e-22)
(0.00353956094099 -0.00508755861264 5.50453710155e-22)
(0.0035413975178 -0.00562623790446 7.77292623989e-22)
(0.00269252198045 -0.00407014574043 4.54293514447e-22)
(0.00258399244415 -0.00468674913581 -4.5806353977e-22)
(0.0024343861494 -0.00259328063804 -5.2689260179e-21)
(0.00139347186912 -0.00133465910029 -5.85208708407e-21)
(-0.00731607588168 -0.000480652043349 -1.04807631706e-20)
(0.00148144863558 -0.00663906772618 -1.66847533836e-20)
(-0.0146878284886 -0.000976643461725 -9.94840179663e-21)
(-0.0169956062704 0.00254047270773 -1.07448093448e-20)
(-0.00101302412802 -0.00145878002969 -5.66248601137e-21)
(-0.0117198712215 0.00107421156419 -1.08622194288e-20)
(0.0115022666554 -0.00469431767517 -1.25648952441e-21)
(0.00642307682878 -0.000607104136356 1.35479327618e-21)
(0.00552600809999 -0.000837606324045 -9.99294603268e-22)
(0.00780708635086 -0.00138335064573 2.18145669508e-21)
(0.00793509869657 -0.000653599250408 2.32892254576e-21)
(0.00800279337702 -0.00219267763495 5.20729744508e-22)
(0.00839949006867 -0.00191933469028 7.37404566802e-22)
(0.00787767614537 -0.00298650512813 4.49957827909e-23)
(0.00833477071368 -0.00268583702112 5.41908091126e-23)
(0.00765092009968 -0.00374583734831 3.29820958767e-24)
(0.00812332830766 -0.00348403685725 -2.84231588193e-24)
(0.00736219337789 -0.00445672165433 -8.76315702247e-24)
(0.0078383423938 -0.00424596747147 -3.83244027593e-25)
(0.00701567709785 -0.00510365159944 -1.1329739208e-23)
(0.00748768427551 -0.00495570132893 -8.45366074871e-24)
(0.00661079509896 -0.00566769564498 -1.16008649824e-24)
(0.00706929890291 -0.00559402666358 -2.11157047556e-23)
(0.00614748624069 -0.00612541165878 7.15419944388e-25)
(0.0065800180022 -0.00613918278707 4.10858727372e-25)
(0.00562750831171 -0.00644756753179 -1.83189553415e-23)
(0.00601757671614 -0.0065622186399 -3.8910752365e-24)
(0.00505141672827 -0.00659747044919 -4.16609558095e-23)
(0.0053809647738 -0.00683218635298 -3.00316276145e-23)
(0.00441252919561 -0.00652995773773 8.09801331767e-23)
(0.00466398535938 -0.00692204759312 -4.91618752687e-23)
(0.00366925983083 -0.00618965586155 5.36288661691e-22)
(0.00384939065632 -0.00677632116967 9.99810233334e-23)
(0.00267404551859 -0.00550706078328 -2.31224625936e-22)
(0.00285891518339 -0.00628147324198 6.0712316383e-22)
(0.00134220922263 -0.00436855475215 -6.76444413829e-21)
(0.00144556967401 -0.00528459284054 -1.39004325992e-21)
(0.00046699079704 -0.00259393016386 -1.72679144497e-20)
(-0.000381106886438 -0.00242308190386 -5.6445535665e-21)
(-0.00815916776638 -2.60396167018e-05 -1.69487995577e-20)
(-0.00108642995887 -0.00522558220345 -1.35486123515e-20)
(-0.0140234703975 -0.000632692184999 -1.16586269769e-20)
(-0.0163890834729 0.00209645700992 -1.11565375557e-20)
(0.00099012540963 -0.00153419185424 -6.4562229418e-21)
(-0.0108186118512 0.00121410930811 -1.11268062943e-20)
(0.0157896756108 -0.0067453257992 -9.67731102942e-22)
(0.00714475417871 -0.000662556860567 -2.51653336898e-23)
(0.00618854570493 -0.000849408823369 -9.43148430845e-22)
(0.00862894887199 -0.00149174960571 8.84870417483e-22)
(0.00876427111579 -0.000754122620231 1.45312905458e-21)
(0.00883447309216 -0.00235605266419 2.70865631407e-22)
(0.00926377273081 -0.00206384810695 1.46383795116e-22)
(0.00868556365928 -0.00320744146074 6.3527104397e-24)
(0.00918614094993 -0.00289303377698 -3.11146760856e-23)
(0.008418609558 -0.00402706360904 -6.5237694972e-24)
(0.00894293720704 -0.00375584365355 -3.56517389606e-23)
(0.00807502928173 -0.00480122207789 -7.3747753826e-26)
(0.00861249824471 -0.00458689726237 -6.75783202892e-24)
(0.00765643483838 -0.00551458293437 -1.82396262963e-23)
(0.00820105921295 -0.00537046698152 -5.24752875506e-24)
(0.00715811494292 -0.00614810901886 -1.954475953e-23)
(0.00770287780856 -0.00608785330698 -2.76448263125e-23)
(0.00657459255774 -0.00667784898403 -4.19563645351e-24)
(0.0071098609657 -0.00671781051191 -1.1507109676e-23)