/*--------------------------------*- C++ -*----------------------------------*\
| =========                 |                                                 |
| \\      /  F ield         | OpenFOAM: The Open Source CFD Toolbox           |
|  \\    /   O peration     | Version:  v2012                                 |
|   \\  /    A nd           | Website:  www.openfoam.com                      |
|    \\/     M anipulation  |                                                 |
\*---------------------------------------------------------------------------*/
FoamFile
{
    version     2.0;
    format      ascii;
    class       volScalarField;
    location    "3.4";
    object      ddt0(epsilon);
}
// * * * * * * * * * * * * * * * * * * * * * * * * * * * * * * * * * * * * * //

dimensions      [0 2 -4 0 0 0 0];


internalField   nonuniform List<scalar> 
1984
(
-0.000482470444018
-0.000535839274594
-0.000571813191838
-0.000584964655824
-0.000590579665185
-0.000593886067061
-0.000596503741136
-0.000598838611563
-0.000600868605388
-0.000602176385869
-0.000601904596939
-0.000598721493854
-0.000591847509966
-0.000571279746768
-0.000437946647398
0.000507477229822
0.00613449509052
0.0304384019581
0.0733196830201
0.00790566578101
-0.000538407446114
-0.000549626852534
-0.000597155899867
-0.000614599424745
-0.000621695878535
-0.00062560576258
-0.00062863748353
-0.000631465990971
-0.000634173901546
-0.000636329140247
-0.000637300743911
-0.000635970760599
-0.000630504835436
-0.000605773046586
-0.000451583843935
0.00042160327066
0.00510710930991
0.0266097530831
0.0430587781659
0.00789072306337
-0.000571708016528
-0.000593596813159
-0.000648378801461
-0.000668392555675
-0.00067616153531
-0.000680051554122
-0.000682871155598
-0.000685406432591
-0.000687658419493
-0.00068927978594
-0.000689439693644
-0.00068711235021
-0.000679926662413
-0.000649073433953
-0.000475415547555
0.00038580335817
0.00462089777741
0.0255722375887
0.0473263034835
0.0104304074564
-0.000583212151555
-0.000608626598486
-0.000665960504906
-0.000686820436351
-0.000694680012015
-0.000698406844021
-0.000700985916695
-0.00070323201071
-0.000705228241787
-0.000706484994151
-0.000706302341286
-0.000703721297798
-0.000696694845318
-0.000665990643739
-0.000488302830432
0.000374285660464
0.00419607026125
0.0206306249885
0.00879112757297
-0.00257179763136
-0.000588316853623
-0.000614578581344
-0.000672718170145
-0.00069375514787
-0.000701518981336
-0.000705071148312
-0.000707462082797
-0.00070954779703
-0.000711376977043
-0.00071259569215
-0.00071246384172
-0.000710404111603
-0.000705097517373
-0.000678547104958
-0.000504670293013
0.000365288269543
0.00370276858584
0.0121282379902
-0.010313331175
-0.0175714430358
-0.000591795497203
-0.000617975079547
-0.000676314311855
-0.000697297619921
-0.00070492382622
-0.000708329107749
-0.000710594150408
-0.000712592422431
-0.000714391334955
-0.000715670562645
-0.00071588725219
-0.000714785866089
-0.000712049981569
-0.000692105136611
-0.000531984634386
0.000308793023936
0.00313931163631
0.00650389646773
0.0289186791996
0.0123845425467
-0.00059490517704
-0.000620801090627
-0.000679143193719
-0.000700010083576
-0.000707502198173
-0.000710792163875
-0.000712979712575
-0.000714939514839
-0.000716766484221
-0.000718202153963
-0.000718866959598
-0.000718875802889
-0.000718920097178
-0.000706524383046
-0.000571705411191
0.00016252674041
0.00230976359031
0.00199968981182
0.0275258930043
0.0276248594071
-0.000598013082068
-0.000623516393572
-0.000681843380614
-0.000702593636861
-0.000709972856164
-0.000713179350292
-0.00071531306567
-0.000717266998514
-0.000719163807326
-0.000720792891558
-0.000721920866173
-0.000722979757748
-0.000725485928404
-0.000720187831753
-0.000614316432276
-3.30995202112e-05
0.0012993511318
-0.00184901123935
-0.00198076210436
0.520976818979
-0.000601085723959
-0.000626240543542
-0.000684554420419
-0.00070519763242
-0.000712479868915
-0.000715626548481
-0.000717733953442
-0.000719703330812
-0.000721674483819
-0.00072350360376
-0.000725081000476
-0.000727113551148
-0.000731747755142
-0.000732367774248
-0.000652494699458
-0.000208512820652
0.000498043094598
-0.00444859951236
-0.0172440809763
0.559918206951
-0.000604117573993
-0.000628969752673
-0.000687277012523
-0.00070782488517
-0.000715026001762
-0.000718121523455
-0.000720219058438
-0.000722212857157
-0.000724275143559
-0.000726288950992
-0.000728244991603
-0.000731054420216
-0.00073743481551
-0.000743137967429
-0.000684683524003
-0.000344317661547
-6.80967844713e-05
-0.00601600805045
-0.0208419235562
0.610016717872
-0.000607111289272
-0.000631653097789
-0.000689982061915
-0.00071044695673
-0.000717580431231
-0.000720639354285
-0.000722728365886
-0.000724755512144
-0.000726890794492
-0.000729071211329
-0.000731324809496
-0.000734657486699
-0.000742059106411
-0.000751011057132
-0.000708788051976
-0.000438937718626
-0.000277794620465
-0.00507863421153
-0.0102281505156
0.0470603829729
-0.000610021761685
-0.000634290383181
-0.000692650108249
-0.000713038226471
-0.000720111189767
-0.000723141014148
-0.000725227628212
-0.00072727827334
-0.000729485470272
-0.000731782389433
-0.000734240538744
-0.00073779321709
-0.000745216611818
-0.000754114979257
-0.000719703944407
-0.000514906219227
-0.000501188789709
-0.00501541197195
-0.0210770380941
-0.00484312698161
-0.000612783630075
-0.000636859849641
-0.000695260109479
-0.000715578833491
-0.000722593307072
-0.000725595611492
-0.00072767962887
-0.000729750473984
-0.000731999204441
-0.000734387418102
-0.000736952761656
-0.000740521571137
-0.000747460832969
-0.000754671077735
-0.000718504820922
-0.000517229964405
-0.000447242140551
-0.00470561973563
-0.0212962562324
-0.0136253784782
-0.000615456542663
-0.000639352017369
-0.000697793006144
-0.000718044111864
-0.000725004500863
-0.000727977076624
-0.000730051817738
-0.000732133904209
-0.000734414880179
-0.00073684711328
-0.000739454692032
-0.000742912564606
-0.00074918538757
-0.00075421556661
-0.000710034386638
-0.000462041183968
-0.000112226574125
-0.00345656988419
-0.0189913123827
-0.0122064541531
-0.0006180058021
-0.000641732493051
-0.000700224891027
-0.000720417142008
-0.000727322559298
-0.00073026838797
-0.00073233370279
-0.000734404716872
-0.000736694451077
-0.000739132649355
-0.000741746768899
-0.000745024453962
-0.000750685002188
-0.000753540632013
-0.000696290035793
-0.000365920769279
0.000326359651759
-0.00180317389683
-0.0122492713552
-0.00690590167686
-0.000620390161776
-0.000644013833169
-0.000702551568564
-0.000722681349007
-0.000729551575938
-0.000732459065854
-0.000734482590347
-0.000736546509282
-0.000738805099817
-0.000741243310251
-0.000743757560358
-0.000746763675372
-0.000751505023493
-0.000751718560178
-0.000682143226622
-0.00028233975165
0.000716846994966
-0.000223085951092
-0.00769282185969
-0.00448713330008
-0.000622630819613
-0.000646188730335
-0.000704772028745
-0.000724865262209
-0.000731639912452
-0.000734515349534
-0.000736523552049
-0.000738548641977
-0.000740778630065
-0.000743146145439
-0.000745533375939
-0.000748073307421
-0.00075133404969
-0.00074727747568
-0.000663408913875
-0.000200226475642
0.00110164851011
0.00114135839208
-0.00672665129457
-0.00609598003694
-0.000624795581011
-0.000648237391917
-0.000706888067219
-0.000726869949299
-0.000733631490019
-0.000736482231649
-0.000738423023429
-0.000740388225886
-0.000742557959854
-0.000744838420957
-0.000747041068517
-0.000749047316526
-0.000750569758088
-0.000741877748403
-0.00064448923826
-0.000113971224011
0.00154904466161
0.00256633903498
-0.00572406123156
-0.00765745856673
-0.00062681802238
-0.000650169434464
-0.000708853218575
-0.000728787640717
-0.0007355022753
-0.000738246177292
-0.00074017787136
-0.00074210617198
-0.000744209678579
-0.000746407690603
-0.000748449884291
-0.000749996213629
-0.000750056797374
-0.000737775273784
-0.0006308152744
-3.41542249364e-05
0.00206494492551
0.00437950150978
-0.00313969078951
-0.00748821991692
-0.000628666635359
-0.000651960632201
-0.000710696590398
-0.000730564906013
-0.000737169210499
-0.000739920317193
-0.000741809206679
-0.000743685830582
-0.000745724358965
-0.000747846942079
-0.000749771245011
-0.000751000565981
-0.000750050294307
-0.000735375503754
-0.000622329030854
3.12014650475e-05
0.00258937331623
0.0066244021391
0.000818268981132
-0.00637444682208
-0.000630487568664
-0.000653678066729
-0.000712382001306
-0.000732184485771
-0.000738756644544
-0.000741462159264
-0.00074331167253
-0.000745140371934
-0.000747117225692
-0.000749164595647
-0.00075100407645
-0.000752040463365
-0.000750456189233
-0.000734229496829
-0.000617193402716
8.0064265962e-05
0.00302647588788
0.00856192985116
0.00374104449996
-0.00602885245763
-0.000632129296553
-0.000655308091079
-0.000714000232313
-0.000733713795765
-0.000740221564987
-0.000742886736397
-0.000744696615694
-0.000746478982985
-0.000748400203763
-0.000750385832829
-0.000752160521088
-0.000753090518851
-0.000751153937328
-0.000733999764416
-0.000614339097142
0.00011232796935
0.00330895691139
0.00991471221184
0.00656741592269
-0.00520053931532
-0.000633730742286
-0.000656839093279
-0.000715509192495
-0.000735125141879
-0.00074156813613
-0.000744194980124
-0.000745973065412
-0.000747717524885
-0.000749591535995
-0.000751528466013
-0.000753265206746
-0.000754157692831
-0.000752079954081
-0.000734588982311
-0.000614552282896
0.000122871099786
0.00342796525099
0.0107465255953
0.0105121936003
-0.00239951178513
-0.000635211185608
-0.000658278899643
-0.000716914007924
-0.000736427407337
-0.000742805201819
-0.000745394476559
-0.000747150217512
-0.000748871061563
-0.000750711112898
-0.000752616946634
-0.000754349246922
-0.000755292478812
-0.000753355780898
-0.00073647671638
-0.000620408930721
0.000104339045035
0.00347831364822
0.0117469857307
0.0135410028353
-0.00106033770953
-0.000636587643096
-0.000659621875897
-0.000718204709643
-0.00073761506418
-0.00074393349195
-0.000746497322688
-0.000748242913772
-0.000749949850158
-0.000751779348437
-0.00075367901574
-0.00075544836537
-0.000756558552817
-0.000755148530442
-0.000740505441152
-0.000636436509632
4.5793435053e-05
0.00352622810816
0.0131072655796
0.0132289270504
-0.00359714798594
-0.000637960596127
-0.000660859995726
-0.000719376023386
-0.000738690331516
-0.00074496175062
-0.000747517395585
-0.000749267988872
-0.000750991054371
-0.000752849146914
-0.000754756598794
-0.000756617969199
-0.000758031457463
-0.000757658657347
-0.000747569633502
-0.000666255040944
-6.47305617042e-05
0.00344997343397
0.0136407103657
0.00900149118419
-0.00776076088073
-0.000639271223392
-0.000661976159167
-0.000720386597785
-0.000739607926117
-0.000745848082451
-0.000748412947119
-0.000750190648335
-0.00075194854329
-0.000753855734349
-0.000755835901756
-0.000757853370745
-0.000759716524518
-0.000760893947032
-0.00075740950135
-0.000708383234088
-0.00023962816823
0.00303979860466
0.0136996219339
0.00765303818294
-0.00988255838888
-0.000640544880096
-0.000663026576478
-0.000721279672445
-0.000740406123423
-0.00074663506
-0.000749231329727
-0.000751064183453
-0.000752894419456
-0.000754892274143
-0.000757016508547
-0.000759272861536
-0.000761730236311
-0.000764881821682
-0.000769119247583
-0.000757588247463
-0.000485622779182
0.00189166584195
0.0103448911901
0.0036360572069
-0.0126945819455
-0.000640281226046
-0.000664472862382
-0.000722421257945
-0.000741251248629
-0.000747366834902
-0.000749979271863
-0.000751872194271
-0.000753809000556
-0.000755922893011
-0.000758233484144
-0.00076082704749
-0.000764034736329
-0.000769463942291
-0.000782018940418
-0.000808920735705
-0.000763120973527
0.000288695837046
0.00461341442304
-0.00204023096189
-0.0132966996241
-0.000639823432187
-0.000665547413042
-0.000723299227876
-0.000741971648455
-0.000748000278077
-0.000750613299058
-0.000752600218729
-0.000754667784063
-0.000756964139387
-0.000759543911845
-0.000762572654551
-0.000766808612166
-0.00077465817362
-0.000796363381739
-0.000859634384831
-0.00101427325047
-0.00117136675288
-0.00139958938512
-0.0133033586622
-0.0166286473834
-0.000639894946102
-0.000666186945339
-0.00072382100546
-0.000742413357999
-0.000748444224473
-0.000751123060356
-0.000753222507811
-0.000755445874972
-0.000757944090019
-0.000760739632002
-0.000763989887939
-0.000768368976427
-0.000777198534166
-0.000802872697393
-0.00088823079955
-0.0011973321038
-0.00180137156752
-0.00434120342472
-0.0239361313319
-0.0288180858407
-0.000640081117835
-0.000666458966248
-0.000724020951038
-0.000742595015604
-0.000748696785523
-0.000751495277194
-0.000753752582946
-0.000756177882675
-0.000758932012676
-0.000762055985519
-0.000765747266932
-0.000770858244307
-0.000781801206148
-0.000815323391107
-0.000924833767546
-0.00122407985955
-0.00199603572416
-0.00464360992614
-0.0231943260459
-0.101766802486
-0.000639993726777
-0.000666450952884
-0.000723946138281
-0.000742545849882
-0.000748759460787
-0.000751713602875
-0.000754167196854
-0.00075684197388
-0.000759895727364
-0.000763388082432
-0.000767589281081
-0.000773788112436
-0.000788690632234
-0.000839161095489
-0.00100455513128
-0.00141066853353
-0.00213466477822
-0.00494856377678
-0.0296247160361
-0.102949202624
-0.000639627533589
-0.000666103537696
-0.000723555697151
-0.000742230959152
-0.000748599434616
-0.000751743748495
-0.00075442818626
-0.000757385505519
-0.000760784326498
-0.000764703813462
-0.000769526397483
-0.000777043081653
-0.000796748378657
-0.000867859562589
-0.0011007526883
-0.0016472570747
-0.00251784848943
-0.00488723897007
-0.0287517463181
-0.350977518992
-0.000638984563269
-0.000665354020033
-0.000722791457114
-0.000741599647283
-0.000748177827924
-0.000751555814886
-0.000754506250996
-0.000757776095425
-0.000761548801008
-0.000765919197645
-0.000771376634187
-0.000780233365915
-0.000804243872177
-0.000891283966607
-0.00117667188717
-0.00185755044565
-0.00300636883574
-0.00520919936408
-0.00690174384373
-0.0225935821925
-0.000638037576656
-0.000664146927923
-0.000721605401984
-0.000740613184082
-0.000747461022501
-0.000751120538878
-0.000754373867593
-0.000757987854867
-0.000762156059688
-0.000766973652262
-0.000772948023532
-0.000782545493996
-0.000808201257687
-0.000899858715119
-0.00120615779157
-0.00198478675295
-0.00344254692754
-0.00655227284835
-0.0136885348154
-0.0307406365467
-0.000636714617315
-0.000662446189585
-0.000719968643189
-0.000739241343883
-0.000746417636191
-0.000750407518269
-0.000754006189654
-0.000758003179611
-0.000762595423973
-0.00076785705619
-0.00077419854155
-0.00078377080963
-0.000808185020143
-0.000895932783782
-0.00120097494382
-0.00202720984202
-0.00365832332921
-0.00680275687762
-0.0199547984297
-0.72385274992
-0.000635003232235
-0.00066026081696
-0.000717863064742
-0.000737456795203
-0.00074501905837
-0.000749389808239
-0.000753380780367
-0.00075780788212
-0.000762878243917
-0.000768664414032
-0.000775559494198
-0.000785757628166
-0.000811354681637
-0.000902787300971
-0.00121741211487
-0.00206707670461
-0.00376184037993
-0.00633613743965
-0.0144963857859
-0.949562441023
-0.000632827110086
-0.000657576035868
-0.00071527978677
-0.000735241000558
-0.000743238999937
-0.000748038042349
-0.000752468173106
-0.00075737076443
-0.000762981536546
-0.000769391956375
-0.000777105133513
-0.000788983363419
-0.000819643072077
-0.000925511354636
-0.00126511690753
-0.00213305349684
-0.00390697962236
-0.0068998074462
-0.0220978869981
-0.519694146732
-0.00063012711928
-0.000654367248158
-0.000712196764809
-0.000732577865076
-0.000741057902055
-0.000746326695351
-0.000751235490584
-0.000756666264003
-0.000762883916911
-0.000769882789365
-0.000778435554928
-0.000791355919488
-0.000824120235672
-0.000933475822845
-0.00127341594965
-0.00213601642219
-0.00401886888107
-0.0078505204069
-0.0188278333057
-0.353017241364
-0.000626874062399
-0.000650667507124
-0.000708639536829
-0.00072944175437
-0.000738447520966
-0.000744212998946
-0.000749659310708
-0.000755695402614
-0.000762450654565
-0.000770202886975
-0.000779042916775
-0.000791124157538
-0.000817480455274
-0.000904645856294
-0.00119789716707
-0.00203304848436
-0.00402222219593
-0.0084504627863
-0.0183445739642
-0.0944697714775
-0.000623127104053
-0.000646533081238
-0.000704585750198
-0.000725893554929
-0.00073534704386
-0.000741721971767
-0.000747751961103
-0.000754304050123
-0.000761916795304
-0.000770335896696
-0.000779917480127
-0.000791540105283
-0.000812455252633
-0.000877797196971
-0.00112166836631
-0.00192706509006
-0.00402209247489
-0.00836912600865
-0.0216121685994
-0.393692440788
-0.000618862509777
-0.000641985487698
-0.000700183951315
-0.000721811056975
-0.000731911066031
-0.000738672974253
-0.000745392747271
-0.000752708250934
-0.000760933622211
-0.000770272216942
-0.000780778489424
-0.00079302190904
-0.000812557604292
-0.00086984970382
-0.00109413667482
-0.001899549032
-0.00410313657497
-0.00863661596996
-0.031580420668
-0.205695315876
-0.000614237201012
-0.000637296302591
-0.000695530498051
-0.000717622593539
-0.000728018450102
-0.000735453622596
-0.000742519140507
-0.000750255737587
-0.000759064453593
-0.000769397222834
-0.000781144877547
-0.000794565564535
-0.000815879302861
-0.000878588078319
-0.00111996636279
-0.00197025490071
-0.00426794320425
-0.00874323661088
-0.0259583883031
0.10309733501
-0.000609260892909
-0.000632436860738
-0.000690701257094
-0.000713087289677
-0.000723871206668
-0.000731343314794
-0.000738330153694
-0.000745704803193
-0.000754250603551
-0.000765591472416
-0.000778695481728
-0.000792994440816
-0.000818038230895
-0.000897214413884
-0.00118472984333
-0.00212316002322
-0.00451303745679
-0.00868644202241
-0.0143623831883
0.393455245071
-0.000604157461919
-0.000627640510757
-0.000685897179683
-0.000708416391834
-0.000719080381497
-0.000725767241887
-0.000730861645241
-0.000735289162012
-0.000740301499224
-0.000752474626945
-0.000766973357862
-0.000781223260772
-0.000813339503034
-0.000924538850574
-0.0012857205621
-0.00235335230886
-0.00483461286868
-0.00853694244674
0.0109603052256
0.314143588013
-0.000599154409779
-0.000623134339466
-0.000681337969033
-0.000703679764923
-0.000713255323921
-0.000716427539203
-0.000713824747363
-0.000706703239333
-0.000697941883736
-0.000709844352032
-0.000729432568421
-0.000749704792162
-0.000796766826377
-0.000958910633349
-0.00143425143557
-0.00268467646526
-0.00528074678863
-0.00936951820511
-0.0139219501538
0.0374743162195
-0.00059442673552
-0.000619138793143
-0.000677250351659
-0.000698947283023
-0.000705539099859
-0.000698985918576
-0.000671858809237
-0.000604874999561
-0.00076138566354
-0.000752820861624
-0.000796296255777
-0.000872098507373
-0.000738993327379
-0.000976269377671
-0.00157864775632
-0.00303608591059
-0.00575533410075
-0.00980615527013
-0.0245971916018
0.159743948335
-0.00059024811626
-0.000615684960267
-0.000673669795398
-0.00069451451063
-0.000698719169186
-0.000686748578478
-0.000646551910034
-0.000693682691342
-0.000977075396326
-0.00106018883587
-0.00182797538188
-0.00349042649407
-0.00619990784597
-0.00930558127564
-0.00358892458023
0.430444851891
-0.00058740184814
-0.000613927689873
-0.00067201072965
-0.000692274864731
-0.000694294984884
-0.000676393357779
-0.000622564418786
-0.000626246320669
-0.000922875266964
-0.00140114206808
-0.00261109219485
-0.0043346683025
-0.00675559944842
-0.00875395523375
0.00775291976137
0.0812714050755
-0.000587560551638
-0.000614029489343
-0.000672065078767
-0.000692268013203
-0.000694232297932
-0.000676265603384
-0.000622319770489
-0.00062607374378
-0.000921754864386
-0.00139320364845
-0.00261613724568
-0.0043341457519
-0.00674413154244
-0.00833067758481
0.0106864217748
-0.120818711604
-0.000590531486484
-0.000615910448459
-0.00067379456291
-0.000694500253687
-0.000698532773536
-0.000686398432398
-0.000646093906179
-0.000693310220407
-0.000976994408642
-0.00105758322392
-0.0018205964833
-0.00346853024941
-0.00617559271186
-0.00905899972717
-0.00859139056818
-0.166673226383
-0.000594840076787
-0.000619504486359
-0.000677470306161
-0.000698934874466
-0.000705252678078
-0.00069841546571
-0.000671219172928
-0.000604513601113
-0.00076058179577
-0.000752560439853
-0.000796719462272
-0.000873597329926
-0.000740558883635
-0.000976875976921
-0.0015745502457
-0.00300848556331
-0.00567627716805
-0.0088450876152
0.0259781837091
0.754664774856
-0.000599358636392
-0.000623294786913
-0.000681369945736
-0.000703533294429
-0.000712909545146
-0.000715879012898
-0.000713131174556
-0.000706227973155
-0.000697293815276
-0.000709404276576
-0.000729372042107
-0.000749975198901
-0.000797219881363
-0.000959251243276
-0.00143363666684
-0.00267834311184
-0.0052650730962
-0.00906261794016
-0.00619294755044
0.0658134575431
-0.000604277747076
-0.000627716842328
-0.00068582164825
-0.000708141472061
-0.000718592178774
-0.000725077521358
-0.000730032562166
-0.000734430300245
-0.000739547492605
-0.000751935465124
-0.000766715051168
-0.000781255988415
-0.0008134819302
-0.000924824900319
-0.00128782582339
-0.00236582078716
-0.00489200017038
-0.00886205626096
-0.0229023998659
-0.590528844584
-0.000609299546406
-0.000632435813306
-0.000690529196275
-0.000712694850539
-0.000723250091835
-0.000730532736051
-0.000737405517824
-0.0007447836219
-0.000753457709732
-0.000765019380392
-0.00077835900736
-0.000792871338313
-0.000818042245206
-0.000897437322638
-0.0011871854152
-0.00213833427081
-0.00458695269627
-0.00877258319513
-0.0244190770873
-0.517375472831
-0.000614215125504
-0.000637246581569
-0.00069529926801
-0.000717152076851
-0.00072741349152
-0.000734559780012
-0.000741542122698
-0.0007493162772
-0.000758277173271
-0.000768842924298
-0.000780815106426
-0.000794435359074
-0.000815914761762
-0.000878833872782
-0.00112160639258
-0.00197778867171
-0.00430599313663
-0.0085859138631
-0.0312552597814
-0.286274461893
-0.000618852725468
-0.000641967282823
-0.000699956807555
-0.000721421600167
-0.000731231307085
-0.000737929118187
-0.000744464987181
-0.000751792930201
-0.000760191170682
-0.000769780167528
-0.000780514605025
-0.000792993324019
-0.000812777337027
-0.000870328041971
-0.00109550299503
-0.00190125710017
-0.00411074663936
-0.00850841806394
-0.00871712537409
1.32318345279
-0.000623088206914
-0.000646459979599
-0.000704364670563
-0.000725408925726
-0.000734715649639
-0.000740888144437
-0.000746853869068
-0.000753546355842
-0.000761214168197
-0.000769898593599
-0.00077963645176
-0.000791528023874
-0.000812726440689
-0.000878389078919
-0.00112332993782
-0.00192951710433
-0.00401946183258
-0.00823586855071
0.00249108603752
0.823616212321
-0.000626847684835
-0.000650617089416
-0.000708413015715
-0.000729029957641
-0.00073783376424
-0.000743484991525
-0.000748890054393
-0.00075495650429
-0.000761920376079
-0.000769831527022
-0.000778917544806
-0.000791291717376
-0.000818048756721
-0.000905501270771
-0.00120009447508
-0.00203807473376
-0.0040385215119
-0.00825976854563
-0.0260745148112
-0.0715234366486
-0.00063014821697
-0.000654365547817
-0.000712051760601
-0.000732250941526
-0.00074055942752
-0.000745708454567
-0.000750579110327
-0.000756057394072
-0.000762406804367
-0.000769667664719
-0.000778327897555
-0.000791620272044
-0.000824740646271
-0.000934427759469
-0.00127554158268
-0.00213974324372
-0.00403985202151
-0.0082380093581
-0.0278139490912
-0.156438940824
-0.000632918344811
-0.000657642116013
-0.000715223401924
-0.000735021281654
-0.000742856000743
-0.000747527967361
-0.000751902294056
-0.000756868638658
-0.000762601954017
-0.000769190675179
-0.000777076150532
-0.000789279044262
-0.000820276682471
-0.000926326351493
-0.00126661698482
-0.00213380245092
-0.00393027492429
-0.00758342456544
-0.0238278448765
-0.111037694841
-0.000635150564261
-0.000660381966216
-0.000717882708291
-0.000737333115218
-0.000744744596171
-0.000748991733584
-0.000752906270189
-0.000757354852876
-0.000762518686137
-0.000768460876
-0.000775510259896
-0.000785985592306
-0.000811847981785
-0.00090333654466
-0.00121809487111
-0.0020655331968
-0.00377791320559
-0.00719610690136
-0.0264196157287
-0.138851718207
-0.00063692590403
-0.000662618717748
-0.000720028268033
-0.00073912555164
-0.000746106479982
-0.000749905767508
-0.000753402194074
-0.000757396590143
-0.000762064680274
-0.000767653703787
-0.000774057616236
-0.000783886600536
-0.000808503266625
-0.00089618487726
-0.00120100320525
-0.00202452022301
-0.0036599848935
-0.00741383491423
-0.0360583463303
-0.210025702943
-0.00063814940123
-0.000664242582117
-0.000721650246377
-0.000740584177822
-0.000747352128868
-0.000750937792778
-0.00075414052918
-0.000757714734886
-0.000761720510829
-0.000766664819719
-0.000772787800056
-0.00078254440898
-0.000808302169045
-0.000899844196868
-0.001205759083
-0.00198189464752
-0.0034430579391
-0.00712093484654
-0.0336912512117
-0.194793665567
-0.000639059537135
-0.000665409560259
-0.000722814606328
-0.000741575668596
-0.000748101998627
-0.000751431829942
-0.000754345204986
-0.000757583744487
-0.000761342391734
-0.000765723814606
-0.000771191838899
-0.000780206672776
-0.000804420730608
-0.000891178804107
-0.00117607992179
-0.00185548774703
-0.00301832986779
-0.0056352126237
-0.0156898639905
-0.736047959599
-0.000639667066304
-0.000666119494038
-0.000723552361212
-0.000742200556652
-0.000748538336386
-0.000751652752829
-0.000754312510233
-0.000757245228487
-0.000760625308188
-0.000764544188494
-0.00076935810342
-0.000776954643422
-0.000796659648709
-0.000867788528247
-0.0011001728741
-0.00164786204426
-0.00256340656916
-0.00563685342344
-0.0280179813709
-0.103692208562
-0.000640002598166
-0.000666433490969
-0.000723920274343
-0.000742508132666
-0.000748707196048
-0.000751646212366
-0.000754086205283
-0.000756745476274
-0.00075978444315
-0.000763275770504
-0.00076746377523
-0.000773719770403
-0.000788602828839
-0.00083889672632
-0.0010040263133
-0.00141314741673
-0.00217289212386
-0.00520296596668
-0.0319142880716
-0.100469296683
-0.000640066888203
-0.000666416232945
-0.000723977780273
-0.000742553061057
-0.00074865366074
-0.000751449397939
-0.000753703767215
-0.000756123199635
-0.000758870360027
-0.000761997201876
-0.000765677882543
-0.000770833183174
-0.000781750199426
-0.000815067298341
-0.000923981677051
-0.00122292507869
-0.00198414107863
-0.00453222492686
-0.0222467685005
-0.100273255993
-0.000639868192905
-0.000666132504084
-0.000723772106101
-0.000742373965626
-0.000748412790241
-0.000751098084067
-0.000753203396245
-0.000755430895499
-0.000757930386569
-0.000760738077521
-0.000763982856058
-0.000768431897092
-0.000777267222509
-0.000802820051554
-0.000889703210655
-0.00120036042055
-0.0016902202393
-0.00345285148799
-0.020566639251
-0.0253465331879
-0.000639797286401
-0.000665491008259
-0.000723253434392
-0.000741939185119
-0.000747982306972
-0.000750609578892
-0.000752608392298
-0.000754688403184
-0.000756994710008
-0.000759605045173
-0.000762640991353
-0.000766825576275
-0.000774562927893
-0.00079548997578
-0.00085545436392
-0.000990457456798
-0.000996850846045
-0.000434550280461
-0.0110294473598
-0.0161117715316
-0.000640273121533
-0.00066441780297
-0.000722383137553
-0.000741226102209
-0.00074736140571
-0.000749987837438
-0.000751902115189
-0.000753854401387
-0.000755986496945
-0.000758321559384
-0.000760925000857
-0.000764169821662
-0.000769476310612
-0.000781335333504
-0.000805199492731
-0.000742705060093
0.000409404239739
0.00513198097024
-0.000550254468515
-0.0131718814349
-0.000640519340217
-0.000662992651197
-0.000721255861107
-0.000740397614787
-0.000746643658198
-0.000749258272766
-0.000751110687033
-0.000752960279078
-0.000754963511342
-0.000757124101132
-0.000759423272263
-0.000761935641652
-0.000765037595564
-0.000768850207455
-0.000755585953525
-0.000475758782549
0.0019522735185
0.0110842437184
0.00798716373841
-0.00992596399905
-0.000639259483035
-0.000661953478942
-0.000720372661753
-0.000739608781443
-0.000745867119662
-0.000748450510841
-0.00075025003268
-0.000752032752611
-0.000753953635369
-0.00075599589934
-0.000758069831558
-0.000759997955791
-0.000761245534519
-0.000757914302245
-0.000710055342617
-0.000243443327761
0.00312404648946
0.0148303870381
0.0108599896206
-0.00827518191756
-0.000637948187482
-0.000660833634903
-0.000719356028644
-0.000738683353013
-0.000744971496536
-0.000747546039357
-0.000749317845125
-0.000751064667669
-0.000752941819594
-0.000754917146147
-0.000756842580826
-0.000758347529132
-0.000758176763955
-0.000749010208065
-0.000672601692301
-8.2016863677e-05
0.00354879194341
0.0142936600265
0.00753884210994
-0.00993482954679
-0.000636580201558
-0.000659607764685
-0.000718198688095
-0.000737623386689
-0.00074396122872
-0.000746548735991
-0.000748318065909
-0.000750056344509
-0.000751922567961
-0.000753872460847
-0.000755711490881
-0.000756936932429
-0.000755837163293
-0.000742610270753
-0.000645541476627
1.85588673e-05
0.00356105782333
0.0132768671503
0.0110039982792
-0.00540553415011
-0.000635227163828
-0.00065828915502
-0.00071693009508
-0.000736452710216
-0.000742843161619
-0.000745449088839
-0.000747224513858
-0.000748967665
-0.000750837896148
-0.00075278295418
-0.000754571428512
-0.000755621218317
-0.000753981599089
-0.000738357257015
-0.000628693617449
6.82939879341e-05
0.00335227652351
0.0111949488152
0.0118283933562
-0.00218767528363
-0.00063375963328
-0.000656863243529
-0.000715537721507
-0.000735160821001
-0.000741614374998
-0.000744254666673
-0.000746050296668
-0.000747815185596
-0.000749712765433
-0.000751680240825
-0.000753461750274
-0.000754442381262
-0.000752581686935
-0.000735781430238
-0.000619480413937
8.86565199801e-05
0.00317468945333
0.00945045916026
0.00772112013694
-0.00375029022922
-0.000632168498941
-0.000655340018353
-0.000714034842633
-0.000733753346818
-0.000740270185603
-0.000742947644983
-0.000744772532066
-0.00074657111607
-0.000748510021951
-0.000750516894482
-0.000752321424467
-0.000753307265447
-0.000751427087632
-0.000734013642938
-0.000613865484338
8.67409421974e-05
0.0029599533378
0.00820714078978
0.00477879016043
-0.0047183798655
-0.000630527642408
-0.000653709297126
-0.000712416014015
-0.000732222706375
-0.000738802444453
-0.000741519885637
-0.000743381847373
-0.00074522321525
-0.000747212304369
-0.000749273526454
-0.000751130728745
-0.000752179010448
-0.000750455056566