/*--------------------------------*- C++ -*----------------------------------*\
| =========                 |                                                 |
| \\      /  F ield         | OpenFOAM: The Open Source CFD Toolbox           |
|  \\    /   O peration     | Version:  v2012                                 |
|   \\  /    A nd           | Website:  www.openfoam.com                      |
|    \\/     M anipulation  |                                                 |
\*---------------------------------------------------------------------------*/
FoamFile
{
    version     2.0;
    format      ascii;
    class       volScalarField;
    location    "3.4";
    object      epsilon;
}
// * * * * * * * * * * * * * * * * * * * * * * * * * * * * * * * * * * * * * //

dimensions      [0 2 -3 0 0 0 0];


internalField   nonuniform List<scalar> 
1984
(
0.0011596853515
0.00129933132061
0.00139026219763
0.00142559001459
0.00144291870359
0.0014548753303
0.00146546862678
0.00147597120846
0.00148698060175
0.00149947879547
0.00151637086857
0.00154518997535
0.00160287127902
0.00172161025859
0.00197392486804
0.00263792958176
0.00523916210186
0.0178624239302
0.0699183431788
0.216111042312
0.00130482194359
0.00133432717359
0.00144931980937
0.00149286870832
0.00151223896576
0.0015240167171
0.00153366979999
0.00154303830866
0.0015529615705
0.00156475592752
0.00158207947504
0.0016136478419
0.00167841411367
0.0018135769292
0.00210778215411
0.00287711651306
0.00549726599539
0.0162473495979
0.0577181597069
0.168683676851
0.00140118797803
0.00145739092232
0.00159143548869
0.0016418809523
0.00166344911506
0.0016759013934
0.0016859095936
0.00169561859131
0.00170603001807
0.00171873985671
0.00173789684943
0.00177342848164
0.00184633009543
0.00199840983341
0.00233143530754
0.0031950626436
0.00596363492004
0.0165183672617
0.0579200782788
0.168888413368
0.00143971976188
0.00150604080174
0.00164794386278
0.00170114855103
0.00172333979248
0.00173576262842
0.00174563421986
0.00175527157659
0.00176574609345
0.00177871305089
0.00179845013302
0.00183515493271
0.00191019326417
0.00206606581867
0.00240798057583
0.003305398419
0.00620103353906
0.016790713822
0.0563132708699
0.167465170867
0.00145815765399
0.00152777597397
0.00167281864581
0.00172693889447
0.00174907941589
0.00176117360006
0.00177070099884
0.0017800780972
0.00179039119372
0.00180327710386
0.00182295375406
0.00185948224132
0.0019338017909
0.00208760025515
0.00242642689713
0.00334189839218
0.00641908350845
0.0173457834702
0.0536715643777
0.164751110481
0.00146982903076
0.00154005553854
0.00168637924401
0.00174066930817
0.00176249923897
0.00177415238713
0.0017832598141
0.00179228508455
0.00180230748001
0.00181492446577
0.00183422413479
0.00187000193443
0.00194262371811
0.00209267860612
0.00242520452978
0.00335317601861
0.00662420854404
0.0181836918897
0.0537137757063
0.163635410378
0.00147922588167
0.00154917847572
0.00169608380601
0.0017502768161
0.00177172355208
0.00178291861052
0.00179159479115
0.00180023142602
0.00180990642837
0.00182216590347
0.00184097825128
0.00187585749814
0.00194674171927
0.00209356075013
0.00242223936085
0.00335988043159
0.00675134501656
0.0186042551279
0.0524583862003
0.159908000207
0.00148793150238
0.00155722212454
0.00170451948724
0.00175856361437
0.00177964287863
0.00179041293766
0.00179866819961
0.00180692238168
0.00181624273276
0.00182811514734
0.00184637577951
0.00188031579834
0.00194963309148
0.00209448953207
0.00242290006275
0.00337484133088
0.00683530382785
0.0186948800485
0.0500828485545
0.13951545596
0.00149630092119
0.00156490175338
0.00171254754443
0.00176645755042
0.00178720916558
0.0017976050429
0.00180548295828
0.00181337619653
0.00182234046515
0.00183382018062
0.0018515379709
0.00188455687609
0.00195232996312
0.0020951815223
0.00242337605869
0.00338572050223
0.00687896010863
0.0186153828377
0.0482244217846
0.130338821278
0.00150446478906
0.00157242844311
0.00172041974198
0.00177423021636
0.00179470092484
0.00180476173344
0.00181230920124
0.00181987538766
0.00182851460037
0.00183961290523
0.00185677048674
0.00188886085737
0.0019551216816
0.00209586395348
0.00242179846568
0.00338096741869
0.00684425905115
0.0182276718854
0.0458545579195
0.123639414854
0.00151247412008
0.0015797969509
0.00172817607604
0.00178192849741
0.00180216730993
0.00181193984702
0.00181919037057
0.00182646698306
0.00183480185494
0.00184554307202
0.00186216059404
0.00189334534965
0.0019582414211
0.00209761148547
0.00242323201246
0.00337560038558
0.00675330573483
0.0178622395445
0.0471322063489
0.144839037493
0.00152029133974
0.00158702243824
0.00173581016642
0.00178953632676
0.00180958396797
0.00181911250547
0.00182610408112
0.00183311858708
0.00184118104639
0.00185157784357
0.00186767154973
0.00189797365931
0.00196171561075
0.00210141183323
0.00243663408367
0.00342695803055
0.00688223074939
0.0183937280631
0.0515652085875
0.158793226972
0.00152779554932
0.00159407448987
0.00174329738838
0.00179702588566
0.00181691340308
0.00182623385808
0.00183300486627
0.00183978879088
0.00184759696355
0.00185767082409
0.00187324104683
0.00190261709257
0.00196497164815
0.00210388809685
0.00244379628846
0.00345603475197
0.00698720600942
0.0190286140464
0.0543738394967
0.162126412082
0.00153507090813
0.00160094405002
0.00175060900118
0.00180436010096
0.0018241172136
0.00183325914069
0.00183983906263
0.00184642464769
0.00185400608469
0.00186377441452
0.00187882368538
0.00190720203746
0.0019677424863
0.0021037423851
0.00243904063779
0.00344307888603
0.00699376636191
0.0193982734325
0.0558833303063
0.163130563143
0.00154208577242
0.00160756372434
0.00175770262217
0.0018115073347
0.00183115954799
0.00184014935482
0.00184656214774
0.00185297493812
0.0018603593922
0.00186984812144
0.00188439323423
0.00191173253009
0.00197006585223
0.0021008931073
0.00242195853684
0.00339194377931
0.0069218407194
0.019367591089
0.0554639437545
0.162888956342
0.00154874546093
0.00161393196271
0.00176455040353
0.0018184323439
0.00183800416493
0.0018468684545
0.00185314211519
0.00185940548019
0.00186661844837
0.00187585696058
0.00188993853106
0.00191635302656
0.00197292883372
0.0021006325232
0.00241600811664
0.00337712547099
0.00689699891417
0.0192194249133
0.0550659565599
0.16270095237
0.00155504539071
0.00162002847208
0.00177112938761
0.00182509924842
0.00184461861045
0.00185338602523
0.0018595466084
0.00186568337464
0.00187275145559
0.00188176749344
0.00189542861656
0.00192103095398
0.00197634487348
0.00210325835713
0.00242170727623
0.0033933115215
0.00690603799697
0.0191970475725
0.0557101776675
0.163239528937
0.0015610489233
0.00162580564147
0.00177740582373
0.00183148964043
0.00185097783215
0.00185966985606
0.00186574862621
0.00187178932204
0.00187872371237
0.00188751998679
0.00190074787047
0.00192545282201
0.00197922180579
0.00210455771351
0.00242309397135
0.00339323680782
0.00688807830854
0.0193094490977
0.0569071584233
0.164222235766
0.00156660016245
0.0016312426009
0.00178335759273
0.00183757954351
0.00185706295139
0.00186570811069
0.00187172444761
0.0018776882587
0.00188451343277
0.00189311222827
0.00190589114784
0.00192955648844
0.00198115128131
0.0021027088891
0.00241431530292
0.0033650310935
0.0068312545703
0.0194927558013
0.0582481471092
0.1653383318
0.00157171284429
0.0016363474427
0.00178897240807
0.00184334809224
0.00186284901111
0.00187146938567
0.00187744140625
0.00188334885628
0.00189008967251
0.00189852352296
0.00191086676357
0.00193341805925
0.00198247656844
0.00209898326174
0.00240030085412
0.00332503659876
0.00675009354178
0.0196027757288
0.0593590786076
0.166305951361
0.00157645210892
0.00164107653366
0.00179421978392
0.00184876952791
0.0018683088518
0.00187692156669
0.00188287438132
0.00188875296913
0.00189543763932
0.00190372929568
0.00191567948779
0.00193716063992
0.0019836990685
0.00209510783491
0.0023865443074
0.00328937422525
0.00668224669768
0.0197172353379
0.0604169970149
0.167140318553
0.00158061341549
0.00164541455314
0.00179908324222
0.00185382222218
0.00187341888349
0.0018820490573
0.0018880051654
0.00189388316762
0.00190054506639
0.00190873221062
0.00192033407559
0.00194083600461
0.00198505547588
0.00209183340485
0.00237478441345
0.00326085593217
0.00663472912749
0.0197566528898
0.0609076712741
0.167466131258
0.00158431765212
0.00164932751597
0.00180352946287
0.00185847286788
0.00187814706623
0.00188682090818
0.00189281028335
0.00189871981395
0.00190539535332
0.00191352125974
0.00192482964165
0.00194444508701
0.0019865554615
0.0020892775399
0.00236549025936
0.00324022092319
0.00659130658092
0.0196349750319
0.060504802406
0.167076079758
0.00158743589074
0.00165278096754
0.00180752644384
0.00186269430826
0.0018824662767
0.00189120140183
0.00189725643754
0.0019032331761
0.00190996319278
0.00191807767778
0.00192915756603
0.0019479841284
0.00198816427627
0.00208719139589
0.00235745568769
0.00321855884312
0.00651011071318
0.0193257246877
0.059959274
0.16681195143
0.00158990814162
0.0016557346427
0.00181103357723
0.00186645175146
0.00188634864243
0.00189517353454
0.00190132121181
0.00190739671343
0.00191422302967
0.00192237986153
0.00193330541455
0.00195144711735
0.00198981812765
0.00208516205652
0.00234785762785
0.00318136523081
0.00634599080767
0.0189307531238
0.0602909099329
0.167483883674
0.00159180672638
0.00165814706513
0.00181399934371
0.00186969891625
0.00188975475104
0.00189870334294
0.00190497582053
0.00191118878805
0.00191815654094
0.00192640809437
0.00193725204142
0.00195480793281
0.00199147878249
0.00208291455086
0.00233496488114
0.0031207126035
0.00610087067424
0.0186396726885
0.0615918103269
0.168792030647
0.00159305172454
0.00165998197628
0.00181637566227
0.00187238662949
0.00189263925013
0.00190174771675
0.00190818152082
0.00191457336338
0.00192173057375
0.00193014016622
0.00194098664983
0.00195807519982
0.00199321248383
0.00208103980581
0.00232268602562
0.00305592153184
0.00579943233256
0.0179541791827
0.0612761473144
0.168863204527
0.00159366014051
0.00166122883082
0.0018181259926
0.00187446947665
0.00189495984049
0.00190426907401
0.00191090533305
0.00191752027248
0.00192491847994
0.0019335558242
0.00194450055158
0.00196126584888
0.00199510898595
0.00208008810398
0.00231630100732
0.00302521666782
0.0056179853623
0.017208563356
0.0595191122687
0.167935788129
0.00159370215617
0.00166179045912
0.00181916124401
0.00187587904226
0.00189666160945
0.00190622023448
0.00191310340568
0.00191998828576
0.00192767916643
0.00193661496622
0.00194775772183
0.00196434328006
0.00199708431842
0.0020797211755
0.0023153229233
0.00303538158148
0.00561230008062
0.0166221225309
0.0565389773445
0.16640624524
0.00159314413553
0.00166154023548
0.00181938321548
0.00187653972219
0.00189768609922
0.00190755355596
0.00191473343332
0.00192193663898
0.00192997744876
0.0019392809665
0.00195072320275
0.00196729886568
0.00199923630763
0.00207988882781
0.00231568225136
0.00305883465687
0.00569015720479
0.0161676382015
0.052870859461
0.164054613569
0.00159217935972
0.00166038897324
0.00181867632488
0.00187636327959
0.00189796812345
0.00190821569741
0.00191575089926
0.00192332321738
0.00193177741229
0.00194152141947
0.00195338592558
0.00197024222845
0.00200217888613
0.00208294887202
0.00232126297497
0.00307345919631
0.00566987804945
0.0153324501505
0.0475819859609
0.156512479872
0.00159079099772
0.00165830070344
0.00181697674081
0.00187526655989
0.00189743480233
0.00190814863746
0.00191610554005
0.00192410706002
0.00193303589251
0.00194330578284
0.00195574137543
0.00197330469693
0.00200680749883
0.00209286259112
0.00234501547951
0.00310117239864
0.00551280323438
0.0138052121699
0.0380665416422
0.0847946064976
0.00158863257628
0.00165525867055
0.00181427234939
0.00187323089586
0.00189604793778
0.00190730607697
0.00191575250906
0.00192425421619
0.00193372453431
0.00194460922165
0.00195778563171
0.00197661562139
0.00201387634848
0.00211304701632
0.00239818102658
0.00317570986597
0.00534966106307
0.0122540199834
0.0312949496712
0.064491403793
0.00158554811831
0.00165122538834
0.00181053106882
0.00187021305349
0.00189375405682
0.00190562778549
0.00191463313247
0.00192370523394
0.00193379753336
0.00194540047521
0.00195951871954
0.00198017170568
0.00202311495425
0.00214183793804
0.00247577112002
0.00330137963249
0.00529218997709
0.0111859534516
0.0305742560002
0.095507839083
0.00158147121349
0.00164616532437
0.00180570095103
0.00186614705031
0.00189048645087
0.00190305413658
0.00191269363043
0.00192240730878
0.00193319857338
0.00194560603373
0.00196080242342
0.00198355788591
0.00203257299685
0.00217047605056
0.00255226882091
0.00344257678946
0.00536239399935
0.0106216699053
0.0301861266891
0.140854548626
0.00157634293862
0.00164001615609
0.0017997203774
0.00186097108051
0.00188618422534
0.00189952921585
0.00190988014433
0.00192030650092
0.00193186612499
0.0019451346701
0.00196138661669
0.00198584055867
0.00203882142894
0.00218762770067
0.00259821519968
0.00354555943668
0.00549596805922
0.0106575559331
0.0316987376757
0.14639793462
0.00157008763904
0.00163271964651
0.00179254206579
0.00185463479953
0.00188079474663
0.00189499990229
0.00190614258264
0.00191735951005
0.00192975485141
0.00194391686296
0.00196109272904
0.0019864393784
0.00204019405796
0.00218984588466
0.00260547965898
0.00357663728677
0.00554232588616
0.0104650888721
0.030601449998
0.127674721604
0.00156267772378
0.00162431616138
0.00178415521387
0.00184710282754
0.00187427216048
0.00188941727812
0.0019014379045
0.00191353372175
0.00192684753487
0.00194196935192
0.00196011159445
0.00198634642683
0.0020408020463
0.00219051558742
0.00260406734656
0.00356835372703
0.00548027231493
0.00991775133018
0.0279924367372
0.128564070745
0.00155404563733
0.00161480612515
0.00177456728903
0.00183836045096
0.00186658570338
0.00188274699635
0.00189573858328
0.00190881288361
0.00192315295213
0.0019393565408
0.00195868296558
0.00198648341234
0.0020438703908
0.0021990243988
0.00261609493695
0.00356680182574
0.00543387675987
0.00955944386943
0.0250198855303
0.107443315007
0.00154414711989
0.00160418285923
0.00176378110013
0.00182841002533
0.00185772417152
0.00187497204465
0.00188903094903
0.00190319604927
0.0019186804489
0.00193605721031
0.00195661744207
0.00198572044463
0.00204459379824
0.00220023591108
0.00261100488531
0.00354627528964
0.00543516575076
0.00955150636953
0.0223055052951
0.0818961807052
0.00153299179365
0.00159251946977
0.00175188410751
0.00181729798313
0.00184770776943
0.0018661018006
0.00188131730058
0.00189669496936
0.00191343076232
0.00193207216052
0.0019535900703
0.00198238373702
0.00203642994005
0.00217505862814
0.00255010254003
0.00345919660302
0.00542306206144
0.00975651069342
0.0212788784994
0.0625572517459
0.00152068216076
0.0015799729339
0.00173901168138
0.00180512866042
0.00183660915399
0.00185615897352
0.00187261654537
0.00188932614278
0.00190751088314
0.00192757021881
0.00195012144696
0.00197826269506
0.00202575016816
0.00214207963765
0.00247171507946
0.00335082651476
0.00540990473985
0.0100991154185
0.0237700507551
0.0794736179013
0.0015073391687
0.0015667744491
0.00172535144928
0.00179206404364
0.00182449793821
0.00184519009868
0.00186290423923
0.00188102702675
0.00190079488069
0.00192252906192
0.00194646473274
0.00197481489648
0.00201872522116
0.00212150094017
0.00242397027917
0.00329490516502
0.00545960144524
0.010584213044
0.027567026105
0.0992461147162
0.0014931676818
0.00155319140712
0.00171121624105
0.00177831263994
0.00181152482361
0.00183311613227
0.00185184681028
0.00187114299573
0.00189239629899
0.00191592456131
0.00194152224293
0.00197094863479
0.00201547648641
0.00211893179605
0.00242662149972
0.00332833306272
0.00558405130388
0.0108219631205
0.0274998271961
0.115636609017
0.00147853686331
0.00153969623397
0.00169705119421
0.00176423115301
0.00179773535635
0.00181948916871
0.00183805617188
0.00185695987041
0.00187836131618
0.00190323224255
0.00193041333404
0.0019610394262
0.00201017680347
0.00212946996639
0.00247512040335
0.00344902177159
0.00579076606252
0.0108973969178
0.0258925613988
0.122752072002
0.00146393797721
0.00152683369846
0.00168338175378
0.00175014976358
0.00178291467068
0.00180264228315
0.00181677661958
0.00182869023308
0.00184488193965
0.00186920772945
0.00189782593108
0.00192932975545
0.00198876730679
0.00214339744811
0.00256299346593
0.00365507415593
0.00608979263007
0.0110118416945
0.0250199992761
0.134700393616
0.00144997764154
0.00151524923783
0.00167079381341
0.0017363091076
0.00176613932859
0.00177814956786
0.0017744769424
0.00175018002523
0.00174767920009
0.00176655331888
0.00179921649637
0.00183745154199
0.00192152877891
0.00213834505694
0.00268162816932
0.00395884638151
0.00652579372351
0.0114119069928
0.0249773006982
0.0906013833626
0.00143728429157
0.00150560642084
0.00165997120665
0.00172317267369
0.00174680170775
0.00174163594975
0.00169184738088
0.00155401337685
0.00188131637138
0.00185868365608
0.00190644245041
0.00197749144837
0.00171118989257
0.00208505121525
0.00283684771777
0.0043751106468
0.00711507355871
0.0120001937089
0.0268489864474
0.089387203381
0.0014264618547
0.00149772174237
0.00165113847743
0.00171175005068
0.00172861014543
0.00170619014283
0.00161216554596
0.0016884470037
0.00220531327473
0.00238131960643
0.00341007570354
0.00518396500495
0.00793943501576
0.0125960778407
0.0292456656298
0.142347198343
0.00141918496559
0.00149343313137
0.00164656243833
0.00170566125268
0.0017182703055
0.00168493955584
0.00156590304974
0.00156069416947
0.0024360048687
0.00297008058882
0.00437391571213
0.00630115884236
0.00881922203517
0.0128337444751
0.0283741402137
0.147713286001
0.00141916740611
0.00149341969944
0.00164655129243
0.00170565501014
0.00171826998511
0.00168494236105
0.00156591894884
0.00156072545908
0.00243720126633
0.00297144108643
0.00437500247888
0.00630182357265
0.00881409927809
0.0127983570386
0.029193309148
0.156530291552
0.00142643497319
0.00149769048785
0.00165111345415
0.00171173434831
0.00172860643296
0.00170620425943
0.00161220743103
0.00168850929414
0.00220550445937
0.00238289374645
0.00341325119998
0.00518972328962
0.00793582344059
0.0123033350185
0.026115212276
0.130889117396
0.001437248744
0.00150555864263
0.00165993274033
0.00172314880711
0.0017467985926
0.00174166003106
0.00169186881644
0.00155401922877
0.00188145197991
0.00185879805237
0.00190649745269
0.00197753740363
0.00171152755489
0.00208587613547
0.00283906442346
0.00438155810054
0.00712327676746
0.0117555096784
0.0251261301973
0.146369068884
0.00144997020017
0.00151523599042
0.00167078881042
0.00173631599025
0.00176616023493
0.00177818783246
0.00177452923886
0.00175019330055
0.00174774654758
0.00176662467065
0.0017992906
0.00183756200447
0.00192171082801
0.00213877012231
0.00268265941196
0.00396099358342
0.00652571461824
0.0113033213979
0.0242775975727
0.106475409162
0.00146394003949
0.00152682825912
0.00168338876825
0.00175017129718
0.00178295020252
0.00180269292534
0.00181684088118
0.00182876217459
0.00184495672191
0.00186927614417
0.00189789580502
0.00192943697755
0.00198894752575
0.00214363967881
0.00256309071228
0.00365303843388
0.00608016453909
0.0110759387714
0.0263370035266
0.105802667392
0.00147854673927
0.00153969360394
0.00169706513482
0.00176426175909
0.00179777763827
0.00181954574068
0.00183812106966
0.0018570258025
0.00187841973008
0.00190327777747
0.00193045329375
0.00196110232977
0.00201027925793
0.00212955497821
0.00247475373401
0.00344574977809
0.00577648144126
0.0109062511946
0.0272468460918
0.117119201523
0.00149318722088
0.00155319072406
0.0017112348395
0.0017783462983
0.00181156430526
0.00183316571288
0.00185190349008
0.00187119465132
0.00189243170924
0.00191594107745
0.00194152789691
0.00197096135087
0.00201549925554
0.00211890523307
0.00242613185988
0.00332552208269
0.00556934802915
0.0107058406731
0.0273191291355
0.130386387255
0.00150736973665
0.00156678006559
0.00172537766145
0.00179209650282
0.00182454756808
0.00184523495438
0.00186295011006
0.00188106229553
0.00190080849762
0.00192251883732
0.00194643622398
0.00197478127613
0.00201868941887
0.00212143391758
0.0024235468302
0.00329279900456
0.00544358878397
0.0103097498681
0.0241404321403
0.132290449366
0.00152073371775
0.00158000869082
0.00173905455545
0.00180518822533
0.00183666379193
0.00185621761336
0.00187266633619
0.00188935573239
0.00190749954587
0.00192752749905
0.00195004783825
0.00197817967417
0.00202566611171
0.00214199904643
0.0024714212873
0.0033496172339
0.00540313796432
0.0100390956103
0.0235576829754
0.122601485871
0.00153305344101
0.00159256630505
0.0017519439654
0.00181736602297
0.00184778391628
0.0018661700678
0.00188137560686
0.00189672709062
0.00191343762088
0.00193204050053
0.00195352893621
0.00198231614271
0.00203635146074
0.0021749675269
0.00254986196912
0.00345857350589
0.0054210098832
0.00981608354752
0.0235663872388
0.091756829799
0.00154421627846
0.00160424011859
0.00176385183169
0.00182849178125
0.00185781209593
0.00187505941355
0.00188910759274
0.00190325298465
0.00191870301376
0.00193605892862
0.00195658680923
0.00198567946426
0.00204452426858
0.00220013290276
0.00261079168291
0.00354623446883
0.00543583901574
0.00955297122029
0.0221238738566
0.0693565768589
0.00155412088886
0.00161487229655
0.00177464786934
0.00183845417404
0.00186668823141
0.00188285192831
0.00189583802277
0.00190889912849
0.00192321870706
0.00193939809115
0.00195871113543
0.0019864911055
0.0020438519345
0.00219897526685
0.00261599263883
0.0035670267145
0.00543049721834
0.00937849443817
0.0208986590264
0.0624983949642
0.00156275614415
0.00162439341996
0.0017842461332
0.00184720740765
0.0018743871654
0.00188953732918
0.00190155657328
0.00191364684908
0.00192695185125
0.00194205379575
0.00196018483024
0.00198640094421
0.00204083645932
0.00219052548912
0.00260403284705
0.0035686355136
0.00547748690635
0.00973586028867
0.0231215697449
0.0691510976766
0.00157016523028
0.00163280278217
0.0017926377527
0.00185474426261
0.00188091625211
0.00189512983497
0.00190627518717
0.00191749174774
0.00192988782223
0.00194403144391
0.00196119779465
0.00198652828091
0.00204026690622
0.00218987478133
0.00260542039645
0.00357691626639
0.00554462824994
0.0104150803609
0.0282225527821
0.0897141087306
0.00157640781591
0.00164007757122
0.0017997972217
0.00186106230279
0.00188628810245
0.00189964376893
0.00191000444146
0.00192044099382
0.0019320076907
0.00194526812456
0.00196151080628
0.00198595099523
0.00203891306463
0.00218765547119
0.00259816778627
0.00354618559108
0.00550363840547
0.0106684305942
0.0298706071314
0.0958614977011
0.00158153058977
0.00164621728123
0.00180576935328
0.00186623083508
0.0018905838649
0.00190316346832
0.00191281442626
0.00192254097213
0.0019333433942
0.00194575555278
0.00196095337165
0.00198369067989
0.00203267829543
0.002170527638
0.00255234337757
0.00344400367015
0.00537663348972
0.0106756386506
0.0292816209625
0.10869712505
0.00158560479703
0.00165127100989
0.00181059407012
0.00187029246238
0.00189384704478
0.00190573285517
0.00191474985031
0.00192383465326
0.00193394150513
0.00194555360666
0.00195967804069
0.00198032515891
0.00202324865547
0.00214193175783
0.00247587735167
0.00330284673323
0.0053061535539
0.0111953657795
0.0284382254615
0.0709748018153
0.0015886893286
0.00165530454355
0.0018143353014
0.00187330856134
0.00189613745202
0.00190740687797
0.00191586500475
0.00192437984594
0.00193386554994
0.00194476027488
0.00195794524601
0.00197677469148
0.00201402622621
0.00211314640856
0.00239805269191
0.00317457165919
0.00534386851491
0.0122328778604
0.0311058290493
0.0631386784801
0.00159084968844
0.00165834984598
0.00181703979667
0.00187534269376
0.00189752143544
0.00190824563675
0.00191621389338
0.00192422977832
0.00193317279505
0.00194345387417
0.00195589909869
0.0019734674664
0.00200697056644
0.00209296548233
0.00234453273051
0.00309514699655
0.00546600320501
0.0136027881266
0.0376528098039
0.0840874901484
0.00159224230081
0.00166044436645
0.00181874235012
0.00187643901855
0.00189805273999
0.00190830940108
0.00191585524076
0.00192344204765
0.00193190951469
0.00194166918893
0.00195354464602
0.00197041554949
0.00200236980113
0.00208312686893
0.00232092106567
0.00306526074011
0.00559796093783
0.0150139293557
0.0468218562092
0.156205533732
0.00159321316133
0.00166159871075
0.00181945005564
0.00187661427643
0.0018977689372
0.0019076450685
0.00191483531668
0.00192205104375
0.00193010652591
0.00193942914282
0.00195088692436
0.00196748835254
0.00199947090103
0.00208021399413
0.00231582340524
0.00305157216677
0.00561612031652
0.0158090675189
0.0522535610288
0.163718754652
0.00159377244309
0.00166184715675
0.00181922643266
0.00187595195815
0.00189674261919
0.00190631006864
0.00191320376606
0.00192010024396
0.00192780790717
0.0019367648246
0.00194792986769
0.00196454968892
0.00199736121202
0.002080156098
0.00231579503353
0.00303109349012
0.00555946965046
0.0162981117919
0.0558275676663
0.166152707053
0.00159372681995
0.00166128095995
0.00181818771141
0.00187454028745
0.00189503908807
0.00190435724992
0.00191100414231
0.00191763219326
0.00192504714521
0.0019337098639
0.00194468284304
0.00196148854004
0.00199541336855
0.00208059356165
0.00231710484605
0.00302367804563
0.00558365222072
0.0169415837135
0.0587791093019
0.167898983952
0.00159310891763
0.00166002915143
0.00181643424836
0.00187245557501
0.00189271729921
0.00190183515083
0.00190828028302
0.0019146866755
0.00192186268837
0.00193030114005
0.00194117825782
0.00195830787311
0.00199352533524
0.00208154377794
0.00232334179251
0.00305344254667
0.00577435801193
0.0178810331585
0.0614300700579
0.169377479753
0.0015918561144
0.00165819040403
0.00181405537972
0.00186976580829
0.00188983093819
0.00189878931188
0.00190507326536
0.0019113013088
0.00191828908651
0.00192657008455
0.00193744617248
0.00195504367833
0.00199177329827
0.00208324890316
0.00233441956292
0.00311239001772
0.00607361409425
0.0188350741721
0.0629506637443
0.170061777909
0.00158995950452
0.00165578092029
0.0018110912551
0.00186651976572
0.00188642608423
0.00189526117818
0.00190142007278
0.00190751028469
0.00191435562488
0.00192253780663
0.00193349384893
0.00195167796214
0.00199010490491
0.00208534749214
0.00234588081166
0.00316387748855
0.0062788292481
0.0189695598464
0.0610260975361
0.168094128966
0.00158749388012
0.00165283144017
0.0018075867136
0.00186276378589
0.00188254389902
0.00189128704137
0.00189735144192
0.00190333939503
0.00191008293334
0.00191821669508
0.0019293236794
0.00194819556786
0.00198845948921
0.0020875871746
0.0023570680215
0.0032089348686
0.00645246134725
0.0191672927795
0.0597170671237
0.166599963788
0.0015843748201
0.00164937818744
0.00180359032537
0.00185854300266
0.00187822481355
0.0018869044097
0.00189290212688
0.00189881992994
0.00190550502303
0.00191364512301
0.00192497723502
0.00194464138233
0.00198687124172
0.00208997447571
0.00236752861663
0.00324538337959
0.00659117692376
0.019536683966
0.0600167568852
0.166676949103
0.00158066495068
0.00164546257979
0.00179914345084
0.00185389240144
0.00187349652432
0.00188213234492
0.00188809360531
0.00189397560916
0.00190064247246
0.00190883822941
0.00192046054893
0.00194101450103
0.00198540084887
0.00209293031198
0.0023797980419
0.00328324119521
0.00669459439426
0.0196536876309
0.0597922737675
0.166548096833
0.00157649416808
0.00164112235406
0.00179427998673
0.00184884193804
0.00186838882634
0.00187700542477
0.00188295857776
0.00188883604041
0.00189551934546
0.00190381308384
0.00191578024644
0.00193731327638
0.00198407868518
0.00209666248487
0.00239459581424
0.00332622447915
0.00677612240216
0.0195173758005
0.0586773520389
0.165775721546
0.00157174898601
0.00163639326855
0.00178903353949
0.00184342407609
0.00186293411346
0.00187155474499
0.00187752178362
0.00188342113974
0.00189015120684
0.00189857606734
0.00191092422366
0.00193352544214
0.00198284576786
0.00210078491044
0.0024097719545
0.00336512479963
0.00682872556984
0.0192850803032
0.0574632792605
0.164960249352
0.00156664669653
0.00163128806656
0.0017834213732
0.00183765999251
0.00185715374134
0.00186580098832
0.00187180659965
0.00187775177949
0.00188455177785
0.00189312829051
0.00190589390788
0.00192958968875
0.00198140443841
0.00210417498583
0.00242156696463
0.00339087660265
0.0068549726526
0.0191507398146
0.056944909269
0.164632663274
0.00156109378731
0.00162585761048
0.00177747431948
0.00183157265446
0.0018510713155
0.00185976835938
0.0018658369136
0.00187184910554
0.00187874280301
0.00188749654845
0.00190068973323
0.00192538809555
0.001979307512
0.0021054896406
0.00242714971372
0.00340229024291
0.00687233550451
0.0191735880641
0.0570106288447
0.164549914768
0.00155510290994
0.00162008622131
0.00177119990238
0.00182518115709
0.00184470800655
0.00185347746242
0.00185962842743
0.00186573702049
0.001872752677
0.00188170895052
0.00189530390713
0.00192085701101
0.00197623057424
0.00210374834903
0.00242439067973
0.00339751014553
0.00689363211615
0.0193118927271
0.0570096994853
0.164336103354
0.00154882353593
0.00161400048186
0.00176462092254
0.00181850710811
0.00183808461408
0.00184694893142
0.0018532106591
0.00185944528242
0.00186661216586
0.00187579174937
0.00188979766836
0.00191610893485
0.00197253936995
0.00210006486417
0.00241520127378
0.00337450821248
0.00690278340612
0.0195154631318
0.0564806560317
0.163642987317
0.00154216394108
0.00160763582942
0.0017577730864
0.00181158046829
0.00183123498992
0.00184022330805
0.00184662447757
0.00185300929294
0.00186035308202
0.00186978746051
0.00188425091733
0.00191142888185
0.00196925427376
0.00209802039112
0.00241022221521
0.00335126864555
0.00686337017828
0.0196507688778
0.0565781795784
0.16354263819
0.00153514963359
0.00160101474069
0.00175067932177
0.00180443353897
0.00182419172561
0.00183333124954
0.00183989897738
0.00184646213592
0.00185400955438
0.00186373380683
0.00187870877418
0.00190691452644
0.00196679971666
0.00209971643152
0.00242068400814
0.00337389078304
0.00684279751831
0.0193901745994
0.0560681463124
0.163207818822
0.00152786618277
0.00159413582521
0.0017433649269
0.00179709663751
0.00181698644867
0.00182630562917
0.00183306819393
0.00183983525433
0.00184761938388
0.00185765928944
0.00187317629442
0.00190244006913
0.00196440742458
0.00210163346934
0.00243369943697
0.00341569862493
0.0068728646492
0.0188661765231
0.0542899667088