/*--------------------------------*- C++ -*----------------------------------*\
| =========                 |                                                 |
| \\      /  F ield         | OpenFOAM: The Open Source CFD Toolbox           |
|  \\    /   O peration     | Version:  v2012                                 |
|   \\  /    A nd           | Website:  www.openfoam.com                      |
|    \\/     M anipulation  |                                                 |
\*---------------------------------------------------------------------------*/
FoamFile
{
    version     2.0;
    format      ascii;
    class       surfaceVectorField;
    location    "3.2";
    object      Uf;
}
// * * * * * * * * * * * * * * * * * * * * * * * * * * * * * * * * * * * * * //

dimensions      [0 1 -1 0 0 0 0];


internalField   nonuniform List<vector> 
296
(
(0.0447167237821 0.0373967336412 1.25292836015e-21)
(0.040160767685 0.0359551776634 3.85385632935e-21)
(0.0483107320146 0.0433369184699 1.59475062426e-21)
(0.043262310083 0.0421612366226 6.22328630881e-21)
(0.0525434478007 0.0494577660075 1.63476232547e-21)
(0.047135561017 0.0484664543663 7.26480197633e-21)
(0.0572697348319 0.0559508396707 1.37837668512e-21)
(0.051440199335 0.0549118801315 6.36668309708e-21)
(0.0625604299568 0.0632253655872 1.12564104534e-21)
(0.055935741144 0.0619878128614 5.65849296752e-21)
(0.0686517706719 0.0715612592578 9.39551315754e-22)
(0.0609717287269 0.0702591721453 4.46840750469e-21)
(0.0749939566218 0.0809707820711 1.13937514906e-21)
(0.0670827001937 0.0797808501877 3.2892473974e-21)
(0.0805000255621 0.0914158960141 -9.55388104464e-22)
(0.0727534724224 0.090156320026 1.38746968499e-21)
(0.0843593223901 0.102069971049 9.14309144711e-22)
(0.0777195008116 0.104070509872 1.37951047358e-21)
(0.096187451347 0.115911331518 1.70924713699e-20)
(0.0791498293029 0.10289774969 3.782206328e-21)
(0.0686266916361 0.137134314632 2.8250645017e-20)
(0.0965675318501 0.11195744184 1.7921694524e-20)
(-0.0497978338972 0.154673085339 1.25343097044e-20)
(0.0281834670155 0.135979117762 5.74372865875e-21)
(0.0239062939091 0.0486171520341 -3.36285321511e-21)
(0.0284157516026 0.00401622958246 9.70732406741e-22)
(0.0256273703236 0.00205475047796 1.91163319844e-21)
(0.0297948324197 0.00823626366839 1.34783096188e-22)
(0.0270378672774 0.00619657903658 4.02088446775e-22)
(0.0309073025166 0.012696712686 7.44143022077e-23)
(0.0281685922921 0.010602942222 1.53614947712e-22)
(0.0289865658019 0.0152879731262 3.27748253241e-22)
(0.0341442954803 0.0281230951018 1.98653201697e-21)
(0.0305553429688 0.0259031568272 3.45755853694e-21)
(0.0359730364471 0.0341422382461 4.81938277553e-21)
(0.0318235310104 0.0319685814899 1.08406999632e-20)
(0.0385502554736 0.0405808230734 8.824214278e-21)
(0.0337225371449 0.0386076751134 2.57340949261e-20)
(0.0419850545874 0.0471840194755 1.18933376609e-20)
(0.0366596798109 0.0455863496146 4.30875894062e-20)
(0.0459943501838 0.0537661541931 1.19967227479e-20)
(0.0405541597818 0.0523790855317 4.93313452877e-20)
(0.0501442466379 0.0606218346764 1.06467993795e-20)
(0.044585380699 0.058946134547 4.30612763019e-20)
(0.0544683805929 0.0684765799056 9.00125942687e-21)
(0.0480818863727 0.0662288112921 4.51833755935e-20)
(0.0594854757469 0.0776354388516 6.81810358633e-21)
(0.0518137180528 0.0751996525056 3.89408740258e-20)
(0.0648762306477 0.0879409902953 3.53734193332e-21)
(0.0567778678769 0.0854258751099 2.48357849166e-20)
(0.0702543035086 0.0988957843854 3.72236826303e-21)
(0.0617992427805 0.0959424905327 1.02580337379e-20)
(0.0732020860255 0.108888346276 4.24740765686e-21)
(0.0677273020349 0.109847355319 1.25876635465e-21)
(0.0799514980567 0.120678686864 4.61142948209e-21)
(0.0673596330176 0.106515983974 3.97021981954e-22)
(0.0583193276822 0.139592176474 -4.58522183428e-21)
(0.0776541282762 0.116702324787 9.19853294233e-21)
(0.0375618294832 0.128369786842 -1.01534342608e-20)
(0.0394057262694 0.137468607587 -2.64531706909e-21)
(0.28717079422 -0.0138691277463 1.94560998858e-20)
(0.024234770913 0.00412049329507 1.34298923847e-21)
(0.0215068542798 0.00208234787654 2.33231697999e-21)
(0.0253787479792 0.00846057389513 4.20920298299e-22)
(0.0226977559067 0.00627845363744 7.1261353467e-22)
(0.0261993690052 0.0130752411158 4.06948898745e-22)
(0.0235539054102 0.0107695725416 5.70054680961e-22)
(0.026765210971 0.018044769012 1.14048546029e-21)
(0.024017024832 0.0155711606843 1.25275802936e-21)
(0.0272902237399 0.0234792531202 3.82901815843e-21)
(0.0242648045114 0.0208404456279 4.95396240057e-21)
(0.0280512864971 0.0295161134986 1.23117264832e-20)
(0.0245186461927 0.0267180232497 1.87466634294e-20)
(0.0293531072886 0.0362171304115 3.17554121138e-20)
(0.0251228333154 0.0333267806275 6.2314062985e-20)
(0.031659799483 0.0435276067123 5.99974700544e-20)
(0.0264125659468 0.040824008394 1.55816192645e-19)
(0.0351574410016 0.050744401838 8.0525597033e-20)
(0.0294435957369 0.0486837259614 2.67922722257e-19)
(0.0391611119136 0.0574912919675 8.03958988417e-20)
(0.0338081593879 0.0557686875129 3.06519043191e-19)
(0.0426824578237 0.0643024104472 7.7597852516e-20)
(0.0377752674273 0.0619192790029 2.90193293397e-19)
(0.045763232804 0.0724839195105 7.51229901924e-20)
(0.0399014057209 0.0689160038045 3.62312931667e-19)
(0.0496134935682 0.0822747456577 5.69585553561e-20)
(0.0420238539893 0.0785163383356 3.29431975839e-19)
(0.0543042683247 0.0925446337355 3.15564767212e-20)
(0.0465088069804 0.0893917156668 2.0718957393e-19)
(0.0599962162089 0.102647266883 7.79443182954e-21)
(0.0516972514556 0.0989180182971 8.52760064909e-20)
(0.0633051405104 0.111291457914 -2.59161932026e-21)
(0.0590835241736 0.111431021602 1.89975125979e-20)
(0.0676194124643 0.119195768037 4.9841254422e-21)
(0.059455491711 0.106085384162 1.19598226837e-20)
(0.0713332888317 0.129591216212 1.11384377075e-20)
(0.067258661497 0.115041795694 2.17911006419e-20)
(0.233957818662 0.0603609366849 2.69642170775e-20)
(0.108638129537 0.119817912463 6.21815926641e-20)
(0.355156102653 0.112295851733 3.82983602393e-20)
(0.0199878527108 0.00412709117972 1.70194127619e-21)
(0.0173797088288 0.00205974618178 2.40469933334e-21)
(0.0208771780504 0.00847931792919 8.61747917331e-22)
(0.0183454645019 0.00620235427268 9.79459339214e-22)
(0.0213660986445 0.0131314505737 1.41586381158e-21)
(0.0189017293448 0.010659088361 1.44142377631e-21)
(0.0214886784256 0.0181800697225 5.06623496965e-21)
(0.0189684058574 0.0154353843704 5.08806288758e-21)
(0.0214070839754 0.0237878820374 1.98716076716e-20)
(0.0186570805983 0.020710300963 2.17010308298e-20)
(0.0213986687869 0.0301946221519 6.87489999312e-20)
(0.018112130955 0.026697874111 8.80428373258e-20)
(0.0218936627207 0.0376018663132 1.86374843516e-19)
(0.0177159993154 0.0336154619053 3.05838153125e-19)
(0.0240038696508 0.0460973829551 3.63741444847e-19)
(0.0179176703491 0.0421446359464 7.8043036316e-19)
(0.0281032937994 0.0538380682097 4.93916168415e-19)
(0.021703752825 0.0509864396224 1.31037541041e-18)
(0.0326041754164 0.060204116958 5.16316437746e-19)
(0.0274431386642 0.0579984308789 1.44181052891e-18)
(0.0355009984193 0.0664589524394 5.74908372548e-19)
(0.0315215758837 0.0634207603342 1.32989400073e-18)
(0.0369853623041 0.0748013588636 6.16621917314e-19)
(0.0315601513796 0.0696856270304 1.67600227694e-18)
(0.0399093891178 0.0852211991731 4.79662994413e-19)
(0.0316050894399 0.0798379270952 1.59776691595e-18)
(0.045025675054 0.0951926354103 2.609091037e-19)
(0.0365382944535 0.0910548955007 1.1215229581e-18)
(0.0519277004204 0.103455425878 9.64790872593e-20)
(0.0434351747669 0.0990297394542 5.04132291691e-19)
(0.05665822887 0.109628064128 3.35489546018e-20)
(0.0529113447574 0.109691164624 1.75847834528e-19)
(0.0609457673713 0.113730072595 2.87667978834e-20)
(0.0553536742533 0.103621257208 1.08424656054e-19)
(0.0909562964465 0.119392630282 7.28342555985e-20)
(0.0615961493796 0.110752932876 9.43322376847e-20)
(0.253252406064 0.130359136251 7.35157358259e-20)
(0.0976700210354 0.117082940191 1.43338006891e-19)
(0.168689134528 0.318816857024 1.53971039394e-19)
(0.0157828156684 0.00402603286536 1.68221739636e-21)
(0.0133535828947 0.0019784599865 2.04375787602e-21)
(0.0164092975576 0.00827302310595 1.55913519819e-21)
(0.0140983730775 0.00595516505914 1.2176210087e-21)
(0.0165429536572 0.0128235700647 5.1136228523e-21)
(0.0143511079686 0.0102461805347 3.7573412039e-21)
(0.0161907295605 0.0177607336002 2.17228587477e-20)
(0.0140312291295 0.0148361809818 1.81008926338e-20)
(0.0154348072081 0.0232479856545 8.9872260484e-20)
(0.0131699214796 0.0198465038283 8.05681411801e-20)
(0.0143805687787 0.0295991517909 3.2513199052e-19)
(0.0117612133734 0.025392263849 3.39153202731e-19)
(0.013294577503 0.0374997208614 8.99893672769e-19)
(0.00981587943907 0.0317385940848 1.20459260541e-18)
(0.0151072105764 0.0477763832247 1.72706432873e-18)
(0.00764168509808 0.0417923760536 3.0342149217e-18)
(0.0206516697097 0.0554940256436 2.2582697709e-18)
(0.0139870509086 0.0521526722167 4.86617621614e-18)
(0.0257323593909 0.0610453541185 2.25538809189e-18)
(0.0218929513984 0.0585627457164 5.35949882428e-18)
(0.02667095502 0.0668472081503 2.43098790512e-18)
(0.0257209676402 0.0645936293859 4.22060854436e-18)
(0.0257006603572 0.0753237817547 2.65714727558e-18)
(0.023084823901 0.0721220242962 4.91871377918e-18)
(0.028794722595 0.0853124262651 2.23962687963e-18)
(0.0216177106673 0.0840919285843 4.41018994662e-18)
(0.0361086262643 0.0946628845916 1.36474614609e-18)
(0.0271889838483 0.0918622506752 3.28705455519e-18)
(0.0453262940222 0.101202888435 5.83501038959e-19)
(0.0368960765621 0.0952656962177 1.63814320016e-18)
(0.051687397147 0.105975265967 2.5072353598e-19)
(0.0481395616923 0.104222815422 6.54940077788e-19)
(0.0530452839064 0.110505620132 1.73990095855e-19)
(0.0508235860952 0.0986513152588 4.01331324624e-19)
(0.0447458622622 0.127618980262 1.64835988977e-19)
(0.044482618729 0.106583172484 3.33246289259e-19)
(0.0373698727958 0.231287897264 2.23793310459e-19)
(-0.00599157387543 0.120063848751 3.36806596091e-19)
(-0.0505691773695 0.329405331934 3.8365601743e-19)
(0.0117396050061 0.00380433186553 1.57916148836e-21)
(0.00954911586493 0.00183493080855 1.52281751259e-21)
(0.0120938746383 0.00782230979256 3.41582701441e-21)
(0.0100802551179 0.00552390216086 2.02323837937e-21)
(0.0118305155341 0.0121240565872 1.67446109854e-20)
(0.0100492510027 0.00946425711174 1.02210929591e-20)
(0.0109664649279 0.0167447419142 7.69461750662e-20)
(0.00941050016938 0.0136460195568 5.16901601646e-20)
(0.00967667021774 0.0216130457029 3.29849083427e-19)
(0.0083016850247 0.0181868873747 2.31078667568e-19)
(0.00792731580574 0.0268462777834 1.21861381762e-18)
(0.00652820701985 0.0231712215535 9.66481172941e-19)
(0.00550465980036 0.0346700848807 3.33891385434e-18)
(0.00199249993251 0.029236282943 3.16961037142e-18)
(0.00830615030985 0.0483346065649 6.17332680912e-18)
(-0.0060221026181 0.0406397222835 7.91113425281e-18)
(0.0165056776163 0.0557104439188 7.96740526951e-18)
(0.00661222127825 0.0530821037709 1.33817877232e-17)
(0.0226016752479 0.0616692112419 7.32471927675e-18)
(0.0159353808732 0.0609841960155 1.53876832863e-17)
(0.0229472308945 0.0692934283177 6.70833441842e-18)
(0.0180980384844 0.0740877212646 9.88926213645e-18)
(0.0190431072929 0.0834874691182 6.67175645022e-18)
(0.00889230369275 0.0857330863695 1.07173199233e-17)
(0.0197150838574 0.089824628774 5.45761762217e-18)
(0.0152821536436 0.0926078876686 8.69723166215e-18)
(0.0279070222843 0.0921046416198 3.56045160926e-18)
(0.024910437446 0.0906027990858 5.56500177874e-18)
(0.039626721801 0.0945543499714 1.70958223899e-18)
(0.034447517127 0.0870962109285 2.70428263079e-18)
(0.0474944984351 0.0981635244053 8.05547866432e-19)
(0.0445311456672 0.0939444264856 1.34422686456e-18)
(0.0456751127024 0.102566963903 5.60587518028e-19)
(0.0464204647382 0.0900340806582 8.60479114966e-19)
(-0.00679297009099 0.108062694885 5.05216896373e-19)
(0.038986976153 0.102031172864 7.29453446776e-19)
(-0.161013774604 0.139428563535 4.96669303062e-19)
(-0.0373594656381 0.113245923547 7.121514117e-19)
(-0.220336454704 0.133662586643 6.05221888702e-19)
(0.00802416756554 0.00343923822235 1.9668944036e-21)
(0.00610970622396 0.00166609604523 1.25335217184e-21)
(0.00820010041203 0.0070729727121 8.82850432411e-21)
(0.00644634618522 0.0050495790797 4.20658242172e-21)
(0.00774457380171 0.0108526958693 4.51666421384e-20)
(0.00626938117139 0.00856632892217 2.31114769104e-20)
(0.00651561497473 0.0148918428609 2.05822652667e-19)
(0.00537126765468 0.0120751730442 1.11168016656e-19)
(0.00429687167446 0.0195188689934 8.67710757082e-19)
(0.00367467446857 0.0154933641692 4.60815365343e-19)
(-0.000527318180962 0.024992999176 2.91747772674e-18)
(0.00105423867858 0.0184532170689 1.77048007823e-18)
(-0.0111846102865 0.0333354955803 7.74183076988e-18)
(-0.00634958311904 0.0221046120202 5.08678335796e-18)
(-0.00990321179921 0.0496941473599 1.51195951669e-17)
(-0.0223801384221 0.0244276124814 1.14362588835e-17)
(0.00466614040888 0.0563069344737 2.080206574e-17)
(0.0112433918256 0.0722429512231 1.7952226146e-17)
(0.00491019534725 0.0903417774909 1.38982476413e-17)
(0.00831984848199 0.0992349665973 1.27427951352e-17)
(0.025157146009 0.0921198213945 8.80461581871e-18)
(0.0346558698585 0.0844228957719 4.70883280027e-18)
(0.041008985042 0.0833556756221 2.33892725636e-18)
(0.0447099392189 0.086393069723 1.39915811309e-18)
(0.0414605622047 0.0938328348585 1.02934504371e-18)
(0.0106279291832 0.100841045033 9.36387962103e-19)
(-0.134535646961 0.0650815323078 8.2070399734e-19)
(0.00461895830722 0.00317198025713 3.49304018996e-21)
(0.00293753196255 0.00151517307618 2.05591575388e-21)
(0.00466243306887 0.00652457893138 1.8489555008e-20)
(0.00309355036952 0.00465271768133 7.85103445253e-21)
(0.00421907596975 0.0098323949765 8.91128514281e-20)
(0.00296138798549 0.00782188727264 4.20517389124e-20)
(0.00312899029126 0.0126940043736 3.66160729332e-19)
(0.00250952768517 0.0107386038423 1.98060589456e-19)
(0.00111817822633 0.0146505157647 1.36358468649e-18)
(0.00171811405711 0.0131477487772 7.56871481773e-19)
(-0.00340879849269 0.0155692661981 3.93978570945e-18)
(0.000135576684097 0.013988648651 2.79208048287e-18)
(-0.0136827828619 0.0121116659239 8.78121147154e-18)
(-0.00289178096619 0.0144160622774 7.952184052e-18)
(-0.0102683961692 0.0078652827923 1.91214272933e-17)
(0.00148970741724 0.00292094815841 6.41391001646e-21)
(1.63651951525e-05 0.00144612314686 3.29082589272e-21)
(0.00146419459917 0.00599706484449 3.14132183569e-20)
(1.72099231713e-05 0.00446767543575 1.03102063958e-20)
(0.00124036950602 0.00893975820548 1.5099947694e-19)
(1.84747121393e-05 0.00748016154689 5.30282378237e-20)
(0.000835101616878 0.0114286152462 5.88771341896e-19)
(2.04752392725e-05 0.0102044954558 2.49183014837e-19)
(0.000412612399441 0.0131214747198 2.18536727815e-18)
(2.51155634276e-05 0.0124694397036 9.2814112735e-19)
(-8.76126193186e-05 0.0132273021625 6.80447882541e-18)
(2.97103801742e-05 0.0130642789242 3.44216583987e-18)
(-0.00179766679632 0.0103031214234 1.82923998738e-17)
(3.24664728633e-05 0.0130207567914 1.01659171116e-17)
(3.47947938801e-05 0.00706721529352 2.64203389224e-17)
(-0.0014565694883 0.00292194231378 7.18712227208e-21)
(-0.00290581792064 0.00151632051518 3.60490899859e-21)
(-0.00142891402391 0.00599960319989 3.19252258626e-20)
(-0.00306071351659 0.00465598280658 8.87209305528e-21)
(-0.00120227081722 0.00894369401038 1.51211775721e-19)
(-0.00292589498239 0.00782700912985 4.25641209777e-20)
(-0.000793236368725 0.0114355036312 5.88552800291e-19)
(-0.00247160338498 0.0107451648984 1.97790527898e-19)
(-0.000365441979692 0.0131346282631 2.18493968907e-18)
(-0.001674224952 0.0131555809308 7.56081441627e-19)
(0.000145733698334 0.0132220728164 6.80360412605e-18)
(-5.78281687954e-05 0.0140014499025 2.79083901036e-18)
(0.00186614333069 0.0103057731028 1.82938561602e-17)
(0.00294884612212 0.0144301657734 7.95040647131e-18)
(0.0103406498639 0.00787471859806 1.91245605719e-17)
(-0.00458893207455 0.00317535471672 5.28987978179e-21)
(-0.00462917294597 0.00653087883874 1.95109881704e-20)
(-0.00418193202148 0.00984035262445 8.91428731551e-20)
(-0.00308638351896 0.0127010716769 3.65319169234e-19)
(-0.00106802454661 0.0146550588476 1.36198076292e-18)
(0.00347299160976 0.0156084529842 3.93764135562e-18)
(0.0137678463491 0.0121298318982 8.78111088301e-18)
)
;

boundaryField
{
    back
    {
        type            calculated;
        value           uniform (0 0 0);
    }
    sides
    {
        type            calculated;
        value           nonuniform List<vector> 0();
    }
    bottom
    {
        type            calculated;
        value           uniform (0 0 0);
    }
    front
    {
        type            calculated;
        value           uniform (0 0 0);
    }
    atmosphere
    {
        type            calculated;
        value           nonuniform List<vector> 7((-0.130254738309 0.103096547643 -2.45426929779e-21) (0 -0.134894384205 0) (0 -0.00762541878673 0) (0.389139881412 0.31682705797 3.34130835745e-20) (0.0383454438016 0.450535667621 2.74528995213e-19) (-0.266100725993 0.309202220918 4.92783039647e-19) (-0.252387426715 0.0064082548626 7.17660737757e-19));
    }
    floatingObject
    {
        type            calculated;
        value           nonuniform List<vector> 8((0 -3.33066907388e-15 4.16333634234e-16) (0 0 4.16333634234e-16) (0 0 0) (0 -6.66133814775e-15 4.16333634234e-16) (8.32667268469e-16 0 0) (0 0 4.16333634234e-16) (0 0 4.16333634234e-16) (0 0 0));
    }
    procBoundary3to4
    {
        type            processor;
        value           nonuniform List<vector> 
13
(
(0.0458698121055 0.0330162632906 6.31120452343e-22)
(0.0492018097875 0.0385093774985 9.0538532539e-22)
(0.0532555770569 0.0442038350746 9.96309598116e-22)
(0.0296436006089 0.00198889865014 1.78604355317e-21)
(0.031257916456 0.00598234911761 2.7802435544e-22)
(0.032629132996 0.0102035537526 -2.88253194444e-24)
(0.0337423797369 0.0146656687982 1.0590604725e-22)
(0.036109389709 0.0245544044771 6.5009243445e-22)
(0.0418528977404 0.0316874400883 7.84520043222e-22)
(0.0378424646498 0.0300514359803 1.75004648941e-21)
(0.0318426930654 0.0174525633614 2.92064294284e-22)
(0.0328376818666 0.0225689145182 7.33341879841e-22)
(0.0296991911997 0.0203651338005 1.10480150133e-21)
)
;
    }
    procBoundary3to5
    {
        type            processor;
        value           nonuniform List<vector> 10((0.0579321011317 0.0501670009742 1.04089415594e-21) (0.0632091082051 0.0566649192817 8.73001485198e-22) (0.0693064781183 0.0640212394059 1.36119300972e-21) (0.0764913003757 0.0724386885959 1.21121945125e-21) (0.0831978332817 0.0814832651745 2.58914756859e-21) (0.088373115741 0.0944405525689 1.85439977796e-22) (0.0929909873673 0.0951583097732 7.86891513912e-21) (0.117790516385 0.101003157661 3.12221296079e-20) (0.0457190206251 0.12128486033 1.71985747397e-20) (-0.0276697311115 0.336938322127 -5.10969682975e-21));
    }
    procBoundary3to6
    {
        type            processor;
        value           nonuniform List<vector> 8((0.0223990484156 0.0559530984668 8.97277088304e-18) (0.0326089820359 0.0614706207662 5.90162733601e-18) (0.0355160241061 0.0643332030173 3.15369302151e-18) (0.0414946043241 0.0776388266363 1.92045945369e-18) (0.0389810650608 0.079826181823 1.32795987879e-18) (0.0319788269742 0.0977782476092 1.18028278025e-18) (-0.00159966749555 0.111843566909 1.13934510308e-18) (-0.161665223253 -0.0132625045037 8.01919306158e-19));
    }
    procBoundary3to8
    {
        type            processor;
        value           nonuniform List<vector> 8((-0.00608141062911 0.00166850254977 2.83096423351e-21) (-0.0064165108478 0.00505582436913 5.19753723913e-21) (-0.00623566658464 0.00857613038159 2.34316115691e-20) (-0.00533261465566 0.0120884191197 1.10322482821e-19) (-0.00362843247221 0.0155101940213 4.5934629634e-19) (-0.00101129777914 0.0184825691873 1.76720039735e-18) (0.00642756649483 0.0221431010812 5.08425457827e-18) (0.0224706029091 0.0244720824183 1.14365882017e-17));
    }
}


// ************************************************************************* //
