/*--------------------------------*- C++ -*----------------------------------*\
| =========                 |                                                 |
| \\      /  F ield         | OpenFOAM: The Open Source CFD Toolbox           |
|  \\    /   O peration     | Version:  v2012                                 |
|   \\  /    A nd           | Website:  www.openfoam.com                      |
|    \\/     M anipulation  |                                                 |
\*---------------------------------------------------------------------------*/
FoamFile
{
    version     2.0;
    format      ascii;
    class       volScalarField;
    location    "4.9";
    object      alpha.water;
}
// * * * * * * * * * * * * * * * * * * * * * * * * * * * * * * * * * * * * * //

dimensions      [0 0 0 0 0 0 0];


internalField   nonuniform List<scalar> 
166
(
1.00000115729
1.00000140638
1.00000169414
1.0000020469
1.00000218933
1.00000180012
1.00000084378
0.999999252406
0.999996730636
0.999993380005
0.999989819061
0.999984614108
0.999983576159
0.999983575665
0.999988271123
0.999997448473
0.999999845937
0.613163812873
0.0127898679935
1.99901981367e-22
1.00000077887
1.00000100708
1.00000123381
1.00000139606
1.00000133996
1.00000093333
1.00000016649
0.999998899677
0.999997060189
0.999994460379
0.999990171452
0.999989269033
0.999985421348
0.999983575665
0.999986762722
0.999998080145
0.999999867807
0.633057483169
0.0169645728351
-1.37078165297e-20
1.00000091402
1.00000107548
1.00000120307
1.00000124107
1.00000108504
1.00000065298
0.999999957547
0.99999893475
0.999997917133
0.999996932086
0.999995288485
0.99999434036
0.999993517822
0.999988372289
0.999992297497
0.999998606673
0.999999886601
0.648782999037
0.021059862334
0
1.00000093752
1.00000101426
1.00000106269
1.00000103185
1.00000080977
1.00000032539
0.999999507804
0.999998372184
0.999997118687
0.999996229794
0.999995900559
0.999993795573
0.999995240299
0.999995871933
0.999996273708
0.999999010098
0.999999898118
0.660854803932
0.0236919422597
-1.524135424e-21
1.00000077322
1.00000080522
1.00000085836
1.00000085223
1.00000067312
1.00000021778
0.999999372899
0.9999979837
0.999995979313
0.999993886938
0.999993792879
0.999993893297
0.999993792879
0.999997492327
0.999997875821
0.999998939137
0.999999921325
0.671542766577
0.0270816759567
-1.47657932425e-23
1.00000051517
1.00000061549
1.00000074907
1.00000079985
1.00000077535
1.00000047695
0.999999926843
0.99999887496
0.999997462902
0.999996521987
0.999996247727
0.999997164732
0.999994570544
0.999995360782
0.999998821698
0.999999591756
0.999999962336
0.680291012737
0.0297651290794
4.32506138969e-25
1.00000038222
1.00000055552
1.0000006459
1.00000096129
1.00000116561
1.00000113285
1.00000073144
1.000000023
0.999999406943
0.999998868134
0.999998643098
0.999998477354
0.999996829426
0.99999525792
0.999999954628
0.999999925098
0.999999992078
0.688630931769
0.0319007368105
-4.82396151297e-10
1.00000026123
1.00000055494
1.00000081744
1.00000122207
1.00000162518
1.00000170882
1.00000142505
1.00000087443
1.00000025809
0.999999542953
0.999999448521
0.999998947588
0.999996088337
0.999995783227
1.00000150315
1
0.999999999859
0.697907105984
0.0346394412451
-2.4700832592e-10
1.00000069138
1.00000080592
1.00000097882
1.00000164409
1.00000115648
1.00000311466
)
;

boundaryField
{
    back
    {
        type            zeroGradient;
    }
    sides
    {
        type            zeroGradient;
    }
    bottom
    {
        type            zeroGradient;
    }
    front
    {
        type            zeroGradient;
    }
    atmosphere
    {
        type            inletOutlet;
        inletValue      uniform 0;
        value           nonuniform List<scalar> 8(0 -1.37078165297e-20 0 0 0 0 -4.82396151297e-10 -2.4700832592e-10);
    }
    floatingObject
    {
        type            zeroGradient;
    }
    procBoundary9to6
    {
        type            processor;
        value           nonuniform List<scalar> 4(0.99999981835 0.591066074985 0.00962221529824 6.14870921975e-24);
    }
    procBoundary9to7
    {
        type            processor;
        value           nonuniform List<scalar> 
16
(
1.00000073047
1.00000090558
1.00000113386
1.00000136205
1.00000149106
1.0000013041
1.00000073834
0.999999806296
0.999998417871
0.999996567375
0.999994872286
0.999993888919
0.999992344943
0.999990438971
0.999992174713
0.99999763189
)
;
    }
    procBoundary9to10
    {
        type            processor;
        value           nonuniform List<scalar> 
15
(
1.00000147889
1.00000216166
1.00000238179
1.00000213747
1.00000161834
1.00000075925
1.00000061884
1.00000014751
1.00000108889
1.00000147889
1.00000126888
1.00000108889
1.00000303604
1.00000247685
1.00000273826
)
;
    }
    procBoundary9to11
    {
        type            processor;
        value           nonuniform List<scalar> 9(1 0.999998780051 0.999999518755 1.00000320193 1 0.999999999175 0.709472967645 0.0389242747678 -7.92087457849e-13);
    }
}


// ************************************************************************* //
