/*--------------------------------*- C++ -*----------------------------------*\
| =========                 |                                                 |
| \\      /  F ield         | OpenFOAM: The Open Source CFD Toolbox           |
|  \\    /   O peration     | Version:  v2012                                 |
|   \\  /    A nd           | Website:  www.openfoam.com                      |
|    \\/     M anipulation  |                                                 |
\*---------------------------------------------------------------------------*/
FoamFile
{
    version     2.0;
    format      ascii;
    class       volVectorField;
    location    "4.9";
    object      ddt0(rho,U);
}
// * * * * * * * * * * * * * * * * * * * * * * * * * * * * * * * * * * * * * //

dimensions      [1 -2 -2 0 0 0 0];


internalField   nonuniform List<vector> 
166
(
(-134.514996498 1.66832682088 2.34571893022e-20)
(-135.303441049 4.77604165582 1.14469339777e-20)
(-136.075890145 7.992825584 1.74163907728e-20)
(-137.513885625 11.2624013976 -1.95677057566e-20)
(-139.47842413 14.5564166426 4.2520085044e-21)
(-141.938534327 17.8793390601 -1.55598213126e-20)
(-144.903828764 21.2139950035 4.41285733685e-21)
(-148.408143628 24.5185617599 -4.75208969024e-22)
(-152.495275495 27.7231314434 1.64397809737e-20)
(-157.226998395 30.7181223526 1.40200503812e-20)
(-162.707962099 33.3557912828 -1.81463265369e-20)
(-169.041329186 35.3306939066 -1.65193546756e-20)
(-176.508332803 36.2773894122 -1.54133349004e-19)
(-185.427275794 35.7928748365 -1.13015924026e-19)
(-196.279123592 33.292236828 3.62335666256e-19)
(-209.449305704 27.5680028264 -9.44442568746e-19)
(-228.176076939 24.8863628945 6.17251538312e-18)
(-165.446447521 22.6552954406 1.40522747345e-18)
(-10.9953813767 2.63043200852 -1.35915441858e-18)
(-2.09126559248 1.09527919886 5.20264220651e-20)
(-137.450716325 1.41702498409 8.63409791372e-20)
(-138.27032464 4.05331433255 7.86465381969e-21)
(-139.070277482 6.78494571861 -8.04627106262e-21)
(-140.542921533 9.56321949119 -3.88744561024e-20)
(-142.540317155 12.3643210841 1.35720706102e-20)
(-145.019065165 15.1863149086 1.39452450054e-20)
(-147.974855941 18.0056471772 4.61795254582e-21)
(-151.413996252 20.7738396552 -6.21363535199e-21)
(-155.347620454 23.4064079572 2.07565352422e-20)
(-159.785856115 25.7733422739 -3.89930032098e-20)
(-164.749454328 27.7137142646 3.77549490498e-20)
(-170.295461182 28.8612305688 9.88962543349e-20)
(-176.43695062 28.7706111181 -1.06609573122e-19)
(-183.339512625 26.8909396782 -8.9934732418e-19)
(-191.139505466 22.2735781018 7.88962593048e-19)
(-200.143057921 12.6605485505 -3.98334873615e-18)
(-211.360641072 4.15321079559 2.76820926971e-18)
(-159.450142399 8.17768089245 1.04928117268e-17)
(-14.6686047904 1.73595298924 -4.98613968557e-19)
(-2.08825375744 -1.58647611422 -1.77186752345e-19)
(-139.895235145 1.15291207458 6.42063816891e-20)
(-140.74345075 3.30503621434 -6.37917098356e-21)
(-141.573440589 5.54161035432 -2.92377228561e-20)
(-143.078232632 7.82591192995 -3.09616617705e-20)
(-145.108406981 10.1440066767 -1.46228238096e-20)
(-147.607684849 12.4887870702 -3.94363739976e-21)
(-150.553574528 14.8423913019 -3.71454390713e-21)
(-153.92833748 17.1534067737 1.3392062199e-20)
(-157.686141728 19.3422550785 4.25671746361e-21)
(-161.807303022 21.2836546267 -2.65196277975e-21)
(-166.22065531 22.788148013 -3.20090075399e-21)
(-170.889122557 23.5559189389 -4.98458789642e-20)
(-175.607619 23.1131264024 -8.20409105229e-20)
(-180.224879409 20.8563555156 -6.94412685924e-19)
(-184.435038428 15.8430132231 -6.49932639972e-19)
(-187.715562485 5.73168628364 -2.71919390809e-19)
(-189.688990291 -4.75971838329 -1.017217135e-17)
(-142.264241743 1.79467409431 3.28174325548e-18)
(-17.6567927517 0.842169105702 -3.93051635618e-18)
(1.23112109182 -3.96802375275 -2.36808795766e-20)
(-141.833762864 0.878746223998 3.42109976861e-20)
(-142.707317227 2.53275035517 -2.68742808768e-20)
(-143.577225075 4.2644407457 -3.1008540279e-20)
(-145.12347198 6.05062484729 -2.25506610321e-20)
(-147.204678495 7.88675905339 -6.70551116253e-21)
(-149.73896474 9.77669773335 1.99160499363e-21)
(-152.703117095 11.705479519 6.07013430656e-21)
(-156.037167025 13.6533499454 1.19161397656e-20)
(-159.677267171 15.5328571757 6.0908953672e-20)
(-163.537664843 17.2315582466 2.13201757227e-20)
(-167.507444666 18.6057482386 6.52839914861e-21)
(-171.362859934 19.4277683908 -3.6923492227e-20)
(-174.819550372 19.3295066564 -1.02847925384e-19)
(-177.458373324 17.7917779842 -1.10856734412e-18)
(-178.671880101 14.3012328941 -1.18480413145e-18)
(-177.209037344 7.08757390415 -1.18520070067e-18)
(-173.928881814 2.78836632654 -1.39517803816e-17)
(-122.001078509 8.74020935903 -2.60691749753e-18)
(-10.7828880644 2.12690438723 -2.52367114407e-19)
(2.99683582978 1.29739093015 -6.85242483989e-20)
(-143.248061301 0.59375564207 7.34712419969e-20)
(-144.151181409 1.7341151125 2.72419162664e-20)
(-145.071133834 2.93993559041 3.60051499892e-20)
(-146.678169153 4.2136223333 6.51120883275e-21)
(-148.825399856 5.57515041535 5.05529084268e-21)
(-151.442549728 7.02126531096 -3.35625384261e-21)
(-154.468126241 8.55758770397 1.82220584606e-20)
(-157.837119102 10.1881343354 -2.33846360614e-20)
(-161.458865112 11.8532349463 3.50234778987e-20)
(-165.181992103 13.4677836262 1.42536227032e-20)
(-168.8501673 14.9613649673 -3.19291701311e-20)
(-172.259224473 16.2151301906 5.21065227154e-21)
(-174.811773419 16.9393526283 -2.50628200623e-19)
(-176.08995311 16.8061749981 -8.66298951356e-19)
(-175.278837666 15.8809679134 -1.19573138434e-19)
(-171.178993537 11.733418387 -4.40760000481e-18)
(-164.090076014 9.99212782604 -1.73064889068e-17)
(-109.951068695 9.21400095075 -2.07318857237e-18)
(-3.92434034962 0.94647879164 6.1654054058e-19)
(0.467676247934 0.364806475728 -3.5360855268e-20)
(-144.101364144 0.283712467083 1.3514218473e-19)
(-145.059075604 0.900150212074 7.24361431235e-20)
(-146.034551849 1.55931932312 8.23651424369e-20)
(-147.725771569 2.30416741397 4.19203052329e-20)
(-149.979850797 3.15702018407 2.34117384892e-20)
(-152.725428132 4.15315633363 8.90160048526e-21)
(-155.890234761 5.31437616666 1.02534132579e-20)
(-159.395747346 6.65455171236 4.84195512152e-21)
(-163.11624326 8.17161242903 9.46322031693e-21)
(-166.872897056 9.81617142342 -1.14687274869e-21)
(-170.398565362 11.4910703075 -2.72978923076e-20)
(-174.002102652 13.4060078467 1.00262635719e-21)
(-176.11624107 15.4019038696 -1.23870119938e-19)
(-176.709763924 17.2191441793 7.96636749805e-19)
(-175.070848905 19.3585185008 1.07334428078e-18)
(-170.130088386 20.1960738644 -2.14493750134e-18)
(-158.795740052 25.3711605293 6.64822889984e-18)
(-102.256380374 16.0005421467 5.1474397354e-18)
(2.31587868983 1.18385855042 -4.40849537314e-19)
(0.182480459751 0.116245285671 1.72851147836e-20)
(-144.394080615 -0.00887364355124 6.87687046725e-20)
(-145.386633426 0.0112373991375 5.74552922196e-20)
(-146.445513456 0.0910115489403 5.17361470379e-20)
(-148.249910296 0.262464611757 2.91121821671e-20)
(-150.654890763 0.595383712653 -1.69011281825e-20)
(-153.583992349 1.11649855184 3.71659412465e-20)
(-156.977325187 1.87860348239 7.6667590528e-21)
(-160.741650822 2.9398804848 -6.41731745438e-21)
(-164.758609708 4.34086962303 2.06910199632e-20)
(-168.850048995 6.13846357372 8.76185770278e-21)
(-172.781169401 7.77599890964 3.6094552484e-20)
(-176.229751954 10.4226606832 2.54619879724e-20)
(-178.725207609 14.1375393601 -2.07339588726e-20)
(-179.665328808 17.8158796561 3.00544759297e-19)
(-178.499857633 22.8629128246 7.00687777797e-19)
(-176.100727492 29.5032747674 -4.96223278335e-18)
(-166.551515672 43.927936989 1.54054330266e-18)
(-104.658979246 27.1192148693 -2.95484656134e-18)
(4.70529318407 3.02210614912 3.58468907434e-19)
(0.0263901886868 0.290152806291 3.51226714407e-20)
(-144.07460714 -0.360012697064 9.53055323329e-20)
(-145.094250412 -0.943405120338 6.2181669967e-21)
(-146.261907182 -1.50229761419 8.03035777694e-21)
(-148.205722449 -1.93005639427 -7.62266318998e-22)
(-150.803585293 -2.16773672838 2.40292247345e-20)
(-153.986186973 -2.1674669895 1.28546187186e-20)
(-157.684899422 -1.85520141258 1.68594679733e-20)
(-161.829600958 -1.14444701371 2.20587292578e-20)
(-166.314627327 0.0419876125654 2.02792464453e-20)
(-170.989571909 1.76442754941 1.59227611562e-20)
(-175.640392363 4.06902854792 2.31627347409e-20)
(-179.382755901 7.39218403432 2.96819711829e-20)
(-182.861973981 11.8883597674 -1.4152134574e-19)
(-184.964583482 17.520545277 -7.87619053192e-19)
(-185.277712098 23.7739487462 -2.06548250104e-18)
(-183.626554473 32.8558976719 -2.37056060873e-18)
(-174.688668937 57.7345987296 -6.63481215812e-18)
(-120.385885972 35.9242300605 1.15512987669e-18)
(2.90702858149 3.52800827664 -3.27485584e-19)
(-0.0500716419174 0.369337449912 -1.11480171123e-21)
(-143.068862588 -0.721446353477 5.60291003863e-20)
(-144.153971423 -1.97639361753 -3.43800692614e-20)
(-145.431784156 -3.21939465482 -2.51462186028e-20)
(-141.356723128 -1.11705042579 1.94660127743e-20)
(-138.894802005 -1.54519436094 8.52161976188e-20)
(-135.612655189 -1.99707046544 9.36366976827e-20)
)
;

boundaryField
{
    back
    {
        type            calculated;
        value           uniform (0 0 0);
    }
    sides
    {
        type            calculated;
        value           nonuniform List<vector> 0();
    }
    bottom
    {
        type            calculated;
        value           uniform (0 0 0);
    }
    front
    {
        type            calculated;
        value           uniform (0 0 0);
    }
    atmosphere
    {
        type            calculated;
        value           nonuniform List<vector> 8((0.472697760571 1.09527916362 -5.2506716822e-20) (-2.08835324455 -1.58647611422 -1.77178012093e-19) (1.23129090476 -3.96802375275 -2.38174815421e-20) (-0.916620571472 1.29739093014 5.22380985366e-20) (8.23827088567e-07 0.364806475606 -4.95044297417e-26) (-1.52437178436e-06 0.116245285682 1.0226928162e-25) (-3.48310956887e-06 0.290152806556 -3.70804346857e-25) (-2.44807119856e-06 0.369337450606 -2.39248512706e-26));
    }
    floatingObject
    {
        type            calculated;
        value           nonuniform List<vector> 0();
    }
    procBoundary9to6
    {
        type            processor;
        value           nonuniform List<vector> 4((-235.981108816 47.3568651174 -3.46433533479e-17) (-167.501665238 36.0468346342 -6.08355327688e-18) (-8.64990074504 2.25375712405 -1.46251721161e-18) (-0.487745545567 0.285762999824 -3.37311025446e-19));
    }
    procBoundary9to7
    {
        type            processor;
        value           nonuniform List<vector> 
16
(
(-131.102238865 1.91441961982 1.83205510965e-20)
(-131.854607758 5.48480761798 6.66386684695e-21)
(-132.595488497 9.17794134456 2.24732574985e-20)
(-133.994210044 12.9340778822 1.90865068401e-20)
(-135.915210986 16.7281427163 1.8805868437e-21)
(-138.336825381 20.5714815392 1.11976616464e-20)
(-141.285136 24.4547517149 3.2913140941e-20)
(-144.813787248 28.3549413039 -1.16694400207e-20)
(-148.99686443 32.2223118111 2.55195262548e-20)
(-153.937395226 35.9818898815 -1.60582127674e-20)
(-159.782083992 39.5278716308 -2.54009973147e-20)
(-166.716768602 42.6581599523 -1.74291451882e-20)
(-175.140864701 45.1532724267 -8.89174039853e-20)
(-185.436094427 46.7583726923 -1.09120330042e-19)
(-198.196843908 47.1351300767 3.09248701366e-19)
(-213.7561982 45.7645917324 1.21331569017e-18)
)
;
    }
    procBoundary9to10
    {
        type            processor;
        value           nonuniform List<vector> 
15
(
(-147.54421293 -4.30728305349 -2.13002140998e-20)
(-150.37466447 -5.17802444675 9.72173191045e-21)
(-153.861481046 -5.76288950517 2.21681547529e-21)
(-157.950340696 -5.97232842699 2.70221343561e-21)
(-162.576952379 -5.70414965235 2.00661840906e-20)
(-167.648920002 -4.83879147815 2.76781161771e-20)
(-173.039621551 -3.21505151815 -8.73536431586e-21)
(-178.506803925 -0.667042254376 -3.18551717538e-20)
(-142.503829422 -3.09554121051 -1.37668849308e-20)
(-147.54421293 -4.30728305349 -2.13002140998e-20)
(-143.908334807 -5.08549477129 4.72232220067e-20)
(-142.503829422 -3.09554121051 -1.37668849308e-20)
(-140.093058656 -4.31588448113 1.14681737045e-20)
(-136.874958957 -5.61863856562 -1.47371608045e-20)
(-131.449626249 -2.49364308151 2.20402025448e-20)
)
;
    }
    procBoundary9to11
    {
        type            processor;
        value           nonuniform List<vector> 9((-183.715039147 3.10902977662 -4.44230309394e-20) (-188.535493973 8.4379468627 -1.8637292703e-19) (-192.440347953 15.5786773047 -7.71129179481e-19) (-195.127656529 25.2005832258 -2.49953745444e-18) (-194.123879629 39.7116955207 2.74827742081e-18) (-186.997782267 60.3968149138 -3.81830170039e-18) (-145.367146671 34.8145830869 -3.74766987707e-18) (-1.17273663982 5.40682892084 -1.88125239188e-19) (-0.129222836096 0.348378223958 1.92664403436e-20));
    }
}


// ************************************************************************* //
