/*--------------------------------*- C++ -*----------------------------------*\
| =========                 |                                                 |
| \\      /  F ield         | OpenFOAM: The Open Source CFD Toolbox           |
|  \\    /   O peration     | Version:  v2012                                 |
|   \\  /    A nd           | Website:  www.openfoam.com                      |
|    \\/     M anipulation  |                                                 |
\*---------------------------------------------------------------------------*/
FoamFile
{
    version     2.0;
    format      ascii;
    class       volScalarField;
    location    "4.9";
    object      ddt0(k);
}
// * * * * * * * * * * * * * * * * * * * * * * * * * * * * * * * * * * * * * //

dimensions      [0 2 -3 0 0 0 0];


internalField   nonuniform List<scalar> 
166
(
-0.000548210629365
-0.000680919115563
-0.000719072708542
-0.000731202575105
-0.000735114529077
-0.000736968061781
-0.000738590734527
-0.000740448326114
-0.000742656883331
-0.000745369687521
-0.000749134211279
-0.000755763198024
-0.000770989015684
-0.000814144369088
-0.000958873767074
-0.00153058433964
-0.00388931466436
-0.0110302560457
-0.00896721845601
0.0893723575534
-0.00054664116422
-0.000678593962651
-0.000717003427304
-0.00072935004617
-0.000733362089612
-0.00073520782531
-0.000736752386154
-0.000738485507343
-0.00074053507822
-0.000743071879358
-0.000746652587044
-0.000753108988467
-0.000767859424121
-0.000809090466522
-0.000944403581752
-0.00146044622419
-0.00365289804271
-0.0111127379653
-0.0220139307188
0.00513306966441
-0.000545042738114
-0.000676058352932
-0.000714778370871
-0.000727364755669
-0.000731497226632
-0.000733352646694
-0.000734835370897
-0.000736461634639
-0.000738365053041
-0.0007407360475
-0.000744133045669
-0.000750309855689
-0.000764466376106
-0.00080338687482
-0.000928318357422
-0.00137525457949
-0.00322368078337
-0.00970924132028
-0.0160868464646
0.0312572916168
-0.000543307328198
-0.000673371154911
-0.000712414431367
-0.000725272460988
-0.000729543390724
-0.000731422909252
-0.000732855764443
-0.000734376599684
-0.000736150797662
-0.000738351517728
-0.000741562332164
-0.000747396145175
-0.000760753337366
-0.000797010909593
-0.00091178423272
-0.00128862128699
-0.00266379074283
-0.00754319463454
-0.00466945103384
0.0733245698753
-0.000541549213373
-0.000670524547387
-0.000709921626749
-0.000723087888934
-0.000727521003816
-0.000729441984819
-0.000730823709642
-0.000732246178562
-0.000733893140581
-0.000735927683268
-0.000738903060445
-0.000744397479894
-0.000756862196293
-0.000790143365398
-0.00089438802534
-0.00121354657571
-0.00214070458963
-0.00600607571069
-0.0135263183724
0.00443678243385
-0.000539771300487
-0.00066749807135
-0.000707326981898
-0.000720834904876
-0.000725451875345
-0.000727420091343
-0.000728763371719
-0.000730099632447
-0.000731617273396
-0.000733486946676
-0.000736214933016
-0.000741334776418
-0.000752862983686
-0.000782596854276
-0.000875062708427
-0.00114220613434
-0.00165025817892
-0.00391067774238
-0.0140857823728
-0.0072583226761
-0.000538004448356
-0.00066431573598
-0.000704643453584
-0.000718551247529
-0.000723371203718
-0.000725379878994
-0.000726693058738
-0.000727951994078
-0.000729354572777
-0.000731080521988
-0.000733573256258
-0.000738325232395
-0.00074872934343
-0.000774873574953
-0.000852954107992
-0.00106137475892
-0.00113512699338
-0.00200748988547
-0.0180854776303
-0.0103195013511
-0.000535340858041
-0.000661387049447
-0.00070216864948
-0.000716355562046
-0.000721307987069
-0.000723336533178
-0.00072459391372
-0.000725749061435
-0.000727018531036
-0.000728536914576
-0.000730720522068
-0.000734673747363
-0.000743095496288
-0.00076347400115
-0.000824418597806
-0.000985181629901
-0.000686067113873
0.000287264112023
-0.0154500242934
-0.0102008069767
-0.000532674886163
-0.000658433051858
-0.000699645392902
-0.000529984206358
-0.000527225583057
-0.000524558463504
)
;

boundaryField
{
    back
    {
        type            calculated;
        value           nonuniform List<scalar> 
166
(
-0.000548210629365
-0.000680919115563
-0.000719072708542
-0.000731202575105
-0.000735114529077
-0.000736968061781
-0.000738590734527
-0.000740448326114
-0.000742656883331
-0.000745369687521
-0.000749134211279
-0.000755763198024
-0.000770989015684
-0.000814144369088
-0.000958873767074
-0.00153058433964
-0.00388931466436
-0.0110302560457
-0.00896721845601
0.0893723575534
-0.00054664116422
-0.000678593962651
-0.000717003427304
-0.00072935004617
-0.000733362089612
-0.00073520782531
-0.000736752386154
-0.000738485507343
-0.00074053507822
-0.000743071879358
-0.000746652587044
-0.000753108988467
-0.000767859424121
-0.000809090466522
-0.000944403581752
-0.00146044622419
-0.00365289804271
-0.0111127379653
-0.0220139307188
0.00513306966441
-0.000545042738114
-0.000676058352932
-0.000714778370871
-0.000727364755669
-0.000731497226632
-0.000733352646694
-0.000734835370897
-0.000736461634639
-0.000738365053041
-0.0007407360475
-0.000744133045669
-0.000750309855689
-0.000764466376106
-0.00080338687482
-0.000928318357422
-0.00137525457949
-0.00322368078337
-0.00970924132028
-0.0160868464646
0.0312572916168
-0.000543307328198
-0.000673371154911
-0.000712414431367
-0.000725272460988
-0.000729543390724
-0.000731422909252
-0.000732855764443
-0.000734376599684
-0.000736150797662
-0.000738351517728
-0.000741562332164
-0.000747396145175
-0.000760753337366
-0.000797010909593
-0.00091178423272
-0.00128862128699
-0.00266379074283
-0.00754319463454
-0.00466945103384
0.0733245698753
-0.000541549213373
-0.000670524547387
-0.000709921626749
-0.000723087888934
-0.000727521003816
-0.000729441984819
-0.000730823709642
-0.000732246178562
-0.000733893140581
-0.000735927683268
-0.000738903060445
-0.000744397479894
-0.000756862196293
-0.000790143365398
-0.00089438802534
-0.00121354657571
-0.00214070458963
-0.00600607571069
-0.0135263183724
0.00443678243385
-0.000539771300487
-0.00066749807135
-0.000707326981898
-0.000720834904876
-0.000725451875345
-0.000727420091343
-0.000728763371719
-0.000730099632447
-0.000731617273396
-0.000733486946676
-0.000736214933016
-0.000741334776418
-0.000752862983686
-0.000782596854275
-0.000875062708427
-0.00114220613434
-0.00165025817892
-0.00391067774238
-0.0140857823728
-0.0072583226761
-0.000538004448356
-0.00066431573598
-0.000704643453584
-0.000718551247529
-0.000723371203718
-0.000725379878994
-0.000726693058738
-0.000727951994078
-0.000729354572777
-0.000731080521988
-0.000733573256258
-0.000738325232395
-0.00074872934343
-0.000774873574953
-0.000852954107992
-0.00106137475892
-0.00113512699338
-0.00200748988547
-0.0180854776303
-0.0103195013511
-0.000535340858041
-0.000661387049447
-0.00070216864948
-0.000716355562046
-0.000721307987069
-0.000723336533178
-0.00072459391372
-0.000725749061435
-0.000727018531036
-0.000728536914576
-0.000730720522068
-0.000734673747363
-0.000743095496288
-0.00076347400115
-0.000824418597806
-0.000985181629901
-0.000686067113873
0.000287264112023
-0.0154500242934
-0.0102008069767
-0.000532674886163
-0.000658433051858
-0.000699645392902
-0.000529984206358
-0.000527225583057
-0.000524558463504
)
;
    }
    sides
    {
        type            calculated;
        value           nonuniform List<scalar> 0();
    }
    bottom
    {
        type            calculated;
        value           nonuniform List<scalar> 
12
(
-0.000548210629365
-0.00054664116422
-0.000545042738114
-0.000543307328198
-0.000541549213373
-0.000539771300487
-0.000538004448356
-0.000535340858041
-0.000532674886163
-0.000529984206358
-0.000527225583057
-0.000524558463504
)
;
    }
    front
    {
        type            calculated;
        value           nonuniform List<scalar> 
166
(
-0.000548210629365
-0.000680919115563
-0.000719072708542
-0.000731202575105
-0.000735114529077
-0.000736968061781
-0.000738590734527
-0.000740448326114
-0.000742656883331
-0.000745369687521
-0.000749134211279
-0.000755763198024
-0.000770989015684
-0.000814144369088
-0.000958873767074
-0.00153058433964
-0.00388931466436
-0.0110302560457
-0.00896721845601
0.0893723575534
-0.00054664116422
-0.000678593962651
-0.000717003427304
-0.00072935004617
-0.000733362089612
-0.00073520782531
-0.000736752386154
-0.000738485507343
-0.00074053507822
-0.000743071879358
-0.000746652587044
-0.000753108988467
-0.000767859424121
-0.000809090466522
-0.000944403581752
-0.00146044622419
-0.00365289804271
-0.0111127379653
-0.0220139307188
0.00513306966441
-0.000545042738114
-0.000676058352932
-0.000714778370871
-0.000727364755669
-0.000731497226632
-0.000733352646694
-0.000734835370897
-0.000736461634639
-0.000738365053041
-0.0007407360475
-0.000744133045669
-0.000750309855689
-0.000764466376106
-0.00080338687482
-0.000928318357422
-0.00137525457949
-0.00322368078337
-0.00970924132028
-0.0160868464646
0.0312572916168
-0.000543307328198
-0.000673371154911
-0.000712414431367
-0.000725272460988
-0.000729543390724
-0.000731422909252
-0.000732855764443
-0.000734376599684
-0.000736150797662
-0.000738351517728
-0.000741562332164
-0.000747396145175
-0.000760753337366
-0.000797010909593
-0.00091178423272
-0.00128862128699
-0.00266379074283
-0.00754319463454
-0.00466945103384
0.0733245698753
-0.000541549213373
-0.000670524547387
-0.000709921626749
-0.000723087888934
-0.000727521003816
-0.000729441984819
-0.000730823709642
-0.000732246178562
-0.000733893140581
-0.000735927683268
-0.000738903060445
-0.000744397479894
-0.000756862196293
-0.000790143365398
-0.00089438802534
-0.00121354657571
-0.00214070458963
-0.00600607571069
-0.0135263183724
0.00443678243385
-0.000539771300487
-0.00066749807135
-0.000707326981898
-0.000720834904876
-0.000725451875345
-0.000727420091343
-0.000728763371719
-0.000730099632447
-0.000731617273396
-0.000733486946676
-0.000736214933016
-0.000741334776418
-0.000752862983686
-0.000782596854275
-0.000875062708427
-0.00114220613434
-0.00165025817892
-0.00391067774238
-0.0140857823728
-0.0072583226761
-0.000538004448356
-0.00066431573598
-0.000704643453584
-0.000718551247529
-0.000723371203718
-0.000725379878994
-0.000726693058738
-0.000727951994078
-0.000729354572777
-0.000731080521988
-0.000733573256258
-0.000738325232395
-0.00074872934343
-0.000774873574953
-0.000852954107992
-0.00106137475892
-0.00113512699338
-0.00200748988547
-0.0180854776303
-0.0103195013511
-0.000535340858041
-0.000661387049447
-0.00070216864948
-0.000716355562046
-0.000721307987069
-0.000723336533178
-0.00072459391372
-0.000725749061435
-0.000727018531036
-0.000728536914576
-0.000730720522068
-0.000734673747363
-0.000743095496288
-0.00076347400115
-0.000824418597806
-0.000985181629901
-0.000686067113873
0.000287264112023
-0.0154500242934
-0.0102008069767
-0.000532674886163
-0.000658433051858
-0.000699645392902
-0.000529984206358
-0.000527225583057
-0.000524558463504
)
;
    }
    atmosphere
    {
        type            calculated;
        value           nonuniform List<scalar> 8(-0.301371080627 0.00531085903088 0.0309006308661 -0.291283329711 -2.94565244368e-07 4.07625222521e-07 9.31674186989e-07 6.80501548377e-07);
    }
    floatingObject
    {
        type            calculated;
        value           nonuniform List<scalar> 0();
    }
    procBoundary9to6
    {
        type            processor;
        value           nonuniform List<scalar> 4(-0.00396606692471 -0.0113037168352 -0.0164131142376 0.0424074078772);
    }
    procBoundary9to7
    {
        type            processor;
        value           nonuniform List<scalar> 
16
(
-0.00054963535311
-0.000683046123176
-0.000720955112236
-0.000732902438753
-0.000736743185064
-0.000738621872207
-0.000740334432745
-0.000742322288828
-0.000744690284038
-0.000747579538292
-0.000751517106349
-0.00075828440297
-0.000773786678435
-0.000817511487609
-0.000964297820038
-0.00155005013331
)
;
    }
    procBoundary9to10
    {
        type            processor;
        value           nonuniform List<scalar> 
15
(
-0.00071413532837
-0.000719225849229
-0.000721285012803
-0.000722502877787
-0.000723575208687
-0.000724706926725
-0.000726022134343
-0.000727712466613
-0.000655416377295
-0.00071413532837
-0.000697077409739
-0.000655416377295
-0.000652357948932
-0.000649292046408
-0.000521842696347
)
;
    }
    procBoundary9to11
    {
        type            processor;
        value           nonuniform List<scalar> 9(-0.000730563489073 -0.000735340038228 -0.000743076314268 -0.000764426997679 -0.000797107820863 -0.00010581874039 0.00230826226065 -0.0133730438459 -0.0108647639062);
    }
}


// ************************************************************************* //
