/*--------------------------------*- C++ -*----------------------------------*\
| =========                 |                                                 |
| \\      /  F ield         | OpenFOAM: The Open Source CFD Toolbox           |
|  \\    /   O peration     | Version:  v2012                                 |
|   \\  /    A nd           | Website:  www.openfoam.com                      |
|    \\/     M anipulation  |                                                 |
\*---------------------------------------------------------------------------*/
FoamFile
{
    version     2.0;
    format      ascii;
    class       volScalarField;
    location    "4.9";
    object      rAU;
}
// * * * * * * * * * * * * * * * * * * * * * * * * * * * * * * * * * * * * * //

dimensions      [-1 3 1 0 0 0 0];


internalField   nonuniform List<scalar> 
166
(
2.20219625514e-05
2.18759460227e-05
2.18496054685e-05
2.18486942826e-05
2.18488389404e-05
2.18490633423e-05
2.18492895243e-05
2.18497531185e-05
2.18503034095e-05
2.1850726105e-05
2.18490020455e-05
2.18480566127e-05
2.18454038521e-05
2.18314119946e-05
2.17812135205e-05
2.16915824086e-05
2.14574210395e-05
3.49476916486e-05
0.00124415932895
0.0147202491586
2.20151866227e-05
2.18701036054e-05
2.18455960315e-05
2.18464870896e-05
2.18479392515e-05
2.18486973441e-05
2.18492747782e-05
2.18501643251e-05
2.18502293797e-05
2.18502332219e-05
2.18495919369e-05
2.18495539564e-05
2.18471372153e-05
2.18363712589e-05
2.17888523573e-05
2.16555785643e-05
2.13941889555e-05
3.36939079456e-05
0.00101014774693
0.0171677604803
2.20046317633e-05
2.18616955006e-05
2.18414810685e-05
2.18451135893e-05
2.18485154075e-05
2.18497205385e-05
2.18510764457e-05
2.18514229521e-05
2.18512042389e-05
2.18512928815e-05
2.1852653963e-05
2.18518175343e-05
2.18495026015e-05
2.1846474811e-05
2.18148096484e-05
2.16876459572e-05
2.14707143035e-05
3.26571392348e-05
0.000826637267238
0.0163995765459
2.19855364307e-05
2.18505782912e-05
2.18396981756e-05
2.18472020042e-05
2.18505074316e-05
2.18522550291e-05
2.18539265619e-05
2.18541351211e-05
2.18548944718e-05
2.18559881025e-05
2.18563831353e-05
2.18553637549e-05
2.18553549591e-05
2.18581709007e-05
2.1831092512e-05
2.17729732863e-05
2.16229088948e-05
3.16760082932e-05
0.000739660311394
0.013431536615
2.19403873317e-05
2.18440748727e-05
2.18447178068e-05
2.185216785e-05
2.18552862616e-05
2.18569673935e-05
2.18571158224e-05
2.1857911423e-05
2.18586038633e-05
2.18587959866e-05
2.18581016535e-05
2.18576448825e-05
2.18581007449e-05
2.18604673923e-05
2.18265737303e-05
2.17831770078e-05
2.16599514076e-05
3.15036404168e-05
0.000666000002059
0.0135438733066
2.18378662874e-05
2.18651932156e-05
2.1861158479e-05
2.18619606682e-05
2.18628048841e-05
2.18626080038e-05
2.18615604057e-05
2.18613457938e-05
2.18606347331e-05
2.18597235225e-05
2.18588593823e-05
2.18583761743e-05
2.18550066726e-05
2.18546729485e-05
2.18202170222e-05
2.17585621615e-05
2.16203327771e-05
3.15693762901e-05
0.000619429897827
0.0134057827461
2.19475545069e-05
2.19076130393e-05
2.18813367458e-05
2.18737432172e-05
2.18695021354e-05
2.18674299823e-05
2.1866364272e-05
2.18647474765e-05
2.1863042409e-05
2.18621487716e-05
2.18610580705e-05
2.18591062343e-05
2.18542283958e-05
2.18467508719e-05
2.18056120388e-05
2.17443005212e-05
2.16240496007e-05
3.11227935954e-05
0.000580579064505
0.0157410381362
2.21162280206e-05
2.19319018748e-05
2.18931478181e-05
2.18810082766e-05
2.18748104467e-05
2.18715066472e-05
2.18697182171e-05
2.18683681795e-05
2.18671102508e-05
2.18656413962e-05
2.18639495571e-05
2.18606220845e-05
2.18550963237e-05
2.1839254706e-05
2.18047643705e-05
2.1746051126e-05
2.16352454252e-05
3.06644569425e-05
0.000536918696161
0.0159755559722
2.20932628388e-05
2.19322114871e-05
2.18965975825e-05
2.20786490674e-05
2.20692330252e-05
2.2062920877e-05
)
;

boundaryField
{
    back
    {
        type            calculated;
        value           nonuniform List<scalar> 
166
(
2.20219625514e-05
2.18759460227e-05
2.18496054685e-05
2.18486942826e-05
2.18488389404e-05
2.18490633423e-05
2.18492895243e-05
2.18497531185e-05
2.18503034095e-05
2.1850726105e-05
2.18490020455e-05
2.18480566127e-05
2.18454038521e-05
2.18314119946e-05
2.17812135205e-05
2.16915824086e-05
2.14574210395e-05
3.49476916486e-05
0.00124415932895
0.0147202491586
2.20151866227e-05
2.18701036054e-05
2.18455960315e-05
2.18464870896e-05
2.18479392515e-05
2.18486973441e-05
2.18492747782e-05
2.18501643251e-05
2.18502293797e-05
2.18502332219e-05
2.18495919369e-05
2.18495539564e-05
2.18471372153e-05
2.18363712589e-05
2.17888523573e-05
2.16555785643e-05
2.13941889555e-05
3.36939079456e-05
0.00101014774693
0.0171677604803
2.20046317633e-05
2.18616955006e-05
2.18414810685e-05
2.18451135893e-05
2.18485154075e-05
2.18497205385e-05
2.18510764457e-05
2.18514229521e-05
2.18512042389e-05
2.18512928815e-05
2.1852653963e-05
2.18518175343e-05
2.18495026015e-05
2.1846474811e-05
2.18148096484e-05
2.16876459572e-05
2.14707143035e-05
3.26571392348e-05
0.000826637267238
0.0163995765459
2.19855364307e-05
2.18505782912e-05
2.18396981756e-05
2.18472020042e-05
2.18505074316e-05
2.18522550291e-05
2.18539265619e-05
2.18541351211e-05
2.18548944718e-05
2.18559881025e-05
2.18563831353e-05
2.18553637549e-05
2.18553549591e-05
2.18581709007e-05
2.1831092512e-05
2.17729732863e-05
2.16229088948e-05
3.16760082932e-05
0.000739660311394
0.013431536615
2.19403873317e-05
2.18440748727e-05
2.18447178068e-05
2.185216785e-05
2.18552862616e-05
2.18569673935e-05
2.18571158224e-05
2.1857911423e-05
2.18586038633e-05
2.18587959866e-05
2.18581016535e-05
2.18576448825e-05
2.18581007449e-05
2.18604673923e-05
2.18265737303e-05
2.17831770078e-05
2.16599514076e-05
3.15036404168e-05
0.000666000002059
0.0135438733066
2.18378662874e-05
2.18651932156e-05
2.1861158479e-05
2.18619606682e-05
2.18628048841e-05
2.18626080038e-05
2.18615604057e-05
2.18613457938e-05
2.18606347331e-05
2.18597235225e-05
2.18588593823e-05
2.18583761743e-05
2.18550066726e-05
2.18546729485e-05
2.18202170222e-05
2.17585621615e-05
2.16203327771e-05
3.15693762901e-05
0.000619429897827
0.0134057827461
2.19475545069e-05
2.19076130393e-05
2.18813367458e-05
2.18737432172e-05
2.18695021354e-05
2.18674299823e-05
2.1866364272e-05
2.18647474765e-05
2.1863042409e-05
2.18621487716e-05
2.18610580705e-05
2.18591062343e-05
2.18542283958e-05
2.18467508719e-05
2.18056120388e-05
2.17443005212e-05
2.16240496007e-05
3.11227935954e-05
0.000580579064505
0.0157410381362
2.21162280206e-05
2.19319018748e-05
2.18931478181e-05
2.18810082766e-05
2.18748104467e-05
2.18715066472e-05
2.18697182171e-05
2.18683681795e-05
2.18671102508e-05
2.18656413962e-05
2.18639495571e-05
2.18606220845e-05
2.18550963237e-05
2.1839254706e-05
2.18047643705e-05
2.1746051126e-05
2.16352454252e-05
3.06644569425e-05
0.000536918696161
0.0159755559722
2.20932628388e-05
2.19322114871e-05
2.18965975825e-05
2.20786490674e-05
2.20692330252e-05
2.2062920877e-05
)
;
    }
    sides
    {
        type            calculated;
        value           nonuniform List<scalar> 0();
    }
    bottom
    {
        type            calculated;
        value           nonuniform List<scalar> 
12
(
2.20219625514e-05
2.20151866227e-05
2.20046317633e-05
2.19855364307e-05
2.19403873317e-05
2.18378662874e-05
2.19475545069e-05
2.21162280206e-05
2.20932628388e-05
2.20786490674e-05
2.20692330252e-05
2.2062920877e-05
)
;
    }
    front
    {
        type            calculated;
        value           nonuniform List<scalar> 
166
(
2.20219625514e-05
2.18759460227e-05
2.18496054685e-05
2.18486942826e-05
2.18488389404e-05
2.18490633423e-05
2.18492895243e-05
2.18497531185e-05
2.18503034095e-05
2.1850726105e-05
2.18490020455e-05
2.18480566127e-05
2.18454038521e-05
2.18314119946e-05
2.17812135205e-05
2.16915824086e-05
2.14574210395e-05
3.49476916486e-05
0.00124415932895
0.0147202491586
2.20151866227e-05
2.18701036054e-05
2.18455960315e-05
2.18464870896e-05
2.18479392515e-05
2.18486973441e-05
2.18492747782e-05
2.18501643251e-05
2.18502293797e-05
2.18502332219e-05
2.18495919369e-05
2.18495539564e-05
2.18471372153e-05
2.18363712589e-05
2.17888523573e-05
2.16555785643e-05
2.13941889555e-05
3.36939079456e-05
0.00101014774693
0.0171677604803
2.20046317633e-05
2.18616955006e-05
2.18414810685e-05
2.18451135893e-05
2.18485154075e-05
2.18497205385e-05
2.18510764457e-05
2.18514229521e-05
2.18512042389e-05
2.18512928815e-05
2.1852653963e-05
2.18518175343e-05
2.18495026015e-05
2.1846474811e-05
2.18148096484e-05
2.16876459572e-05
2.14707143035e-05
3.26571392348e-05
0.000826637267238
0.0163995765459
2.19855364307e-05
2.18505782912e-05
2.18396981756e-05
2.18472020042e-05
2.18505074316e-05
2.18522550291e-05
2.18539265619e-05
2.18541351211e-05
2.18548944718e-05
2.18559881025e-05
2.18563831353e-05
2.18553637549e-05
2.18553549591e-05
2.18581709007e-05
2.1831092512e-05
2.17729732863e-05
2.16229088948e-05
3.16760082932e-05
0.000739660311394
0.013431536615
2.19403873317e-05
2.18440748727e-05
2.18447178068e-05
2.185216785e-05
2.18552862616e-05
2.18569673935e-05
2.18571158224e-05
2.1857911423e-05
2.18586038633e-05
2.18587959866e-05
2.18581016535e-05
2.18576448825e-05
2.18581007449e-05
2.18604673923e-05
2.18265737303e-05
2.17831770078e-05
2.16599514076e-05
3.15036404168e-05
0.000666000002059
0.0135438733066
2.18378662874e-05
2.18651932156e-05
2.1861158479e-05
2.18619606682e-05
2.18628048841e-05
2.18626080038e-05
2.18615604057e-05
2.18613457938e-05
2.18606347331e-05
2.18597235225e-05
2.18588593823e-05
2.18583761743e-05
2.18550066726e-05
2.18546729485e-05
2.18202170222e-05
2.17585621615e-05
2.16203327771e-05
3.15693762901e-05
0.000619429897827
0.0134057827461
2.19475545069e-05
2.19076130393e-05
2.18813367458e-05
2.18737432172e-05
2.18695021354e-05
2.18674299823e-05
2.1866364272e-05
2.18647474765e-05
2.1863042409e-05
2.18621487716e-05
2.18610580705e-05
2.18591062343e-05
2.18542283958e-05
2.18467508719e-05
2.18056120388e-05
2.17443005212e-05
2.16240496007e-05
3.11227935954e-05
0.000580579064505
0.0157410381362
2.21162280206e-05
2.19319018748e-05
2.18931478181e-05
2.18810082766e-05
2.18748104467e-05
2.18715066472e-05
2.18697182171e-05
2.18683681795e-05
2.18671102508e-05
2.18656413962e-05
2.18639495571e-05
2.18606220845e-05
2.18550963237e-05
2.1839254706e-05
2.18047643705e-05
2.1746051126e-05
2.16352454252e-05
3.06644569425e-05
0.000536918696161
0.0159755559722
2.20932628388e-05
2.19322114871e-05
2.18965975825e-05
2.20786490674e-05
2.20692330252e-05
2.2062920877e-05
)
;
    }
    atmosphere
    {
        type            calculated;
        value           nonuniform List<scalar> 8(0.0147202491586 0.0171677604803 0.0163995765459 0.013431536615 0.0135438733066 0.0134057827461 0.0157410381362 0.0159755559722);
    }
    floatingObject
    {
        type            calculated;
        value           nonuniform List<scalar> 0();
    }
    procBoundary9to6
    {
        type            processor;
        value           nonuniform List<scalar> 4(2.14907095495e-05 3.62385682997e-05 0.00149770549687 0.0153140561889);
    }
    procBoundary9to7
    {
        type            processor;
        value           nonuniform List<scalar> 
16
(
2.20268243174e-05
2.18805608674e-05
2.18531779642e-05
2.1851021796e-05
2.18500554982e-05
2.18497699515e-05
2.18496836534e-05
2.1849678475e-05
2.18495600803e-05
2.18491752798e-05
2.18472387766e-05
2.18437873281e-05
2.18400315908e-05
2.18241772659e-05
2.17782593272e-05
2.17132445563e-05
)
;
    }
    procBoundary9to10
    {
        type            processor;
        value           nonuniform List<scalar> 
15
(
2.18847610152e-05
2.18786605819e-05
2.18749061389e-05
2.18723649607e-05
2.187091661e-05
2.18703838881e-05
2.18688348713e-05
2.18662391108e-05
2.19265519584e-05
2.18847610152e-05
2.18952487693e-05
2.19265519584e-05
2.19208656488e-05
2.19162986978e-05
2.20584066018e-05
)
;
    }
    procBoundary9to11
    {
        type            processor;
        value           nonuniform List<scalar> 9(2.1862111483e-05 2.18547514111e-05 2.18397890326e-05 2.1808873895e-05 2.17276324543e-05 2.16270093387e-05 3.01359344583e-05 0.000479382255536 0.0131675569183);
    }
}


// ************************************************************************* //
