/*--------------------------------*- C++ -*----------------------------------*\
| =========                 |                                                 |
| \\      /  F ield         | OpenFOAM: The Open Source CFD Toolbox           |
|  \\    /   O peration     | Version:  v2012                                 |
|   \\  /    A nd           | Website:  www.openfoam.com                      |
|    \\/     M anipulation  |                                                 |
\*---------------------------------------------------------------------------*/
FoamFile
{
    version     2.0;
    format      ascii;
    class       volScalarField;
    location    "4.1";
    object      p_rgh;
}
// * * * * * * * * * * * * * * * * * * * * * * * * * * * * * * * * * * * * * //

dimensions      [1 -1 -2 0 0 0 0];


internalField   nonuniform List<scalar> 
164
(
8665.35847445
8665.69166065
8666.34793551
8667.35023522
8668.71781907
8670.47626198
8672.66304349
8675.325678
8667.7703505
8668.10687506
8668.76563522
8669.77383821
8671.14774156
8672.91224208
8675.10126891
8677.75819076
8669.86169113
8670.18487689
8670.83627546
8671.82991822
8673.18101593
8674.9123403
8677.05434718
8679.6432171
8682.72091574
8686.36623809
8671.62814464
8671.93688417
8672.56680876
8673.52702096
8674.82983135
8676.49461566
8678.54726412
8681.01704257
8683.94705437
8687.3942712
8673.08050474
8673.37133412
8673.96889015
8674.87936544
8676.11193205
8677.68196237
8679.61006269
8681.91757196
8684.63622578
8687.81177682
8674.23390235
8674.50296792
8675.05944618
8675.90676391
8677.05112238
8678.50384695
8680.27952214
8682.3925876
8684.86135906
8687.71797429
8675.10730046
8675.3512817
8675.85969678
8676.63347432
8677.67586312
8678.99433316
8680.59797853
8682.49434221
8684.69251567
8687.20917362
8675.7228841
8675.93925255
8676.3943714
8677.08699444
8678.01758056
8679.19008437
8680.6089825
8682.2763127
8684.19406634
8686.36734536
8676.10559114
8676.2924324
8676.69065373
8677.29699121
8678.10934014
8679.12888305
8680.35670726
8681.79089994
8683.4277096
8685.26268892
8676.28190658
8676.43816556
8676.77719951
8677.29417516
8677.98497578
8678.84883073
8679.88437284
8681.08663224
8682.44882273
8683.95770432
8676.27944098
8676.40469293
8676.68356004
8677.10997014
8677.67860887
8678.38709729
8679.23182674
8680.20663372
8681.30388961
8682.50661854
8676.12636981
8676.22051019
8676.43946907
8676.77589846
8677.22330701
8677.77813813
8678.4354881
8679.18916138
8680.03191958
8680.95213458
8675.85048325
8675.91403661
8676.07410651
8676.32207276
8676.65033564
8677.05439471
8677.52898239
8678.06820472
8678.66645409
8679.3160038
8675.47909335
8675.51298112
8675.6157986
8675.77760083
8675.98980951
8676.24700959
8676.5435344
8676.87439283
8677.23577855
8677.61930128
8675.03846671
8675.04418134
8675.09192267
8675.17075537
8675.27090735
8675.38557388
8675.50852051
8675.63671656
8675.76447961
8675.88517408
8674.55430622
8674.53305088
8674.5288117
8674.52930209
8674.52153107
8674.49948409
8674.45568671
8674.38424986
8674.28109678
8674.13741272
8674.04968744
8674.00407171
8673.95233094
8673.87830504
8673.77221826
8673.61946067
8673.41329385
8673.04567198
)
;

boundaryField
{
    back
    {
        type            fixedFluxPressure;
        gradient        uniform 0;
        value           nonuniform List<scalar> 
164
(
8665.35847445
8665.69166065
8666.34793551
8667.35023522
8668.71781907
8670.47626198
8672.66304349
8675.325678
8667.7703505
8668.10687506
8668.76563522
8669.77383821
8671.14774156
8672.91224208
8675.10126891
8677.75819076
8669.86169113
8670.18487689
8670.83627546
8671.82991822
8673.18101593
8674.9123403
8677.05434718
8679.6432171
8682.72091574
8686.36623809
8671.62814464
8671.93688417
8672.56680876
8673.52702096
8674.82983135
8676.49461566
8678.54726412
8681.01704257
8683.94705437
8687.3942712
8673.08050474
8673.37133412
8673.96889015
8674.87936544
8676.11193205
8677.68196237
8679.61006269
8681.91757196
8684.63622578
8687.81177682
8674.23390235
8674.50296792
8675.05944618
8675.90676391
8677.05112238
8678.50384695
8680.27952214
8682.3925876
8684.86135906
8687.71797429
8675.10730046
8675.3512817
8675.85969678
8676.63347432
8677.67586312
8678.99433316
8680.59797853
8682.49434221
8684.69251567
8687.20917362
8675.7228841
8675.93925255
8676.3943714
8677.08699444
8678.01758056
8679.19008437
8680.6089825
8682.2763127
8684.19406634
8686.36734536
8676.10559114
8676.2924324
8676.69065373
8677.29699121
8678.10934014
8679.12888305
8680.35670726
8681.79089994
8683.4277096
8685.26268892
8676.28190658
8676.43816556
8676.77719951
8677.29417516
8677.98497578
8678.84883073
8679.88437284
8681.08663224
8682.44882273
8683.95770432
8676.27944098
8676.40469293
8676.68356004
8677.10997014
8677.67860887
8678.38709729
8679.23182674
8680.20663372
8681.30388961
8682.50661854
8676.12636981
8676.22051019
8676.43946907
8676.77589846
8677.22330701
8677.77813813
8678.4354881
8679.18916138
8680.03191958
8680.95213458
8675.85048325
8675.91403661
8676.07410651
8676.32207276
8676.65033564
8677.05439471
8677.52898239
8678.06820472
8678.66645409
8679.3160038
8675.47909335
8675.51298112
8675.6157986
8675.77760083
8675.98980951
8676.24700959
8676.5435344
8676.87439283
8677.23577855
8677.61930128
8675.03846671
8675.04418134
8675.09192267
8675.17075537
8675.27090735
8675.38557388
8675.50852051
8675.63671656
8675.76447961
8675.88517408
8674.55430622
8674.53305088
8674.5288117
8674.52930209
8674.52153107
8674.49948409
8674.45568671
8674.38424986
8674.28109678
8674.13741272
8674.04968744
8674.00407171
8673.95233094
8673.87830504
8673.77221826
8673.61946067
8673.41329385
8673.04567198
)
;
    }
    sides
    {
        type            fixedFluxPressure;
        gradient        nonuniform List<scalar> 0();
        value           nonuniform List<scalar> 0();
    }
    bottom
    {
        type            fixedFluxPressure;
        gradient        uniform 0;
        value           nonuniform List<scalar> 
17
(
8665.35847445
8667.7703505
8669.86169113
8671.62814464
8673.08050474
8674.23390235
8675.10730046
8675.7228841
8676.10559114
8676.28190658
8676.27944098
8676.12636981
8675.85048325
8675.47909335
8675.03846671
8674.55430622
8674.04968744
)
;
    }
    front
    {
        type            fixedFluxPressure;
        gradient        uniform 0;
        value           nonuniform List<scalar> 
164
(
8665.35847445
8665.69166065
8666.34793551
8667.35023522
8668.71781907
8670.47626198
8672.66304349
8675.325678
8667.7703505
8668.10687506
8668.76563522
8669.77383821
8671.14774156
8672.91224208
8675.10126891
8677.75819076
8669.86169113
8670.18487689
8670.83627546
8671.82991822
8673.18101593
8674.9123403
8677.05434718
8679.6432171
8682.72091574
8686.36623809
8671.62814464
8671.93688417
8672.56680876
8673.52702096
8674.82983135
8676.49461566
8678.54726412
8681.01704257
8683.94705437
8687.3942712
8673.08050474
8673.37133412
8673.96889015
8674.87936544
8676.11193205
8677.68196237
8679.61006269
8681.91757196
8684.63622578
8687.81177682
8674.23390235
8674.50296792
8675.05944618
8675.90676391
8677.05112238
8678.50384695
8680.27952214
8682.3925876
8684.86135906
8687.71797429
8675.10730046
8675.3512817
8675.85969678
8676.63347432
8677.67586312
8678.99433316
8680.59797853
8682.49434221
8684.69251567
8687.20917362
8675.7228841
8675.93925255
8676.3943714
8677.08699444
8678.01758056
8679.19008437
8680.6089825
8682.2763127
8684.19406634
8686.36734536
8676.10559114
8676.2924324
8676.69065373
8677.29699121
8678.10934014
8679.12888305
8680.35670726
8681.79089994
8683.4277096
8685.26268892
8676.28190658
8676.43816556
8676.77719951
8677.29417516
8677.98497578
8678.84883073
8679.88437284
8681.08663224
8682.44882273
8683.95770432
8676.27944098
8676.40469293
8676.68356004
8677.10997014
8677.67860887
8678.38709729
8679.23182674
8680.20663372
8681.30388961
8682.50661854
8676.12636981
8676.22051019
8676.43946907
8676.77589846
8677.22330701
8677.77813813
8678.4354881
8679.18916138
8680.03191958
8680.95213458
8675.85048325
8675.91403661
8676.07410651
8676.32207276
8676.65033564
8677.05439471
8677.52898239
8678.06820472
8678.66645409
8679.3160038
8675.47909335
8675.51298112
8675.6157986
8675.77760083
8675.98980951
8676.24700959
8676.5435344
8676.87439283
8677.23577855
8677.61930128
8675.03846671
8675.04418134
8675.09192267
8675.17075537
8675.27090735
8675.38557388
8675.50852051
8675.63671656
8675.76447961
8675.88517408
8674.55430622
8674.53305088
8674.5288117
8674.52930209
8674.52153107
8674.49948409
8674.45568671
8674.38424986
8674.28109678
8674.13741272
8674.04968744
8674.00407171
8673.95233094
8673.87830504
8673.77221826
8673.61946067
8673.41329385
8673.04567198
)
;
    }
    atmosphere
    {
        type            totalPressure;
        rho             rho;
        psi             none;
        gamma           1;
        p0              nonuniform List<scalar> 0();
        value           nonuniform List<scalar> 0();
    }
    floatingObject
    {
        type            fixedFluxPressure;
        gradient        nonuniform List<scalar> 0();
        value           nonuniform List<scalar> 0();
    }
    procBoundary4to0
    {
        type            processor;
        value           nonuniform List<scalar> 8(8662.62357882 8662.94635867 8663.58599722 8664.56096879 8665.89246066 8667.60832701 8669.74529191 8672.35754396);
    }
    procBoundary4to3
    {
        type            processor;
        value           nonuniform List<scalar> 
13
(
8673.14701601
8672.81370916
8672.40566651
8673.54654837
8673.47933669
8673.38407689
8673.24631599
8672.77402709
8673.14701601
8672.41626482
8673.24631599
8672.77402709
8672.37564738
)
;
    }
    procBoundary4to5
    {
        type            processor;
        value           nonuniform List<scalar> 
18
(
8678.52578103
8680.92825117
8680.92825117
8684.7256469
8690.67656697
8691.39622638
8691.46295165
8690.96768101
8690.0276886
8688.76694284
8687.26919616
8685.58578786
8683.79990272
8681.93722635
8680.00400167
8678.01782217
8675.99700986
8673.96092462
)
;
    }
}


// ************************************************************************* //
