/*--------------------------------*- C++ -*----------------------------------*\
| =========                 |                                                 |
| \\      /  F ield         | OpenFOAM: The Open Source CFD Toolbox           |
|  \\    /   O peration     | Version:  v2012                                 |
|   \\  /    A nd           | Website:  www.openfoam.com                      |
|    \\/     M anipulation  |                                                 |
\*---------------------------------------------------------------------------*/
FoamFile
{
    version     2.0;
    format      ascii;
    class       surfaceScalarField;
    location    "5.6";
    object      alphaPhi0.water;
}
// * * * * * * * * * * * * * * * * * * * * * * * * * * * * * * * * * * * * * //

dimensions      [0 3 -1 0 0 0 0];
oriented        oriented;


internalField   nonuniform List<scalar> 
306
(
2.05169246429e-05
-4.76431024756e-06
2.6431071926e-05
-5.913744045e-06
3.41548006171e-05
-7.72305571519e-06
4.38975199294e-05
-9.74192793936e-06
5.6464243039e-05
-1.25659734492e-05
7.31151556498e-05
-1.66501507001e-05
9.27402379027e-05
-1.962423252e-05
0.000114760428098
-2.20198557352e-05
9.70790331013e-05
-2.89646306656e-05
2.98338857765e-08
-9.41168182251e-06
4.86657931559e-08
-2.03587842813e-07
-2.71108679679e-08
1.5796357429e-05
-8.61943897463e-06
2.0998724103e-05
-1.11155709184e-05
2.78211172996e-05
-1.45446801142e-05
3.6601513612e-05
-1.8521507099e-05
4.77194768603e-05
-2.36830737408e-05
5.99214891784e-05
-2.88513573769e-05
7.49883659535e-05
-3.46902609589e-05
9.71313943924e-05
-4.41811651834e-05
7.77717459143e-05
-5.12240335824e-05
1.33757730254e-07
-2.3485605282e-05
9.4904330984e-08
-2.30367890234e-07
-2.41095923468e-08
1.10920735181e-05
1.56292418402e-05
-1.5652095492e-05
2.11369660595e-05
-2.00512901265e-05
2.83572023802e-05
-2.57407280705e-05
3.72759036689e-05
-3.26010862911e-05
4.8653657659e-05
-4.02282235864e-05
6.21193650779e-05
-4.81556136594e-05
8.21127733468e-05
-6.41743947992e-05
7.12274463339e-05
-7.76424096219e-05
2.26308578397e-07
-3.84452131731e-05
7.71375520954e-08
-1.96875728836e-07
-8.18304452078e-09
9.5164311187e-06
1.39719568408e-05
-2.45064292724e-05
1.98205366722e-05
-3.15885644975e-05
2.67849840889e-05
-3.95647319336e-05
3.50417532395e-05
-4.84841438876e-05
4.64140641605e-05
-5.95278504156e-05
6.51643168441e-05
-8.29244558838e-05
6.0204169566e-05
-0.000105502826953
9.65064979797e-08
-5.07888782269e-05
2.0944363421e-08
-1.72735654382e-07
-1.53379523129e-09
6.65465820934e-06
-2.78911811073e-05
1.09473058952e-05
-3.58803295018e-05
1.66617904469e-05
-4.52783915865e-05
2.42888023812e-05
-5.61104255537e-05
3.53253538794e-05
-7.05638045744e-05
5.05863748716e-05
-9.81855412677e-05
4.52394486617e-05
-0.000125780538527
3.5454187293e-08
-6.08618861134e-05
1.62244950583e-09
-1.53612016498e-07
-1.02577783351e-10
-1.25598749903e-06
-2.99845416437e-05
1.69906419432e-06
-3.88347699008e-05
6.41657114867e-06
-4.99952167342e-05
1.37920546662e-05
-6.34852553269e-05
2.52206775548e-05
-8.19940939228e-05
3.43812703733e-05
-0.000107345006857
2.72015934335e-05
-0.000133644635258
1.61357900539e-07
-6.48472007848e-05
1.02590104441e-10
-1.32700465461e-10
7.03893044541e-15
-1.01311995891e-05
-3.03933757803e-05
-8.76254104791e-06
-4.02027168443e-05
-5.97507713165e-06
-5.27820295915e-05
-8.63826615792e-07
-6.85959456946e-05
6.7353452778e-06
-8.9595471995e-05
1.08375895537e-05
-0.000111443354651
2.18017531918e-06
-0.000130715383157
-1.56779797575e-08
-6.25006904908e-05
-8.8295619083e-09
-3.68883945022e-10
8.38117434335e-10
-1.99993696599e-05
-2.87394174885e-05
-2.10036140574e-05
-3.9197756344e-05
-2.21187948297e-05
-5.16663654516e-05
-2.14491982415e-05
-6.9264789999e-05
-2.05836968949e-05
-9.04630279304e-05
-1.86087446661e-05
-0.000113416815579
-1.63221055409e-05
-0.000125935356288
-9.30321070699e-09
-5.80212211029e-05
-8.33387038837e-10
4.1802093363e-10
4.72971675672e-12
-2.99558998215e-05
-2.54428967727e-05
-3.45141128647e-05
-3.46391645889e-05
-3.8896408967e-05
-4.72837275929e-05
-4.49870838697e-05
-6.31737127401e-05
-5.21839388728e-05
-8.32729049558e-05
-5.74951797632e-05
-0.0001081099582
-4.56756528158e-05
-0.00012245376554
1.99122715404e-08
-5.48174149629e-05
-4.58223817675e-12
-1.43166121803e-09
1.55666126386e-13
-4.01222142956e-05
-1.97839639264e-05
-4.65736266785e-05
-2.81885186125e-05
-5.50639657553e-05
-3.8793346927e-05
-6.58678938237e-05
-5.23698294237e-05
-7.98333178143e-05
-6.93073565881e-05
-9.24060322256e-05
-9.55369954236e-05
-7.77206134882e-05
-0.000114954624421
-8.22045877071e-08
-5.30016462284e-05
-6.31871121308e-08
-7.07142989605e-11
2.49777626231e-09
-4.88583879658e-05
-1.26943293655e-05
-5.75437304001e-05
-1.95033386e-05
-6.80525304307e-05
-2.82844588299e-05
-8.19495767999e-05
-3.84726238625e-05
-9.95374044849e-05
-5.17194454829e-05
-0.000118522631998
-7.65515350848e-05
-0.00010719146465
-0.000100197343419
5.36544984744e-09
-4.95679821941e-05
-2.43106195745e-09
-1.53091647641e-10
6.67256133207e-11
-5.62650890251e-05
-4.41794369238e-06
-6.59299957267e-05
-9.83846748813e-06
-7.78656214718e-05
-1.6348545228e-05
-9.27581202687e-05
-2.35800116551e-05
-0.000111206006111
-3.32715176377e-05
-0.000133728033028
-5.40294293673e-05
-0.00012957892894
-7.78558132442e-05
3.9108234271e-08
-4.26432813456e-05
-1.96101224992e-08
7.65725780705e-10
2.69652780647e-09
-6.18488799961e-05
4.50710493946e-06
-7.23187438041e-05
6.31398062458e-07
-8.47879163282e-05
-3.87899846003e-06
-9.94823653555e-05
-8.88466500067e-06
-0.000117144633069
-1.56092564201e-05
-0.000140210496065
-3.09635674453e-05
-0.000143216737721
-5.06989307079e-05
-1.05650702753e-07
-3.18785361669e-05
-7.99885168471e-09
-2.30533437506e-09
1.41042809109e-08
-6.60524783481e-05
1.38726068385e-05
-7.68002427486e-05
1.13790550996e-05
-8.92522719495e-05
8.57336424643e-06
-0.000103544030236
5.40831336335e-06
-0.000120161833758
1.0085433553e-06
-0.000141795311141
-9.33009014257e-06
-0.000148980904749
-2.32526303596e-05
-1.12912191832e-07
-1.81203686796e-05
-1.64587824921e-07
4.43425531428e-09
4.45493619104e-09
-6.88195524654e-05
2.33354418611e-05
-7.95657017733e-05
2.21250141453e-05
-9.17092906127e-05
2.07173833569e-05
-0.000105359657146
1.90605442444e-05
-0.000120801306521
1.64500688419e-05
-0.000139975075029
9.84367776922e-06
-0.000148223210117
7.97427525294e-07
1.13999277055e-07
-4.05438496353e-06
-4.25976750276e-08
9.31539664308e-10
1.1191140762e-08
-7.03237671883e-05
-8.08313765096e-05
-9.24367678379e-05
-0.000105138792826
-0.000119030946099
-0.000135174083685
-0.000142778392
-6.03516652388e-07
-8.73384561073e-08
)
;

boundaryField
{
    back
    {
        type            calculated;
        value           uniform 0;
    }
    sides
    {
        type            calculated;
        value           uniform 0;
    }
    bottom
    {
        type            calculated;
        value           nonuniform List<scalar> 0();
    }
    front
    {
        type            calculated;
        value           uniform 0;
    }
    atmosphere
    {
        type            calculated;
        value           nonuniform List<scalar> 
16
(
3.38105063689e-08
1.25476982523e-08
2.29420554862e-09
3.63761678671e-10
7.45577795851e-11
-3.304892627e-15
-9.66767009825e-09
4.11278094629e-16
-4.63634179842e-16
-6.56846511464e-08
-3.39998029071e-17
-2.22388116203e-08
-1.94060127489e-08
-1.5493957685e-07
-4.93272798409e-08
-7.61472352754e-08
)
;
    }
    floatingObject
    {
        type            calculated;
        value           nonuniform List<scalar> 0();
    }
    procBoundary1to0
    {
        type            processor;
        value           nonuniform List<scalar> 10(3.28439200713e-05 3.26324369596e-05 3.23232069666e-05 3.17652610632e-05 3.03421749473e-05 2.5986819006e-05 1.98938690916e-05 1.00867806342e-05 -5.21776032099e-09 4.69308243185e-14);
    }
    procBoundary1to2
    {
        type            processor;
        value           nonuniform List<scalar> 
18
(
-1.5752507588e-05
-1.19410402087e-05
-7.74131683597e-06
-1.1970042185e-05
-6.0885780888e-06
-1.90798454526e-05
-3.26918902722e-06
3.35056136016e-06
1.05402772662e-05
1.83456550959e-05
2.66596228335e-05
3.44635267607e-05
4.17683282666e-05
4.79884658306e-05
5.29235531247e-05
5.66865750828e-05
5.93562266935e-05
6.08146430934e-05
)
;
    }
}


// ************************************************************************* //
