/*--------------------------------*- C++ -*----------------------------------*\
| =========                 |                                                 |
| \\      /  F ield         | OpenFOAM: The Open Source CFD Toolbox           |
|  \\    /   O peration     | Version:  v2012                                 |
|   \\  /    A nd           | Website:  www.openfoam.com                      |
|    \\/     M anipulation  |                                                 |
\*---------------------------------------------------------------------------*/
FoamFile
{
    version     2.0;
    format      ascii;
    class       volScalarField;
    location    "5.6";
    object      ddt0(k);
}
// * * * * * * * * * * * * * * * * * * * * * * * * * * * * * * * * * * * * * //

dimensions      [0 2 -3 0 0 0 0];


internalField   nonuniform List<scalar> 
167
(
-0.000385118523841
-0.000389523992983
-0.000395286867639
-0.00040653590612
-0.00043419239053
-0.000522690356961
-0.000898285935861
-0.00259326724774
-0.00912170015229
-0.0270955705604
-0.0598952647233
-0.252015416545
-0.00046137855422
-0.000465271723371
-0.000471243286679
-0.000482991970184
-0.000511453451661
-0.000600020173395
-0.00100122487576
-0.00298488971024
-0.00987173675208
-0.0232011733093
-0.0472257947548
-0.100117820399
-0.000494815981686
-0.00049970610619
-0.000506716022377
-0.000520132984352
-0.00055052552999
-0.000637882570971
-0.00103572023358
-0.00299325870133
-0.00975486751253
-0.0237325257432
-0.0506857230703
-0.112086185367
-0.000513163645998
-0.000520711772625
-0.000535029181208
-0.000564353074433
-0.000647476848264
-0.00100157559176
-0.00276197035826
-0.00898298770786
-0.022669525517
-0.0507929897673
-0.124988731523
-0.000525421452818
-0.000537606416191
-0.000565314004483
-0.000646311774903
-0.000918496655829
-0.00230540104541
-0.00778423584385
-0.0210614871286
-0.0486451072466
-0.15262851242
-0.000526619205
-0.000536039887199
-0.000555202308895
-0.000607127757528
-0.000817957080599
-0.00172343617855
-0.00645714520265
-0.0200072888426
-0.0400603712078
-0.0245919763348
-0.000526337747976
-0.000532684889955
-0.000542010344902
-0.00055632344672
-0.000608422755228
-0.00109894905445
-0.00470305670023
-0.0170877673129
-0.0343064484148
-0.0158289324872
-0.000525416991279
-0.000527949686101
-0.000523669213911
-0.00049115803147
-0.00037679314332
-0.000441879881093
-0.00294235452716
-0.0125924002587
-0.0273197337714
-0.0131998282701
-0.000524418495568
-0.00052267899895
-0.000504335299928
-0.000416932699825
-0.000135345139479
0.000186416400031
-0.00119542942335
-0.0074396480205
-0.0181107124005
-0.00940783144006
-0.000523609598963
-0.000518792440104
-0.000488491361705
-0.000358429708279
6.1947295978e-05
0.000776977529698
0.000573461017166
-0.00249797000152
-0.00875424390296
-0.0055025790536
-0.000523187708395
-0.000516447678572
-0.000480583704023
-0.000330703077844
0.00017075344538
0.00125109587063
0.00220597251158
0.00179291741072
-0.00134164445737
-0.00276022967219
-0.00052322346708
-0.00051579694779
-0.000479646032059
-0.000330857928165
0.000195188114817
0.00154892349546
0.00346774496023
0.0050686695291
0.00531940991683
0.000249581162383
-0.000523654692473
-0.000516226433936
-0.000482433219302
-0.000346549672318
0.000161479344373
0.00167332176764
0.00428302853107
0.00701916987701
0.00988185686104
0.00309217202189
-0.000524311247951
-0.000517224973745
-0.000486183935894
-0.00036291033497
0.000112133161146
0.00166047092703
0.00475766474645
0.00786407942412
0.0102506119151
0.00326464324627
-0.000525120175827
-0.000518587774383
-0.000490439697903
-0.00037958758402
5.46020605437e-05
0.00156231658868
0.00484812249676
0.00789669400195
0.00960636880962
0.00308626312575
-0.000526007411242
-0.000520195767032
-0.000495211674162
-0.000397502780877
-1.29630305848e-05
0.00138553408819
0.00465211432399
0.0070072498866
0.00829600284292
0.00377183092395
)
;

boundaryField
{
    back
    {
        type            calculated;
        value           nonuniform List<scalar> 
167
(
-0.000385118523841
-0.000389523992983
-0.000395286867639
-0.00040653590612
-0.00043419239053
-0.000522690356961
-0.000898285935861
-0.00259326724774
-0.00912170015229
-0.0270955705604
-0.0598952647233
-0.252015416545
-0.00046137855422
-0.000465271723371
-0.000471243286679
-0.000482991970184
-0.000511453451661
-0.000600020173395
-0.00100122487576
-0.00298488971024
-0.00987173675208
-0.0232011733093
-0.0472257947548
-0.100117820399
-0.000494815981686
-0.00049970610619
-0.000506716022377
-0.000520132984352
-0.00055052552999
-0.000637882570971
-0.00103572023358
-0.00299325870133
-0.00975486751253
-0.0237325257432
-0.0506857230703
-0.112086185367
-0.000513163645998
-0.000520711772625
-0.000535029181208
-0.000564353074433
-0.000647476848264
-0.00100157559176
-0.00276197035826
-0.00898298770786
-0.022669525517
-0.0507929897673
-0.124988731523
-0.000525421452818
-0.000537606416191
-0.000565314004483
-0.000646311774903
-0.000918496655829
-0.00230540104541
-0.00778423584385
-0.0210614871286
-0.0486451072466
-0.15262851242
-0.000526619205
-0.000536039887199
-0.000555202308895
-0.000607127757528
-0.000817957080599
-0.00172343617855
-0.00645714520265
-0.0200072888426
-0.0400603712078
-0.0245919763348
-0.000526337747976
-0.000532684889955
-0.000542010344902
-0.00055632344672
-0.000608422755228
-0.00109894905445
-0.00470305670023
-0.0170877673129
-0.0343064484148
-0.0158289324872
-0.000525416991279
-0.000527949686101
-0.000523669213911
-0.00049115803147
-0.00037679314332
-0.000441879881093
-0.00294235452716
-0.0125924002587
-0.0273197337714
-0.0131998282701
-0.000524418495568
-0.00052267899895
-0.000504335299928
-0.000416932699825
-0.000135345139479
0.000186416400031
-0.00119542942335
-0.0074396480205
-0.0181107124005
-0.00940783144006
-0.000523609598963
-0.000518792440104
-0.000488491361705
-0.000358429708279
6.1947295978e-05
0.000776977529698
0.000573461017166
-0.00249797000152
-0.00875424390296
-0.0055025790536
-0.000523187708395
-0.000516447678572
-0.000480583704023
-0.000330703077844
0.00017075344538
0.00125109587063
0.00220597251158
0.00179291741072
-0.00134164445737
-0.00276022967219
-0.00052322346708
-0.00051579694779
-0.000479646032059
-0.000330857928165
0.000195188114817
0.00154892349546
0.00346774496023
0.0050686695291
0.00531940991683
0.000249581162382
-0.000523654692473
-0.000516226433936
-0.000482433219302
-0.000346549672318
0.000161479344373
0.00167332176764
0.00428302853107
0.00701916987701
0.00988185686104
0.00309217202189
-0.000524311247951
-0.000517224973745
-0.000486183935894
-0.00036291033497
0.000112133161146
0.00166047092703
0.00475766474645
0.00786407942412
0.0102506119151
0.00326464324627
-0.000525120175827
-0.000518587774383
-0.000490439697903
-0.00037958758402
5.46020605437e-05
0.00156231658868
0.00484812249676
0.00789669400195
0.00960636880962
0.00308626312575
-0.000526007411242
-0.000520195767032
-0.000495211674162
-0.000397502780877
-1.29630305848e-05
0.00138553408819
0.00465211432399
0.0070072498866
0.00829600284292
0.00377183092395
)
;
    }
    sides
    {
        type            calculated;
        value           nonuniform List<scalar> 
12
(
-0.000385118523841
-0.000389523992983
-0.000395286867639
-0.00040653590612
-0.00043419239053
-0.000522690356961
-0.000898285935861
-0.00259326724774
-0.00912170015229
-0.0270955705604
-0.0598952647233
-0.252015416545
)
;
    }
    bottom
    {
        type            calculated;
        value           nonuniform List<scalar> 0();
    }
    front
    {
        type            calculated;
        value           nonuniform List<scalar> 
167
(
-0.000385118523841
-0.000389523992983
-0.000395286867639
-0.00040653590612
-0.00043419239053
-0.000522690356961
-0.000898285935861
-0.00259326724774
-0.00912170015229
-0.0270955705604
-0.0598952647233
-0.252015416545
-0.00046137855422
-0.000465271723371
-0.000471243286679
-0.000482991970184
-0.000511453451661
-0.000600020173395
-0.00100122487576
-0.00298488971024
-0.00987173675208
-0.0232011733093
-0.0472257947548
-0.100117820399
-0.000494815981686
-0.00049970610619
-0.000506716022377
-0.000520132984352
-0.00055052552999
-0.000637882570971
-0.00103572023358
-0.00299325870133
-0.00975486751253
-0.0237325257432
-0.0506857230703
-0.112086185367
-0.000513163645998
-0.000520711772625
-0.000535029181208
-0.000564353074433
-0.000647476848264
-0.00100157559176
-0.00276197035826
-0.00898298770786
-0.022669525517
-0.0507929897673
-0.124988731523
-0.000525421452818
-0.000537606416191
-0.000565314004483
-0.000646311774903
-0.000918496655829
-0.00230540104541
-0.00778423584385
-0.0210614871286
-0.0486451072466
-0.15262851242
-0.000526619205
-0.000536039887199
-0.000555202308895
-0.000607127757528
-0.000817957080599
-0.00172343617855
-0.00645714520265
-0.0200072888426
-0.0400603712078
-0.0245919763348
-0.000526337747976
-0.000532684889955
-0.000542010344902
-0.00055632344672
-0.000608422755228
-0.00109894905445
-0.00470305670023
-0.0170877673129
-0.0343064484148
-0.0158289324872
-0.000525416991279
-0.000527949686101
-0.000523669213911
-0.00049115803147
-0.00037679314332
-0.000441879881093
-0.00294235452716
-0.0125924002587
-0.0273197337714
-0.0131998282701
-0.000524418495568
-0.00052267899895
-0.000504335299928
-0.000416932699825
-0.000135345139479
0.000186416400031
-0.00119542942335
-0.0074396480205
-0.0181107124005
-0.00940783144006
-0.000523609598963
-0.000518792440104
-0.000488491361705
-0.000358429708279
6.1947295978e-05
0.000776977529698
0.000573461017166
-0.00249797000152
-0.00875424390296
-0.0055025790536
-0.000523187708395
-0.000516447678572
-0.000480583704023
-0.000330703077844
0.00017075344538
0.00125109587063
0.00220597251158
0.00179291741072
-0.00134164445737
-0.00276022967219
-0.00052322346708
-0.00051579694779
-0.000479646032059
-0.000330857928165
0.000195188114817
0.00154892349546
0.00346774496023
0.0050686695291
0.00531940991683
0.000249581162382
-0.000523654692473
-0.000516226433936
-0.000482433219302
-0.000346549672318
0.000161479344373
0.00167332176764
0.00428302853107
0.00701916987701
0.00988185686104
0.00309217202189
-0.000524311247951
-0.000517224973745
-0.000486183935894
-0.00036291033497
0.000112133161146
0.00166047092703
0.00475766474645
0.00786407942412
0.0102506119151
0.00326464324627
-0.000525120175827
-0.000518587774383
-0.000490439697903
-0.00037958758402
5.46020605437e-05
0.00156231658868
0.00484812249676
0.00789669400195
0.00960636880962
0.00308626312575
-0.000526007411242
-0.000520195767032
-0.000495211674162
-0.000397502780877
-1.29630305848e-05
0.00138553408819
0.00465211432399
0.0070072498866
0.00829600284292
0.00377183092395
)
;
    }
    atmosphere
    {
        type            calculated;
        value           nonuniform List<scalar> 
16
(
-2.01441270515
-0.117437397709
-0.0773072469035
-0.194393354571
-0.532985961986
-5.48397200264e-09
4.79367014161e-08
1.27180462496e-08
-1.58802389804e-10
-9.75950319604e-10
-2.75828982221e-10
-8.4647705826e-10
-1.02328551359e-10
4.64559417038e-11
2.54077603348e-12
6.57731532648e-13
)
;
    }
    floatingObject
    {
        type            calculated;
        value           nonuniform List<scalar> 0();
    }
    procBoundary1to0
    {
        type            processor;
        value           nonuniform List<scalar> 10(-0.000526935088604 -0.000521957512477 -0.000500369720497 -0.000416418215127 -8.59014185031e-05 0.00116186053472 0.00419792623867 0.0048447182207 0.00314392657171 0.0552715867121);
    }
    procBoundary1to2
    {
        type            processor;
        value           nonuniform List<scalar> 
18
(
-0.000381480703954
-0.000458119582095
-0.000490838131362
-0.000508146034984
-0.000508146034984
-0.000518590926421
-0.000518590926421
-0.000520785101171
-0.000521714455621
-0.000522175501246
-0.000522476234024
-0.000522803924254
-0.00052319588129
-0.000523751920595
-0.000524441559495
-0.00052519022829
-0.000525959739196
-0.000526733227857
)
;
    }
}


// ************************************************************************* //
