/*--------------------------------*- C++ -*----------------------------------*\
| =========                 |                                                 |
| \\      /  F ield         | OpenFOAM: The Open Source CFD Toolbox           |
|  \\    /   O peration     | Version:  v2012                                 |
|   \\  /    A nd           | Website:  www.openfoam.com                      |
|    \\/     M anipulation  |                                                 |
\*---------------------------------------------------------------------------*/
FoamFile
{
    version     2.0;
    format      ascii;
    class       volVectorField;
    location    "5.6";
    object      U;
}
// * * * * * * * * * * * * * * * * * * * * * * * * * * * * * * * * * * * * * //

dimensions      [0 1 -1 0 0 0 0];


internalField   nonuniform List<vector> 
167
(
(-0.000431842533764 0.00363494053631 4.22637627717e-22)
(-0.000563879546352 0.00470658328647 3.98675546343e-22)
(-0.000721686684577 0.00605340075787 1.03318544838e-22)
(-0.000927501360259 0.00773337220592 -1.61196159593e-22)
(-0.00124405648278 0.00995782838921 -5.45351458843e-22)
(-0.00185379298226 0.0130727461074 -1.37643771879e-21)
(-0.00263409344231 0.0149079719315 -6.26992804132e-22)
(-0.00327367654096 0.0236823906516 5.46678073215e-21)
(-0.00265980018943 0.0164293461669 1.59175679134e-20)
(0.00456633768049 0.0314804027737 4.96305496154e-20)
(-0.0227720699754 0.0470902694399 4.98939164871e-20)
(-0.0246343800466 0.0974372716349 8.79550991014e-21)
(-0.00137995378199 0.00275320936247 1.3286389015e-22)
(-0.00177808468143 0.00368750649601 9.22700889599e-23)
(-0.00229404191035 0.00489944126409 -1.06363068118e-22)
(-0.00292110833372 0.00640806438673 -2.63633768127e-22)
(-0.00373356774452 0.00832408797797 -6.82902615417e-22)
(-0.00465657336154 0.0110219111237 -2.28958853069e-21)
(-0.00539453412412 0.0122839917798 -5.59272572455e-21)
(-0.00618153251542 0.0199712410997 -1.18765936022e-20)
(-0.00855338246289 0.0133063615885 -1.09904093597e-20)
(-0.0148363004719 0.0272859349232 -1.20990609221e-20)
(-0.0254340225156 0.0313840743616 -1.15593313724e-20)
(-0.0619685528634 0.0648676707052 2.86734095006e-21)
(-0.0020859625558 0.00189445750156 4.69153325805e-24)
(-0.0027084561386 0.00264356392262 -1.22949726294e-23)
(-0.00349571328262 0.00365695351035 -1.62987281951e-22)
(-0.00447571734908 0.00494093679307 -3.62955269563e-22)
(-0.0056793081263 0.00654454603436 -8.95701481918e-22)
(-0.00701186549474 0.00875614679187 -2.30823755646e-21)
(-0.00838367989104 0.00938618431305 -7.28290107833e-21)
(-0.0108605932883 0.0163558355782 -2.16769150241e-20)
(-0.0132632471721 0.0111282656165 -2.84589799567e-20)
(-0.0202553749391 0.0261184747708 -4.57578669025e-20)
(-0.0337696593702 0.0300370907203 -4.56004661257e-20)
(-0.0725640489209 0.0274960682931 -1.3961875062e-20)
(-0.00348542513426 0.001585358707 -4.72910779809e-23)
(-0.00450147836843 0.00238008593128 -1.02942559896e-22)
(-0.00575608847189 0.00336856704085 -2.93760311203e-22)
(-0.00724485907499 0.00463975027067 -7.00779276771e-22)
(-0.00889595737791 0.00644733076223 -1.33016849209e-21)
(-0.0108021876195 0.00685287587073 -2.90197959055e-21)
(-0.0147885585517 0.0133668461407 -6.18386484363e-21)
(-0.0195260129459 0.00858093496426 -1.62689106511e-20)
(-0.0308352388591 0.0229197686317 -2.67806495656e-20)
(-0.0354965544895 0.0255199021184 -2.67494470567e-20)
(-0.0448480410799 0.0189859635951 -9.45722121936e-21)
(-0.0052748151143 0.00102792505219 -9.58304748949e-23)
(-0.00675134286857 0.00178243807433 -3.12954787349e-22)
(-0.00848270760454 0.00276443717716 -8.06497485103e-22)
(-0.0104013977076 0.00423351475866 -1.31650983447e-21)
(-0.0128997949374 0.00483318088494 -1.9061928955e-21)
(-0.01813815029 0.0108377790228 -2.84181826328e-21)
(-0.0248892184962 0.00573295329583 -5.87508235022e-21)
(-0.038952626755 0.0182909676946 -9.27553097499e-21)
(-0.03601527879 0.0217134392448 -9.25015982205e-21)
(-0.0294846297167 0.0177347438328 -2.57739991245e-21)
(-0.00579123313857 -0.000435911756115 -9.33336196087e-23)
(-0.0074886984971 6.27825391991e-05 -3.057811088e-22)
(-0.00950556093714 0.00080174272735 -1.10136481319e-21)
(-0.0118682600575 0.00204416960158 -1.95711955505e-21)
(-0.0150831408508 0.00319427408186 -2.54159185487e-21)
(-0.020513224455 0.00867883713124 -4.51163411152e-22)
(-0.0276541707152 0.00248138943434 4.83214033827e-21)
(-0.043377446811 0.0107120140991 9.20704306545e-21)
(-0.0352298145765 0.0130906887429 8.91255837813e-21)
(-0.0163465384162 0.00191451977872 1.26936114529e-21)
(-0.00604863519149 -0.00205016585463 -1.23948473539e-22)
(-0.00794290122626 -0.00188921230812 -3.99582181102e-22)
(-0.0103065664053 -0.00149837572233 -1.22175414235e-21)
(-0.0133599153832 -0.000695555357284 -2.62717941423e-21)
(-0.017268278783 0.00061601228385 -5.89860718798e-21)
(-0.0219926908111 0.00481668382243 -1.06888719736e-20)
(-0.0275779179701 -0.00235803939615 5.68987954697e-21)
(-0.0421880883255 0.00175953918228 2.26478397474e-20)
(-0.0315762301574 0.00335796208629 2.12895324028e-20)
(-0.00720768085453 -0.0133768694944 3.12817967478e-21)
(-0.00599763840252 -0.00380865349671 -1.43051224578e-22)
(-0.00798533048814 -0.00408965545387 -4.34282390831e-22)
(-0.0106266681644 -0.00433101032079 -1.03541120904e-21)
(-0.0140570636035 -0.0043147631773 -1.78795233812e-21)
(-0.0183115154687 -0.00384959988908 -4.53179035075e-21)
(-0.0227338364468 -0.00233621507323 -9.85027966255e-21)
(-0.0264224427558 -0.00989120415713 -1.30978167506e-21)
(-0.0378514005368 -0.00773620890378 -6.73586253035e-21)
(-0.0268240394501 -0.00365800495689 -6.185489005e-21)
(0.00148891012918 -0.0187620368387 4.31566428886e-24)
(-0.00550071616723 -0.00563365088259 -1.20997027505e-22)
(-0.00749373390697 -0.00641639839509 -3.74182662784e-22)
(-0.0100706031223 -0.00730298078565 -7.4836391241e-22)
(-0.0134253661054 -0.00822505831685 -1.33790105158e-21)
(-0.0176223018403 -0.00930622950907 -2.53433201984e-21)
(-0.0223500158166 -0.0109021105251 -3.86108907978e-21)
(-0.0256253065586 -0.0181605149783 -6.16908171087e-21)
(-0.0340297878553 -0.016848516692 -9.36967224856e-21)
(-0.023565821525 -0.0112153221939 -9.26893217243e-21)
(0.00514897150631 -0.0187938839825 -1.0787270969e-21)
(-0.00453539167853 -0.00742250958784 -1.126707414e-22)
(-0.0063733494968 -0.00861920150463 -3.30374539193e-22)
(-0.00868171375333 -0.0100908789565 -6.06972922434e-22)
(-0.0116421891632 -0.0118835859574 -1.06973328087e-21)
(-0.0153645814311 -0.0142013222056 -2.12490045122e-21)
(-0.020424715009 -0.0178129544796 -4.32608131327e-21)
(-0.0244227769804 -0.0248787681352 -6.49404829251e-21)
(-0.0315341463301 -0.0245777977995 -1.24684737723e-20)
(-0.0222635674371 -0.0188930159776 -1.20886800084e-20)
(0.00367657368206 -0.0220799715254 -1.40476179013e-21)
(-0.0032477526064 -0.00902288985182 -1.1316750053e-22)
(-0.00479894029742 -0.0105889594781 -3.16655066928e-22)
(-0.00674671448976 -0.0124766062805 -5.64506008079e-22)
(-0.00906945581948 -0.0148178936571 -9.97486959544e-22)
(-0.0120949909703 -0.0178770218528 -1.28934985394e-21)
(-0.0172241320473 -0.0224686883607 -1.74814164188e-21)
(-0.0221617601833 -0.0293895454454 -6.88865422623e-21)
(-0.0289367379627 -0.0298155461491 -1.24263837426e-20)
(-0.0214723063016 -0.0264886489507 -1.21135849605e-20)
(0.00156071792225 -0.031659265893 -6.05874345986e-22)
(-0.00170036941177 -0.010391881475 -1.02696642066e-22)
(-0.00295111729038 -0.0121692392929 -2.61907430927e-22)
(-0.00443975850249 -0.0143095534527 -4.911663923e-22)
(-0.00615487980691 -0.0169604240575 -1.03904125613e-21)
(-0.0084000198332 -0.0202257646532 -2.18394085362e-21)
(-0.0130263776029 -0.0250065499811 -3.43423394824e-21)
(-0.0182283659391 -0.0318456815644 -6.49057104476e-21)
(-0.0248359971366 -0.0326007220197 -1.11470685e-20)
(-0.0192047091916 -0.0325400901976 -1.1211906006e-20)
(0.000925051440647 -0.0423192658672 -5.01974706005e-21)
(2.4495468449e-05 -0.0114472807659 -8.45262721156e-23)
(-0.000901349934769 -0.0133788089365 -1.67243268964e-22)
(-0.00199295704602 -0.0156643292615 -3.96498831109e-22)
(-0.00319750043225 -0.0183916186849 -8.85011542966e-22)
(-0.0047818078265 -0.021564985245 -2.60089889376e-21)
(-0.00840862350505 -0.0260706219424 -4.99049576774e-21)
(-0.0130689322525 -0.0326636851943 5.03286944544e-22)
(-0.0189858468628 -0.033652472197 -9.29238031996e-21)
(-0.0154439809049 -0.0362576355807 -9.50347457153e-21)
(0.00113978870764 -0.0492620427629 -1.56170943861e-21)
(0.00185613182568 -0.0122440028379 -1.01491245084e-22)
(0.00122495346628 -0.0142507674826 -1.77344998255e-22)
(0.000502340633404 -0.0165822156147 -4.29710195376e-22)
(-0.00030173384842 -0.0192856131382 -8.5472771701e-22)
(-0.00139395483831 -0.0223011122197 -1.99135841835e-21)
(-0.00394231198451 -0.026426598455 -2.3268710377e-21)
(-0.00741437750563 -0.0324254296362 -6.25902514953e-21)
(-0.0120295025747 -0.0331336967239 -7.56778189007e-21)
(-0.0105234555722 -0.0373167099694 -7.08169166309e-21)
(0.0020595892091 -0.0536410891959 -1.9327088822e-21)
(0.00375458838029 -0.0127963260239 -8.02747073608e-23)
(0.00337638326705 -0.014814301539 -9.00145886218e-23)
(0.00296033161618 -0.0171168735436 -1.8231971629e-22)
(0.00247897103335 -0.0197316727893 -1.32930947528e-22)
(0.00178156313822 -0.0225722788883 3.84617564171e-22)
(0.000120714176496 -0.0262636261324 2.50971549792e-21)
(-0.00215934116373 -0.031406571598 2.52539425472e-21)
(-0.00500875639463 -0.0314427530419 -6.24220890153e-21)
(-0.00453379798434 -0.0360744763183 -6.41000298237e-21)
(0.00566442279697 -0.0546580432988 -4.33689751437e-21)
(0.00566156809274 -0.0130998764171 -6.13534884486e-23)
(0.00550114462322 -0.0150943218488 -9.57212279995e-23)
(0.00532925669947 -0.0173125582556 -1.753359545e-22)
(0.00510448997788 -0.0197946831424 -1.37982246188e-22)
(0.00469984438458 -0.0224494957758 2.90088499445e-22)
(0.00363632109222 -0.0255526471353 2.46196961005e-21)
(0.00217211226205 -0.0297097322375 -2.08256137764e-21)
(0.00127309604704 -0.0292298177373 -5.17021455767e-21)
(0.00239619475247 -0.0339477280767 -5.29893111161e-21)
(0.00975681093548 -0.0511923667975 -1.86714328209e-21)
)
;

boundaryField
{
    back
    {
        type            noSlip;
    }
    sides
    {
        type            noSlip;
    }
    bottom
    {
        type            noSlip;
    }
    front
    {
        type            noSlip;
    }
    atmosphere
    {
        type            pressureInletOutletVelocity;
        value           nonuniform List<vector> 
16
(
(-0.0246343800466 0.0974372716349 8.79550991014e-21)
(-0.0619685528634 0.0648676707052 2.86734095006e-21)
(-0.0725640489209 0.0274960682931 -1.3961875062e-20)
(-0.0448480410799 0.0189859635951 -9.45722121936e-21)
(-0.0294846297167 0.0177347438328 -2.57739991245e-21)
(0 0.00191451977872 0)
(0 -0.0133768694944 0)
(0 -0.0187620368387 0)
(0 -0.0187938839825 0)
(0 -0.0220799715254 0)
(0 -0.031659265893 0)
(0 -0.0423192658672 0)
(0 -0.0492620427629 0)
(0 -0.0536410891959 0)
(0 -0.0546580432988 0)
(0 -0.0511923667975 0)
)
;
    }
    floatingObject
    {
        type            movingWallVelocity;
        value           nonuniform List<vector> 0();
    }
    procBoundary1to0
    {
        type            processor;
        value           nonuniform List<vector> 10((0.0075303122941 -0.013159610443 -3.38803289882e-23) (0.00756374393563 -0.015098676033 -8.98392233717e-23) (0.00758936039368 -0.0172026688083 -2.54447168207e-22) (0.00754226611209 -0.0195126830161 -7.93775943884e-22) (0.00730729932981 -0.0219913940121 -1.59457034997e-21) (0.00656431525363 -0.0244802755677 -2.82399848646e-22) (0.00563014654725 -0.0276812934062 -5.53021950087e-21) (0.00636515385671 -0.02702965578 -5.12120194367e-21) (0.00923466767715 -0.031845927071 -5.03051294399e-21) (0.0132205666986 -0.0408320777585 -3.99015497487e-22));
    }
    procBoundary1to2
    {
        type            processor;
        value           nonuniform List<vector> 
18
(
(-0.000330385020023 0.00280653322148 9.58895425394e-23)
(-0.00107734823028 0.00205041470931 -1.0440514854e-22)
(-0.0016077342692 0.00131659350545 -1.16569356393e-22)
(-0.00266603780797 0.00098590052836 -1.78223315971e-23)
(-0.00266603780797 0.00098590052836 -1.78223315971e-23)
(-0.00405587542619 0.000445842724621 -2.30099213901e-23)
(-0.00405587542619 0.000445842724621 -2.30099213901e-23)
(-0.00442135966537 -0.000769952112345 -1.55785206596e-23)
(-0.00454970625726 -0.00208845205599 -1.87248627164e-23)
(-0.00439197430904 -0.00349616257186 -3.55025649716e-23)
(-0.00390904616819 -0.00497805986144 -3.79676710179e-23)
(-0.00309548067879 -0.00638754548994 -2.98909078876e-23)
(-0.00199652844564 -0.00770830058519 -3.09101945745e-23)
(-0.000666643180243 -0.00886313554497 -3.02415504771e-23)
(0.000826257876973 -0.00978072273968 -2.91930696625e-23)
(0.00243005897599 -0.0104947763681 -1.96733931549e-23)
(0.00410843102578 -0.0110058272861 3.55766935724e-24)
(0.00582191212481 -0.0112946986669 2.86929382167e-23)
)
;
    }
}


// ************************************************************************* //
