/*--------------------------------*- C++ -*----------------------------------*\
| =========                 |                                                 |
| \\      /  F ield         | OpenFOAM: The Open Source CFD Toolbox           |
|  \\    /   O peration     | Version:  v2012                                 |
|   \\  /    A nd           | Website:  www.openfoam.com                      |
|    \\/     M anipulation  |                                                 |
\*---------------------------------------------------------------------------*/
FoamFile
{
    version     2.0;
    format      ascii;
    class       volScalarField;
    location    "4.4";
    object      ddt0(epsilon);
}
// * * * * * * * * * * * * * * * * * * * * * * * * * * * * * * * * * * * * * //

dimensions      [0 2 -4 0 0 0 0];


internalField   nonuniform List<scalar> 
1984
(
-0.000360016893359
-0.00040569507973
-0.000427396327796
-0.000432263753364
-0.000432984074343
-0.000432990283108
-0.00043302573391
-0.000433192061824
-0.000433562584788
-0.000434921291734
-0.000439027771387
-0.000451004249271
-0.000482117223151
-0.000560139586991
-0.000792310089999
-0.0017043145634
-0.00533801626824
-0.0159177508149
-0.0240049786468
1.22475657646
-0.000407553646985
-0.000423372740088
-0.000452763702122
-0.000460324221706
-0.000462058462252
-0.000462614764419
-0.000463119505339
-0.000463803015928
-0.000464822066446
-0.000467147352685
-0.000473047010477
-0.000488485508838
-0.00052695420407
-0.000623527483843
-0.000908253402668
-0.00192890193162
-0.00538637272639
-0.0136860196835
-0.0287738793148
0.886285193677
-0.000438716850703
-0.000465437711045
-0.000501147401527
-0.000510706079053
-0.000512957746572
-0.000513701023885
-0.000514407275949
-0.00051533789665
-0.000516733371615
-0.000519664269367
-0.000526800900152
-0.000544930269199
-0.000589361556335
-0.000700235968507
-0.00101936238163
-0.00210876071203
-0.00568152982759
-0.0139397187628
-0.0193941462672
0.338017900333
-0.00045023405345
-0.000481676619105
-0.000520386237295
-0.000531030819152
-0.000533613852976
-0.000534505111499
-0.000535347366191
-0.000536457765424
-0.000538076244181
-0.000541312662806
-0.000549002465371
-0.00056806795997
-0.000614288660412
-0.000729237994011
-0.00105880237537
-0.002162190232
-0.00572281088952
-0.0136951639092
-0.0239449960911
-0.837902247865
-0.000454392652618
-0.000487801266568
-0.000527853858312
-0.000539040851427
-0.000541799740363
-0.00054275923942
-0.000543652605759
-0.000544831810271
-0.000546561703925
-0.000549856561736
-0.000557573682771
-0.000576537378982
-0.000622141389536
-0.000735936589628
-0.00106601273629
-0.00217148942224
-0.00571943281547
-0.0134540378795
-0.000452968378391
-0.134814650519
-0.000455906360882
-0.000490030732253
-0.000530718602923
-0.000542180881339
-0.000545020834208
-0.000545980419242
-0.000546858084632
-0.000548009598829
-0.000549712018676
-0.000552928148527
-0.000560386629165
-0.000578702638608
-0.000622569867434
-0.000732747058446
-0.00105906354814
-0.00216775877247
-0.00571599093597
-0.0146048300885
-0.00910166828881
0.254641182041
-0.00045651939856
-0.000490818620206
-0.000531865010334
-0.000543496696133
-0.000546371152468
-0.000547294159798
-0.000548107600647
-0.00054918260566
-0.000550772694404
-0.000553832585612
-0.000560884221193
-0.000578337657051
-0.000620155351354
-0.000725973655712
-0.00104443589308
-0.00214054024945
-0.00564393198124
-0.0154409313676
-0.0455834375597
-0.294829632879
-0.000456918696572
-0.00049106563917
-0.00053239774821
-0.000544185918111
-0.000547090701466
-0.000547964650514
-0.000548691529878
-0.000549654372788
-0.000551117713933
-0.000553945262112
-0.000560532835547
-0.000577022819987
-0.000616802828397
-0.000718409294078
-0.001026742208
-0.00209475224512
-0.00552663179785
-0.0154429664258
-0.0573368349265
-0.268217235746
-0.000457298929846
-0.000491138192033
-0.000532746100597
-0.000544709634766
-0.000547659023571
-0.000548492487632
-0.000549128973189
-0.000549978011069
-0.000551278194611
-0.000553871345571
-0.00055993710876
-0.000575392959856
-0.000612953303046
-0.000709566968038
-0.00100400312989
-0.00202752021901
-0.00535155566468
-0.0147430045628
-0.0316916861929
-0.140246685165
-0.000457753352533
-0.000491169125567
-0.000533075294618
-0.000545247058471
-0.000548265931603
-0.000549069135083
-0.000549627232534
-0.000550359784885
-0.000551521718658
-0.000553843825554
-0.000559385099777
-0.00057369797418
-0.000608761130618
-0.000699029537713
-0.000973591286854
-0.00193115737517
-0.00507902517136
-0.0128254876752
0.0124998096368
0.295215510125
-0.000458346051392
-0.000491158401261
-0.000533434172129
-0.000545863700959
-0.000548987170866
-0.000549784099433
-0.000550273210649
-0.000550909835201
-0.000551920369991
-0.000554000515899
-0.00055900397183
-0.000572148855029
-0.00060474471074
-0.000688703376722
-0.000942903555886
-0.00183007013135
-0.00478099006601
-0.0119123785206
0.00211759580823
0.9449552856
-0.000459072946002
-0.000491200489661
-0.000533860183701
-0.00054658931899
-0.000549854857351
-0.000550672181033
-0.000551113664536
-0.000551660184007
-0.000552552841757
-0.000554364524126
-0.0005588724592
-0.000570883735037
-0.000601401525063
-0.000681134664444
-0.000922220996822
-0.00175761615817
-0.00457122841195
-0.0124841708483
-0.0222696342876
-0.173201719904
-0.000459907791524
-0.000491250577548
-0.000534367766058
-0.00054744637645
-0.000550887606776
-0.00055175420013
-0.000552166537212
-0.000552643455614
-0.000553405873082
-0.000554987668178
-0.0005589910822
-0.000569841896396
-0.000598085413457
-0.000672884095836
-0.000897865073044
-0.00167607402238
-0.0043662510174
-0.0124149881832
-0.0222043188846
-0.748298235612
-0.000460897995448
-0.000491386642535
-0.000534977330075
-0.000548440731523
-0.000552093777204
-0.000553031088625
-0.000553433692044
-0.000553856092751
-0.000554518569222
-0.000555869974471
-0.000559388215852
-0.000569022308231
-0.000594467374167
-0.000661613510383
-0.000861890297066
-0.00155698091287
-0.00401879016752
-0.0119568853666
-0.0261882643019
0.403349872121
-0.000462056605108
-0.00049152862926
-0.000535678846584
-0.000549579012436
-0.000553474417538
-0.000554524083078
-0.000554945544427
-0.000555301599301
-0.000555887916648
-0.000557026165544
-0.000560148616603
-0.000568516700838
-0.000590610957453
-0.000647727636362
-0.000815382962764
-0.00140838317563
-0.00356788457242
-0.0103899957158
-0.00951785362325
0.975987650623
-0.000463378773551
-0.000491776793057
-0.000536490842244
-0.000550859835123
-0.000555095066656
-0.000556243984942
-0.000556620944448
-0.000557011312049
-0.000557492998379
-0.000558537448056
-0.000561224991963
-0.000568542837061
-0.000587725370819
-0.000636443887078
-0.000776673814488
-0.00127673192279
-0.00311129585821
-0.00824085928161
0.0178408722343
0.883858502789
-0.000464868929412
-0.00049213806163
-0.00053742980139
-0.000552389469306
-0.000556809616723
-0.000558110697097
-0.000558593085665
-0.000558979809036
-0.000559449769599
-0.000560379070284
-0.00056277658166
-0.000569319309087
-0.000586445857347
-0.000629700110027
-0.000751687133898
-0.0011766834968
-0.00268169135391
-0.00612077693849
0.0260905599018
0.893095761707
-0.000466542953265
-0.00049259761511
-0.000538559730444
-0.000553893267051
-0.000558750178614
-0.000560325601037
-0.000560743442682
-0.000561108419678
-0.000561584304783
-0.000562421862564
-0.000564514073159
-0.000570316712602
-0.000585623867336
-0.000624107820504
-0.000729426830568
-0.0010839536379
-0.00230196221767
-0.00444994817536
0.0314079674669
0.711422888072
-0.000468386510843
-0.000493232389764
-0.000539753512676
-0.000555658556244
-0.000560859649872
-0.000562353773086
-0.000563026735194
-0.000563495077117
-0.000563996587024
-0.000564797623551
-0.000566673410432
-0.000571743781385
-0.000584948962756
-0.000617069300463
-0.000699209194548
-0.000963379037909
-0.00182298453185
-0.000984187952493
0.0669088280983
0.41198942268
-0.000470239470072
-0.000493873196194
-0.000541118478625
-0.000557529243381
-0.000562897378019
-0.000564723945487
-0.000565521210863
-0.000566070466385
-0.000566626226357
-0.000567408469414
-0.000568927531946
-0.00057272497279
-0.000581420796572
-0.000597415816224
-0.000614857908087
-0.000644676544595
-0.00074720339899
0.00563601467975
0.0926586614674
0.303547751196
-0.000472250380165
-0.000494761809007
-0.00054252241097
-0.000559487472405
-0.000565240695651
-0.00056724758646
-0.000568146770136
-0.000568765474331
-0.00056935014691
-0.0005700551929
-0.00057121218473
-0.00057357103255
-0.000577514620615
-0.000576402304452
-0.000533631244143
-0.000359853039107
0.000555192403405
0.0128784167851
0.101772667291
0.188690203183
-0.000472918138387
-0.000496211212296
-0.000544579849555
-0.000561875389151
-0.000567806070723
-0.000569926504596
-0.000570915831911
-0.000571626023768
-0.000572290793445
-0.000573001935751
-0.000573878874776
-0.000575032541692
-0.000574772335843
-0.00055867214459
-0.000458035906346
-6.07044704768e-05
0.00201037323885
0.0202980102151
0.104978469251
0.0891384744084
-0.00047363509675
-0.00049777853366
-0.00054669935718
-0.000564330915034
-0.000570444155234
-0.00057268569387
-0.000573783259942
-0.00057460167059
-0.000575377702796
-0.000576146883265
-0.000576868119049
-0.000577092415984
-0.000573197229858
-0.000543812760346
-0.000395022152341
0.00019985907494
0.00341995958003
0.0278472219871
0.118619251757
0.0677755185501
-0.000474627847048
-0.000499397349699
-0.000548871432031
-0.000566821593074
-0.000573115919229
-0.000575482529351
-0.000576697044594
-0.000577642782092
-0.000578555379987
-0.000579433285221
-0.000580100581769
-0.000579604895597
-0.000572812516992
-0.000532751415598
-0.000344510788434
0.000431680173707
0.00473887199438
0.0342216974132
0.130037266773
0.061815177564
-0.00047571576455
-0.000501040581386
-0.000551036156606
-0.000569301364343
-0.000575771846456
-0.000578264105923
-0.000579601393078
-0.000580690177221
-0.000581756379816
-0.000582787475066
-0.000583489757284
-0.00058253763202
-0.00057358083989
-0.000525353654143
-0.000302809746804
0.000661137169428
0.00594219164615
0.0370719546381
0.115408835054
0.0495084506988
-0.000476961074538
-0.000502679686554
-0.000553172751724
-0.000571740033605
-0.000578381180178
-0.000580995504841
-0.000582452631153
-0.000583676933593
-0.000584908169697
-0.000586107571726
-0.000586919258367
-0.000585754153736
-0.000575431449731
-0.000521640783154
-0.000271438065647
0.000859170007918
0.00677740435994
0.0356693247612
0.0803238695747
0.0283053361357
-0.000478197521555
-0.000504258832974
-0.000555203999323
-0.000574046027142
-0.000580850171117
-0.00058359114506
-0.00058518122605
-0.000586563908436
-0.000587981077763
-0.00058939647837
-0.000590387070176
-0.000589191752542
-0.000578086973743
-0.000521267768197
-0.000255815028488
0.000967518065188
0.00703747291726
0.0323592715007
0.0581665995106
0.0108019408776
-0.0004794133333
-0.00050579466735
-0.00055714397766
-0.000576237570309
-0.000583196857534
-0.000586059138166
-0.00058777305042
-0.000589299111144
-0.000590885188991
-0.000592501647888
-0.000593679281224
-0.000592520146106
-0.000580916315703
-0.000522979481362
-0.000255260585423
0.000988114225329
0.00695763053509
0.0291364052755
0.0388871329277
-0.00250391577343
-0.000480631369382
-0.000507213169616
-0.000558921532417
-0.000578246470493
-0.000585355235181
-0.000588337003008
-0.000590171653581
-0.000591834039867
-0.000593587067979
-0.000595403138278
-0.000596730776619
-0.000595540509056
-0.00058336575514
-0.000525000129209
-0.000261700480378
0.000954128374538
0.00646023134093
0.0237967802585
0.0269825669994
-0.00965011054759
-0.000481809774346
-0.000508440899386
-0.000560469860857
-0.000580020253842
-0.00058728135906
-0.000590385778267
-0.000592341201755
-0.00059413557938
-0.000596041828335
-0.000598017323885
-0.000599421754497
-0.000597982039089
-0.000584947061066
-0.000527505423678
-0.00028379428066
0.000826954696563
0.0058589647071
0.0215486111173
0.0278083222669
-0.0058947962404
-0.000482939121235
-0.000509449571386
-0.000561727899782
-0.000581499847014
-0.000588928102584
-0.000592165637095
-0.000594245328826
-0.000596168739075
-0.000598213403983
-0.000600299050708
-0.000601636900187
-0.00059954528804
-0.000584924676032
-0.000528285956928
-0.000307856867844
0.000700621693969
0.00557195278935
0.0217923150469
0.0277408708891
-0.00176848046682
-0.000484022415069
-0.000510190875214
-0.00056264814823
-0.000582636250176
-0.000590251405711
-0.000593639935439
-0.000595852334162
-0.000597908063694
-0.000600080883021
-0.000602227897652
-0.000603318262717
-0.000600044899451
-0.000582758461245
-0.000524833374887
-0.000316683498102
0.000648979096521
0.00532134924489
0.0194670795636
0.0238174506532
0.00151770846084
-0.000484951300668
-0.000510602079333
-0.000563194947675
-0.000583403658351
-0.000591223760336
-0.000594781719593
-0.000597142298845
-0.000599343616587
-0.000601647514027
-0.00060381883115
-0.000604507854536
-0.000599622373103
-0.000578791125655
-0.00051704320282
-0.000305843494069
0.000671696402077
0.00508018713873
0.0172313342176
0.0297521098014
0.00890624512979
-0.000485637169195
-0.00051065505593
-0.000563339122354
-0.000583772143407
-0.000591814812666
-0.000595562352501
-0.000598096044895
-0.000600464110289
-0.000602919430963
-0.00060512326285
-0.000605397246834
-0.000598899337655
-0.000574799477167
-0.000509653151278
-0.000290396248502
0.000725728499874
0.00498114306559
0.0156704638334
0.034100738553
0.0147366549694
-0.000485999487655
-0.000510329656737
-0.000563049156615
-0.000583705056531
-0.000591991388552
-0.000595957234079
-0.000598688291463
-0.000601252777852
-0.000603896590697
-0.000606199921415
-0.000606224661348
-0.000598613785123
-0.000572504408777
-0.000505659588861
-0.00027817532635
0.000777873378533
0.00492356959014
0.0152724842996
0.0402445448038
0.0177658868143
-0.000485988315013
-0.000509585477318
-0.000562292489082
-0.000583173758734
-0.000591724636614
-0.00059593477329
-0.000598891653835
-0.000601688393
-0.000604570039865
-0.000607070058278
-0.000607117301473
-0.000599162352474
-0.00057274024832
-0.000506441017453
-0.000274125090052
0.000819182438866
0.00494635204107
0.0137944391482
0.0036076297006
-0.00593113905453
-0.000485556313206
-0.000508390050153
-0.000561044417611
-0.000582149671001
-0.000590986150024
-0.000595467525211
-0.000598684212246
-0.000601747622192
-0.000604916134472
-0.000607710955606
-0.000607997582034
-0.000600340965907
-0.000574946712864
-0.000510393312071
-0.000272721777515
0.000868048785487
0.00514220559763
0.0128622007566
-0.0320652818488
-0.0269288799811
-0.000484658182514
-0.000506745032905
-0.000559294898581
-0.000580615788868
-0.000589754682285
-0.000594535858379
-0.000598042943075
-0.000601409684839
-0.00060491329912
-0.000608059211688
-0.000608761415437
-0.000601955021486
-0.000578825558532
-0.000517580923318
-0.000273985706295
0.000927501146898
0.0054439659532
0.0117718281298
-0.0263324431088
-0.0435522515398
-0.000483240747813
-0.000504638277733
-0.000557038799589
-0.000578564810472
-0.000588016412455
-0.000593121412768
-0.000596952463451
-0.000600663442152
-0.000604553840311
-0.000608140755794
-0.00060952304406
-0.000604205185371
-0.000584464310705
-0.000527139081895
-0.000273819663166
0.00100494492629
0.00571462168045
0.0120516476747
0.0136312966957
8.16308898591e-05
-0.000481346681348
-0.000502054329828
-0.000554267372979
-0.000575988590666
-0.000585762408767
-0.000591209956594
-0.000595387309997
-0.000599512463965
-0.000603847044541
-0.000608037899517
-0.000610345132533
-0.00060698467316
-0.000590449515514
-0.000533877306688
-0.000262452780747
0.00109514583576
0.00581650998397
0.0113348601195
0.0171835751344
0.0104011370251
-0.000478860008134
-0.000499026727456
-0.00055101532837
-0.000572908886265
-0.000582987291256
-0.000588790584985
-0.000593398746332
-0.00059793680334
-0.000602813068364
-0.000607602101916
-0.000610956837524
-0.000609200428178
-0.000593861360299
-0.000531953250343
-0.000234598322563
0.0011644348013
0.00548799292172
0.00909226209401
0.0146376895457
0.0147953004107
-0.000475912298959
-0.000495610780187
-0.000547335429298
-0.000569352964378
-0.000579748681096
-0.000585941285319
-0.000590948547238
-0.000595981632672
-0.000601383773079
-0.000606813200132
-0.000610888511257
-0.000610070541106
-0.000594138337527
-0.000523787691667
-0.000201062897612
0.00118242124911
0.00490161001268
0.00686544696903
0.00423535342339
0.00165419057236
-0.000472472054293
-0.000491882966359
-0.000543290015207
-0.000565417520741
-0.000576067918426
-0.000582622045277
-0.000588128558972
-0.00059371450231
-0.000599634747833
-0.000605480700545
-0.000609954164722
-0.000609566614148
-0.000593553149156
-0.000520346923091
-0.000192125439367
0.00111299557997
0.00403263721815
0.00283481332472
-0.0131111973091
-0.0137507714013
-0.000468633657503
-0.000487980611361
-0.000539054094102
-0.00056121176222
-0.000572100195307
-0.000579035430855
-0.000584936816238
-0.000590932294511
-0.000597145547934
-0.000603063772079
-0.000607407521831
-0.000606944777932
-0.000592219904564
-0.000525486396375
-0.000217107531296
0.000969929734489
0.00296731282222
-0.00185979706613
-0.0227154350035
-0.0194093148918
-0.000464523214713
-0.000484039227098
-0.000534747372929
-0.000556865025429
-0.000567906000533
-0.000575003654569
-0.000580953441888
-0.000586574890462
-0.000592223340575
-0.000597575483418
-0.000601264939518
-0.000599646120977
-0.000585851254298
-0.000533165465353
-0.000265082163763
0.000786492625192
0.00196169692267
-0.00668479746408
-0.0383729424859
-0.030203362282
-0.000460369316498
-0.00048027439238
-0.00053060080643
-0.000552561266222
-0.000563511895854
-0.000570197839494
-0.000574661649368
-0.000577134435627
-0.000579941844504
-0.000584031657406
-0.00058657593401
-0.000579624648239
-0.000558619226736
-0.000525112450239
-0.0003026451946
0.000599642655048
0.000928269890267
-0.0102861850142
-0.0431702961733
-0.0301937861014
-0.000456331349681
-0.000476948013087
-0.000526853356783
-0.00054847097394
-0.000558856569974
-0.000563578362668
-0.000562454603826
-0.000554743195043
-0.000545374025427
-0.000555628063433
-0.000548498017236
-0.000527647695275
-0.000489267463559
-0.000484643728558
-0.000313544535368
0.000432534847865
8.32409916465e-05
-0.0131530031665
-0.049197397409
-0.0327797759597
-0.000452802376057
-0.000474316885451
-0.000523747019713
-0.000544687891693
-0.000553778992072
-0.000555306896377
-0.00053910999075
-0.000489452250348
-0.00060558442961
-0.000589173911964
-0.000607949456835
-0.000578182417197
-0.000420692415302
-0.000454319922436
-0.000319939128622
0.000253536359487
-0.00063846397411
-0.0141362308507
-0.0478319840824
-0.0295431098286
-0.00044993829976
-0.000472375805572
-0.000521537961172
-0.000541820389893
-0.000548433918397
-0.000541813987126
-0.00051015607075
-0.000551843330518
-0.00058289886071
-0.000563831983706
-0.000500767117577
-0.000124180656699
-0.00121845312553
-0.013343868837
-0.0433810989885
-0.0263197737055
-0.000447827603751
-0.000471206159322
-0.000520158154447
-0.000539869859824
-0.000545226166966
-0.000535793530656
-0.000495475740273
-0.000501909375246
-0.000697898850766
-0.000777673894251
-0.000809795460298
-0.000454666791449
-0.000905614381272
-0.0107535215447
-0.045170584714
-0.0311673297656
-0.000447770093343
-0.000471190162349
-0.000520154131647
-0.000539873996757
-0.000545234100281
-0.000535828222279
-0.000495618723992
-0.000502291884947
-0.000699612386287
-0.000788224528902
-0.000841922337485
-0.000433695184425
-8.34866392411e-05
-0.00850331246574
-0.0500517951662
-0.0364993383539
-0.000449904261752
-0.000472359185323
-0.000521533774569
-0.000541830171765
-0.000548468499391
-0.000541939670031
-0.000510460479963
-0.000553407411896
-0.000583598704426
-0.00057517083921
-0.000546632943339
-9.32469193696e-05
-4.67398953997e-05
-0.00888914337988
-0.0410607741067
-0.0280261866644
-0.000452808859476
-0.000474315207664
-0.000523752282524
-0.000544718958797
-0.000553845907405
-0.000555326761843
-0.000539087446196
-0.000489510450716
-0.000605807841575
-0.000589565390077
-0.000607570889336
-0.000577885056309
-0.000420901612422
-0.000458767704332
-0.000338766700198
0.000278251809111
0.000108507940164
-0.0097310286977
-0.0367493005732
-0.022662233872
-0.000456332728522
-0.000476941315902
-0.000526848361145
-0.000548486455693
-0.000558906085888
-0.000563676529938
-0.000562553484368
-0.000554906217503
-0.000545889168354
-0.000555810469063
-0.000548669096447
-0.000527645251648
-0.000488985266943
-0.000482094981459
-0.000307812744012
0.000436208159209
0.000340830496415
-0.0103655608184
-0.0394122588109
-0.024914389495
-0.000460378157604
-0.000480267379344
-0.000530593208353
-0.000552568972288
-0.000563547570165
-0.000570275425562
-0.000574799918523
-0.000577353445745
-0.000580201356617
-0.000584229954589
-0.000586552723017
-0.000579090790193
-0.000556960993658
-0.00051814346171
-0.000292476974865
0.000520299800591
0.000574371017011
-0.0106981632799
-0.0438014940948
-0.0301651935247
-0.000464541250695
-0.000484034837872
-0.000534742679431
-0.000556873784482
-0.000567938574431
-0.000575068782367
-0.000581060546606
-0.000586721988447
-0.000592395961726
-0.000597719863827
-0.000601240412052
-0.000599002559847
-0.000583347249785
-0.000525022262883
-0.000255651600892
0.000657006056063
0.00109540012974
-0.00912447075817
-0.0430750762307
-0.0324599356639
-0.000468666939913
-0.000487985540692
-0.000539056447326
-0.000561235360667
-0.000572164296786
-0.000579106711867
-0.00058504355497
-0.000591073745659
-0.000597319423535
-0.000603255723376
-0.000607539604789
-0.000606793125853
-0.000591002557598
-0.000521156000209
-0.000214578854177
0.000838501281035
0.00193673380705
-0.00557936627891
-0.0321728238508
-0.0254688725774
-0.000472534653026
-0.000491911817235
-0.000543326995196
-0.000565465614282
-0.000576164070927
-0.000582758759157
-0.000588264638741
-0.000593873756678
-0.000599836671122
-0.000605734746688
-0.000610267117704
-0.000609979329684
-0.000594152446314
-0.000521037628589
-0.000194758151697
0.00102433978732
0.00302299409801
-0.00121400267683
-0.0170363696727
-0.0135847384901
-0.000475985123883
-0.000495645848153
-0.000547373593948
-0.00056941868267
-0.000579831111784
-0.000586052082845
-0.000591102860028
-0.000596186890203
-0.000601630946364
-0.000607101373765
-0.000611304285431
-0.00061071292288
-0.00059526136438
-0.000524519071553
-0.000196001266269
0.00114066328312
0.00396067871983
0.00261363654794
0.00347935162181
0.00644238923849
-0.000478939040062
-0.00049907455321
-0.000551067359592
-0.000572974349955
-0.00058308668174
-0.000588930047798
-0.000593559001878
-0.000598159009205
-0.000603070762569
-0.000607956246345
-0.000611403177211
-0.000609788615428
-0.000593908972667
-0.00052649275741
-0.000207652375621
0.0011611871706
0.00469619551492
0.00626083621429
0.01009142036
0.0118445049318
-0.000481434336258
-0.000502109208736
-0.000554330502163
-0.000576068831691
-0.000585866286668
-0.000591349382151
-0.000595581606112
-0.000599743131289
-0.000604146131666
-0.000608394809821
-0.000610856772149
-0.000607634384609
-0.000590527969583
-0.000527981887629
-0.00023281158787
0.00111563901297
0.0052075344975
0.00948430651301
0.0149427232115
0.0134171452378
-0.000483329417038
-0.000504698621264
-0.000557111492813
-0.000578656465726
-0.000588134051591
-0.00059327148079
-0.000597141506851
-0.000600905187743
-0.000604852284179
-0.000608517269714
-0.000610034186123
-0.000604982324411
-0.000585552202992
-0.000526619941439
-0.000260802267378
0.00103625438269
0.00541679707775
0.00964118144719
0.0146769273576
0.00394427579871
-0.000484738306964
-0.000506806203289
-0.000559372626365
-0.000580714856655
-0.000589879952381
-0.000594692178131
-0.000598233650926
-0.000601644612098
-0.000605201247509
-0.000608413980308
-0.000609253063143
-0.000602776930581
-0.000580712973601
-0.000522008324154
-0.000278676907255
0.000961932381751
0.00561645668798
0.0110982649062
-0.0148331133903
-0.0245349416707
-0.000485608196875
-0.000508437345677
-0.000561112771209
-0.000582241794002
-0.000591105409979
-0.000595616277432
-0.000598865978952
-0.000601969087294
-0.000605186617257
-0.000608043113878
-0.000608437626055
-0.000601018459036
-0.000576518827875
-0.000514696266461
-0.000279670348248
0.000905438990266
0.00550331054561
0.0123752844866
-0.0289144802835
-0.0319951021705
-0.000486024642194
-0.000509610858103
-0.000562345144184
-0.000583255292935
-0.000591835963609
-0.000596076460519
-0.000599066457612
-0.000601903632123
-0.000604820411069
-0.00060736482901
-0.000607486797346
-0.000599610771189
-0.000573433113836
-0.000507392241916
-0.000271076588073
0.000873283160713
0.0053425003751
0.0139682298449
-0.0275794155211
-0.0270581183233
-0.000486023075829
-0.000510334966746
-0.000563084156103
-0.000583772225319
-0.000592088586848
-0.000596083277386
-0.00059884517037
-0.000601444805359
-0.00060412434388
-0.000606458500074
-0.000606516018782
-0.000598811707143
-0.00057232285383
-0.000503554516019
-0.00026579171196
0.000848404554313
0.00529559557381
0.016516622687
0.0330913806377
0.00893150197568
-0.000485642215375
-0.000510639094975
-0.000563354694937
-0.000583820747288
-0.000591892948765
-0.000595667012643
-0.000598224698038
-0.00060062121427
-0.000603105793157
-0.00060532548912
-0.000605597959783
-0.000598902058195
-0.000574120957299
-0.000506140105128
-0.000273368411368
0.000813667033913
0.00544611624447
0.0183772546137
0.0439186360573
0.0180815618215
-0.000484935596588
-0.000510564958779
-0.000563190181384
-0.000583430903558
-0.000591278228942
-0.000594858560565
-0.000597236134554
-0.00059946115982
-0.00060178819274
-0.000603961702637
-0.000604628398544
-0.000599484005223
-0.000577867680839
-0.000513322285881
-0.000289913854298
0.000758645572196
0.00563681578266
0.0201338841195
0.0316774771105
0.00684652710591
-0.000483981366133
-0.000510132461623
-0.000562620040373
-0.00058263808328
-0.000590277605546
-0.000593684962834
-0.000595910720883
-0.000597984526794
-0.000600174054414
-0.000602314375034
-0.000603371985156
-0.000599824048433
-0.000581774320445
-0.000521290870873
-0.000301805959613
0.000733498250482
0.00576662578081
0.0202745145165
0.0163892502735
-0.0071729590084
-0.000482868926211
-0.000509369886105
-0.000561675583766
-0.00058147407179
-0.000588923226033
-0.000592175675053
-0.000594264591218
-0.000596200865861
-0.000598258473854
-0.000600332052607
-0.000601636994246
-0.000599290099309
-0.000584032023574
-0.000525467881126
-0.000296554555747
0.000767675826317
0.00581679580672
0.0205482280734
0.0165891223295
-0.0114540065519
-0.000481710407839
-0.000508338626898
-0.000560391758573
-0.000579965465406
-0.000587244002234
-0.000590359454746
-0.000592319486771
-0.000594121072461
-0.000596036787241
-0.000597996295201
-0.00059937165655
-0.000597712099572
-0.000584231175328
-0.000526181640643
-0.00028412182656
0.000822476150108
0.00600662250417
0.0227938533391
0.0277607864265
-0.00674998697892
-0.000480502800001
-0.000507087607359
-0.000558817952292
-0.000578163005245
-0.000585285454773
-0.000588274167249
-0.000590109013998
-0.000591772502759
-0.000593529823922
-0.000595328363683
-0.00059662579208
-0.000595255796332
-0.000582806794727
-0.000525032272555
-0.000273295907364
0.000870503322374
0.00638005019572
0.027386545338
0.0436008998266
0.00301745638662
-0.000479256070257
-0.000505644676823
-0.000557013150756
-0.000576123369601
-0.000583091742399
-0.000585956592361
-0.000587666191777
-0.000589185507914
-0.000590772690153
-0.000592379309503
-0.000593515946054
-0.000592204324534
-0.000580339881941
-0.000522558995241
-0.000262678347887
0.000909612933237
0.00662882567285
0.0315439064829
0.0719125171141
0.0240060657287
-0.000478020690638
-0.000504086396893
-0.000555046588506
-0.000573900025654
-0.000580708086653
-0.000583447548815
-0.000585030408536
-0.000586402120093
-0.000587812922701
-0.00058921659086
-0.000590168081143
-0.000588849357563
-0.000577447118124
-0.000519924131312
-0.00025309242584
0.000963412270525
0.00693510562746
0.0327553495443
0.0710609808172
0.022104927728
-0.000476780895181
-0.000502487317447
-0.000552983830766
-0.000571551391537
-0.000578189591047
-0.000580801087332
-0.000582256223443
-0.000583479114106
-0.000584712075002
-0.000585916102191
-0.000586701056604
-0.000585443298091
-0.0005748049911
-0.000519440662417
-0.000257167779435
0.000950990630102
0.00706724288439
0.0342967718437
0.0686944426599
0.0224153906908
-0.000475536697996
-0.000500851636544
-0.000550841723561
-0.000569100315386
-0.000575561615808
-0.000578045210833
-0.000579376307442
-0.000580457516308
-0.000581524404636
-0.000582553865702
-0.000583234582697
-0.000582206008367
-0.000572949584923
-0.000522794200457
-0.000283704078189
0.000796755204785
0.00642216970566
0.034931599577
0.0964811096032
0.0441018292378
-0.000474487158882
-0.000499254392322
-0.000548716664229
-0.000566651913505
-0.000572930748579
-0.000575283703036
-0.000576489068634
-0.000577428645372
-0.000578334365452
-0.000579207119813
-0.00057984748462
-0.000579288833265
-0.000572327767348
-0.0005314345635
-0.000334027904766
0.000528591632101
0.00528912202391
0.0346841955616
0.11926503707
0.0589957057066
-0.000473512879805
-0.000497661206302
-0.00054656421861
-0.000564173796207
-0.000570266759961
-0.000572492786882
-0.000573581384307
-0.000574395472286
-0.000575170606084
-0.000575937529165
-0.000576638600511
-0.000576813928741
-0.000572874587978
-0.000543706530178
-0.000395202142972
0.000223079906716
0.00370455494938
0.0298561271504
0.128308155786
0.0870316938646
-0.000472816967331
-0.000496109974265
-0.000544457651696
-0.000561725229389
-0.00056763169859
-0.000569735682164
-0.000570714393279
-0.000571424359569
-0.000572094655938
-0.000572813221915
-0.000573675080719
-0.000574810362092
-0.000574567341511
-0.000559179026467
-0.000463828718565
-8.32083388509e-05
0.00193165075032
0.0199482949414
0.11859634599
0.158301300684
-0.000472155867076
-0.000494681549635
-0.000542399999839
-0.000559330935164
-0.000565056573003
-0.000567044949927
-0.000567937919915
-0.000568560834817
-0.00056915509602
-0.000569868430442
-0.000571031848692
-0.000573399998831
-0.000577438607568
-0.000577092127666
-0.000539005255846
-0.000371005050791
0.000631254048196
0.0123941907197
0.094654866854
0.169785244451