/*--------------------------------*- C++ -*----------------------------------*\
| =========                 |                                                 |
| \\      /  F ield         | OpenFOAM: The Open Source CFD Toolbox           |
|  \\    /   O peration     | Version:  v2012                                 |
|   \\  /    A nd           | Website:  www.openfoam.com                      |
|    \\/     M anipulation  |                                                 |
\*---------------------------------------------------------------------------*/
FoamFile
{
    version     2.0;
    format      ascii;
    class       volVectorField;
    location    "4.4";
    object      ddtCorrDdt0(U);
}
// * * * * * * * * * * * * * * * * * * * * * * * * * * * * * * * * * * * * * //

dimensions      [0 1 -2 0 0 0 0];


internalField   nonuniform List<vector> 
1984
(
(0.00112421649854 -0.000990323505782 2.92543431453e-23)
(0.000760939356293 -0.0035410100496 -2.70061812227e-22)
(0.000675511437499 -0.00541584361637 1.79772930246e-22)
(0.000584485711633 -0.00717975395748 2.01071198552e-22)
(0.000428069307584 -0.00876531990013 1.68289896715e-22)
(0.000192399733287 -0.0100612407662 9.00714512931e-25)
(-0.000116151983053 -0.0109708432524 -1.92452718841e-22)
(-0.000503487998393 -0.0113403489005 -4.84592691909e-22)
(-0.000985972321107 -0.0109860321133 -4.5983206675e-22)
(-0.0015781147664 -0.00966272177151 -4.375686598e-22)
(-0.00227010761248 -0.00708964592087 2.32130678556e-22)
(-0.00307043793869 -0.0030359229682 5.77244176932e-23)
(-0.0039491682413 0.00272459359713 5.18328047486e-22)
(-0.00504957211495 0.0105353570526 8.94131431511e-22)
(-0.00646768292802 0.0212089319191 6.50473145258e-22)
(-0.00828863779846 0.0337162498419 -9.75089383472e-22)
(-0.0110323663426 0.0773240216046 -1.38084954234e-20)
(-0.0249648978403 0.0723244572017 -5.58240145664e-21)
(-0.245408191403 -0.213620807425 2.30293535451e-18)
(9.54592548768 -18.7795914403 -1.65008593041e-19)
(0.00407461875951 -0.000685395745419 6.49033856068e-23)
(0.00361645267221 -0.003284073698 -1.50564860588e-23)
(0.00340949112484 -0.0052883528195 1.69642180021e-22)
(0.00311470911559 -0.00710441140168 3.09404664241e-22)
(0.00265263151666 -0.00872374718981 5.83835387994e-22)
(0.00199242499438 -0.0100521480549 2.62225967791e-22)
(0.0011172249118 -0.0109977462568 4.31309242328e-22)
(1.75257942756e-05 -0.011420158563 -1.87896319025e-22)
(-0.00135940028347 -0.0111481548071 -3.92207558674e-22)
(-0.00306007773519 -0.00992286726385 4.98579093279e-22)
(-0.00511004031534 -0.00746713290375 2.75592655774e-22)
(-0.00751599728805 -0.00355306522023 2.57392919329e-22)
(-0.0103127244292 0.00206271025442 7.84418772524e-22)
(-0.0136477946126 0.00955705505934 1.46428589403e-21)
(-0.0181461259888 0.0190839468837 3.06729476208e-21)
(-0.0241534663712 0.0291350178427 3.10895112233e-21)
(-0.0302640427012 0.0660371329081 -5.21858442849e-21)
(-0.0366454065884 0.0703602734081 1.26079310674e-22)
(0.184278825096 0.16838140171 -4.66197570545e-19)
(27.7661363412 12.1161017296 4.85827623112e-19)
(0.00658429898522 -0.000724540586019 1.03649257655e-22)
(0.00611194698961 -0.00347448992035 -5.49207905157e-22)
(0.00574906116545 -0.00561141637661 4.09833875332e-23)
(0.00521355809165 -0.00760434569972 2.72372944861e-22)
(0.00442897602997 -0.00942773349392 2.61711362886e-22)
(0.00334178980914 -0.0109970918864 2.05274203648e-22)
(0.00191209289186 -0.012212847397 -5.66869465512e-24)
(0.000102223037623 -0.0129467508091 -9.49460827515e-23)
(-0.00213555645226 -0.0130377237197 -6.06521877547e-24)
(-0.0049097577124 -0.0122340548793 9.42556269983e-23)
(-0.00829588577802 -0.0102429433934 8.54242019308e-23)
(-0.0122855669303 -0.00680295086864 1.44320555195e-22)
(-0.0168924438091 -0.00163850406211 7.28875923767e-22)
(-0.0221300150771 0.00545337735031 -3.72606507536e-23)
(-0.0283819310143 0.0144880951802 1.30137052799e-21)
(-0.0351334707323 0.0233291291477 4.68733360058e-22)
(-0.0442956280846 0.056147660292 -2.11190138889e-20)
(-0.0405209432296 0.0581895647869 -1.28887431614e-20)
(0.500061350527 0.113791324089 -4.86693038597e-19)
(13.6082716475 3.1711057398 3.12842653522e-20)
(0.00929075314039 -0.000845561799443 -1.74548044636e-22)
(0.00873705351113 -0.00379468329174 -3.36099043894e-22)
(0.00824576848665 -0.00614581659817 4.90619461764e-23)
(0.00750593276261 -0.00840290447471 1.95966536235e-22)
(0.00643172858087 -0.0105388266882 1.94501852414e-22)
(0.00495618560106 -0.0124705888763 1.05832570363e-22)
(0.00302269866135 -0.0141076383395 4.75876669907e-23)
(0.000558639584349 -0.0153119912915 -6.75549702741e-23)
(-0.00250222325037 -0.0159531671258 -1.17722525705e-24)
(-0.00624799663341 -0.0157979680158 6.56586703683e-23)
(-0.0108613478351 -0.0145160215592 4.75865475414e-23)
(-0.0164311603981 -0.01182963586 8.71366070949e-23)
(-0.0229544938128 -0.00741155547386 2.53992476049e-22)
(-0.0303458322211 -0.000854601355148 5.58111875838e-23)
(-0.03864528547 0.00816352802348 1.21666523763e-21)
(-0.046460937354 0.0154395732068 3.86501215196e-21)
(-0.0501432430891 0.0418886062364 -2.81823075498e-21)
(-0.0201759581665 0.0401412897785 4.07033552021e-21)
(1.05170620609 -0.16137332054 -1.16890512118e-20)
(38.1786622804 -24.7807511819 -1.24377047956e-19)
(0.0122330448524 -0.000997381987123 3.10292550626e-22)
(0.0116011697236 -0.00419854273801 -4.88374827276e-22)
(0.011008124793 -0.00684303860135 -4.96982398174e-23)
(0.0101083843731 -0.00943689113981 1.29739791779e-22)
(0.00880523446411 -0.0119734091972 1.31111815858e-22)
(0.00702187881288 -0.014374659311 9.54075319032e-23)
(0.00468099725188 -0.0165596872561 2.1156254918e-23)
(0.00168929730476 -0.0184149092377 -1.87311196356e-23)
(-0.00207289317681 -0.0197754684657 -2.21871732571e-24)
(-0.00669357692398 -0.0204698426609 7.01148849906e-23)
(-0.0124017986694 -0.0202369600263 3.15649217996e-23)
(-0.019458608346 -0.0187022874374 1.4322064964e-22)
(-0.0280412521996 -0.0154238151466 5.06227415549e-22)
(-0.0381423041193 -0.00957334988617 -5.34532533915e-22)
(-0.0497547333569 0.000210819768937 -4.48299648391e-22)
(-0.0604854647248 0.0118138909891 7.40396575604e-21)
(-0.0622309975577 0.0497970469913 -2.34684899899e-20)
(0.0101638637347 0.0531497606563 -5.63081106836e-21)
(1.74424779977 -0.04096579471 -1.35253294027e-20)
(61.6129267181 -4.89288101729 -3.90917376636e-19)
(0.0154299404338 -0.00116243710339 4.33263690579e-23)
(0.0147117699974 -0.00466787275418 -3.88468624113e-22)
(0.0140530283316 -0.00766382657402 -3.98588303344e-23)
(0.0130437554831 -0.0106455955503 8.81721728191e-23)
(0.0115844843012 -0.0136455096484 4.77747165611e-23)
(0.00959137445553 -0.0165927180215 7.17914949957e-23)
(0.00697599535866 -0.0194219764009 2.03203343218e-23)
(0.00362592147622 -0.0220410296109 -1.5797460919e-25)
(-0.000606617788134 -0.0243252347273 -1.53724880944e-23)
(-0.00591455816004 -0.0261226447611 3.25987448333e-23)
(-0.0125477203488 -0.0272463562021 4.06644272109e-23)
(-0.0209040725353 -0.0274273545981 2.31079230971e-22)
(-0.0314939839943 -0.0261562452746 7.18149538725e-22)
(-0.0448736253039 -0.0222058615323 4.47795239626e-22)
(-0.0622223279698 -0.0132253831626 1.18960799403e-21)
(-0.0837810699192 0.00430181692981 1.91694743242e-21)
(-0.108598144738 0.0687527876124 -1.69693123258e-20)
(-0.0900403229772 0.0967379394371 -9.8572600755e-21)
(0.704309567194 0.434999862015 1.12893267395e-19)
(24.8191845802 30.2930922406 -1.04542882404e-18)
(0.018903790764 -0.00133976696024 5.82575119332e-23)
(0.0180989554328 -0.00518172650983 -6.50671145653e-23)
(0.0174131725585 -0.00855382790293 5.91938114582e-23)
(0.0163516792719 -0.0119628185879 1.14453753453e-22)
(0.0148174664859 -0.0154614328554 1.60371487415e-22)
(0.0127295316548 -0.0189946815409 5.91375433206e-23)
(0.00998926670904 -0.0225206014457 2.09977215606e-23)
(0.00647602488085 -0.0259842399812 2.61747215239e-23)
(0.00201131438814 -0.0293123653496 -3.41182302536e-23)
(-0.00364414147625 -0.0324280614908 3.48243261918e-23)
(-0.010844954597 -0.0352577973773 6.36466866285e-23)
(-0.0200738246782 -0.0377069884409 2.40230012545e-22)
(-0.0320690910713 -0.039565151061 7.24301480863e-22)
(-0.0480021798191 -0.0401654514398 1.27628466397e-21)
(-0.0706323709433 -0.0383756359405 5.91856804946e-21)
(-0.104750954377 -0.0325098602174 1.77997038232e-20)
(-0.166091534658 0.0154980302846 -3.34861316166e-20)
(-0.294641136832 0.0483572756599 -2.22871503759e-20)
(-1.90123032334 0.385415512596 8.05476483175e-19)
(-14.3727897239 33.7726503549 3.73214243061e-19)
(0.0226595511278 -0.00151975370651 1.11819932919e-22)
(0.0217825210534 -0.00571602150198 -4.74995210397e-22)
(0.0211041854339 -0.00946507083615 -5.34429838684e-23)
(0.0200513579443 -0.013313008403 1.00333402633e-22)
(0.0185318635747 -0.0173134501752 9.37796937187e-23)
(0.016468215112 -0.0214395986837 8.02178477107e-23)
(0.0137656231587 -0.0256783655304 3.87404201795e-23)
(0.0102924723064 -0.0300137977878 6.61828382601e-23)
(0.00586373953569 -0.0344403505059 -1.05974107594e-23)
(0.000212164669798 -0.0389828165913 4.14724595748e-23)
(-0.00704164701979 -0.0437055328603 6.26660082712e-23)
(-0.0164054575377 -0.04873722657 3.476418832e-22)
(-0.0286212074338 -0.0543049457689 6.70844836726e-22)
(-0.0448342502676 -0.0607850484448 4.81904030621e-22)
(-0.0675198685868 -0.0699817888924 5.20402271608e-21)
(-0.100308374798 -0.0888047495512 2.32320065242e-20)
(-0.155239957808 -0.10260926138 -9.8440581438e-21)
(-0.267954704376 -0.11093481092 3.94767581489e-20)
(-1.79679357139 -0.457704824119 -2.46248591554e-18)
(-55.2258616304 6.8849846673 3.79564959012e-18)
(0.0266838766909 -0.00169164665644 -1.32535379851e-22)
(0.0257584079597 -0.00624656617641 -4.1741914087e-22)
(0.025123907292 -0.0103435836901 -1.32036543231e-22)
(0.0241428138726 -0.014617675494 3.62410982884e-23)
(0.0227280016887 -0.0190979242511 6.40014354685e-23)
(0.0208061670816 -0.0237839721357 -3.06920220821e-23)
(0.0182956120378 -0.0287026889051 6.8489906151e-23)
(0.0150689495327 -0.0338842836531 -5.79818398814e-23)
(0.0109449969281 -0.0393915905403 1.76216535549e-23)
(0.00566152059511 -0.0453436558321 9.83792521704e-23)
(-0.0011263387813 -0.0519139328447 -2.92869205198e-23)
(-0.00986132434798 -0.059391483729 2.55443568368e-22)
(-0.0210814344925 -0.0682411101857 3.70788391372e-22)
(-0.035458940688 -0.0792018464787 9.30822361662e-22)
(-0.0540649781027 -0.0940911367705 1.23481295304e-21)
(-0.0759622528679 -0.119251296933 7.65055201282e-21)
(-0.0992236582166 -0.12867052412 2.55668257001e-21)
(-0.103417793254 -0.12066572367 5.95465863218e-21)
(-0.0156338821556 -0.177014557394 -2.34372659643e-20)
(-52.7116922075 -28.2149894841 5.79822774177e-19)
(0.0309490382455 -0.00185243068149 -1.5488337121e-22)
(0.0300115671913 -0.00672855699971 -8.3705264692e-22)
(0.0294485647764 -0.0111411985706 -1.97940712298e-22)
(0.0286002417482 -0.0157989999325 -9.4015174995e-25)
(0.0273741530853 -0.0207080172863 4.2418357024e-23)
(0.0257075496594 -0.0258968717633 5.00560542957e-23)
(0.0235280334177 -0.0314225190786 5.08013041327e-24)
(0.0207316327641 -0.0373650894846 -1.53583976745e-24)
(0.0171557100247 -0.0438539221694 7.90339706145e-25)
(0.0125749459241 -0.051079573295 5.7932714809e-23)
(0.00669274954475 -0.05929146386 4.30810985145e-23)
(-0.000818052348393 -0.0688221148408 2.13227400318e-22)
(-0.0102965833093 -0.0801616032956 1.45536769721e-22)
(-0.0220411663001 -0.0939097933027 4.21586012077e-22)
(-0.0365419513737 -0.110858643598 9.78633894067e-23)
(-0.0517070895192 -0.133923858215 9.947640542e-21)
(-0.0665155052526 -0.128388560509 -4.69231033469e-21)
(-0.0554306342994 -0.0909414228728 -7.41315278454e-21)
(0.180376943857 -0.0918452542057 -6.50177068692e-19)
(-8.20584480093 -4.60444616625 -1.11689502117e-18)
(0.0354254345582 -0.00201312148251 1.35831778182e-22)
(0.0344893624002 -0.0071048970764 1.54079773893e-22)
(0.0340346314287 -0.0118159222458 -1.95232923405e-23)
(0.0333700965914 -0.016787503787 3.35164316864e-23)
(0.0324088146402 -0.0220514036179 2.60418153085e-23)
(0.0310937183773 -0.0276553503002 4.27482538712e-23)
(0.0293696468437 -0.0336852611147 1.2718558143e-23)
(0.0271557168194 -0.0402602150732 -5.4335059799e-25)
(0.0243271748617 -0.0475657318851 4.24366390334e-23)
(0.0207082888688 -0.0558564816844 -4.93571260227e-24)
(0.0160871681265 -0.0654077202535 3.407613932e-23)
(0.0102038269203 -0.0765343612258 1.99975725024e-22)
(0.00286418556137 -0.0897180912283 -1.95598702172e-22)
(-0.00611550864477 -0.105464240767 4.96419897818e-22)
(-0.0173542300347 -0.124363766961 -2.67454134257e-21)
(-0.0296462435851 -0.148501367785 3.32286237544e-21)
(-0.0460339089239 -0.147503433752 1.84114779657e-21)
(-0.0444168467932 -0.112353953083 1.56545543642e-21)
(0.0440833292476 -0.0214676930249 -4.64878693707e-20)
(-35.0748420331 19.416825374 1.2146662398e-18)
(0.0400603514328 -0.00214973600771 3.29983168793e-22)
(0.0391360889378 -0.00738827868592 -3.46122675654e-22)
(0.0388271100542 -0.0123196233828 -3.50959603416e-23)
(0.0383919816448 -0.0175247976588 2.81583421091e-23)
(0.0377526176679 -0.0230495910642 3.07506139578e-23)
(0.0368621437761 -0.0289631755411 2.54711673697e-23)
(0.0356878862037 -0.0353686180809 4.28129925282e-23)
(0.0341783271071 -0.0424187677893 1.01290468253e-23)
(0.0322499811218 -0.0503357529587 6.09609693621e-23)
(0.029782694253 -0.0593950196904 9.19677290954e-23)
(0.0266637451684 -0.069920750583 4.16600120174e-23)
(0.0226906804281 -0.0822059960022 3.18477512376e-22)
(0.0177538129319 -0.0966973748708 1.72862828174e-22)
(0.0116826751372 -0.113945590189 4.18135247981e-22)
(0.00382002981904 -0.134733561781 1.17361196276e-21)
(-0.00503616808368 -0.161633249261 -2.32809719968e-22)
(-0.0167631267327 -0.169014366641 -2.12415200798e-20)
(-0.00248504165943 -0.142001149872 -8.20159975108e-21)
(0.561182188468 -0.375433606083 5.46377558713e-20)
(-27.2089712229 -8.90588612996 4.18017451624e-19)
(0.0447892030991 -0.00224616480902 1.44108786285e-22)
(0.0438976340656 -0.00755203112849 -6.44837405338e-22)
(0.0437544177684 -0.0126180255083 -2.20395925034e-22)
(0.0435840567582 -0.0179646668035 -4.27328955811e-23)
(0.043305703085 -0.0236496833248 7.19668301574e-23)
(0.0428945786037 -0.0297510098097 7.35149436079e-24)
(0.0423355529192 -0.0363835508527 1.69559732587e-23)
(0.0416082629414 -0.0437216821797 6.09818457251e-23)
(0.040682613741 -0.0520077334487 8.11936412646e-23)
(0.0395020351992 -0.0615214354954 3.87942523708e-23)
(0.0380234692205 -0.0726135661733 1.9260001059e-23)
(0.0361585328271 -0.08558999058 3.44283023775e-22)
(0.0338294158145 -0.100898091747 2.96230189022e-23)
(0.0308999647201 -0.119116722353 6.26058353665e-22)
(0.0267338962601 -0.140954767745 4.36315239632e-21)
(0.0212939662447 -0.167634218872 1.4610742722e-20)
(0.0111785714386 -0.169699258471 2.12446809411e-20)
(-0.0120436606707 -0.165646796069 8.88941086362e-21)
(0.0406595291261 -0.269653471048 1.24522222931e-18)
(-0.348951252071 -22.1407540835 4.75354161677e-19)
(0.0495410062288 -0.00230515781062 2.02398962694e-24)
(0.0487012955249 -0.00758658204609 -3.78390547495e-22)
(0.0487356752515 -0.0126895200257 -2.88750625461e-22)
(0.0488501007951 -0.0180788725449 -1.27516844307e-22)
(0.0489652515037 -0.023808805595 -3.19320521924e-23)
(0.0490642592993 -0.0299660863817 1.87782899609e-23)
(0.0491526817876 -0.0366733058419 7.64129780548e-24)
(0.0492497164953 -0.0440972918128 -2.72150610002e-23)
(0.0493814632962 -0.0524842528485 8.97046858244e-24)
(0.0495559854494 -0.0621284612267 2.47735244587e-23)
(0.0498013662281 -0.0733759367726 -3.72239277181e-23)
(0.0501221467538 -0.0865501519728 8.33933070641e-23)
(0.0505494219301 -0.102114238031 3.13834670927e-23)
(0.0510708979408 -0.120799521257 2.49044501355e-22)
(0.0513823612567 -0.143918974093 3.75315882036e-24)
(0.0512858979016 -0.174703186376 6.74015414527e-21)
(0.0464817477187 -0.197236262769 6.52922839033e-21)
(-0.00132834524254 -0.180832009588 2.04988162464e-20)
(-0.355017052571 -0.432681950109 -1.22776792081e-20)
(18.4596049734 -7.77754080751 -4.67489216422e-19)
(0.0542509430817 -0.00231043603857 -2.3296255831e-22)
(0.053468015157 -0.00747811694341 -5.3874774179e-22)
(0.0536906320204 -0.0125228351713 -2.16453971692e-22)
(0.0540989401968 -0.0178415052683 -1.35820649847e-22)
(0.0546245740808 -0.0235007173798 -4.74704976803e-23)
(0.0552318668958 -0.0295843249663 -6.97585185076e-24)
(0.0559692612764 -0.0362021999989 1.3906459582e-23)
(0.0569191675747 -0.043502670511 2.03926655902e-23)
(0.0581142704593 -0.051731473192 2.54894178021e-23)
(0.0596411397711 -0.0611701134576 1.02091830877e-22)
(0.0615782564499 -0.0721617597461 -3.18531278098e-23)
(0.0640639631611 -0.0849995141112 4.15579179184e-23)
(0.0672406438989 -0.100110073517 -2.25154341115e-23)
(0.0713451974177 -0.118239272623 -4.44604203067e-22)
(0.0767071413021 -0.140702274635 -7.83391125529e-22)
(0.0842733782912 -0.170610094473 -2.77521639647e-21)
(0.0937320944417 -0.194818492665 1.80784452037e-20)
(0.0916716637569 -0.17382427331 1.17136775992e-20)
(0.286178475186 -0.277188552924 -3.58829783416e-19)
(22.1391606797 3.02659177165 -1.09235693694e-19)
(0.0588513818713 -0.00227428838844 8.02437584874e-24)
(0.0581197030688 -0.00722954503925 1.92743539756e-22)
(0.0585300233185 -0.0121054291931 1.8126486476e-24)
(0.059233280183 -0.0172396329676 -3.04612157312e-23)
(0.0601271365972 -0.0227188386754 -1.23291945819e-23)
(0.0612441723095 -0.0286110249393 -4.17996577498e-24)
(0.0626341843781 -0.0349594282297 1.57210907427e-23)
(0.0644063538517 -0.0419334954793 2.07780195837e-23)
(0.0666215975761 -0.0497618102579 1.19040263504e-23)
(0.0694181523013 -0.0586899599311 1.31737914934e-23)
(0.072927218663 -0.0690203903146 4.14328153465e-23)
(0.0774104128866 -0.0809892266129 -7.43476138664e-24)
(0.0830981837526 -0.0949225753116 7.14772296772e-23)
(0.0904606336181 -0.111381048864 -2.43756429217e-22)
(0.100283272833 -0.131183771488 -2.24852116771e-21)
(0.11379705988 -0.156632599613 -8.45765883813e-21)
(0.13273920169 -0.17554031462 -9.4844705196e-21)
(0.135827093522 -0.148929776086 3.52087333193e-22)
(0.573521123445 -0.133839853182 -3.3996998007e-19)
(17.7613720823 6.1477458271 4.63975201482e-20)
(0.0632537170155 -0.00219376708571 4.84369760809e-22)
(0.0625858574772 -0.00684486817291 2.59285225332e-22)
(0.0631598642461 -0.0114413632704 1.62295276421e-22)
(0.0640924097034 -0.0163266995128 6.48762928755e-23)
(0.0653532105418 -0.0215187647805 2.1522208698e-23)
(0.0669612899486 -0.0270477784178 -1.75669536757e-23)
(0.0689495535448 -0.0329912916088 -2.14852381414e-23)
(0.0714544996842 -0.0394844054584 -2.26505662374e-23)
(0.0746088715643 -0.0467019616065 5.9052467632e-24)
(0.0785270534915 -0.0548337561997 -1.33066783507e-23)
(0.0834221933571 -0.0641203258855 2.36194490831e-23)
(0.0895726276253 -0.0747629566586 -6.20078001694e-24)
(0.0973062351687 -0.0869160073204 -2.5996542972e-23)
(0.107121480624 -0.100772394332 -7.52295793953e-22)
(0.119983824771 -0.116552777149 -1.46678497741e-21)
(0.136903539183 -0.135017696236 -8.23485523917e-21)
(0.165923111876 -0.158819096899 -2.1639686975e-20)
(0.156513189258 -0.147150316008 -1.60806434526e-20)
(0.574993740065 -0.165380845188 2.17242981116e-19)
(6.35474460626 3.07192139899 3.21798812481e-19)
(0.0673957086702 -0.00206518771566 4.5541550869e-22)
(0.0667692779551 -0.00633296117381 1.5171480343e-22)
(0.0674683707331 -0.0106137709774 1.69599357473e-22)
(0.068607719246 -0.0151284615463 1.00757264144e-22)
(0.0701948732714 -0.0198930535169 2.69866646654e-23)
(0.072181342427 -0.0250213587002 4.83749549898e-25)
(0.0747271944699 -0.0304639399864 -3.45884042324e-23)
(0.077894548098 -0.0362659167659 -1.86143114175e-23)
(0.081828014723 -0.0426590210298 -3.48360683259e-23)
(0.0866907310678 -0.0498031689673 -2.09688395604e-23)
(0.0927275850973 -0.0578383596805 -6.54173717506e-25)
(0.100156359325 -0.0669037631585 -7.5105699944e-23)
(0.109336127485 -0.0770354285411 -2.52734938493e-22)
(0.120543402826 -0.0880621940612 -1.39745801823e-21)
(0.134374080645 -0.0998713804663 -3.38004808849e-21)
(0.146907283825 -0.105720268242 -1.32626738463e-21)
(0.175601682641 -0.134826117977 8.05171097794e-21)
(0.180848182995 -0.142334818234 -1.35767286687e-20)
(0.707391331115 -0.17948530041 -3.8374520661e-20)
(1.2876118597 0.266687988109 1.02312446622e-19)
(0.0711844888359 -0.00193383191499 6.48107031522e-23)
(0.0705453126749 -0.00574961136458 -2.2151068755e-22)
(0.071393568937 -0.00959593473094 -4.23119323531e-24)
(0.0727349976375 -0.0136863183756 -2.44672241018e-24)
(0.0745317986011 -0.0180238801222 2.88948809728e-23)
(0.076881068973 -0.0225837130567 1.04326653874e-23)
(0.0798964934926 -0.0273293776962 1.77486540877e-24)
(0.0836045609303 -0.0323931493974 -7.12615895935e-24)
(0.0881401354675 -0.0378735657788 -8.18025310851e-23)
(0.0937162367101 -0.0438721348359 -3.23796186953e-23)
(0.100691175577 -0.0505659383253 -7.04720626254e-23)
(0.109036951171 -0.0580058451456 -1.16125611809e-22)
(0.119201315298 -0.0662437964667 -2.61760970716e-22)
(0.131388044231 -0.0752538682575 -1.08798876611e-21)
(0.145690517875 -0.0891309055925 -1.35425580763e-21)
(0.162225159729 -0.0913059883816 6.03550876923e-21)
(0.174282466698 -0.111259360312 2.81561810092e-20)
(0.202745356368 -0.123482078022 4.80687486079e-21)
(0.869568172102 -0.155080482245 7.3848361836e-20)
(0.676051927375 -0.346699680649 9.41866630734e-20)
(0.0747172854588 -0.00177127827839 -2.14057663114e-22)
(0.0738727968704 -0.00504465459376 -4.62832697035e-22)
(0.0749501717668 -0.0084037966996 -1.31019669791e-22)
(0.0764108637505 -0.0120926726634 -6.4011557222e-23)
(0.078413618287 -0.015859399068 -1.43130742264e-23)
(0.0810711151352 -0.0197376744098 -9.58990081513e-24)
(0.0843879688217 -0.0237713334757 -6.2043627378e-23)
(0.0884833505101 -0.028020916015 6.15078513976e-23)
(0.0934954398524 -0.032534185147 -2.61243633786e-23)
(0.0996130605056 -0.0372280731603 -6.3938062108e-23)
(0.107057385125 -0.0424803690544 6.96148150105e-23)
(0.116121096627 -0.0483261388986 -3.24511489581e-22)
(0.127039001009 -0.0545039688895 -1.82651888636e-22)
(0.140130417026 -0.0613355069314 -3.63826432505e-22)
(0.155577385883 -0.0689067723555 6.28677704733e-22)
(0.179074805062 -0.0782546586757 4.88551533655e-21)
(0.190886178296 -0.0878210030586 2.83221451448e-20)
(0.223900118641 -0.0937579404963 1.84718161844e-20)
(0.949398463187 -0.101836776566 -2.10977051539e-20)
(0.592051478526 -0.18373717611 -4.51373758571e-20)
(0.0776027445344 -0.00170834552619 -5.8863315976e-23)
(0.0771133490487 -0.00436349906549 -6.85650630069e-23)
(0.0780321610701 -0.00705856544921 -4.22886319823e-23)
(0.079613107564 -0.0103480698888 -6.80511911705e-23)
(0.0817901569358 -0.0134707394012 -6.9870646787e-24)
(0.0845977511895 -0.0166660913646 2.19412508554e-23)
(0.0881097531785 -0.0199307486957 -2.03059363182e-23)
(0.0924417233624 -0.0232786877161 1.44513931978e-23)
(0.0977421374584 -0.0267310449053 -2.69870774478e-23)
(0.104188494923 -0.0302959828402 -1.78312893043e-23)
(0.111860413025 -0.0340212146911 6.1203956902e-23)
(0.121332180881 -0.0379370966105 -1.0905919395e-22)
(0.132709022799 -0.0420034682467 4.22500314156e-23)
(0.146345556164 -0.046573355161 -2.44471572036e-22)
(0.162872400915 -0.0504882111634 1.76519037391e-21)
(0.183701676156 -0.0592718324234 -3.13649918933e-21)
(0.205074518541 -0.0642639144518 -1.23095976018e-20)
(0.237008728272 -0.0784415308248 6.46313812036e-21)
(0.994970060968 -0.0832225022868 -3.30197630017e-20)
(0.582844849263 -0.182517449573 -1.61710318074e-20)
(0.0801472834577 -0.00132571251969 2.65795411945e-23)
(0.0799045385374 -0.00359039832149 -9.9629209834e-24)
(0.0806607350826 -0.00594115587682 3.2008784634e-23)
(0.0822989242021 -0.00846054780467 -6.44754832625e-23)
(0.0845397760459 -0.0109607917693 -2.36518667287e-23)
(0.0874124838816 -0.0134646650138 -3.8979854828e-23)
(0.0910070364705 -0.0159573765214 6.1746748869e-24)
(0.0954152406344 -0.0184019235071 6.15697867372e-23)
(0.100780357466 -0.0207829081981 -1.30551174177e-22)
(0.107269502442 -0.0230885587393 1.2223560504e-23)
(0.11511280733 -0.0252785125047 4.40351716118e-23)
(0.124584955763 -0.027373897296 -2.7797750166e-22)
(0.136056506615 -0.0292606072273 3.00752260308e-22)
(0.149864458453 -0.0311822415788 -5.58848610263e-22)
(0.167085343611 -0.0315912164085 3.76175421762e-21)
(0.187181108628 -0.040015693342 1.32039594499e-21)
(0.210445871247 -0.0394069208943 -6.39149578576e-21)
(0.246748554139 -0.0653578646926 8.20413633709e-22)
(1.07664821746 -0.0675765016101 2.84066890386e-20)
(0.584870846126 -0.107212458697 3.47531900512e-20)
(0.0823467763294 -0.00104708560044 1.71229894976e-22)
(0.0818906756542 -0.00280855888318 -1.15309400812e-23)
(0.082808906795 -0.00466706698696 1.59390706276e-24)
(0.0844273876726 -0.00657189103445 3.13080123996e-24)
(0.0866498920957 -0.00843245724889 -9.20273316696e-25)
(0.0895023106424 -0.0102429883948 2.12424445317e-24)
(0.0930552489863 -0.0119575973791 -3.27971742966e-23)
(0.0973997359132 -0.0135201718204 -7.12135199911e-23)
(0.102653708344 -0.0148690088432 -9.20188726684e-23)
(0.108979913606 -0.0159290298798 -3.7248508068e-23)
(0.116611708815 -0.0166496664577 -1.28891764265e-23)
(0.125772219024 -0.016890198386 -8.8550945262e-23)
(0.136950157864 -0.0165133838497 1.6963410985e-24)
(0.150571251518 -0.0156894021778 2.74095925517e-22)
(0.167812021826 -0.0124618597623 -7.08583086335e-22)
(0.188034665957 -0.0182143176742 2.5828231736e-21)
(0.212268701909 -0.0138674386856 6.37260116922e-21)
(0.257184234895 -0.0521871836762 1.25768224377e-21)
(1.13404428988 -0.0419567823442 -6.75118702378e-21)
(0.524111759785 0.00302372315861 2.32062300272e-20)
(0.0839586255265 -0.000797942994516 1.99305314966e-22)
(0.0834518425036 -0.00202748926819 5.61009709473e-23)
(0.0843687403714 -0.00336693608995 -1.69382542543e-23)
(0.0859521218261 -0.00470035246077 -8.94609813497e-23)
(0.0881085413157 -0.0059517927247 -6.86924192353e-24)
(0.0908668944838 -0.00709114945081 -9.68161062896e-25)
(0.0942803080651 -0.00805998760323 -9.52494682002e-24)
(0.0984222756579 -0.00878520569468 -2.61747618637e-24)
(0.103392906412 -0.0091729654727 -1.13576243752e-22)
(0.10933385008 -0.00909153727301 -1.02559709933e-23)
(0.116432638044 -0.00842236659879 -3.44543081326e-23)
(0.124981617696 -0.00692630133118 -3.20934773481e-22)
(0.135319295912 -0.00436840753991 1.10781376446e-22)
(0.1480686574 -0.000670679293286 -7.35714039177e-22)
(0.164486548841 0.006354916419 2.84517636704e-21)
(0.18476255305 0.00516697726549 7.40837981104e-22)
(0.21096770155 0.0127288614465 -1.29107320085e-21)
(0.269642678792 -0.036068468904 -6.67134643286e-21)
(1.13760631455 0.0275872236232 -2.20695650443e-21)
(0.46672940613 0.209993629616 1.08499794869e-20)
(0.0850542972799 -0.000564871710974 9.97649889127e-23)
(0.0845186177676 -0.00127358845406 -5.52595124527e-23)
(0.0853915349166 -0.00209918536075 -3.89679087658e-23)
(0.086895935784 -0.00289435179783 -6.70242401387e-23)
(0.0889408871275 -0.00357110817149 -9.6126061011e-24)
(0.0915382585491 -0.00408973478939 -1.20221364733e-24)
(0.0947284852074 -0.00438318213229 -1.97882515745e-23)
(0.0985670919569 -0.00436053375211 5.47647736294e-23)
(0.103119485094 -0.00390183765757 5.53764305596e-24)
(0.108470379952 -0.00283567922724 -6.98293164337e-23)
(0.114777913152 -0.000944626322031 1.07906375729e-22)
(0.122287565549 0.00207377868014 -1.67353584243e-22)
(0.131254949316 0.00653712721327 5.07309693869e-23)
(0.142336729404 0.0129689524296 -2.09607614639e-22)
(0.156681208121 0.0237486518427 2.46658179804e-21)
(0.175274523014 0.0289168477454 1.22721295568e-21)
(0.20063147153 0.0453711277118 1.07681513757e-20)
(0.268233808573 -0.00728248381852 -5.46957732871e-21)
(0.928447623798 0.181500443946 8.37323978718e-20)
(0.439373539027 0.409966889806 2.25803741633e-20)
(0.0856506411445 -0.000346536379717 7.93907450812e-23)
(0.0850970478862 -0.000560218754158 -1.80067992842e-23)
(0.0858987094932 -0.00090174175991 -6.29207910811e-25)
(0.0872962831811 -0.00119931281271 -6.31794064202e-23)
(0.0891905629784 -0.00135648529119 -1.61424183782e-23)
(0.0915796924833 -0.00133139867997 3.37563072877e-23)
(0.0944853499078 -0.00104463736922 1.756726303e-25)
(0.0979394551068 -0.000389160752825 4.80088213782e-24)
(0.101970146009 0.00075540245248 -4.29874712002e-23)
(0.106601113452 0.00260378409636 1.6673321966e-23)
(0.111919996091 0.00543868499432 1.3715849705e-22)
(0.118047613216 0.00960385279683 5.98273670949e-23)
(0.125159787545 0.0155362701886 2.11869548183e-22)
(0.133763099253 0.0241879601982 -5.12153675555e-22)
(0.144673550875 0.037744505842 2.70556269042e-21)
(0.158765730059 0.0492930632463 8.95033786588e-22)
(0.175369145242 0.0744625175893 -3.3211832023e-21)
(0.225372085849 0.0285630986524 -1.02171299284e-20)
(0.668136084215 0.28160677023 8.70297924423e-20)
(0.35407278326 0.563036090755 4.23506345427e-20)
(0.0857985157538 -0.000147302649595 7.58587349609e-24)
(0.0852255244644 9.70378357245e-05 -1.19929886228e-23)
(0.0859494510477 0.000197905251925 1.47736163502e-23)
(0.0872314920409 0.000351229979541 -2.21027514421e-23)
(0.0889617547806 0.000656534580238 -3.59776590521e-23)
(0.091120499045 0.00115299180651 -2.48294742623e-23)
(0.0937089257455 0.00192368282969 -5.6269508882e-23)
(0.096726594236 0.0030820665839 5.8706078624e-24)
(0.100165589315 0.00475076901326 -3.74357851035e-23)
(0.104006125767 0.00714069827193 -1.73807624793e-23)
(0.108212396449 0.0105544231069 7.7904227905e-23)
(0.112791355163 0.0153676888071 2.02947584638e-23)
(0.11775954242 0.0220753364916 -9.54402434129e-23)
(0.123294382512 0.0318516935264 1.80182444284e-22)
(0.129795590882 0.0464231783999 5.59112614696e-22)
(0.137374384828 0.0613741815581 1.84282463143e-21)
(0.140644216642 0.088703207883 5.64720730307e-21)
(0.167300713252 0.0488949838418 -4.4416462789e-21)
(0.355037262596 0.298459068442 1.34784133052e-19)
(0.260106484202 0.516877876485 -8.17085113459e-21)
(0.0855372892707 4.34741122698e-05 1.47401528694e-23)
(0.084948379725 0.000708141947437 4.05319400955e-23)
(0.0855977255728 0.00121349533515 5.48811903132e-23)
(0.086770688278 0.00177304856385 3.9041588687e-23)
(0.0883437142417 0.00248312127468 2.28321163044e-23)
(0.0902782173788 0.00337669154747 1.24433649317e-23)
(0.0925522071679 0.00452855232842 8.68365878056e-24)
(0.0951339761507 0.00603980862099 6.8096507801e-24)