/*--------------------------------*- C++ -*----------------------------------*\
| =========                 |                                                 |
| \\      /  F ield         | OpenFOAM: The Open Source CFD Toolbox           |
|  \\    /   O peration     | Version:  v2012                                 |
|   \\  /    A nd           | Website:  www.openfoam.com                      |
|    \\/     M anipulation  |                                                 |
\*---------------------------------------------------------------------------*/
FoamFile
{
    version     2.0;
    format      ascii;
    class       volScalarField;
    location    "4.4";
    object      p_rgh;
}
// * * * * * * * * * * * * * * * * * * * * * * * * * * * * * * * * * * * * * //

dimensions      [1 -1 -2 0 0 0 0];


internalField   nonuniform List<scalar> 
1984
(
8720.06544523
8720.2913141
8720.70010167
8721.29229537
8722.05666938
8722.97047957
8724.00677042
8725.13314619
8726.30288192
8727.47998626
8728.61521302
8729.62778579
8730.45094262
8730.99894791
8731.17014415
8730.93383608
8730.37923294
6771.93480803
708.31621532
0.755230458174
8719.81908054
8720.04891448
8720.46351851
8721.06464787
8721.84266186
8722.77597008
8723.83822474
8724.99837197
8726.205153
8727.44507422
8728.65979039
8729.7561873
8730.70984983
8731.3809984
8731.65936338
8731.26254677
8729.71103803
6776.22694116
623.817505315
0.0217251804054
8719.36754232
8719.60552406
8720.03355349
8720.65505178
8721.46206384
8722.43488613
8723.551451
8724.77657552
8726.07129017
8727.41967628
8728.80162747
8730.11404752
8731.30106737
8732.2573151
8732.83342434
8732.70557668
8731.3155973
6811.66484567
647.300089826
-0.408974234297
8718.69894156
8718.94727699
8719.39408664
8720.04431034
8720.89203464
8721.92069273
8723.11002526
8724.43909423
8725.85501269
8727.3493528
8728.95540918
8730.57423984
8732.15944449
8733.60429014
8734.76630039
8735.40542158
8735.21863736
6873.87912828
684.701164574
-0.364347981737
8717.80301397
8718.06202115
8718.53055398
8719.21483048
8720.11105322
8721.20646415
8722.48682837
8723.93266044
8725.52227514
8727.21716141
8729.08142745
8731.07263764
8733.16928882
8735.22903464
8737.19084168
8738.92520966
8740.32246162
6955.5204134
742.851679399
-0.0109388523459
8716.67071707
8716.94035398
8717.43170511
8718.15235997
8719.10081979
8720.26838779
8721.647436
8723.22462943
8724.99615568
8726.9516599
8729.10953202
8731.51935533
8734.15052811
8736.91372548
8739.80531701
8742.79855019
8745.86786226
7059.85512754
882.073577016
0.989394166613
8715.29216699
8715.57192346
8716.08527147
8716.84149316
8717.84154212
8719.08117895
8720.55908019
8722.27092133
8724.22340276
8726.43465744
8728.90881155
8731.75555736
8734.92730409
8738.41263776
8742.26726524
8746.57283269
8751.39707168
7149.49893496
1057.59451188
7.16760274238
8713.65747396
8713.94606768
8714.47864894
8715.26656457
8716.3133302
8717.61921704
8719.18899069
8721.02691662
8723.15334015
8725.59909462
8728.37854165
8731.64053615
8735.31834418
8739.47690366
8744.21575686
8749.72234948
8756.35064493
7180.98834047
1081.91439324
-0.126345424942
8711.75759666
8712.05280691
8712.60002167
8713.41301611
8714.49761245
8715.85883921
8717.50604425
8719.45388527
8721.72806453
8724.38284423
8727.42730946
8731.05387349
8735.19195234
8739.90406008
8745.34149941
8751.65299719
8759.08613609
7217.83099889
1027.44371611
-0.54834588454
8709.58524664
8709.88368203
8710.4395016
8711.26864947
8712.37885636
8713.77910567
8715.48402382
8717.51494937
8719.90876465
8722.72729514
8725.99454055
8729.90749539
8734.41270091
8739.58427724
8745.56201406
8752.41669669
8760.13809959
7250.06743544
1009.58186668
-0.549781204465
8707.13518941
8707.43252845
8707.99032503
8708.82464542
8709.94520847
8711.36407296
8713.10196924
8715.18453511
8717.65649986
8720.58974608
8724.02930873
8728.1233459
8732.89295365
8738.42031785
8744.84380963
8752.24217881
8760.47983403
7272.26590624
981.846938276
-0.0595228753932
8704.4046612
8704.69733492
8705.24905253
8706.07614134
8707.19026531
8708.60494275
8710.34596853
8712.44201582
8714.95283788
8717.93530017
8721.45154976
8725.63887142
8730.54186638
8736.29838599
8743.08194454
8751.14284804
8760.67456334
7279.56187613
1054.06283309
-0.334047976022
8701.39581542
8701.67926078
8702.2165495
8703.0232932
8704.11249353
8705.50003651
8707.21189471
8709.284905
8711.76984075
8714.72795083
8718.23053869
8722.39348204
8727.30177106
8733.09571663
8740.0051283
8748.45434877
8759.25667531
7279.42451288
1186.64550216
1.76840951906
8698.11432473
8698.38450193
8698.89863742
8699.67210057
8700.71756396
8702.05351426
8703.70394197
8705.70471404
8708.10911463
8710.97431723
8714.37193021
8718.39568585
8723.13899404
8728.72550895
8735.34581761
8743.27649913
8752.74424469
7168.17918908
1034.69976994
0.626104349282
8694.57093087
8694.82340522
8695.30659913
8696.03427878
8697.01780047
8698.27521943
8699.82882517
8701.71679084
8703.9876835
8706.69010409
8709.8966105
8713.66081595
8718.0858731
8723.25302952
8729.30486717
8736.4120029
8744.73598365
7065.58733933
966.503312488
-0.25501365964
8690.78004029
8691.01169314
8691.45622945
8692.12499366
8693.02803835
8694.18179894
8695.61322606
8697.34564239
8699.4271515
8701.90309965
8704.8282116
8708.23783901
8712.21351046
8716.80551444
8722.1031646
8728.23323666
8735.33704988
6962.3345565
860.532327767
-0.0647812372843
8686.76073111
8686.96841771
8687.3675824
8687.9648375
8688.77509109
8689.79516955
8691.07504373
8692.6252959
8694.47852059
8696.66567241
8699.23412077
8702.2154721
8705.65158118
8709.55546567
8713.97934956
8718.97222252
8724.37244042
6819.06405718
784.329781482
-0.0696183908155
8682.53564691
8682.71684718
8683.06413263
8683.58775928
8684.28100146
8685.17487684
8686.27249737
8687.61265792
8689.18891709
8691.0391775
8693.19180606
8695.66737214
8698.48312297
8701.63567287
8705.1369307
8709.02051976
8712.82980724
6679.79080284
692.841766217
-0.0541157884002
8678.13079374
8678.28386337
8678.57591899
8679.01294272
8679.59425149
8680.339737
8681.25540359
8682.34694794
8683.62833312
8685.11935097
8686.83195364
8688.77489737
8690.95525937
8693.34039499
8695.93111405
8698.87440562
8702.20211772
6544.3099121
583.313365649
-0.0411019250661
8673.57243043
8673.6968146
8673.92977216
8674.278094
8674.74890044
8675.339686
8676.0512232
8676.87567201
8677.85646828
8678.97422089
8680.23127363
8681.62139496
8683.13383532
8684.74091337
8686.43630563
8688.23078709
8690.20868243
6392.10531026
471.404999961
-0.0325422231834
8668.89398813
8668.9830102
8669.15829211
8669.41897562
8669.7650907
8670.19195123
8670.69565296
8671.27880936
8671.94775223
8672.68558005
8673.48301009
8674.31950207
8675.16671477
8675.98129626
8676.73177708
8677.3403017
8677.86798795
6235.74828003
368.449840352
-0.0247176587359
8664.12213282
8664.17924615
8664.29483646
8664.46659042
8664.68825828
8664.95457704
8665.26289375
8665.59954109
8665.96312024
8666.33084469
8666.68076815
8666.9794968
8667.17930557
8667.21580756
8667.0026144
8666.41872993
8665.49598916
6074.72795587
271.346775603
-0.0159775870364
8659.28946627
8659.31627587
8659.3739953
8659.45762569
8659.55940845
8659.67283329
8659.79293654
8659.89533597
8659.96727414
8659.987262
8659.91502574
8659.7093076
8659.30315961
8658.60693125
8657.49996544
8655.77240291
8653.43016496
5909.08375192
188.083522909
-0.0073124742444
8654.42456641
8654.42260226
8654.42543715
8654.42596617
8654.41581056
8654.38598568
8654.31782389
8654.20086029
8654.01118491
8653.71678242
8653.2732602
8652.6133856
8651.66970669
8650.32624606
8648.43742827
8645.69289619
8642.07411428
5741.52271696
120.080812669
0.00212000086139
8649.5539389
8649.52535617
8649.47675103
8649.40057997
8649.28618405
8649.12063699
8648.88641019
8648.56814951
8648.13984562
8647.57923358
8646.81480392
8645.78817335
8644.39654768
8642.52719116
8640.01200645
8636.45976725
8631.75766342
5576.59690218
64.920206004
0.00977235334925
8644.70252
8644.64953614
8644.55400587
8644.40758827
8644.19985096
8643.9162045
8643.54271991
8643.05322529
8642.42389985
8641.62925917
8640.60947721
8639.28679195
8637.57455234
8635.33583498
8632.39122572
8628.32923271
8622.926015
5429.79080868
26.1144479183
0.0121816670935
8639.89279203
8639.81750679
8639.6797586
8639.47095398
8639.18034177
8638.79672556
8638.30323733
8637.67567355
8636.87144621
8635.89390999
8634.68282515
8633.1568462
8631.23510984
8628.78993068
8625.64718005
8621.41865314
8615.84642761
5316.03521152
4.44249952037
0.013469877828
8635.14531859
8635.05005093
8634.8745089
8634.61012195
8634.24660195
8633.77300963
8633.17558937
8632.4313097
8631.51046916
8630.36904777
8629.01140539
8627.40931127
8625.39640218
8622.89940193
8619.78867115
8615.7343279
8610.12411064
5232.95844864
0.0288662162057
0.00421991474604
8630.47820638
8630.36508053
8630.15594986
8629.84256842
8629.4155494
8628.86552957
8628.18090181
8627.34248185
8626.33290001
8625.11996635
8623.66353055
8622.00870799
8620.01016091
8617.6068695
8614.72735494
8611.11782831
8605.71533926
5181.03019705
0.00221196276371
0.00215702012239
8625.90758899
8625.7783997
8625.53926308
8625.18237754
8624.69965074
8624.08378872
8623.3258477
8622.41273918
8621.32719072
8620.05540756
8618.57100826
8616.89942929
8614.99698485
8612.7757009
8610.26025752
8607.25655938
8602.82258261
5154.23527877
-0.000276429811365
0.00409836796005
8621.44783345
8621.3040226
8621.03759547
8620.64131144
8620.10860549
8619.43456194
8618.61333841
8617.63751093
8616.49280074
8615.17520459
8613.6883307
8612.04477966
8610.24269418
8608.22104135
8606.10538928
8603.77513842
8600.51457734
5134.70244216
0.00602893084732
0.00827378371178
8617.11208851
8616.95461009
8616.66261069
8616.2295089
8615.65023571
8614.92225924
8614.04302475
8613.01003193
8611.81745462
8610.46964849
8608.96865479
8607.36478363
8605.64545249
8603.81602217
8602.01811546
8600.3483721
8598.06841266
5111.46671151
0.0122446677442
0.0109840722914
8612.91276112
8612.74202641
8612.42521881
8611.95628107
8611.3314502
8610.55031243
8609.61339058
8608.52260452
8607.27963735
8605.89800679
8604.37938349
8602.80111447
8601.13217574
8599.51796479
8597.99641155
8596.65629576
8594.67735704
5067.90287419
0.0236899629649
0.0107904777856
8608.86206784
8608.67792744
8608.33618076
8607.8309238
8607.15936351
8606.32286289
8605.3245542
8604.1698442
8602.86518258
8601.42779053
8599.87786015
8598.2577785
8596.59821368
8595.04643985
8593.63727549
8592.4832332
8590.04213137
5001.93493849
-0.0090124258048
-0.00311330733794
8604.97221183
8604.77429401
8604.40671849
8603.86347489
8603.14248419
8602.24638209
8601.17986423
8599.95034812
8598.56749404
8597.0450834
8595.40639261
8593.71987769
8592.03517509
8590.40989356
8588.95060434
8587.76231138
8583.90198792
4915.82493643
-0.0795984551739
-0.0207749408117
8601.25584976
8601.04373647
8600.64904078
8600.06556435
8599.2916206
8598.33022154
8597.18634797
8595.86835977
8594.38737861
8592.75737422
8591.01543405
8589.20882689
8587.37756072
8585.57976697
8583.92199558
8582.51356597
8575.72106582
4813.9860792
-0.0763754938388
-0.0144628670763
8597.72637354
8597.49957475
8597.07651994
8596.45054957
8595.61968063
8594.58652547
8593.35560792
8591.93491596
8590.33600907
8588.57633296
8586.68158828
8584.69188505
8582.63645866
8580.5752562
8578.59352214
8576.79043482
8566.02663039
4696.62026966
-0.0112986983231
0.00510824472659
8594.39783301
8594.1558504
8593.70350826
8593.03304565
8592.14166323
8591.03087614
8589.70408369
8588.16786161
8586.43278198
8584.51136905
8582.42090088
8580.19958477
8577.86116529
8575.45633306
8573.03933063
8570.66592684
8553.46910997
4565.7677638
-0.00432175403451
0.00613543146285
8591.28469113
8591.02719578
8590.54523154
8589.82914083
8588.87485004
8587.68213045
8586.25244971
8584.59052094
8582.7032034
8580.59635383
8578.28197108
8575.79324195
8573.12611816
8570.30671324
8567.36824582
8564.29867533
8538.69960681
4423.39733821
-0.00845312999013
0.00516617956408
8588.40087932
8588.1290286
8587.61769806
8586.85624436
8585.83844136
8584.56176026
8583.02518825
8581.23057064
8579.17938277
8576.87352394
8574.31838339
8571.53214911
8568.49848619
8565.23062694
8561.75038667
8557.93938076
8521.39480878
4281.27558413
0.00494283594713
0.00813547901367
8585.76146824
8585.47546762
8584.93695509
8584.13235351
8583.05329345
8581.69382293
8580.05049344
8578.11961576
8575.90014932
8573.3873652
8570.58687964
8567.48166834
8564.07866922
8560.3873634
8556.37020229
8551.88211434
8503.24953996
4148.69370216
0.00643567984017
0.00676488167931
8583.37859806
8583.08121245
8582.51886666
8581.67602352
8580.54112565
8579.10506281
8577.3574823
8575.29243091
8572.90092497
8570.18047934
8567.13318319
8563.76238787
8560.04053263
8555.96132785
8551.49286507
8546.39641295
8484.90975937
4031.95982921
0.00992543902738
0.00460054027812
8581.26426646
8580.95830277
8580.37765692
8579.5047717
8578.32443021
8576.82089357
8574.98007242
8572.78435266
8570.22092753
8567.28922095
8563.99927526
8560.35049418
8556.33771933
8551.93328308
8547.08117626
8541.53801122
8466.63198571
3934.78994232
0.0175310936174
0.00353678927912
8579.42733053
8579.11630084
8578.52546444
8577.63440235
8576.42397535
8574.87273365
8572.95123191
8570.63386919
8567.8999241
8564.75088805
8561.21262766
8557.29089256
8552.99651639
8548.30986751
8543.21486598
8537.47207257
8451.44772904
3856.18424058
0.020228806036
0.00176813107176
8577.87302911
8577.56176136
8576.97064684
8576.07682813
8574.85843131
8573.28554985
8571.31487071
8568.89124273
8565.9773992
8562.58889508
8558.78508522
8554.57361986
8550.02279367
8545.08295192
8539.86395273
8534.08819349
8438.89415632
3799.95303599
0.019189318403
-0.000251736687486
8576.60165833
8576.29620317
8575.71599327
8574.8381382
8573.63864356
8572.08810295
8570.12006281
8567.62061976
8564.4998185
8560.79801633
8556.71707562
8552.18040305
8547.38304427
8542.15629893
8536.9207277
8531.2152292
8429.79982785
3758.89804336
0.0180307486975
-0.00166760999153
8575.6091235
8575.31436221
8574.7576585
8573.91657051
8572.76118095
8571.24838811
8569.33535115
8566.83318779
8563.56715743
8559.81503436
8555.52012783
8550.46676904
8544.81111079
8539.38432707
8534.23506662
8528.7017867
8420.33978764
3730.28554657
0.0170730693947
-0.00284842819124
8574.88443695
8574.60465302
8574.08385886
8573.31524893
8572.30306753
8570.9572026
8569.2391877
8566.79495887
8563.05305972
8558.84172267
8554.47108698
8546.70865178
8541.57188868
8536.50786256
8531.68369692
8526.50369852
8411.10812167
3705.98535745
0.0165211510356
-0.00414377778035
8574.41274183
8574.14520497
8573.65045399
8572.92345782
8571.98709856
8570.91236383
8569.81683746
8568.29946311
8537.99785367
8534.00068342
8529.96050486
8524.85070654
8403.40624295
3682.88342665
0.0175563969595
-0.00480101552418
8574.18546411
8573.92738221
8573.4568729
8572.78649283
8571.9439235
8571.0257399
8570.13234409
8569.12930994
8536.39345363
8532.8089533
8528.91562183
8523.91245077
8401.30600787
3662.06545366
0.0216183192294
-0.00375949007386
8574.1923832
8573.93440022
8573.46478382
8572.79669699
8571.96363236
8571.04327569
8570.15489122
8569.15513844
8536.44165417
8532.84565227
8528.92634212
8523.85763849
8405.57097358
3650.84497156
0.0245320622438
-0.0018062171525
8574.43312334
8574.1657116
8573.67261616
8572.949664
8572.01747075
8570.95253623
8569.87482956
8568.36819723
8538.19071386
8534.15122925
8530.06034785
8524.7557431
8410.25266506
3659.15753047
0.022663837353
-0.000929656386104
8574.91756066
8574.63819972
8574.11898174
8573.35326763
8572.34285708
8571.02207909
8569.33427169
8566.92360371
8563.24839049
8559.08080031
8554.72404944
8546.98860917
8541.84524596
8536.76544048
8531.84002323
8526.53295824
8415.72762747
3687.85277406
0.0187980220553
-0.00118767626073
8575.65434945
8575.36109165
8574.80772698
8573.97288346
8572.82893654
8571.33840771
8569.45290725
8566.98725747
8563.75563306
8560.05763871
8555.8071123
8550.8055578
8545.2007029
8539.82387742
8534.69978483
8529.1128171
8423.57074855
3733.56871191
0.0155382188807
-0.00157406761728
8576.65701399
8576.35363768
8575.77781026
8574.90789652
8573.72143564
8572.19016258
8570.24669845
8567.77737309
8564.69119184
8561.03036636
8557.00752773
8552.53937256
8547.83818968
8542.72309179
8537.62495994
8532.11964995
8434.4318035
3788.82998482
0.0138964990927
-0.00186727805717
8577.93660569
8577.62754198
8577.04101572
8576.15521049
8574.94881219
8573.39306407
8571.44338392
8569.04413442
8566.16014671
8562.81221213
8559.06967464
8554.93928974
8550.50346868
8545.73151408
8540.76217204
8535.39029981
8444.57865465
3845.63208798
0.0148943217558
-0.00181864998635
8579.4974458
8579.18827549
8578.60159306
8577.71713633
8576.51616413
8574.9769438
8573.07163516
8570.77251374
8568.06232291
8564.95609504
8561.47029286
8557.60881439
8553.41486442
8548.92575817
8544.18414852
8538.93473214
8455.91564889
3903.95263936
0.0175832793518
-0.00090209538844
8581.33998183
8581.03552632
8580.45781938
8579.58935269
8578.41499809
8576.91946773
8575.08585297
8572.89987233
8570.35685666
8567.44726603
8564.20358943
8560.60395845
8556.60423549
8552.35206162
8547.91604518
8542.87464434
8470.27697123
3972.82037343
0.0181641271742
0.00104598190899
8583.46004796
8583.16331786
8582.60180137
8581.76031829
8580.6269065
8579.19134581
8577.44379255
8575.37810734
8572.99209041
8570.26883582
8567.23502242
8563.89872524
8560.11685688
8556.04388987
8552.09506305
8547.35956483
8486.85193896
4056.8029807
0.0124927378764
0.00237888343461
8585.84940992
8585.56264292
8585.02234284
8584.21491417
8583.13145788
8581.76546789
8580.11195953
8578.17110721
8575.92717275
8573.38485679
8570.58086958
8567.41910633
8563.889703
8560.29083472
8556.52699029
8552.39900239
8503.63917891
4162.58688049
0.00831180100481
0.00453937670551
8588.49688229
8588.22267414
8587.70659818
8586.93770987
8585.90940066
8584.61808005
8583.06178509
8581.24372628
8579.14887952
8576.80640893
8574.22636322
8571.32616425
8568.14859702
8564.84065578
8561.43201245
8557.92188876
8521.41716829
4288.9961081
0.00794143506596
0.00655334732341
8591.39123061
8591.12984027
8590.64027055
8589.91252151
8588.94172839
8587.72643827
8586.26663694
8584.56850444
8582.63022326
8580.47849983
8578.09592572
8575.48547286
8572.72861296
8569.78942329
8566.7902891
8563.86658619
8537.89955349
4421.0722
-0.00878827956465
0.00526667845506
8594.51821517
8594.27095617
8593.80836711
8593.12230756
8592.20890033
8591.06803619
8589.70109802
8588.114939
8586.32383994
8584.32914655
8582.15061389
8579.82639026
8577.3741036
8574.77286997
8572.19051243
8569.78874079
8551.72649776
4548.75011442
-0.00731117168751
0.00667714737903
8597.86497485
8597.63170681
8597.19615622
8596.55125187
8595.69362578
8594.62376117
8593.34360647
8591.85988493
8590.1906998
8588.32858407
8586.30858555
8584.19477413
8581.99289086
8579.71558116
8577.49587378
8575.44511418
8563.02620989
4664.08717974
0.0154296144259
0.0127472936621
8601.41717605
8601.19717695
8600.78704925
8600.1802927
8599.37411075
8598.36969742
8597.17012871
8595.7811985
8594.21625174
8592.47501346
8590.58085908
8588.56961108
8586.53572462
8584.51276892
8582.53885603
8580.74067333
8572.09032239
4768.03801405
-0.0346823683684
0.000388297091178
8605.1630331
8604.95615337
8604.57091296
8604.00110704
8603.24380358
8602.30005276
8601.17308029
8599.86734278
8598.391039
8596.76422131
8594.98541016
8593.05260193
8591.10861319
8589.17661963
8587.33690989
8585.66661639
8579.44673614
4857.4171563
-0.0729582261041
-0.0150410690887
8609.09007607
8608.89636167
8608.53534262
8608.00139935
8607.29088874
8606.40395342
8605.34221679
8604.10842126
8602.70789849
8601.1532953
8599.46235181
8597.64752264
8595.69496803
8593.75351637
8591.93233744
8590.2392798
8585.93487469
4935.134455
-0.0613358543818
-0.013276557423
8613.18589488
8613.00532893
8612.66875037
8612.16990543
8611.50482349
8610.67211515
8609.67059335
8608.50006202
8607.16208426
8605.66219593
8604.01047084
8602.22307406
8600.31938952
8598.31870357
8596.35860633
8594.49454917
8590.80548684
5000.4512576
-0.0283123071768
-0.00468304797735
8617.43892719
8617.27143561
8616.95975422
8616.49674016
8615.87719727
8615.09784152
8614.15452012
8613.04303274
8611.75979135
8610.30256469
8608.67165646
8606.87266642
8604.92161072
8602.84642636
8600.67727605
8598.44621983
8594.82914012
5052.65033338
-0.00465569476724
0.00311609904504
8621.83688926
8621.68313667
8621.39769755
8620.9724884
8620.40053225
8619.67649422
8618.79321155
8617.74202884
8616.51316068
8615.09587827
8613.47905585
8611.65114324
8609.60568225
8607.36909069
8604.92109262
8602.21434197
8597.99647892
5090.25016068
0.00689565965229
0.00614910504375
8626.36713235
8626.22855796
8625.97131055
8625.58720665
8625.06737107
8624.40408863
8623.58729829
8622.60380398
8621.43744465
8620.06858949
8618.47407383
8616.6263904
8614.48914917
8612.04421935
8609.27525434
8606.01974157
8600.99055487
5123.50481258
0.0101713641104
0.00678645926602
8631.01610484
8630.89450002
8630.66852686
8630.33010613
8629.86920483
8629.27554427
8628.53639127
8627.63428433
8626.54694181
8625.24660779
8623.69781224
8621.85666415
8619.6665486
8617.06218424
8613.93941891
8610.16534694
8604.55402723
5164.68763991
0.0126405591379
0.00753798302307
8635.76887534
8635.66614199
8635.47580127
8635.18912877
8634.79561545
8634.28329051
8633.63690423
8632.83559417
8631.85224759
8630.65175101
8629.18885726
8627.4054457
8625.22645872
8622.55083761
8619.21838533
8615.01666477
8609.40557711
5225.99324149
0.0457725350234
0.0130666719452
8640.60765261
8640.52614428
8640.37611127
8640.14871098
8639.83287698
8639.41604879
8638.88078622
8638.20423282
8637.35622173
8636.29669806
8634.97381117
8633.32018151
8631.2465612
8628.62409709
8625.25827427
8620.90112836
8615.24725148
5310.5626388
3.97240604206
0.0165797476621
8645.51235204
8645.4544967
8645.3496662
8645.18960368
8644.96320726
8644.65716839
8644.25394487
8643.72997276
8643.05315604
8642.18117572
8641.05998629
8639.61940121
8637.75904472
8635.34730143
8632.21962084
8627.96573985
8622.35851361
5419.69185495
22.8376469026
0.0119887946971
8650.46078248
8650.42927817
8650.37502153
8650.29057526
8650.16524645
8649.98584785
8649.73534149
8649.39047421
8648.91983824
8648.28160114
8647.42057031
8646.26244798
8644.72345641
8642.69822166
8640.02404081
8636.22523077
8631.24389007
5563.89109236
61.1905807602
0.00879698556547
8655.42705168
8655.42413078
8655.42527048
8655.42390722
8655.41057212
8655.37360072
8655.29743396
8655.16063078
8654.93481642
8654.58089426
8654.04696113
8653.28571502
8652.19142684
8650.67660576
8648.62421901
8645.65194648
8641.70201222
5733.92642723
113.355754868
0.00314944299806
8660.38562486
8660.41359659
8660.4741597
8660.56258387
8660.67117522
8660.79039575
8660.90741833
8661.00462203
8661.05980515
8661.04219
8660.9068066
8660.60699479
8660.06879526
8659.18085381
8657.93478407
8655.97480627
8653.30128918
5906.00063592
182.952513965
-0.00713673182523
8665.30747407
8665.36806907
8665.49115451
8665.67449516
8665.91266292
8666.19897121
8666.523695
8666.87367045
8667.23432428
8667.58148948
8667.88622661
8668.09538791
8668.18095528
8668.06951828
8667.69538152
8666.88390029
8665.69077135
6075.87540337
274.674476683
-0.020224980955
8670.16201506
8670.25681993
8670.44431392
8670.72546938
8671.09813701
8671.55932046
8672.10330151
8672.71713272
8673.40203414
8674.14002851
8674.91184673
8675.68563912
8676.4275575
8677.11683367
8677.67916533
8678.06710811
8678.23443245
6239.10128169
367.765207179
-0.0276278990956
8674.91583939
8675.04822878
8675.29955983
8675.67905417
8676.18790295
8676.82788158
8677.60113342
8678.47520232
8679.50389918
8680.65252715
8681.91533197
8683.27599057
8684.69439482
8686.17976977
8687.69962901
8689.27189034
8690.77126783
6401.61102917
461.515830203
-0.0303586085116
8679.54272226
8679.7065036
8680.02174536
8680.49769842
8681.1391972
8681.95159962
8682.94042878
8684.10631649
8685.46883636
8687.02700693
8688.78635579
8690.72894976
8692.84676268
8695.14096589
8697.56159758
8700.34826846
8703.09774223
6553.84501199
563.488992063
-0.0331532435064
8684.01130773
8684.20460262
8684.57903031
8685.14553946
8685.91211815
8686.88879079
8688.08667913
8689.52036788
8691.20609918
8693.16435057
8695.39270927
8697.9125353
8700.69630392
8703.80801427
8707.25749063
8711.02361839
8714.644555
6687.46733884
671.866391434
-0.0344930921386
8688.29194531
8688.51264434
8688.93977716
8689.58825114
8690.46799528
8691.59372355
8692.98295633
8694.65639179
8696.64113712
8698.96048985
8701.65369211
8704.71238701
8708.15742026
8712.07890897
8716.54803222
8721.56570928
8727.06748747
6852.83920763
776.979333445
-0.0196414518654
8692.35740711
8692.60242572
8693.07417233
8693.79122122
8694.76816066
8696.02175931
8697.57368004
8699.45147885
8701.68948925
8704.32833476
8707.41085372
8710.95764794
8715.01231185
8719.67499144
8725.11580861
8731.4046613
8738.58845589
6994.53670497
867.663444069
0.0117470538529
8696.18175549
8696.44795677
8696.9553014
8697.72923145
8698.78495416
8700.14204453
8701.82572945
8703.86807365
8706.30972113
8709.20733824
8712.58542869
8716.52054323
8721.08662324
8726.40381189
8732.71580833
8740.23463803
8749.23807157
7141.86627405
976.607724926
0.00598203372991
8699.74618496
8700.0266553
8700.56286193
8701.37907947
8702.49289947
8703.92552471
8705.70452577
8707.86507103
8710.45352711
8713.52128008
8717.11983968
8721.34202933
8726.22959303
8732.03577361
8738.99670957
8747.47758925
8758.11919524
7263.46327833
1111.43415231
0.0990352845608
8703.03501648
8703.3249642
8703.8807033
8704.72417329
8705.87428237
8707.35281545
8709.18814442
8711.41679348
8714.08576037
8717.2390005
8720.93873364
8725.2841479
8730.36369168
8736.40495154
8743.65779642
8752.48133281
8763.26659032
7251.45909635
1202.63182602
0.313234270789
8706.0374433
8706.33444778
8706.89931784
8707.75470778
8708.91938436
8710.41453705
8712.26768534
8714.51413882
8717.18825854
8720.34357555
8724.04655902
8728.36837341
8733.438923
8739.44527178
8746.64249649
8755.43789894
8766.43854705
7292.37350466
1291.16215259
-0.0352601570611
8708.75128223
8709.04998088
8709.6145233
8710.46748324
8711.6265479
8713.11120675
8714.94640388
8717.15657751
8719.77868673
8722.8589102
8726.4417122
8730.62038447
8735.47344626
8741.16502966
8747.90799941
8756.05215709
8766.03259559
7320.0530261
1157.89008527
-0.119252043715
8711.17490721
8711.47145522
8712.02735593
8712.86535896
8714.00150614
8715.4524462
8717.237148
8719.37350703
8721.88991636
8724.805447
8728.2127662
8732.10152053
8736.56013737
8741.69677788
8747.6495912
8754.63398834
8762.82137734
7284.94895977
1054.4250201
-0.0865739045094
8713.3118918
8713.60218841
8714.14349757
8714.95662564
8716.05627196
8717.45529608
8719.16567368
8721.20172654
8723.57642075
8726.28598945
8729.41666336
8732.92125678
8736.85682172
8741.27851672
8746.25128096
8751.86202948
8758.13881343
7215.22535392
966.435197885
-0.0741327534871
8715.16872125
8715.45008191
8715.97221908
8716.75386965
8717.8078634
8719.14267956
8720.7654195
8722.67918275
8724.88155092
8727.35669476
8730.13014721
8733.21113348
8736.55852646
8740.19173605
8744.11326879
8748.31550045
8752.75843207
7131.71974989
899.892455233
-0.165461384341
8716.75469056
8717.02584135
8717.52629944
8718.27315064
8719.27694788
8720.54186193
8722.06873128
8723.850145
8725.8695109
8728.10352813
8730.51300116
8733.12112647
8735.85781715
8738.69964748
8741.59981595
8744.48075245
8747.18789244
7045.88528156
818.789389075
-0.311832912677
8718.08162784
8718.34242687
8718.82090658
8719.53281542
8720.48663409
8721.68212778
8723.11341333
8724.76391956
8726.60283126
8728.5841494
8730.64857685
8732.79070353
8734.93757218
8737.03108465
8739.0146473
8740.7961783
8742.27985218
6979.26254072
782.472045302
-0.373704547539
8719.16305617
8719.41423044
8719.87236135
8720.55230202
8721.46032119
8722.59204655
8723.93564302
8725.46625571
8727.13618364
8728.87954058
8730.61928424
8732.33021786
8733.93636992
8735.36155052
8736.53949991
8737.38158532
8737.78580209
6915.44374692
728.251936418
-0.519557290021
8720.01319025
8720.25584768
8720.69682735
8721.34993658
8722.21934958
8723.29773412
8724.56676752
8725.99290267
8727.51201273
8729.03702312
8730.49858794
8731.82884048
8732.96775725
8733.82153235
8734.31341592
8734.36322499
8733.85309682
6863.75781278
690.739511668
0.801313557551
8720.6454799
8720.88096439
8721.30907811
8721.9420919
8722.78257035
8723.81904315
8725.02876938
8726.36953596
8727.75996681
8729.11547974
8730.32994536
8731.36390668
8732.12602471
8732.51820088
8732.44914842
8731.82189525
8730.61151116
6859.94502902
694.922329113
-1.04451237757
8721.07601903
8721.30660477
8721.72726415
8722.34823038
8723.16931368
8724.17694171
8725.34369811
8726.61761412
8727.91224991
8729.13919065
8730.18338578
8731.00448141
8731.50036814
8731.55405134
8731.0440744
8729.81019356
8727.8159296
6846.22025321
691.311290756
1.11994329581
8721.32079045
8721.55073917
8721.97100427
8722.5894723
8723.40273966
8724.39460717
8725.53467632
8726.75899684
8727.98844683
8729.14349875
8730.09462968
8730.80674237
8731.16778225
8731.04238978
8730.2552803
8728.53473113
8725.57692716
6808.4910575
758.75821756
11.5371314522
)
;

boundaryField
{
    back
    {
        type            fixedFluxPressure;
        gradient        uniform 0;
        value           nonuniform List<scalar> 
1984
(
8720.06544523
8720.2913141
8720.70010167
8721.29229537
8722.05666938
8722.97047957
8724.00677042
8725.13314619
8726.30288192
8727.47998626
8728.61521302
8729.62778579
8730.45094262
8730.99894791
8731.17014415
8730.93383608
8730.37923294
6771.93480803
708.31621532
0.755230458174
8719.81908054
8720.04891448
8720.46351851
8721.06464787
8721.84266186
8722.77597008
8723.83822474
8724.99837197
8726.205153
8727.44507422
8728.65979039
8729.7561873
8730.70984983
8731.3809984
8731.65936338
8731.26254677
8729.71103803
6776.22694116
623.817505315
0.0217251804054
8719.36754232
8719.60552406
8720.03355349
8720.65505178
8721.46206384
8722.43488613
8723.551451
8724.77657552
8726.07129017
8727.41967628
8728.80162747
8730.11404752
8731.30106737
8732.2573151
8732.83342434
8732.70557668
8731.3155973
6811.66484567
647.300089826
-0.408974234297
8718.69894156
8718.94727699
8719.39408664
8720.04431034
8720.89203464
8721.92069273
8723.11002526
8724.43909423
8725.85501269
8727.3493528
8728.95540918
8730.57423984
8732.15944449