/*--------------------------------*- C++ -*----------------------------------*\
| =========                 |                                                 |
| \\      /  F ield         | OpenFOAM: The Open Source CFD Toolbox           |
|  \\    /   O peration     | Version:  v2012                                 |
|   \\  /    A nd           | Website:  www.openfoam.com                      |
|    \\/     M anipulation  |                                                 |
\*---------------------------------------------------------------------------*/
FoamFile
{
    version     2.0;
    format      ascii;
    class       surfaceVectorField;
    location    "4.4";
    object      Uf;
}
// * * * * * * * * * * * * * * * * * * * * * * * * * * * * * * * * * * * * * //

dimensions      [0 1 -1 0 0 0 0];


internalField   nonuniform List<vector> 
3840
(
(-0.00216383137565 0.00411947326028 7.58608360041e-22)
(-0.00411806488722 0.00212794187485 7.85929088795e-22)
(-0.00205623925417 0.00806778220944 6.25774614606e-22)
(-0.00394664364008 0.00597897990886 9.97022451827e-22)
(-0.00204200622849 0.0119301911058 5.14416828112e-23)
(-0.00386042684807 0.00982162262144 4.56449030495e-22)
(-0.00209791606667 0.0158408101354 -5.12472221177e-22)
(-0.00390831134665 0.0137048989084 -2.36167965758e-22)
(-0.00217845120795 0.0198662594523 -7.71779014922e-22)
(-0.00402294077975 0.0176567639287 -7.8071859002e-22)
(-0.00226301358664 0.02403531317 -6.77218346214e-22)
(-0.00416816838243 0.0217242293382 -8.21651114699e-22)
(-0.00235319641745 0.0283626600212 -2.19282977992e-22)
(-0.00432842201275 0.0259382546236 -6.2062514702e-22)
(-0.00245107699302 0.0328691181665 3.64222894216e-22)
(-0.00450947508315 0.0303172876145 -4.61832633045e-23)
(-0.00255861941089 0.0375736459603 6.15188857858e-22)
(-0.00471115752145 0.0348829120089 3.82109849982e-22)
(-0.00268181682712 0.0424981590875 4.30466176428e-22)
(-0.00493636016167 0.039658875869 3.28858333076e-22)
(-0.00281619687026 0.0476530024832 1.09347512357e-22)
(-0.00517520111412 0.0446608553725 4.54865654634e-23)
(-0.00295976345644 0.0530566104496 -8.47340092638e-23)
(-0.00543393198294 0.0499064806118 -1.09433920575e-22)
(-0.00312036824319 0.0587306886011 -6.74060948732e-22)
(-0.00571386734372 0.0554019619863 -2.66208187169e-22)
(-0.00311310351658 0.0646792571924 -1.65088307386e-21)
(-0.00599494355368 0.061212261222 -1.18675391568e-21)
(-0.00249104389559 0.0706213489456 -2.40523798554e-21)
(-0.00598819408107 0.0667595231394 -2.79075079351e-21)
(-0.00201628126707 0.075693855791 -3.12556737754e-21)
(-0.00510757462839 0.0751482990596 -5.57161751743e-21)
(-0.00415963747249 0.0806273542803 -1.44264627831e-21)
(-0.004948678776 0.0749173331889 -5.17591060418e-21)
(-0.0236846775448 0.0881605102245 3.89869529596e-20)
(-0.00753607887136 0.0746437224007 -9.71141158352e-22)
(-0.188904906344 0.127131649499 4.99343113153e-20)
(-0.0390370000722 0.0865357499295 2.36131538424e-20)
(-0.0844632959621 0.111192181125 3.05311397049e-21)
(-0.00600482302222 0.00387419969922 1.02434318058e-21)
(-0.00799077728049 0.00198261698512 1.17320265729e-21)
(-0.00586203637567 0.00771631602052 8.27696867716e-22)
(-0.00778706285775 0.00569050937693 1.38322577503e-21)
(-0.00585254370409 0.0115675337528 1.68839381925e-22)
(-0.00770963869723 0.00946078111037 7.28243735218e-22)
(-0.00596450792414 0.0154631642846 -5.04414334602e-22)
(-0.00780162554037 0.013301560598 -3.5667903502e-23)
(-0.00614648845713 0.0194438165762 -8.30590689797e-22)
(-0.00800111494484 0.0171952025882 -5.94322853587e-22)
(-0.0063675785676 0.0235448134576 -7.65057915505e-22)
(-0.00826810333638 0.0211874459748 -6.64318271141e-22)
(-0.00662029292388 0.0277962387815 -4.47525432332e-22)
(-0.00858061715966 0.0253151484137 -5.25174099065e-22)
(-0.00690672955474 0.0322227672731 -2.82963075385e-23)
(-0.00893786578413 0.0296042872333 -1.57938795113e-22)
(-0.00722905197915 0.0368453858842 9.57793252002e-23)
(-0.00934272033696 0.0340789787058 1.04364010694e-22)
(-0.00758679473362 0.0416916020401 -5.61212778881e-23)
(-0.00979562802921 0.0387630343623 -2.47287302227e-23)
(-0.0079732956656 0.0467835914174 -1.73294867469e-22)
(-0.0102898595844 0.0436821128637 -1.45755657e-22)
(-0.00838180610332 0.0521319462522 -2.90908098481e-22)
(-0.0108149356235 0.0488615690456 -1.858163343e-22)
(-0.00880085823584 0.0577511415949 -7.78901154116e-22)
(-0.0113742799568 0.0543009001974 -3.7007505545e-22)
(-0.00907958053071 0.0636628619049 -2.32662163533e-21)
(-0.0119519747869 0.0600399830178 -1.58268773375e-21)
(-0.0086360012572 0.0699807713651 -5.95713032541e-21)
(-0.0123490650984 0.0656691009485 -2.131564728e-21)
(-0.00799524061107 0.0764739949762 -7.62196074407e-21)
(-0.0116322386049 0.0743732816608 -9.18747690431e-21)
(-0.00868013739639 0.0826908966077 -4.70440548422e-21)
(-0.0111786637364 0.0752662296093 -1.21350479491e-20)
(-0.0203315380753 0.0876110522769 -1.63449402756e-20)
(-0.0124590504934 0.0765203929208 -9.98697670952e-21)
(-0.045051213991 0.0775493625244 -2.32680435024e-20)
(-0.0289782375587 0.0913514403797 -4.91919607754e-20)
(0.00254006778345 -0.00886090743811 -2.86206957127e-20)
(-0.00974404841227 0.00367610946583 1.53208525173e-21)
(-0.0116656565252 0.00190421614812 1.39192038656e-21)
(-0.00961955289728 0.00741054877928 1.28377264253e-21)
(-0.0115201084556 0.00547338310592 1.61688553293e-21)
(-0.00964048332716 0.0111742283864 5.23736449791e-22)
(-0.0114716121604 0.00913784204742 9.89271173371e-22)
(-0.00981522155123 0.0149838877788 -1.25576422487e-22)
(-0.011609233866 0.0128848591631 2.70198315647e-22)
(-0.010099079111 0.0188731606141 -4.28050434931e-22)
(-0.011888071982 0.0166828992492 -2.09081350947e-22)
(-0.0104575046492 0.0228764521203 -4.244344547e-22)
(-0.0122699494067 0.0205765819525 -3.17844526825e-22)
(-0.0108761820048 0.0270311645429 -2.35587461846e-22)
(-0.0127341872124 0.0246039367575 -2.53467074207e-22)
(-0.0113530947756 0.031357656173 -2.52784768812e-23)
(-0.013267574523 0.0287937374858 -6.39522138809e-23)
(-0.0118913181538 0.0358788139231 -1.61440447292e-23)
(-0.0138666708022 0.0331724102375 1.75397496413e-23)
(-0.0124889153227 0.0406242183306 -1.14363109334e-22)
(-0.0145541346356 0.0377620202573 -4.63268693401e-23)
(-0.0131369157602 0.0456196324263 -1.58277123831e-22)
(-0.0153052696614 0.0425866819866 -1.1524223916e-22)
(-0.0138280703201 0.0508900908367 -2.6498329127e-22)
(-0.0161146046759 0.0476784781202 -1.36068974407e-22)
(-0.0145530591906 0.0564364525405 -1.17386163509e-21)
(-0.0169568655673 0.053049248925 -3.45977983637e-22)
(-0.0152193244362 0.0623075604661 -1.38763082643e-21)
(-0.0178621945585 0.0587313801887 -1.37985451631e-21)
(-0.0152265392596 0.068602987322 -5.3619113069e-21)
(-0.0186802579066 0.0643657589547 -8.60111450206e-22)
(-0.0146120349047 0.0752986339756 -1.37005641093e-20)
(-0.0183533976957 0.0730766429946 -4.68721686004e-21)
(-0.0143606850965 0.0819795212067 -1.74176191744e-20)
(-0.0178699384157 0.0743831177004 -1.09517119266e-20)
(-0.0198675880511 0.0866195313462 -4.28339972094e-20)
(-0.0171012883207 0.0766076112897 -1.25081696814e-20)
(0.0471559290218 0.0850944236822 -5.45446129858e-20)
(-0.0274507737498 0.0929928565619 -3.92479833378e-20)
(0.262681997394 -0.149886882544 -2.53140749742e-20)
(-0.0133947238069 0.00356525193286 1.47672066776e-21)
(-0.015230137982 0.00186737962129 1.22142137058e-21)
(-0.0133209856571 0.00718646612658 1.32238406378e-21)
(-0.0151404157376 0.0053119564968 1.53242455542e-21)
(-0.0133837189384 0.0108340916381 7.35733039227e-22)
(-0.0151179964067 0.00885930063831 1.07865559351e-21)
(-0.0136245789466 0.0145353524584 1.86693387187e-22)
(-0.0153088278613 0.0124901966171 4.64207499954e-22)
(-0.0140057412301 0.0183201650422 -9.88754428415e-23)
(-0.0156707877303 0.0161757521096 5.71353670833e-23)
(-0.014494573117 0.022223521196 -1.46877146332e-22)
(-0.0161713141218 0.0199588168 -7.89677178837e-23)
(-0.0150748689981 0.0262719418223 -8.18318262423e-23)
(-0.0167816027677 0.0238769135567 -7.78184150827e-23)
(-0.0157404313578 0.0305024141821 -2.11339873584e-23)
(-0.0174965344382 0.0279592867086 -1.51622178532e-23)
(-0.0164923672668 0.0349368289687 -1.26430749697e-23)
(-0.0183089217588 0.0322348465253 -1.16388825735e-24)
(-0.017333031308 0.039589618081 -4.72059991664e-23)
(-0.019212519644 0.0367273339883 -1.00533388006e-23)
(-0.0182524578755 0.0444866480931 -9.3034089737e-23)
(-0.0202175375703 0.0414602355321 -5.81182800746e-23)
(-0.0192374210501 0.0496706879399 -2.17063666775e-22)
(-0.0213210615221 0.0464653966716 -1.01572692366e-22)
(-0.0202803421865 0.0551742258966 -5.51970864855e-22)
(-0.0224886140956 0.0517748095464 -3.92871047521e-22)
(-0.0213446591571 0.0610170135944 -8.52335140087e-22)
(-0.0237350925517 0.0574425226866 -1.12003984488e-21)
(-0.0218530648476 0.0673323848027 -1.85417003342e-22)
(-0.025022875907 0.0631754515542 -1.18216799503e-21)
(-0.021565571376 0.0743050273271 -1.93836467734e-21)
(-0.0253451419298 0.0719823898726 -7.77465696051e-22)
(-0.0200777733558 0.0813955699475 -6.04226243361e-21)
(-0.0249681581555 0.0737824623892 -7.92805513431e-21)
(-0.0120271908679 0.0854889926447 -8.92215580977e-21)
(-0.0211964345835 0.0766900709078 -8.43334209904e-21)
(0.217731818292 0.0424320225677 -1.00174453262e-20)
(0.0156049578698 0.0901829803134 -1.6103624597e-20)
(0.796076408703 -0.143953897782 -1.38388025805e-20)
(-0.0169318505393 0.00347571922185 1.27712525825e-21)
(-0.0187056153826 0.00183032363365 9.60258104214e-22)
(-0.0168915651349 0.00698114050863 1.28869608515e-21)
(-0.0186454667797 0.0051513429084 1.36977857468e-21)
(-0.0169934226916 0.0105047926003 8.07130054235e-22)
(-0.0186409160942 0.00857695977146 1.02264019683e-21)
(-0.0173043268316 0.0140818969424 3.3464947985e-22)
(-0.018884690178 0.0120733691568 5.06322769977e-22)
(-0.0177866322965 0.0177494511561 7.70430920411e-23)
(-0.0193365110516 0.0156293148891 1.63575451563e-22)
(-0.0184073403268 0.0215346345445 -9.90898663412e-24)
(-0.0199542279467 0.0192856390714 3.03291587518e-23)
(-0.0191507589321 0.0254692964744 -1.11488066936e-23)
(-0.0207141988491 0.023077656504 -9.91222535767e-24)
(-0.0200105941371 0.0295833423541 4.80788124785e-24)
(-0.0216094752726 0.0270325842069 1.96177631613e-24)
(-0.0209826406277 0.0339054410468 1.42584791175e-24)
(-0.0226303649901 0.0311809297687 4.41835447482e-24)
(-0.0220687020468 0.0384600856549 -2.09656197088e-23)
(-0.0237751861346 0.0355536102289 9.92139838834e-25)
(-0.0232681982631 0.0432824147963 -6.66568827036e-23)
(-0.0250490062164 0.0401785663364 -4.14025565112e-23)
(-0.0245662077757 0.0483778816182 -2.77380073112e-22)
(-0.0264316540747 0.0450920876021 -1.03065374998e-22)
(-0.0259644800044 0.0538423792055 -9.60940027548e-22)
(-0.0279727347616 0.0503373511053 -5.38655869229e-22)
(-0.0274878748652 0.059727038435 -1.44987269983e-21)
(-0.0296409948694 0.055983073815 -1.71606870982e-21)
(-0.028615282849 0.0662122453125 -1.77421668774e-21)
(-0.0315273097374 0.0618166357354 -2.05353831763e-21)
(-0.0288510737995 0.0734067254792 -6.76715615302e-21)
(-0.0325531070247 0.0708062638666 -3.8883746136e-21)
(-0.0263348478101 0.0810741844079 -1.03191347997e-20)
(-0.0326410987055 0.0735601181192 -1.24981654992e-20)
(0.00541284663793 0.0873543794871 -1.56148108863e-20)
(-0.0274783126469 0.0772431294308 -9.48364483718e-21)
(0.549268791014 0.0590641189409 -1.99249818514e-20)
(0.0438957340375 0.0893500560058 4.20038510661e-21)
(0.956967388772 0.22955557689 -2.42657524665e-20)
(-0.0203601547085 0.00336998238898 1.05291142065e-21)
(-0.0220758423079 0.00177687185706 8.19480619545e-22)
(-0.0203358391336 0.00673943309962 1.10372268636e-21)
(-0.022015027318 0.00495875866982 1.17511010435e-21)
(-0.0204755016539 0.0101295931216 7.21832912571e-22)
(-0.0220308021628 0.00825051367749 8.90688382687e-22)
(-0.0208574192129 0.0135721213165 3.35248741689e-22)
(-0.0223263786728 0.0115959601448 4.61778674395e-22)
(-0.0214423564622 0.01710360513 1.16861518274e-22)
(-0.0228664709219 0.0150032952988 1.79551769264e-22)
(-0.0221955891568 0.0207508069836 3.03259200283e-23)
(-0.0235992107519 0.0185121041459 5.04742753019e-23)
(-0.0231025163397 0.0245485866021 3.19835765208e-24)
(-0.0245093263874 0.0221541902496 7.39892274696e-24)
(-0.0241573324364 0.0285219164995 1.5722495431e-24)
(-0.0255806566842 0.0259569999007 -1.76436912444e-24)
(-0.0253537863185 0.0327066174687 3.9846464019e-24)
(-0.026812822086 0.0299522072305 -1.18363696713e-23)
(-0.0266920732495 0.0371310629204 -1.94447969635e-23)
(-0.0282000016313 0.034173881323 5.02232889614e-24)
(-0.0281794811575 0.0418311986008 -7.78110488056e-23)
(-0.0297526648022 0.0386541974774 -4.86668417853e-23)
(-0.0298207802454 0.0468578981543 -3.64341171115e-22)
(-0.0314674599722 0.0434355071727 -1.63687128033e-22)
(-0.031639008657 0.0522579761207 -1.29378455151e-21)
(-0.033385515979 0.0485688809424 -6.70002331442e-22)
(-0.0336852144772 0.0581476647307 -2.31973432763e-21)
(-0.0355448473718 0.0541328452779 -1.9848323206e-21)
(-0.0355817363027 0.0646225082331 -4.1676962435e-21)
(-0.0380152033578 0.0599515402946 -2.69854243285e-21)
(-0.036858340227 0.0722951154082 -9.61938395979e-21)
(-0.040235038114 0.0688454571573 -1.13372883757e-20)
(-0.036079552205 0.0817336343123 -1.16626755366e-20)
(-0.042083626363 0.0722146305347 -1.87782448261e-20)
(-0.00479172895502 0.0967775406942 1.03315511558e-20)
(-0.0425230057387 0.0768515450348 -1.07524006659e-20)
(0.411193375126 0.164367116076 -1.40385508527e-22)
(-0.023697655243 0.0941035639258 6.35183123001e-20)
(0.377683022946 0.692516639917 2.39395810886e-20)
(-0.0236611446113 0.00323627679316 9.41679303251e-22)
(-0.0253127250043 0.00170816818788 8.51411438811e-22)
(-0.0236401316825 0.00645704655735 9.62075800686e-22)
(-0.0252362546046 0.00472770073743 1.15833090977e-21)
(-0.023813842191 0.00969352653079 6.3063414451e-22)
(-0.025267353999 0.00786454047072 8.64293961838e-22)
(-0.0242643356533 0.0129792612057 3.06081701969e-22)
(-0.0256116011367 0.0110419769935 4.52018328113e-22)
(-0.024950845881 0.0163493511012 1.13164526292e-22)
(-0.0262353473866 0.0142790334838 1.81079810825e-22)
(-0.0258363024824 0.0198402085568 2.75472780206e-23)
(-0.0270881205031 0.0176156583102 5.73296436559e-23)
(-0.0269048273492 0.0234729755256 2.43619597044e-24)
(-0.0281395701695 0.0210817701008 1.20546253025e-23)
(-0.0281511497221 0.0272807681449 -1.51729883388e-23)
(-0.0293858126459 0.0247045937262 2.942851614e-24)
(-0.0295726224615 0.0312988855128 -1.0798687177e-23)
(-0.0308285108621 0.0285163027689 -1.5515234762e-23)
(-0.0311724934625 0.0355573310038 -2.41997159257e-23)
(-0.0324576329375 0.0325516173363 -4.93801296982e-24)
(-0.0329596405499 0.0400954701314 -1.34542921013e-22)
(-0.0342917884114 0.0368468214601 -5.65690439724e-23)
(-0.0349585920689 0.0449639120408 -4.6934828836e-22)
(-0.0363416022224 0.0414429613318 -2.25103270251e-22)
(-0.0372169397117 0.0502189614555 -1.36105010054e-21)
(-0.0386489953714 0.0463912327309 -7.06278319304e-22)
(-0.0398040604997 0.0559400302818 -2.36364042582e-21)
(-0.0412756176152 0.0517752160668 -1.7465681058e-21)
(-0.0425344522826 0.0622137443152 -9.86813456509e-21)
(-0.0442980423181 0.0573683465308 -1.85762295063e-21)
(-0.0452157714625 0.06949188234 -2.0496149242e-20)
(-0.0475198402564 0.0655405142144 -1.28212441523e-20)
(-0.048892677689 0.0785298507685 -1.78679699553e-20)
(-0.0511245957934 0.067860023436 -2.49429899995e-20)
(-0.0698416338264 0.0962540399945 4.24343604785e-20)
(-0.0602477733033 0.0721402495034 -1.53489078204e-20)
(-0.159760895149 0.229377891357 8.75982788973e-20)
(-0.156820529461 0.0834639742882 1.1361042968e-19)
(-0.802304806941 0.503802459015 1.07484041089e-19)
(-0.0268105770395 0.00307295650179 1.06806304533e-21)
(-0.0283864744789 0.00162500571578 8.87731119565e-22)
(-0.0267855871909 0.0061270132742 1.06054907092e-21)
(-0.0282909425846 0.00446179159472 1.15704641086e-21)
(-0.0269869767678 0.00918861915529 6.8567814544e-22)
(-0.0283292270325 0.00741926742593 8.74826467596e-22)
(-0.0275022799431 0.0122960144214 3.27016436969e-22)
(-0.0287187200562 0.010408913814 4.70674924825e-22)
(-0.0282868449955 0.0154836494783 1.25244928189e-22)
(-0.0294220580542 0.0134531189075 1.85230339424e-22)
(-0.0293015817916 0.0187849155163 4.18369909378e-23)
(-0.0303878635875 0.016590870624 6.52504411673e-23)
(-0.0305283668518 0.022226554994 1.2561280946e-23)
(-0.0315792499343 0.0198532990026 3.12254948125e-23)
(-0.0319625970292 0.0258392291869 2.60060519077e-24)
(-0.0329966009453 0.0232664383154 4.12323829789e-24)
(-0.0336073873897 0.0296503956904 -9.65456055482e-24)
(-0.0346385325921 0.0268607782011 2.25186417669e-24)
(-0.0354694103231 0.0337021798005 -3.73073410165e-23)
(-0.0365102428645 0.0306722452787 -1.03098066585e-23)
(-0.0375634802527 0.0380355511802 -1.4712939321e-22)
(-0.0386270802375 0.0347390275713 -5.6827695274e-23)
(-0.0399186470667 0.0426966447671 -4.62033301195e-22)
(-0.0410076195266 0.0391036576168 -2.15823875263e-22)
(-0.042578634746 0.0477320717263 -1.09179632456e-21)
(-0.0436911997434 0.0438188261086 -5.97536278705e-22)
(-0.0456086395433 0.0531645118397 -1.24055063061e-21)
(-0.0467156805511 0.0489660002546 -1.18878968704e-21)
(-0.0488620671997 0.058968109538 -4.81073253783e-21)
(-0.0501087235275 0.0542940305531 -1.3039206897e-21)
(-0.0519774465857 0.0648521085784 -1.72680849098e-20)
(-0.0534089802345 0.0618134750554 -4.14262148643e-21)
(-0.0572972485561 0.0695749111872 -2.24239278646e-20)
(-0.0558496047522 0.0634800533136 -1.65968045678e-20)
(-0.101782936218 0.071446525928 5.58271613815e-20)
(-0.0621201183179 0.0680466611858 -1.41854548843e-20)
(-0.618415701162 0.054251889366 1.33496191872e-19)
(-0.139638385161 0.0732289394905 6.12047144741e-20)
(-0.946907513685 -0.0571719599027 6.27212550379e-20)
(-0.0297820965184 0.00288250859546 9.76714485094e-22)
(-0.0312697738153 0.00152697447546 7.2390799144e-22)
(-0.0297502632311 0.00574971517187 9.71323807532e-22)
(-0.0311587673124 0.00416412299872 9.65561649263e-22)
(-0.0299737744518 0.00861682732941 6.5982324698e-22)
(-0.0311966398923 0.00691826470284 7.67683476037e-22)
(-0.0305490460797 0.0115234413441 3.28888827281e-22)
(-0.0316251816073 0.00969962944271 4.28742181214e-22)
(-0.0314262166374 0.0145055660221 1.25235852403e-22)
(-0.0324035361396 0.0125291412038 1.6984998538e-22)
(-0.0325629219416 0.0175898445204 5.4638945042e-23)
(-0.0334711180413 0.015442909443 5.57954420465e-23)
(-0.033941472646 0.0208100561139 2.27874521644e-23)
(-0.0347983944819 0.018472377627 2.91194163463e-23)
(-0.0355594762713 0.0241895281091 3.77449728382e-24)
(-0.0363756583052 0.0216435428031 9.37546951994e-25)
(-0.0374234831783 0.0277673235328 1.59661807301e-24)
(-0.0382181681146 0.0249852676147 2.70030808792e-24)
(-0.0395427968352 0.0315732523578 -2.9830160916e-23)
(-0.0403200806949 0.0285346494518 -2.54435954255e-24)
(-0.0419397057788 0.0356501581912 -1.25522177327e-22)
(-0.0427100277285 0.032328232622 -5.32212531292e-23)
(-0.0446488534746 0.0400555636184 -3.51326852773e-22)
(-0.0454191537869 0.0364123015475 -1.8738249235e-22)
(-0.047700953409 0.0448463079704 -6.94529641185e-22)
(-0.048488938749 0.0408533522043 -4.58969427913e-22)
(-0.0511061748692 0.0500558645574 -1.25215974614e-21)
(-0.0519323600661 0.0457565641125 -7.03322210513e-22)
(-0.0545904996 0.0556443696297 -6.35809638306e-22)
(-0.0557034128359 0.0509228560088 -1.40358226475e-21)
(-0.0575079188655 0.06142465629 -3.47134114441e-21)
(-0.0591935227691 0.0583593054354 -5.1306765713e-22)
(-0.0618956186839 0.0672025535028 -8.35833158746e-21)
(-0.0616292817893 0.0610487869588 -1.12318303461e-20)
(-0.0957687694528 0.0726718204716 -8.80790179172e-21)
(-0.0675899453724 0.0672403284863 -1.03724355017e-20)
(-0.408677198686 0.0415659827766 -9.57022236001e-21)
(-0.108525409688 0.0771730799708 -2.00433533101e-20)
(-0.441900525683 -0.153526052378 -1.59054317711e-20)
(-0.032553500629 0.00267192426964 7.12755155609e-22)
(-0.033942315139 0.00141283258104 3.59440201021e-22)
(-0.0325126035989 0.00533025467219 7.61921317767e-22)
(-0.0338175364792 0.0038368629288 6.56472182739e-22)
(-0.0327517477218 0.00798121543758 5.3660241027e-22)
(-0.0338477801539 0.00636791878644 5.63350029336e-22)
(-0.0333804658986 0.0106664122513 2.69703339313e-22)
(-0.0343102326641 0.00892042816204 3.4523200594e-22)
(-0.0343440049572 0.0134172669482 1.00409575023e-22)
(-0.035153952247 0.0115130282926 1.33198630589e-22)
(-0.0355943503413 0.0162630836191 3.02759133507e-23)
(-0.0363164565354 0.0141799765448 4.13602686475e-23)
(-0.0371140465931 0.0192289144575 7.26951113389e-24)
(-0.0377641458346 0.0169496548319 7.54864772087e-24)
(-0.0389052658005 0.0223452132591 -1.36642243904e-25)
(-0.039493576892 0.0198459044006 -1.06056931722e-24)
(-0.040979420586 0.0256373003908 -1.44066952764e-24)
(-0.0415152929933 0.0228963498914 -2.69444527806e-24)
(-0.0433492973283 0.0291596650961 -2.59354517558e-23)
(-0.0438504264848 0.0261421272577 5.93911973849e-25)
(-0.0460446122569 0.0329327220944 -1.15081568152e-22)
(-0.0464942555693 0.0296139915842 -5.46647849249e-23)
(-0.0491124320219 0.037035211471 -2.9502506749e-22)
(-0.0495298201995 0.0333592231471 -1.87026133998e-22)
(-0.0525885795026 0.0415325329843 -4.67761997242e-22)
(-0.0529942600813 0.0374573591986 -4.61093801305e-22)
(-0.0564511764224 0.0465164396751 -8.54744729128e-22)
(-0.0569235108119 0.0420449522663 -4.90451954362e-22)
(-0.0603612703387 0.0520513755341 -1.28084028358e-21)
(-0.0612440466942 0.0469932465008 -1.62304545039e-21)
(-0.0637981307491 0.0582293988499 -8.27355685877e-21)
(-0.0653751359364 0.0543551511297 4.0524037607e-23)
(-0.0691657923869 0.065710270354 -1.32459342603e-20)
(-0.0691115714198 0.0579299237285 -1.12338637608e-20)
(-0.0892486428119 0.0762577011151 -2.16078870201e-20)
(-0.0781375047452 0.0653756143163 -1.05451436163e-20)
(-0.154919533823 0.0785095375383 -2.63785627213e-20)
(-0.110773702977 0.0768346769618 -1.94156366116e-20)
(-0.137960169139 -0.0306438539243 -1.41778788391e-21)
(-0.0351049374694 0.00245149133449 3.03157228152e-22)
(-0.0363941220589 0.00128814714458 1.01707037008e-22)
(-0.0350503069212 0.00487469697948 4.57900894308e-22)
(-0.0362408786255 0.00348424307912 4.94506888784e-22)
(-0.0352995228793 0.00728865111981 3.71979625006e-22)
(-0.0362616722888 0.00577461616234 4.56834085211e-22)
(-0.0359737959787 0.00973245986392 2.08727297216e-22)
(-0.0367537846685 0.00807945117452 2.96322690162e-22)
(-0.037014081627 0.0122303094726 7.41493242133e-23)
(-0.0376514818094 0.0104141407308 1.09085296947e-22)
(-0.0383669916554 0.0148112532111 1.86330030177e-23)
(-0.0388973528549 0.0128123887355 2.76501055693e-23)
(-0.0400147911421 0.0174978512088 -7.81432730232e-25)
(-0.0404515811546 0.0152980277321 6.7765450654e-24)
(-0.041962989709 0.0203128276773 -3.61837235138e-24)
(-0.0423119674339 0.0178906415872 -7.52248592481e-24)
(-0.0442282244847 0.0232882741683 -6.59863776572e-25)
(-0.0444989335384 0.0206147360183 -7.60978607823e-24)
(-0.0468354849337 0.026449559338 -2.81354211953e-23)
(-0.047022998037 0.0235102150322 -2.89537830663e-24)
(-0.049821233188 0.0298778339635 -1.26609350771e-22)
(-0.049938670518 0.026606594447 -6.36534939263e-23)
(-0.0532436705905 0.033606521194 -3.53094867813e-22)
(-0.0532685843457 0.0299485071416 -1.77665844798e-22)
(-0.057163048961 0.0377182076639 -4.83783758425e-22)
(-0.0571148537815 0.0336085270757 -3.98070602836e-22)
(-0.0615857920943 0.0423280097311 -1.25875267562e-21)
(-0.0615406021447 0.0377362691554 -4.22278962397e-22)
(-0.0662238490949 0.0476174007297 -3.01681129204e-22)
(-0.066538613655 0.042243062339 -1.7199967509e-21)
(-0.0708058882585 0.0539053865737 -2.91978286444e-21)
(-0.0716660712291 0.049119408939 -4.76595556531e-22)
(-0.0780101496983 0.0617923236483 -8.53307311688e-21)
(-0.076999555295 0.0529305985604 -1.11762399399e-20)
(-0.0905466350501 0.0711501695825 -8.35289320784e-21)
(-0.0874955807516 0.0610129686461 -1.14492451106e-20)
(-0.0943400889948 0.0467156746401 5.54513822575e-21)
(-0.0863382488736 0.069103201251 -1.06643203778e-20)
(-0.101242013709 -0.0178342542882 6.08450500308e-21)
(-0.0374211809455 0.00220340714561 2.9305669764e-22)
(-0.0385974770097 0.00115746318371 6.86678285181e-23)
(-0.0373478702931 0.00438628783714 4.93440079687e-22)
(-0.0384235335148 0.00311044107726 4.95520707297e-22)
(-0.0376015484146 0.00655230108262 3.81177150368e-22)
(-0.0384273101434 0.00514410601271 4.68284804072e-22)
(-0.0383115060776 0.00873008049025 1.96680689893e-22)
(-0.0389311079282 0.00718648550558 2.83877737917e-22)
(-0.0394144772459 0.0109573545198 6.25860783029e-23)
(-0.0398784245595 0.00924613328469 1.01749166414e-22)
(-0.0408542003738 0.0132497466928 1.5793647617e-23)
(-0.0411899836402 0.0113556174999 2.23221769497e-23)
(-0.0426126117058 0.015629821223 3.54918708193e-26)
(-0.042833119899 0.0135348427602 8.29116705753e-24)
(-0.0446971822545 0.0181187017228 -1.15138996517e-23)
(-0.044805677091 0.0157987625577 -6.56096375656e-24)
(-0.047128515095 0.0207372568047 -9.84530060829e-24)
(-0.0471275408522 0.0181680031561 -7.88638869295e-24)
(-0.0499437199909 0.0235331987629 -3.84134510377e-23)
(-0.0498325158776 0.0206721354589 -1.3134787459e-23)
(-0.0531896164755 0.0265159801262 -1.14709987954e-22)
(-0.0529406203497 0.0233410946707 -6.5277446523e-23)
(-0.0569346293296 0.029778403766 -2.22641579822e-22)
(-0.0565420815821 0.0262154847951 -1.40361886236e-22)
(-0.061264669835 0.0333750983519 -3.36565806808e-22)
(-0.0607206972505 0.0293453629617 -2.84355744173e-22)
(-0.066258172621 0.037408958219 -8.83523037678e-22)
(-0.0655813764975 0.0328669057598 -3.03139518758e-22)
(-0.0717639950839 0.0421139529555 -1.89491117823e-21)
(-0.0712480732885 0.0367044454377 -1.3091637172e-21)
(-0.0776026691012 0.0479244441078 -8.73305263195e-21)
(-0.0774788705859 0.0426584788731 -4.55048327081e-21)
(-0.0860411363845 0.0550488884661 -1.40924119336e-20)
(-0.0841247494218 0.0463279467797 -1.77014600779e-20)
(-0.0877413747817 0.0628612051115 -1.37606722805e-20)
(-0.0953080194893 0.0535387242325 -1.40401176051e-20)
(-0.00954360545614 0.0722570549769 -1.01249536004e-20)
(-0.0957238553458 0.0615909474433 -2.60665657873e-21)
(0.130977377023 0.126515157484 1.57623099791e-20)
(-0.0394881327355 0.00195149027575 2.71131838175e-22)
(-0.0405485512344 0.00102156492373 -5.65934751989e-23)
(-0.0393913255077 0.00387352593416 4.70365431682e-22)
(-0.040344990956 0.00272022053163 3.2158752292e-22)
(-0.0396406176803 0.00577246441864 3.70985391621e-22)
(-0.0403255537441 0.00448526860936 3.44050530728e-22)
(-0.0403746663351 0.00767562051664 1.88946214438e-22)
(-0.0408335633207 0.00625346447029 2.28704609701e-22)
(-0.0415253814876 0.00961412450268 6.14852650603e-23)
(-0.0418164912715 0.00802410868586 8.07450750898e-23)
(-0.0430335474457 0.011600583204 1.48196963902e-23)
(-0.0431767360864 0.00982800866463 2.05247761937e-23)
(-0.0448799061385 0.0136530722574 1.69471143015e-24)
(-0.0448873537344 0.0116837174099 5.68105932859e-24)
(-0.0470751900409 0.0157861936881 -2.93345279785e-24)
(-0.046944150606 0.0135986256556 -1.13666268798e-23)
(-0.0496450625344 0.0180178011218 -1.11758755436e-23)
(-0.04936997418 0.0155875481985 -4.51194721193e-24)
(-0.0526284830407 0.0203826972867 -3.99987829443e-23)
(-0.0522112809471 0.017670806816 -1.39629006248e-23)
(-0.0560796824558 0.0229030566881 -9.09293448057e-23)
(-0.0554810689999 0.019873364293 -6.37370747572e-23)
(-0.0600831329845 0.0256271819505 -2.02076050588e-22)
(-0.0592771875831 0.0222250379563 -1.12280310212e-22)
(-0.0647518232496 0.0286031433536 -2.50929456124e-22)
(-0.063705330549 0.0247517519108 -3.1309725055e-22)
(-0.0702381620732 0.0319266037724 -7.2878019828e-22)
(-0.0689109951614 0.0275694056454 -1.50364262044e-22)
(-0.0765472169037 0.0357947724246 -3.96473580978e-21)
(-0.0751199056299 0.0306031635331 -1.488708095e-21)
(-0.0835400143531 0.0405644448657 -1.35188907168e-20)
(-0.0822502508682 0.0353668222397 -2.14055688189e-21)
(-0.0941724896726 0.0465321666558 -1.76491657494e-20)
(-0.0900929128751 0.0384850124243 -9.34019167228e-21)
(-0.114914014529 0.0577440976664 -2.88610190332e-21)
(-0.106520211703 0.0448735220633 -1.02103739479e-20)
(-0.0876133174596 0.126025437578 2.32806070008e-20)
(-0.16400098457 0.0492391473718 1.02286382946e-20)
(-0.167102143505 0.241640086474 1.43015774053e-20)
(-0.0412910865712 0.00168399746358 -6.13779045355e-24)
(-0.0422318446414 0.000880059430669 -3.14755152236e-22)
(-0.0411662904296 0.003337814472 1.95272621967e-22)
(-0.0419979621564 0.00231758858634 -1.75884682249e-23)
(-0.0414020782169 0.00496282484023 2.01769748808e-22)
(-0.0419496152366 0.00380680172393 6.65915269665e-23)
(-0.0421483925761 0.00658294733021 1.20503470353e-22)
(-0.0424527656516 0.0052911176543 8.75896383462e-23)
(-0.0433312693959 0.0082145596311 3.97845862232e-23)
(-0.0434474997632 0.00676427668635 2.29310793689e-23)
(-0.0448874450097 0.00988095622016 1.1386139132e-23)
(-0.0448433333152 0.00825386557245 4.82134884327e-24)
(-0.0467980798135 0.0115863986545 -7.3802789814e-24)
(-0.0465944343467 0.00977359169217 -4.12080857402e-25)
(-0.0490736915842 0.0133499880743 -1.29451212939e-23)
(-0.0487128979267 0.0113247460085 -1.48563403039e-23)
(-0.0517429384488 0.0151777549915 -7.29897229312e-24)
(-0.0512077512671 0.0129140733385 -5.82906891725e-24)
(-0.0548471094071 0.0170817524053 -3.77011924378e-23)
(-0.054128688266 0.0145534841749 6.33199219452e-24)
(-0.058441945205 0.0190888079401 -8.50880401633e-23)
(-0.0575069713681 0.0162645732501 -5.56285249897e-23)
(-0.0626252905437 0.0212236205973 -2.23301510174e-22)
(-0.0614227255487 0.0180564637771 -7.41839597678e-23)
(-0.067536264563 0.0235324060176 -2.12532056471e-22)
(-0.066022580177 0.019934647753 -2.35022049176e-22)
(-0.0733858654296 0.0260678773184 -9.10292158767e-22)
(-0.0714523973393 0.0220028052954 1.59271362675e-23)
(-0.0802883860526 0.0289725781599 3.35470832889e-22)
(-0.0780277504806 0.024164536926 -8.45350820389e-22)
(-0.0880830961832 0.0324381073438 2.03814216258e-21)
(-0.0857170132581 0.0276338355302 3.64254844902e-21)
(-0.100693796213 0.0364304973924 -1.90139987078e-21)
(-0.0940853646999 0.0297669681037 -2.04015653091e-21)
(-0.141498691848 0.0414928520841 2.90436625003e-21)
(-0.111582578393 0.0357583515201 -4.48774387224e-21)
(-0.24196407139 0.0574395962154 1.24960869915e-21)