/*--------------------------------*- C++ -*----------------------------------*\
| =========                 |                                                 |
| \\      /  F ield         | OpenFOAM: The Open Source CFD Toolbox           |
|  \\    /   O peration     | Version:  v2012                                 |
|   \\  /    A nd           | Website:  www.openfoam.com                      |
|    \\/     M anipulation  |                                                 |
\*---------------------------------------------------------------------------*/
FoamFile
{
    version     2.0;
    format      ascii;
    class       volScalarField;
    location    "5.4";
    object      alpha.water;
}
// * * * * * * * * * * * * * * * * * * * * * * * * * * * * * * * * * * * * * //

dimensions      [0 0 0 0 0 0 0];


internalField   nonuniform List<scalar> 
164
(
0.999991397277
0.999989323321
1.00000063813
1.00000433665
1.00000301264
0.719233829852
0.0523192543948
2.50834690114e-19
0.999995783345
0.9999909154
1.00000003493
1.00000384684
1.00000168666
0.716400197748
0.0493441200981
3.97046694025e-21
0.999996540452
0.999991089378
0.999997837279
1.00000271269
1.00000157611
0.716178701061
0.0490535279393
2.53668721183e-21
0.999997526729
0.999993595568
0.999995841667
1.0000014444
1.00000157051
0.718875260857
0.049056462261
-4.20685585463e-08
0.999996136011
1.00000074187
1.00000144095
0.7223602015
0.0500132531132
5.20574055461e-22
0.999997391274
1.00000111116
1.00000146167
0.726777504729
0.0520476449299
-1.48705015988e-21
0.999997954838
1.00000126973
1.00000133451
0.734356211662
0.0571640902638
-4.5986830428e-21
0.999995150126
1.00000070569
1.00000080852
0.74162055401
0.0646157156051
1.66131395388e-19
0.999987075713
0.99999991523
1.00000036444
0.749913759076
0.0663354547178
0.000287972667995
0.999966122039
0.999998939773
1
0.751861160701
0.0622782809551
5.1301962172e-20
0.999939550538
0.999996405501
0.999999999852
0.756810833362
0.0642716237585
1.86115637824e-22
0.999907867008
0.999988600951
0.999999966124
0.76087778375
0.0677259938087
-1.5790050713e-21
0.999902336247
0.999980720102
0.999999868459
0.763846904503
0.0706175189576
-1.12693018703e-22
0.99992281278
0.999986534985
0.999999703267
0.770953116971
0.0732702184565
0
0.999943167363
0.999983998504
0.999999406434
0.77629388304
0.0754090312435
5.51453741702e-23
0.999951032272
0.999983428336
0.99999889302
0.781059546518
0.0807044514277
0.000174588765971
0.99993693834
0.999983086159
0.999999206079
0.78242063194
0.087917278678
0.000235559234022
0.999928351026
0.99998350576
0.999999638898
0.779930837986
0.0892005024094
2.49296846027e-05
0.999945534023
0.999986133833
0.999999813986
0.778655199684
0.0886300179278
3.61400724162e-21
0.999961479308
0.999987743413
0.999999893645
0.777110123689
0.0877475317805
0
0.999973488862
0.999990104983
0.999999947815
0.779066435697
0.0820411026763
1.07141412184e-38
0.999976150715
0.999992392816
0.999999985825
0.773090173764
0.0751572922115
2.25875452601e-22
0.999972332173
0.999993449902
0.999999999524
0.766950040214
0.0697281633667
4.51750905202e-22
0.999972332173
0.999994828244
0.999999999841
0.759298031753
0.0643101259664
1.38552752603e-24
1
0.749294068547
0.0599183695101
8.04708872579e-23
1.00000214434
0.740021241148
0.0569128146094
7.21235319697e-21
1.00000139862
0.730961235204
0.0544907646272
-4.51149045142e-22
)
;

boundaryField
{
    back
    {
        type            zeroGradient;
    }
    sides
    {
        type            zeroGradient;
    }
    bottom
    {
        type            zeroGradient;
    }
    front
    {
        type            zeroGradient;
    }
    atmosphere
    {
        type            inletOutlet;
        inletValue      uniform 0;
        value           nonuniform List<scalar> 
27
(
2.50834690114e-19
0
0
0
0
0
0
1.66131395388e-19
0.000287972667995
5.1301962172e-20
0
0
0
0
5.51453741702e-23
0.000174588765971
0.000235559234022
2.49296846027e-05
3.61400724162e-21
0
0
0
0
0
0
7.21235319697e-21
-4.51149045142e-22
)
;
    }
    floatingObject
    {
        type            zeroGradient;
    }
    procBoundary6to3
    {
        type            processor;
        value           nonuniform List<scalar> 8(0.999995635753 0.999987062258 0.999997484807 1.00000264064 1.0000017238 0.720495613535 0.0503831026913 -1.41172157876e-20);
    }
    procBoundary6to7
    {
        type            processor;
        value           nonuniform List<scalar> 
11
(
0.999923742815
0.999967154465
0.999981808563
0.99997729778
0.99997233231
0.99997551871
0.999973234636
0.99999602731
0.99999602731
0.999993536877
0.999994056541
)
;
    }
    procBoundary6to8
    {
        type            processor;
        value           nonuniform List<scalar> 
16
(
1.00000000548
0.999996437607
0.999996437607
0.999992880644
0.999991356844
0.999987395491
0.999973986041
0.999931226794
0.999907410076
0.999902334375
0.999902336154
0.999909807969
0.99995022381
0.999955127253
0.999928901923
0.999923742815
)
;
    }
    procBoundary6to9
    {
        type            processor;
        value           nonuniform List<scalar> 4(1 0.721602523255 0.0506912188783 0);
    }
}


// ************************************************************************* //
