/*--------------------------------*- C++ -*----------------------------------*\
| =========                 |                                                 |
| \\      /  F ield         | OpenFOAM: The Open Source CFD Toolbox           |
|  \\    /   O peration     | Version:  v2012                                 |
|   \\  /    A nd           | Website:  www.openfoam.com                      |
|    \\/     M anipulation  |                                                 |
\*---------------------------------------------------------------------------*/
FoamFile
{
    version     2.0;
    format      ascii;
    class       volScalarField;
    location    "2.1";
    object      epsilon_0;
}
// * * * * * * * * * * * * * * * * * * * * * * * * * * * * * * * * * * * * * //

dimensions      [0 2 -3 0 0 0 0];


internalField   nonuniform List<scalar> 
167
(
0.00563048981566
0.00567239453796
0.00569097425311
0.0057056643823
0.00572127026556
0.00573904718827
0.00576028732034
0.0057893193582
0.00505487842594
0.00548043304822
0.00561383909078
0.00565621695722
0.00567529336513
0.00569050226571
0.00570667967398
0.00572511111178
0.00574714045777
0.00577734500947
0.00583128130514
0.00503733896836
0.00546247077574
0.00559628305034
0.00563923344942
0.0056588868698
0.00567469599989
0.0056915220192
0.00571067643859
0.00573357364852
0.00576507387561
0.0058214223444
0.0050187430685
0.00544355698768
0.00557785517141
0.00562146897811
0.00564178986156
0.0056582836287
0.00567582951873
0.00569576365541
0.00571960883377
0.00575252601534
0.0048460166737
0.00499922203074
0.00542369777572
0.00555860116967
0.00560297722478
0.00562406047204
0.00564132368278
0.00565967294283
0.00568045300696
0.00570530573501
0.00573973556691
0.00482636268407
0.00497886842326
0.00540300811867
0.00553860236304
0.00558383902193
0.0056057764371
0.00562389472768
0.00564311949173
0.00566482982183
0.00569075573
0.00572674172962
0.00480562703821
0.00495774174
0.00538159981003
0.00551796217711
0.00556415130791
0.00558704121567
0.00560610454822
0.00562628442397
0.00564900023442
0.00567605303173
0.00478384819765
0.00493594654833
0.00535955439585
0.00549677198901
0.00554402708142
0.00556798525331
0.00558810279317
0.00560932964282
0.00563310431392
0.00476106564073
0.00491354010196
0.00533695510558
0.00547513084581
0.005523567295
0.00554872065712
0.00557001115423
0.00559237881241
0.00561728372357
0.00473728929704
0.00489054077114
0.00531379185715
0.00545299531796
0.0055027663775
0.00552926125152
0.00555184173169
0.00557543920061
0.00560153376587
0.00563224302097
0.00471233257832
0.00486661866412
0.00528958511522
0.00542990856609
0.00548115650329
0.0055091338233
0.00553310443047
0.00555799950117
0.00558531321599
0.00561725830263
0.00468521802558
0.00484016574236
0.00526240496161
0.0054037875733
0.0054566101402
0.00548617187323
0.00551160644754
0.00553781906037
0.00556632602609
0.00559944084711
0.00465230927327
0.00480582692284
0.0052255746854
0.0053674814286
0.00542179043929
0.00545295225239
0.00547983677124
0.00550729180474
0.00553686274417
0.00557096478973
0.00460133501417
0.00474628040157
0.00515835260856
0.00529898489641
0.00535424726108
0.0053868018802
0.00541494369432
0.00544340453765
0.00547375306476
0.00550848610357
0.00449324671237
0.00460942165698
0.0050004546864
0.00513510410917
0.00518978288602
0.00522309775679
0.00525205701422
0.00528110005835
0.00531176867561
0.00421235409724
0.00424964542598
0.00458749069879
0.00470500728761
0.00475529520032
0.00478780479953
0.00481665687897
0.00484555665425
0.00487584870195
0.00378921997714
0.00418567372075
0.00444870299355
0.00454446164534
0.00459251954477
0.00462916064912
0.00466412690878
0.00469987895887
0.00473735847702
)
;

boundaryField
{
    back
    {
        lowReCorrection 0;
        blending        stepwise;
        n               2;
        type            epsilonWallFunction;
        value           nonuniform List<scalar> 
167
(
0.00563048981566
0.00567239453796
0.00569097425311
0.0057056643823
0.00572127026556
0.00573904718827
0.00576028732034
0.0057893193582
0.00505487842594
0.00548043304822
0.00561383909078
0.00565621695722
0.00567529336513
0.00569050226571
0.00570667967398
0.00572511111178
0.00574714045777
0.00577734500947
0.00583128130514
0.00503733896836
0.00546247077574
0.00559628305034
0.00563923344942
0.0056588868698
0.00567469599989
0.0056915220192
0.00571067643859
0.00573357364852
0.00576507387561
0.0058214223444
0.0050187430685
0.00544355698768
0.00557785517141
0.00562146897811
0.00564178986156
0.0056582836287
0.00567582951873
0.00569576365541
0.00571960883377
0.00575252601534
0.0048460166737
0.00499922203074
0.00542369777572
0.00555860116967
0.00560297722478
0.00562406047204
0.00564132368278
0.00565967294283
0.00568045300696
0.00570530573501
0.00573973556691
0.00482636268407
0.00497886842326
0.00540300811867
0.00553860236304
0.00558383902193
0.0056057764371
0.00562389472768
0.00564311949173
0.00566482982183
0.00569075573
0.00572674172962
0.00480562703821
0.00495774174
0.00538159981003
0.00551796217711
0.00556415130791
0.00558704121567
0.00560610454822
0.00562628442397
0.00564900023442
0.00567605303173
0.00478384819765
0.00493594654833
0.00535955439585
0.00549677198901
0.00554402708142
0.00556798525331
0.00558810279317
0.00560932964282
0.00563310431392
0.00476106564073
0.00491354010196
0.00533695510558
0.00547513084581
0.005523567295
0.00554872065712
0.00557001115423
0.00559237881241
0.00561728372357
0.00473728929704
0.00489054077114
0.00531379185715
0.00545299531796
0.0055027663775
0.00552926125152
0.00555184173169
0.00557543920061
0.00560153376587
0.00563224302097
0.00471233257832
0.00486661866412
0.00528958511522
0.00542990856609
0.00548115650329
0.0055091338233
0.00553310443047
0.00555799950117
0.00558531321599
0.00561725830263
0.00468521802558
0.00484016574236
0.00526240496161
0.0054037875733
0.0054566101402
0.00548617187323
0.00551160644754
0.00553781906037
0.00556632602609
0.00559944084711
0.00465230927327
0.00480582692284
0.0052255746854
0.0053674814286
0.00542179043929
0.00545295225239
0.00547983677124
0.00550729180474
0.00553686274417
0.00557096478973
0.00460133501417
0.00474628040157
0.00515835260856
0.00529898489641
0.00535424726108
0.0053868018802
0.00541494369432
0.00544340453765
0.00547375306476
0.00550848610357
0.00449324671237
0.00460942165698
0.0050004546864
0.00513510410917
0.00518978288602
0.00522309775679
0.00525205701422
0.00528110005835
0.00531176867561
0.00421235409724
0.00424964542598
0.00458749069879
0.00470500728761
0.00475529520032
0.00478780479953
0.00481665687897
0.00484555665425
0.00487584870195
0.00378921997714
0.00418567372075
0.00444870299355
0.00454446164534
0.00459251954477
0.00462916064912
0.00466412690878
0.00469987895887
0.00473735847702
)
;
    }
    sides
    {
        lowReCorrection 0;
        blending        stepwise;
        n               2;
        type            epsilonWallFunction;
        value           nonuniform List<scalar> 9(0.00378921997714 0.00418567372075 0.00444870299355 0.00454446164534 0.00459251954477 0.00462916064912 0.00466412690878 0.00469987895887 0.00473735847702);
    }
    bottom
    {
        lowReCorrection 0;
        blending        stepwise;
        n               2;
        type            epsilonWallFunction;
        value           nonuniform List<scalar> 
13
(
0.0048460166737
0.00482636268407
0.00480562703821
0.00478384819765
0.00476106564073
0.00473728929704
0.00471233257832
0.00468521802558
0.00465230927327
0.00460133501417
0.00449324671237
0.00421235409724
0.00378921997714
)
;
    }
    front
    {
        lowReCorrection 0;
        blending        stepwise;
        n               2;
        type            epsilonWallFunction;
        value           nonuniform List<scalar> 
167
(
0.00563048981566
0.00567239453796
0.00569097425311
0.0057056643823
0.00572127026556
0.00573904718827
0.00576028732034
0.0057893193582
0.00505487842594
0.00548043304822
0.00561383909078
0.00565621695722
0.00567529336513
0.00569050226571
0.00570667967398
0.00572511111178
0.00574714045777
0.00577734500947
0.00583128130514
0.00503733896836
0.00546247077574
0.00559628305034
0.00563923344942
0.0056588868698
0.00567469599989
0.0056915220192
0.00571067643859
0.00573357364852
0.00576507387561
0.0058214223444
0.0050187430685
0.00544355698768
0.00557785517141
0.00562146897811
0.00564178986156
0.0056582836287
0.00567582951873
0.00569576365541
0.00571960883377
0.00575252601534
0.0048460166737
0.00499922203074
0.00542369777572
0.00555860116967
0.00560297722478
0.00562406047204
0.00564132368278
0.00565967294283
0.00568045300696
0.00570530573501
0.00573973556691
0.00482636268407
0.00497886842326
0.00540300811867
0.00553860236304
0.00558383902193
0.0056057764371
0.00562389472768
0.00564311949173
0.00566482982183
0.00569075573
0.00572674172962
0.00480562703821
0.00495774174
0.00538159981003
0.00551796217711
0.00556415130791
0.00558704121567
0.00560610454822
0.00562628442397
0.00564900023442
0.00567605303173
0.00478384819765
0.00493594654833
0.00535955439585
0.00549677198901
0.00554402708142
0.00556798525331
0.00558810279317
0.00560932964282
0.00563310431392
0.00476106564073
0.00491354010196
0.00533695510558
0.00547513084581
0.005523567295
0.00554872065712
0.00557001115423
0.00559237881241
0.00561728372357
0.00473728929704
0.00489054077114
0.00531379185715
0.00545299531796
0.0055027663775
0.00552926125152
0.00555184173169
0.00557543920061
0.00560153376587
0.00563224302097
0.00471233257832
0.00486661866412
0.00528958511522
0.00542990856609
0.00548115650329
0.0055091338233
0.00553310443047
0.00555799950117
0.00558531321599
0.00561725830263
0.00468521802558
0.00484016574236
0.00526240496161
0.0054037875733
0.0054566101402
0.00548617187323
0.00551160644754
0.00553781906037
0.00556632602609
0.00559944084711
0.00465230927327
0.00480582692284
0.0052255746854
0.0053674814286
0.00542179043929
0.00545295225239
0.00547983677124
0.00550729180474
0.00553686274417
0.00557096478973
0.00460133501417
0.00474628040157
0.00515835260856
0.00529898489641
0.00535424726108
0.0053868018802
0.00541494369432
0.00544340453765
0.00547375306476
0.00550848610357
0.00449324671237
0.00460942165698
0.0050004546864
0.00513510410917
0.00518978288602
0.00522309775679
0.00525205701422
0.00528110005835
0.00531176867561
0.00421235409724
0.00424964542598
0.00458749069879
0.00470500728761
0.00475529520032
0.00478780479953
0.00481665687897
0.00484555665425
0.00487584870195
0.00378921997714
0.00418567372075
0.00444870299355
0.00454446164534
0.00459251954477
0.00462916064912
0.00466412690878
0.00469987895887
0.00473735847702
)
;
    }
    atmosphere
    {
        type            inletOutlet;
        inletValue      nonuniform List<scalar> 0();
        value           nonuniform List<scalar> 0();
    }
    floatingObject
    {
        lowReCorrection 0;
        blending        stepwise;
        n               2;
        type            epsilonWallFunction;
        value           nonuniform List<scalar> 0();
    }
    procBoundary10to9
    {
        type            processor;
        value           nonuniform List<scalar> 
15
(
0.00564617190812
0.00568771777132
0.00570589049265
0.00572013957812
0.00573525842817
0.00575247213248
0.00577299155008
0.00580094549903
0.00507135113917
0.00549736187015
0.00549736187015
0.00489821129114
0.00488193422436
0.00486454410826
0.00486454410826
)
;
    }
    procBoundary10to11
    {
        type            processor;
        value           nonuniform List<scalar> 
23
(
0.00584116370708
0.00584116370708
0.00595471886947
0.00594971344857
0.0058116152777
0.0058116152777
0.00580176647748
0.00579180155702
0.00571364220674
0.00571364220674
0.0056613386357
0.0056613386357
0.00564674517041
0.00564674517041
0.00567475407188
0.00566135056382
0.00564498303185
0.00561769008761
0.00555587872646
0.00534654761871
0.00534654761871
0.00490974206864
0.00477817585702
)
;
    }
}


// ************************************************************************* //
