/*--------------------------------*- C++ -*----------------------------------*\
| =========                 |                                                 |
| \\      /  F ield         | OpenFOAM: The Open Source CFD Toolbox           |
|  \\    /   O peration     | Version:  v2012                                 |
|   \\  /    A nd           | Website:  www.openfoam.com                      |
|    \\/     M anipulation  |                                                 |
\*---------------------------------------------------------------------------*/
FoamFile
{
    version     2.0;
    format      ascii;
    class       volScalarField;
    location    "4.2";
    object      k;
}
// * * * * * * * * * * * * * * * * * * * * * * * * * * * * * * * * * * * * * //

dimensions      [0 2 -2 0 0 0 0];


internalField   nonuniform List<scalar> 
164
(
0.00283009467199
0.0037064645377
0.00473454356567
0.00670992041847
0.0113234802669
0.0214824054593
0.03995063249
0.0754046615805
0.00304258607121
0.00410881683148
0.00520381532822
0.00708328582563
0.0113870678796
0.021297076747
0.0409080997986
0.0762238669174
0.00304288013182
0.00410971118659
0.00519971708661
0.00704154737511
0.0112328395372
0.0213140538967
0.0425023617717
0.0771828629972
0.00282854479295
0.0037032311952
0.00472307151774
0.0066527799166
0.0111526770875
0.0214893576925
0.0415413682428
0.0765503100483
0.00424183101852
0.0061863953718
0.0109309068989
0.0214555194771
0.0405662993671
0.0758461595718
0.00397716801467
0.00587295323703
0.0106828943066
0.0213665700633
0.0405942674983
0.0758515195398
0.00381855390525
0.00565692319007
0.0104552455514
0.0212716569096
0.0410133037636
0.076175590554
0.00370309755918
0.00546869225709
0.0101593175912
0.0208349822542
0.0408233590817
0.0762733646439
0.00361637562404
0.00528565019528
0.00978475555891
0.0201101795586
0.0396544058752
0.0758704524498
0.00355224877767
0.00509468695169
0.00936131379744
0.0193895852984
0.0384106998428
0.0753478582167
0.00352839462854
0.0049531375284
0.00897688596497
0.0187211498358
0.0374548537232
0.0750051158748
0.00354268171658
0.0048823751362
0.00864117684255
0.0180157987666
0.0373869769484
0.0751378025793
0.00355025865626
0.00479596501135
0.00828695743016
0.0173865415966
0.0371235860606
0.0752220339381
0.00353424097445
0.0046841065722
0.00791550691385
0.0168241182107
0.0367277757568
0.0751923541599
0.00351041976223
0.00459061127416
0.00762402214412
0.0164411397208
0.036952424352
0.0754005875586
0.00349232944662
0.00453176344352
0.00741608084269
0.0159445331369
0.0361433110482
0.07519282531
0.00346430419159
0.00446214584017
0.00720607634963
0.0153384975033
0.0348628582365
0.074751644478
0.00341027247215
0.00435053227913
0.00695005329194
0.0147781698881
0.0340361045589
0.0744961011075
0.0033337912655
0.00420358632748
0.00665551313037
0.0143189704818
0.0340885268517
0.0746888690134
0.00325580895265
0.00406497461141
0.00638371670013
0.0138119665579
0.03446041747
0.0751820916439
0.00319363207639
0.00396397646937
0.00621712181249
0.0135093883088
0.0347562716898
0.0755866604332
0.00315505055973
0.00391503452641
0.00618622240143
0.0132849428837
0.0339280761851
0.0754526347589
0.00313356564791
0.00388546859929
0.00613306333076
0.0128209325873
0.0322708344542
0.0746313270386
0.0031209909602
0.00386155770167
0.00606407510438
0.012391215277
0.0309526345835
0.0738230164152
0.00602979035681
0.0120588555456
0.0295144095486
0.0723897336353
0.00603789627495
0.0119438237909
0.0291357126555
0.0723315433321
0.00605415333526
0.0117609568308
0.0285569988419
0.072014323839
)
;

boundaryField
{
    back
    {
        type            kqRWallFunction;
        value           nonuniform List<scalar> 
164
(
0.00283009467199
0.0037064645377
0.00473454356567
0.00670992041847
0.0113234802669
0.0214824054593
0.03995063249
0.0754046615805
0.00304258607121
0.00410881683148
0.00520381532822
0.00708328582563
0.0113870678796
0.021297076747
0.0409080997986
0.0762238669174
0.00304288013182
0.00410971118659
0.00519971708661
0.00704154737511
0.0112328395372
0.0213140538967
0.0425023617717
0.0771828629972
0.00282854479295
0.0037032311952
0.00472307151774
0.0066527799166
0.0111526770875
0.0214893576925
0.0415413682428
0.0765503100483
0.00424183101852
0.0061863953718
0.0109309068989
0.0214555194771
0.0405662993671
0.0758461595718
0.00397716801467
0.00587295323703
0.0106828943066
0.0213665700633
0.0405942674983
0.0758515195398
0.00381855390525
0.00565692319007
0.0104552455514
0.0212716569096
0.0410133037636
0.076175590554
0.00370309755918
0.00546869225709
0.0101593175912
0.0208349822542
0.0408233590817
0.0762733646439
0.00361637562404
0.00528565019528
0.00978475555891
0.0201101795586
0.0396544058752
0.0758704524498
0.00355224877767
0.00509468695169
0.00936131379744
0.0193895852984
0.0384106998428
0.0753478582167
0.00352839462854
0.0049531375284
0.00897688596497
0.0187211498358
0.0374548537232
0.0750051158748
0.00354268171658
0.0048823751362
0.00864117684255
0.0180157987666
0.0373869769484
0.0751378025793
0.00355025865626
0.00479596501135
0.00828695743016
0.0173865415966
0.0371235860606
0.0752220339381
0.00353424097445
0.0046841065722
0.00791550691385
0.0168241182107
0.0367277757568
0.0751923541599
0.00351041976223
0.00459061127416
0.00762402214412
0.0164411397208
0.036952424352
0.0754005875586
0.00349232944662
0.00453176344352
0.00741608084269
0.0159445331369
0.0361433110482
0.07519282531
0.00346430419159
0.00446214584017
0.00720607634963
0.0153384975033
0.0348628582365
0.074751644478
0.00341027247215
0.00435053227913
0.00695005329194
0.0147781698881
0.0340361045589
0.0744961011075
0.0033337912655
0.00420358632748
0.00665551313037
0.0143189704818
0.0340885268517
0.0746888690134
0.00325580895265
0.00406497461141
0.00638371670013
0.0138119665579
0.03446041747
0.0751820916439
0.00319363207639
0.00396397646937
0.00621712181249
0.0135093883088
0.0347562716898
0.0755866604332
0.00315505055973
0.00391503452641
0.00618622240143
0.0132849428837
0.0339280761851
0.0754526347589
0.00313356564791
0.00388546859929
0.00613306333076
0.0128209325873
0.0322708344542
0.0746313270386
0.0031209909602
0.00386155770167
0.00606407510438
0.012391215277
0.0309526345835
0.0738230164152
0.00602979035681
0.0120588555456
0.0295144095486
0.0723897336353
0.00603789627495
0.0119438237909
0.0291357126555
0.0723315433321
0.00605415333526
0.0117609568308
0.0285569988419
0.072014323839
)
;
    }
    sides
    {
        type            kqRWallFunction;
        value           nonuniform List<scalar> 0();
    }
    bottom
    {
        type            kqRWallFunction;
        value           nonuniform List<scalar> 0();
    }
    front
    {
        type            kqRWallFunction;
        value           nonuniform List<scalar> 
164
(
0.00283009467199
0.0037064645377
0.00473454356567
0.00670992041847
0.0113234802669
0.0214824054593
0.03995063249
0.0754046615805
0.00304258607121
0.00410881683148
0.00520381532822
0.00708328582563
0.0113870678796
0.021297076747
0.0409080997986
0.0762238669174
0.00304288013182
0.00410971118659
0.00519971708661
0.00704154737511
0.0112328395372
0.0213140538967
0.0425023617717
0.0771828629972
0.00282854479295
0.0037032311952
0.00472307151774
0.0066527799166
0.0111526770875
0.0214893576925
0.0415413682428
0.0765503100483
0.00424183101852
0.0061863953718
0.0109309068989
0.0214555194771
0.0405662993671
0.0758461595718
0.00397716801467
0.00587295323703
0.0106828943066
0.0213665700633
0.0405942674983
0.0758515195398
0.00381855390525
0.00565692319007
0.0104552455514
0.0212716569096
0.0410133037636
0.076175590554
0.00370309755918
0.00546869225709
0.0101593175912
0.0208349822542
0.0408233590817
0.0762733646439
0.00361637562404
0.00528565019528
0.00978475555891
0.0201101795586
0.0396544058752
0.0758704524498
0.00355224877767
0.00509468695169
0.00936131379744
0.0193895852984
0.0384106998428
0.0753478582167
0.00352839462854
0.0049531375284
0.00897688596497
0.0187211498358
0.0374548537232
0.0750051158748
0.00354268171658
0.0048823751362
0.00864117684255
0.0180157987666
0.0373869769484
0.0751378025793
0.00355025865626
0.00479596501135
0.00828695743016
0.0173865415966
0.0371235860606
0.0752220339381
0.00353424097445
0.0046841065722
0.00791550691385
0.0168241182107
0.0367277757568
0.0751923541599
0.00351041976223
0.00459061127416
0.00762402214412
0.0164411397208
0.036952424352
0.0754005875586
0.00349232944662
0.00453176344352
0.00741608084269
0.0159445331369
0.0361433110482
0.07519282531
0.00346430419159
0.00446214584017
0.00720607634963
0.0153384975033
0.0348628582365
0.074751644478
0.00341027247215
0.00435053227913
0.00695005329194
0.0147781698881
0.0340361045589
0.0744961011075
0.0033337912655
0.00420358632748
0.00665551313037
0.0143189704818
0.0340885268517
0.0746888690134
0.00325580895265
0.00406497461141
0.00638371670013
0.0138119665579
0.03446041747
0.0751820916439
0.00319363207639
0.00396397646937
0.00621712181249
0.0135093883088
0.0347562716898
0.0755866604332
0.00315505055973
0.00391503452641
0.00618622240143
0.0132849428837
0.0339280761851
0.0754526347589
0.00313356564791
0.00388546859929
0.00613306333076
0.0128209325873
0.0322708344542
0.0746313270386
0.0031209909602
0.00386155770167
0.00606407510438
0.012391215277
0.0309526345835
0.0738230164152
0.00602979035681
0.0120588555456
0.0295144095486
0.0723897336353
0.00603789627495
0.0119438237909
0.0291357126555
0.0723315433321
0.00605415333526
0.0117609568308
0.0285569988419
0.072014323839
)
;
    }
    atmosphere
    {
        type            inletOutlet;
        inletValue      uniform 0.1;
        value           uniform 0.1;
    }
    floatingObject
    {
        type            kqRWallFunction;
        value           nonuniform List<scalar> 4(0.00283009467199 0.00304258607121 0.00304288013182 0.00282854479295);
    }
    procBoundary6to3
    {
        type            processor;
        value           nonuniform List<scalar> 8(0.00280862416074 0.00336275446342 0.00424480357587 0.0062014429704 0.011009498972 0.0216688001501 0.0407221211775 0.0757649723851);
    }
    procBoundary6to7
    {
        type            processor;
        value           nonuniform List<scalar> 
11
(
0.00297385776768
0.00293856064095
0.00291013824325
0.00289177469094
0.00288151530575
0.00287596139338
0.0031150725978
0.00385006447892
0.00385006447892
0.00385645909129
0.00387475860615
)
;
    }
    procBoundary6to8
    {
        type            processor;
        value           nonuniform List<scalar> 
16
(
0.00280792801973
0.00336133697267
0.00336133697267
0.00319324016546
0.00312061197017
0.00307314259447
0.00303940315604
0.00302139481119
0.00302413956284
0.0030430923351
0.0030596255147
0.0030607043618
0.00305276494526
0.00304480565666
0.00303240540645
0.00300816040602
)
;
    }
    procBoundary6to9
    {
        type            processor;
        value           nonuniform List<scalar> 4(0.00605368481397 0.0114589621905 0.0274243554395 0.071339863192);
    }
}


// ************************************************************************* //
