/*--------------------------------*- C++ -*----------------------------------*\
| =========                 |                                                 |
| \\      /  F ield         | OpenFOAM: The Open Source CFD Toolbox           |
|  \\    /   O peration     | Version:  v2012                                 |
|   \\  /    A nd           | Website:  www.openfoam.com                      |
|    \\/     M anipulation  |                                                 |
\*---------------------------------------------------------------------------*/
FoamFile
{
    version     2.0;
    format      ascii;
    class       volScalarField;
    location    "4.2";
    object      rAU;
}
// * * * * * * * * * * * * * * * * * * * * * * * * * * * * * * * * * * * * * //

dimensions      [-1 3 1 0 0 0 0];


internalField   nonuniform List<scalar> 
164
(
2.15636805898e-05
2.16380042858e-05
2.14218355827e-05
2.1153598438e-05
2.10430829464e-05
3.85518965724e-05
0.00428568226997
0.0161494777805
2.18746378609e-05
2.149408297e-05
2.12731263294e-05
2.10761175291e-05
2.09222217886e-05
3.79847734942e-05
0.00419757976248
0.0159974647103
2.18708168298e-05
2.1455944327e-05
2.13188719281e-05
2.13343073817e-05
2.14411901682e-05
3.87973854017e-05
0.00379299168868
0.0152546520469
2.15624277244e-05
2.16332675858e-05
2.14171826991e-05
2.11639040334e-05
2.09635130222e-05
3.75081456465e-05
0.00375303819002
0.0158112081262
2.1519206681e-05
2.12242856918e-05
2.09928212011e-05
3.7428179719e-05
0.00435791832066
0.016010710349
2.16058112629e-05
2.12994974692e-05
2.10210032368e-05
3.72554803741e-05
0.00416121556653
0.0159924198985
2.16538806311e-05
2.13663261328e-05
2.10435074304e-05
3.68391347036e-05
0.00407243919925
0.0160263873159
2.16967251362e-05
2.13979329194e-05
2.11979824694e-05
3.66417661934e-05
0.0043303269557
0.0159963702775
2.17945417764e-05
2.1433028972e-05
2.10201759764e-05
3.5113018493e-05
0.00358512315805
0.016162765604
2.18698565216e-05
2.14987967921e-05
2.14527253672e-05
3.51612768013e-05
0.00424384872273
0.0162198442484
2.18270379639e-05
2.15294794975e-05
2.14970502988e-05
3.41205992533e-05
0.00239640147678
0.0159245510826
2.17551759037e-05
2.14669349301e-05
2.1479172893e-05
3.34313037671e-05
0.0015203773984
0.0155549534578
2.17045378989e-05
2.1439706333e-05
2.14753191848e-05
3.28991054527e-05
0.0011263593906
0.0138842686641
2.16841876963e-05
2.14617570164e-05
2.14880391612e-05
3.23890562439e-05
0.000927386812561
0.0138400868247
2.16295683274e-05
2.12677224298e-05
2.16381964454e-05
3.20071735993e-05
0.000782381441712
0.0118562449095
2.15261785583e-05
2.11678079058e-05
2.12992935373e-05
3.15453032592e-05
0.000689016800029
0.0129417802951
2.15610370255e-05
2.12279302215e-05
2.10065522356e-05
3.0674569031e-05
0.000616911984055
0.0137767124526
2.16390178842e-05
2.11265840904e-05
2.11353932336e-05
3.02537292863e-05
0.000558871566657
0.0134916338591
2.1712368753e-05
2.13017102568e-05
2.1022371569e-05
3.00006357569e-05
0.000509930311962
0.0129142994069
2.17965636995e-05
2.1446287136e-05
2.09351154528e-05
2.95909544543e-05
0.000465452879958
0.0126685614442
2.18250018543e-05
2.14714323682e-05
2.10267034688e-05
2.93793466408e-05
0.000432968779459
0.012554255194
2.17948335978e-05
2.14745865717e-05
2.10976524182e-05
2.91100908203e-05
0.000402165562152
0.0123143229064
2.17751196569e-05
2.15045146876e-05
2.11449325605e-05
2.87365655326e-05
0.000365306364885
0.0119254070719
2.17739487131e-05
2.15347362628e-05
2.11748189925e-05
2.83447576746e-05
0.0003272516681
0.0114573426139
2.11772726917e-05
2.78589133577e-05
0.000292447791116
0.0111568481373
2.11638564421e-05
2.72870105054e-05
0.00026211668439
0.0107189741037
2.11922300461e-05
2.68925742744e-05
0.000238211184475
0.0107311186251
)
;

boundaryField
{
    back
    {
        type            calculated;
        value           nonuniform List<scalar> 
164
(
2.15636805898e-05
2.16380042858e-05
2.14218355827e-05
2.1153598438e-05
2.10430829464e-05
3.85518965724e-05
0.00428568226997
0.0161494777805
2.18746378609e-05
2.149408297e-05
2.12731263294e-05
2.10761175291e-05
2.09222217886e-05
3.79847734942e-05
0.00419757976248
0.0159974647103
2.18708168298e-05
2.1455944327e-05
2.13188719281e-05
2.13343073817e-05
2.14411901682e-05
3.87973854017e-05
0.00379299168868
0.0152546520469
2.15624277244e-05
2.16332675858e-05
2.14171826991e-05
2.11639040334e-05
2.09635130222e-05
3.75081456465e-05
0.00375303819002
0.0158112081262
2.1519206681e-05
2.12242856918e-05
2.09928212011e-05
3.7428179719e-05
0.00435791832066
0.016010710349
2.16058112629e-05
2.12994974692e-05
2.10210032368e-05
3.72554803741e-05
0.00416121556653
0.0159924198985
2.16538806311e-05
2.13663261328e-05
2.10435074304e-05
3.68391347036e-05
0.00407243919925
0.0160263873159
2.16967251362e-05
2.13979329194e-05
2.11979824694e-05
3.66417661934e-05
0.0043303269557
0.0159963702775
2.17945417764e-05
2.1433028972e-05
2.10201759764e-05
3.5113018493e-05
0.00358512315805
0.016162765604
2.18698565216e-05
2.14987967921e-05
2.14527253672e-05
3.51612768013e-05
0.00424384872273
0.0162198442484
2.18270379639e-05
2.15294794975e-05
2.14970502988e-05
3.41205992533e-05
0.00239640147678
0.0159245510826
2.17551759037e-05
2.14669349301e-05
2.1479172893e-05
3.34313037671e-05
0.0015203773984
0.0155549534578
2.17045378989e-05
2.1439706333e-05
2.14753191848e-05
3.28991054527e-05
0.0011263593906
0.0138842686641
2.16841876963e-05
2.14617570164e-05
2.14880391612e-05
3.23890562439e-05
0.000927386812561
0.0138400868247
2.16295683274e-05
2.12677224298e-05
2.16381964454e-05
3.20071735993e-05
0.000782381441712
0.0118562449095
2.15261785583e-05
2.11678079058e-05
2.12992935373e-05
3.15453032592e-05
0.000689016800029
0.0129417802951
2.15610370255e-05
2.12279302215e-05
2.10065522356e-05
3.0674569031e-05
0.000616911984055
0.0137767124526
2.16390178842e-05
2.11265840904e-05
2.11353932336e-05
3.02537292863e-05
0.000558871566657
0.0134916338591
2.1712368753e-05
2.13017102568e-05
2.1022371569e-05
3.00006357569e-05
0.000509930311962
0.0129142994069
2.17965636995e-05
2.1446287136e-05
2.09351154528e-05
2.95909544543e-05
0.000465452879958
0.0126685614442
2.18250018543e-05
2.14714323682e-05
2.10267034688e-05
2.93793466408e-05
0.000432968779459
0.012554255194
2.17948335978e-05
2.14745865717e-05
2.10976524182e-05
2.91100908203e-05
0.000402165562152
0.0123143229064
2.17751196569e-05
2.15045146876e-05
2.11449325605e-05
2.87365655326e-05
0.000365306364885
0.0119254070719
2.17739487131e-05
2.15347362628e-05
2.11748189925e-05
2.83447576746e-05
0.0003272516681
0.0114573426139
2.11772726917e-05
2.78589133577e-05
0.000292447791116
0.0111568481373
2.11638564421e-05
2.72870105054e-05
0.00026211668439
0.0107189741037
2.11922300461e-05
2.68925742744e-05
0.000238211184475
0.0107311186251
)
;
    }
    sides
    {
        type            calculated;
        value           nonuniform List<scalar> 0();
    }
    bottom
    {
        type            calculated;
        value           nonuniform List<scalar> 0();
    }
    front
    {
        type            calculated;
        value           nonuniform List<scalar> 
164
(
2.15636805898e-05
2.16380042858e-05
2.14218355827e-05
2.1153598438e-05
2.10430829464e-05
3.85518965724e-05
0.00428568226997
0.0161494777805
2.18746378609e-05
2.149408297e-05
2.12731263294e-05
2.10761175291e-05
2.09222217886e-05
3.79847734942e-05
0.00419757976248
0.0159974647103
2.18708168298e-05
2.1455944327e-05
2.13188719281e-05
2.13343073817e-05
2.14411901682e-05
3.87973854017e-05
0.00379299168868
0.0152546520469
2.15624277244e-05
2.16332675858e-05
2.14171826991e-05
2.11639040334e-05
2.09635130222e-05
3.75081456465e-05
0.00375303819002
0.0158112081262
2.1519206681e-05
2.12242856918e-05
2.09928212011e-05
3.7428179719e-05
0.00435791832066
0.016010710349
2.16058112629e-05
2.12994974692e-05
2.10210032368e-05
3.72554803741e-05
0.00416121556653
0.0159924198985
2.16538806311e-05
2.13663261328e-05
2.10435074304e-05
3.68391347036e-05
0.00407243919925
0.0160263873159
2.16967251362e-05
2.13979329194e-05
2.11979824694e-05
3.66417661934e-05
0.0043303269557
0.0159963702775
2.17945417764e-05
2.1433028972e-05
2.10201759764e-05
3.5113018493e-05
0.00358512315805
0.016162765604
2.18698565216e-05
2.14987967921e-05
2.14527253672e-05
3.51612768013e-05
0.00424384872273
0.0162198442484
2.18270379639e-05
2.15294794975e-05
2.14970502988e-05
3.41205992533e-05
0.00239640147678
0.0159245510826
2.17551759037e-05
2.14669349301e-05
2.1479172893e-05
3.34313037671e-05
0.0015203773984
0.0155549534578
2.17045378989e-05
2.1439706333e-05
2.14753191848e-05
3.28991054527e-05
0.0011263593906
0.0138842686641
2.16841876963e-05
2.14617570164e-05
2.14880391612e-05
3.23890562439e-05
0.000927386812561
0.0138400868247
2.16295683274e-05
2.12677224298e-05
2.16381964454e-05
3.20071735993e-05
0.000782381441712
0.0118562449095
2.15261785583e-05
2.11678079058e-05
2.12992935373e-05
3.15453032592e-05
0.000689016800029
0.0129417802951
2.15610370255e-05
2.12279302215e-05
2.10065522356e-05
3.0674569031e-05
0.000616911984055
0.0137767124526
2.16390178842e-05
2.11265840904e-05
2.11353932336e-05
3.02537292863e-05
0.000558871566657
0.0134916338591
2.1712368753e-05
2.13017102568e-05
2.1022371569e-05
3.00006357569e-05
0.000509930311962
0.0129142994069
2.17965636995e-05
2.1446287136e-05
2.09351154528e-05
2.95909544543e-05
0.000465452879958
0.0126685614442
2.18250018543e-05
2.14714323682e-05
2.10267034688e-05
2.93793466408e-05
0.000432968779459
0.012554255194
2.17948335978e-05
2.14745865717e-05
2.10976524182e-05
2.91100908203e-05
0.000402165562152
0.0123143229064
2.17751196569e-05
2.15045146876e-05
2.11449325605e-05
2.87365655326e-05
0.000365306364885
0.0119254070719
2.17739487131e-05
2.15347362628e-05
2.11748189925e-05
2.83447576746e-05
0.0003272516681
0.0114573426139
2.11772726917e-05
2.78589133577e-05
0.000292447791116
0.0111568481373
2.11638564421e-05
2.72870105054e-05
0.00026211668439
0.0107189741037
2.11922300461e-05
2.68925742744e-05
0.000238211184475
0.0107311186251
)
;
    }
    atmosphere
    {
        type            calculated;
        value           nonuniform List<scalar> 
27
(
0.0161494777805
0.0159974647103
0.0152546520469
0.0158112081262
0.016010710349
0.0159924198985
0.0160263873159
0.0159963702775
0.016162765604
0.0162198442484
0.0159245510826
0.0155549534578
0.0138842686641
0.0138400868247
0.0118562449095
0.0129417802951
0.0137767124526
0.0134916338591
0.0129142994069
0.0126685614442
0.012554255194
0.0123143229064
0.0119254070719
0.0114573426139
0.0111568481373
0.0107189741037
0.0107311186251
)
;
    }
    floatingObject
    {
        type            calculated;
        value           nonuniform List<scalar> 4(2.15636805898e-05 2.18746378609e-05 2.18708168298e-05 2.15624277244e-05);
    }
    procBoundary6to3
    {
        type            processor;
        value           nonuniform List<scalar> 8(2.09870136805e-05 2.15491737753e-05 2.15364356878e-05 2.12320058337e-05 2.09831120316e-05 3.80523490814e-05 0.00385032826771 0.0156219422208);
    }
    procBoundary6to7
    {
        type            processor;
        value           nonuniform List<scalar> 
11
(
2.17957100787e-05
2.18391024935e-05
2.18460680128e-05
2.18115188455e-05
2.1773331719e-05
2.1757111541e-05
2.17730127714e-05
2.15455583995e-05
2.15455583995e-05
2.15408326017e-05
2.15482722099e-05
)
;
    }
    procBoundary6to8
    {
        type            processor;
        value           nonuniform List<scalar> 
16
(
2.09862621678e-05
2.15481812841e-05
2.15481812841e-05
2.1515730489e-05
2.17319000573e-05
2.17786420099e-05
2.16606534657e-05
2.17945601462e-05
2.18117947303e-05
2.17885341921e-05
2.17736639447e-05
2.17738395373e-05
2.17442543673e-05
2.16920119969e-05
2.1702289572e-05
2.17463970133e-05
)
;
    }
    procBoundary6to9
    {
        type            processor;
        value           nonuniform List<scalar> 4(2.13580519838e-05 2.70133419588e-05 0.000227942316201 0.010683003221);
    }
}


// ************************************************************************* //
