/*--------------------------------*- C++ -*----------------------------------*\
| =========                 |                                                 |
| \\      /  F ield         | OpenFOAM: The Open Source CFD Toolbox           |
|  \\    /   O peration     | Version:  v2012                                 |
|   \\  /    A nd           | Website:  www.openfoam.com                      |
|    \\/     M anipulation  |                                                 |
\*---------------------------------------------------------------------------*/
FoamFile
{
    version     2.0;
    format      ascii;
    class       surfaceVectorField;
    location    "4.2";
    object      Uf_0;
}
// * * * * * * * * * * * * * * * * * * * * * * * * * * * * * * * * * * * * * //

dimensions      [0 1 -1 0 0 0 0];


internalField   nonuniform List<vector> 
293
(
(-0.0446594440236 -0.031413208495 4.73317531541e-18)
(-0.0391043254917 -0.0299317080761 4.59950285935e-18)
(-0.0157150242842 -0.0480155284689 3.34197116303e-18)
(-0.0163552065236 -0.0460568840742 3.70442219465e-18)
(-0.00099767985837 -0.0544825545813 2.22585187794e-18)
(-0.0035000246468 -0.0563121347485 2.59805337245e-18)
(0.00545180337237 -0.0558565983328 1.62123928266e-18)
(0.0037893696673 -0.0584191048485 1.88577161347e-18)
(0.0036344274805 -0.0555511344453 1.35485770378e-18)
(0.00577963850435 -0.0589637339137 1.58472494506e-18)
(-0.00623234237575 -0.053401249085 1.2634340852e-18)
(-0.000977630531114 -0.0570587456318 1.41438827394e-18)
(-0.0127279739959 -0.0343714113511 8.61584646261e-19)
(-0.0257900190877 -0.0505002628222 1.40986881906e-18)
(-0.0151470936643 -0.0403720541459 5.22328079076e-19)
(-0.0137047856141 -0.0395071126267 3.5707497386e-18)
(0.000413187613132 -0.0335765003935 3.76736056337e-18)
(-0.00448893592792 -0.0562915353123 2.96050440408e-18)
(0.000438942592909 -0.050846370545 3.38775029413e-18)
(0.00136073168656 -0.0604707028355 2.25797310798e-18)
(0.00068645388646 -0.0597505611779 2.54253577677e-18)
(0.00425868610029 -0.0581097304282 1.84925727587e-18)
(0.0014329544379 -0.0597740065289 2.02233425216e-18)
(0.00139300346254 -0.0540587157447 1.64425551521e-18)
(0.0017301302159 -0.057890318311 1.71544945379e-18)
(-0.0183127855961 -0.0527847243228 1.5608230078e-18)
(-0.00225211982977 -0.0554219573776 1.60361711946e-18)
(-0.0237280864131 -0.053984903567 1.07061225187e-18)
(-0.0245874882251 -0.0535574947128 1.54854997728e-18)
(-0.00615251575202 -0.0809414626989 5.59308432911e-19)
(0.0145346350612 -0.0393355839697 3.58436111889e-18)
(0.0397608259367 -0.0297307902788 4.6131599487e-18)
(0.00560629198846 -0.0559247796102 2.96978166682e-18)
(0.0170383636732 -0.0456020257523 3.72116222164e-18)
(0.000783678283331 -0.0598142108223 2.30689692095e-18)
(0.00458346323053 -0.0553241290173 2.60990847793e-18)
(-0.00102472751407 -0.0567044354842 1.88852643009e-18)
(-0.00167230049368 -0.0563707205827 1.93779281978e-18)
(-0.00150843782064 -0.0518751613994 1.67481105803e-18)
(-0.00309763196299 -0.0558447826564 1.58409728797e-18)
(-0.00577977945002 -0.054243075976 1.59134408894e-18)
(0.000115451560392 -0.0545638797741 1.45002627219e-18)
(-0.00527070905735 -0.0892550139175 1.03724615832e-18)
(0.0104199850206 -0.0551415442422 1.39737458151e-18)
(0.00576420757922 -0.0906996459084 5.04564334943e-19)
(0.0450843398609 -0.0309104471818 4.74996105145e-18)
(0.0163402820525 -0.046897906822 3.36128903276e-18)
(0.0021841552723 -0.0525452183258 2.24080437677e-18)
(0.0102392462387 -0.0482489259202 2.76207931483e-18)
(-0.0036902130269 -0.0527321548245 1.63336367767e-18)
(-0.0014806621261 -0.0513941299227 1.6473514599e-18)
(-0.00168918644786 -0.0516888851763 1.35931250213e-18)
(-0.00413935946704 -0.0545037994977 1.25992852845e-18)
(0.012684536372 -0.0549431941885 1.25605676476e-18)
(0.00336902808222 -0.0551700782653 1.06196868153e-18)
(0.0175661148331 -0.0680036982218 8.64692758134e-19)
(0.0234835929585 -0.053150328178 1.05549929105e-18)
(0.0126527217254 -0.0617715343391 4.03653755423e-19)
(0.00587589822099 -0.0465208800772 2.16862639795e-18)
(0.0141037094003 -0.0438016811557 2.59593824128e-18)
(-0.00203129709234 -0.049906645465 1.27391631068e-18)
(0.00190975524048 -0.0483408800907 1.24664461099e-18)
(0.000476634451493 -0.0529264094145 9.62584707853e-19)
(-0.0011181116637 -0.0542322056492 8.45475337933e-19)
(0.0135072728259 -0.0553950020029 8.61411207819e-19)
(0.00583734903095 -0.0563169502049 6.72784309688e-19)
(0.017125895481 -0.0494503554148 5.94460288337e-19)
(0.0175408764041 -0.0528063045119 6.72858082264e-19)
(0.00936113368813 -0.0457889299445 2.57660151827e-19)
(0.0106719162594 -0.0443009232667 1.67395645431e-18)
(0.0177797263572 -0.0412072591283 1.73591124687e-18)
(0.00286826974475 -0.0492333851676 8.18203638239e-19)
(0.0068466268251 -0.0468341477601 7.26009396625e-19)
(0.00414210950829 -0.0542868960503 5.55674939769e-19)
(0.0039367750537 -0.0545400089357 4.49506541236e-19)
(0.00947270219536 -0.0567204149509 4.84231184133e-19)
(0.00827140016593 -0.0566911585751 3.47609061539e-19)
(0.00930564856876 -0.0471930341499 3.36057945753e-19)
(0.00801476296007 -0.0537882766837 3.48987360586e-19)
(0.0057386331329 -0.0489574223745 1.37945835016e-19)
(0.0146667020719 -0.0429000887614 7.87964189185e-19)
(0.0213373843799 -0.0396097143452 7.59249626012e-19)
(0.00832736469837 -0.0489452905709 3.57312299622e-19)
(0.0128958829509 -0.0460739562457 2.84062116468e-19)
(0.00856616158055 -0.0551693560327 2.41440663006e-19)
(0.0101620999987 -0.0548425564883 1.72884152274e-19)
(0.00710242729665 -0.059707347987 2.12365237992e-19)
(0.0128094243347 -0.0564351132221 1.3207651674e-19)
(0.00469432172436 -0.0512216851913 1.50875249849e-19)
(-0.000469297990394 -0.0557638090048 1.31760249522e-19)
(0.00637932727814 -0.0563585676486 5.58959232957e-20)
(0.0197744127394 -0.0421316368745 2.55347553295e-19)
(0.0250950777161 -0.038781281218 2.34971205423e-19)
(0.0150440316066 -0.0489990958625 9.96339691194e-20)
(0.0197669472609 -0.0455764969825 6.50128788088e-20)
(0.0146806501315 -0.0560436593804 6.35200060078e-20)
(0.0172077849917 -0.0547252211756 3.49085986569e-20)
(0.00528889160713 -0.0615257510691 5.147152827e-20)
(0.0182913203137 -0.055318734399 1.84565981323e-20)
(0.00129756395118 -0.0554236375751 3.67809229684e-20)
(-0.0065698639787 -0.057320697767 1.52023437327e-20)
(0.00902898168149 -0.0538840850515 6.51836594276e-21)
(0.0252890607914 -0.0414368295912 4.46365309366e-20)
(0.0288445220415 -0.0380853316934 4.47133667019e-20)
(0.0222220711892 -0.0484245857328 2.87508346314e-22)
(0.0267577921751 -0.0442428683614 -8.49835489061e-21)
(0.0210400803658 -0.0556560410824 -1.01548092186e-20)
(0.0244402200031 -0.0529658438678 -1.89364448602e-20)
(0.00311603462974 -0.0605792050783 -1.78125864049e-20)
(0.0232140166929 -0.0525300483481 -3.14015859522e-20)
(-0.00113656187374 -0.0482207481648 -1.5060213293e-20)
(-0.0189268890022 -0.0572452683778 -3.59282151232e-20)
(0.0148901726366 -0.0469681848797 -1.72681029659e-20)
(0.0302290167345 -0.0400592662721 -8.42151912535e-21)
(0.0319868929841 -0.0374120651683 -5.54930374479e-21)
(0.0289349456102 -0.0461121377275 -2.77223080971e-20)
(0.0328132116989 -0.0421208586551 -3.55119208334e-20)
(0.0267020128527 -0.0529147069943 -4.01832215938e-20)
(0.0312436022228 -0.0496358614652 -4.82248622292e-20)
(0.000641384343527 -0.0575583753633 -4.95172146704e-20)
(0.0278577527927 -0.0484174551864 -6.49077440992e-20)
(-0.00371057864049 -0.0476352673986 -3.81361047961e-20)
(-0.0288490746944 -0.0552256652184 -6.86062099366e-20)
(0.0162635463903 -0.0498957847413 -3.36113627007e-20)
(0.0342729791413 -0.03891355238 -3.26397054529e-20)
(0.0345381492052 -0.0371646745137 -2.50032314398e-20)
(0.0347464965612 -0.0433071355335 -5.60144749655e-20)
(0.0372087950112 -0.040598483136 -6.49447877472e-20)
(0.0320382743504 -0.0489001889488 -7.29493847346e-20)
(0.03683730009 -0.0464714238729 -8.59345801204e-20)
(0.0013721424886 -0.0528330562171 -8.39967393654e-20)
(0.0317907372811 -0.0441960009051 -1.08570356165e-19)
(-0.00701604225872 -0.0547929884817 -6.40814678412e-20)
(-0.0268894845329 -0.0510069501404 -1.13111671372e-19)
(0.0109143628125 -0.055997477385 -6.15627388551e-20)
(0.0373915682397 -0.0387356868646 -5.73083137341e-20)
(0.0369719420175 -0.0371131041505 -3.81543738701e-20)
(0.0389839240029 -0.0418192788157 -9.48648929021e-20)
(0.0402938842637 -0.0395385481353 -8.9348540953e-20)
(0.0359065897914 -0.0452245929426 -1.21555551551e-19)
(0.04024310497 -0.0438023974786 -1.23214558211e-19)
(0.00543901288075 -0.0469661284936 -1.37685288172e-19)
(0.0335323559813 -0.040478704294 -1.54331433917e-19)
(-0.00642138000036 -0.0553537857026 -1.10592942386e-19)
(-0.0185026525109 -0.0467164625171 -1.56056386639e-19)
(0.00741566385985 -0.0573060973156 -8.28679675333e-20)
(0.0397130359939 -0.0381710351793 -7.01946010891e-20)
(0.0388909010729 -0.0367011797026 -4.17767486141e-20)
(0.0413989893788 -0.0399643435662 -1.17698206262e-19)
(0.0420882778214 -0.0381503477309 -1.02346476892e-19)
(0.0378014554434 -0.0418802136327 -1.55990440577e-19)
(0.0421593372255 -0.0410862293559 -1.45503895338e-19)
(0.0102619465712 -0.0433927357505 -1.72702532384e-19)
(0.035044939288 -0.0373070667106 -1.74746588595e-19)
(-0.00381780201675 -0.0530766877891 -1.28331411787e-19)
(-0.00881801212092 -0.0443605096613 -1.72702138535e-19)
(0.00686196029901 -0.0549536934678 -9.13555559301e-20)
(0.0412481216795 -0.0371286562761 -7.39286244175e-20)
(0.0404225271496 -0.0360718627788 -3.6157582508e-20)
(0.04287684993 -0.0380467388516 -1.30152165969e-19)
(0.0430071213787 -0.0370624180694 -9.2034054899e-20)
(0.0396641918643 -0.0391899853709 -1.64260043356e-19)
(0.0433028336071 -0.0387796596289 -1.35859719787e-19)
(0.0153268002221 -0.0417278454007 -1.74746194746e-19)
(0.0375828302553 -0.0346098816949 -1.60975232317e-19)
(0.00132640963582 -0.0485736112224 -1.35726282679e-19)
(-0.00197168586098 -0.0436953878264 -1.6136203039e-19)
(0.00911760488976 -0.0561613631827 -8.1275938368e-20)
(0.0422423427918 -0.0364183443147 -5.42630129896e-20)
(0.0418238949754 -0.0359423175482 -2.74959597748e-20)
(0.0436303806875 -0.0367475538002 -9.77416087171e-20)
(0.0433368085526 -0.0370594687794 -6.63646963836e-20)
(0.0417946197 -0.0370734887883 -1.32574908747e-19)
(0.0436289254863 -0.0377211835595 -1.01733092497e-19)
(0.0217383453503 -0.0405371117349 -1.47591067961e-19)
(0.0410464683216 -0.0325732163393 -1.2711564782e-19)
(0.0065636509169 -0.0529545683362 -1.06911686079e-19)
(0.0104457450373 -0.0425077914391 -1.34966736573e-19)
(0.0130494240014 -0.0560545172493 -6.51083518885e-20)
(0.0431085981945 -0.0368197621032 -3.95976431688e-20)
(0.0435679152053 -0.0362321778388 -1.79314915682e-20)
(0.0436005129527 -0.0369629343302 -7.03561801639e-20)
(0.0434801550664 -0.0377836269712 -4.23595150785e-20)
(0.0430652859583 -0.0363571160638 -9.62738315703e-20)
(0.0430231458706 -0.0379660066035 -6.67557450302e-20)
(0.0288541763984 -0.0381763912427 -1.14491316433e-19)
(0.0428657602756 -0.0314857652808 -8.49079092014e-20)
(0.0155619413798 -0.0465099015755 -9.31634023829e-20)
(0.0187785827074 -0.0397496264146 -9.87493935592e-20)
(0.0180539321771 -0.0466377667567 -6.27974767712e-20)
(0.0441792051717 -0.0373151858034 -2.06933634779e-20)
(0.0458246426309 -0.0359792730812 -9.9731324879e-21)
(0.04313815759 -0.0375949468689 -3.87590799447e-20)
(0.0437598935521 -0.0380506933959 -2.23898471762e-20)
(0.0427046574769 -0.0364426685059 -5.53898226613e-20)
(0.0418708211729 -0.0384334775837 -3.69650341544e-20)
(0.0316319787219 -0.035919642129 -6.91659863277e-20)
(0.0423427489067 -0.0311018397227 -5.26845865876e-20)
(0.0209187642625 -0.0373575508257 -6.83834679475e-20)
(0.0202157099465 -0.0377444780971 -7.102375532e-20)
(0.021081940843 -0.0362195357689 -5.35176130822e-20)
(0.0455857975304 -0.0368132185394 -1.16696161862e-20)
(0.048492442767 -0.0346522466552 -6.37968971665e-21)
(0.0425957211039 -0.0375971076223 -2.05958013859e-20)
(0.0445434719524 -0.0371253792035 -1.48118578514e-20)
(0.0413555361411 -0.0365201618041 -3.42597980807e-20)
(0.0407937154019 -0.0381887318784 -2.26388213952e-20)
(0.0296857610214 -0.0349387112631 -5.45423555799e-20)
(0.0407612750333 -0.0308190910765 -3.95235311584e-20)
(0.0201817487741 -0.0312425767389 -5.61579004547e-20)
(0.0165198006628 -0.0381246949139 -5.54942471763e-20)
(0.0232214735056 -0.0337702233289 -3.69705820876e-20)
(0.047488856501 -0.0350286257271 -9.52193138183e-21)
(0.0512270221769 -0.0325757700775 -6.5234548313e-21)
(0.0426982704034 -0.0364547159347 -1.68548778607e-20)
(0.0459689164982 -0.0353606555791 -1.15382590801e-20)
(0.0402373447858 -0.0361567988806 -2.79025544729e-20)
(0.0404954939301 -0.037667648542 -1.54058824193e-20)
(0.0269424610468 -0.0355785666084 -4.04754227548e-20)
(0.0401829819491 -0.030928101507 -2.71290729836e-20)
(0.0189719133453 -0.0332194113734 -3.63069288091e-20)
(0.0141614704864 -0.0412056480199 -3.55024196013e-20)
(0.0280967191714 -0.045800305319 -2.43324214785e-20)
(0.049987889692 -0.032917070066 -8.53978252958e-21)
(0.0539235276629 -0.0305676483333 -5.86982351266e-21)
(0.0441256442585 -0.0354079967005 -1.00892636387e-20)
(0.0484587589366 -0.0337427214004 -9.84269909284e-21)
(0.0409226489097 -0.036901438308 -1.463240093e-20)
(0.0419884428838 -0.0378375420788 -1.08917798868e-20)
(0.0290337013922 -0.0386041653139 -2.21560698302e-20)
(0.0418856189731 -0.0318430798317 -1.92624699221e-20)
(0.0235786261789 -0.0481926926239 -2.35279122706e-20)
(0.0237508596344 -0.0469367705603 -2.98994623567e-20)
(0.035897227645 -0.0637376028439 -2.42156105289e-20)
(0.052936828298 -0.031293305446 -7.17274007591e-21)
(0.056807202819 -0.0292494809653 -3.90394849332e-21)
(0.047053711088 -0.0349092653858 -1.0645215341e-20)
(0.0520730820068 -0.0330167274996 -6.98322553441e-21)
(0.0439848997455 -0.0387731721667 -1.5521848879e-20)
(0.0458516200856 -0.0393440227145 -1.06697763965e-20)
(0.0381239255178 -0.0439770017434 -2.70058624486e-20)
(0.0470892985233 -0.0337918837134 -1.98660749364e-20)
(0.0364067540924 -0.0615645993603 -3.05871606149e-20)
(0.04133860948 -0.0529376816272 -3.46167329654e-20)
(0.0456280296035 -0.0732194787476 -2.66882007111e-20)
(0.0565864227732 -0.0307111087256 -3.71443395182e-21)
(0.0602249597299 -0.0285234695162 -2.78290551893e-21)
(0.0518440718504 -0.0356680813357 -7.00778658989e-21)
(0.0570272131627 -0.0328908712501 -3.43855618332e-21)
(0.0497057255906 -0.0422300759745 -1.50140024539e-20)
(0.0524124901959 -0.0412229689764 -1.085496623e-20)
(0.0493190598881 -0.0489701017981 -2.74769454532e-20)
(0.0538291092925 -0.0355351427172 -2.00387427631e-20)
(0.049974899184 -0.0635692707892 -3.07177730616e-20)
(0.0559389375232 -0.0570365027282 -3.9322469662e-20)
(0.0570615055347 -0.0773417139779 -2.96265829488e-20)
(0.0611076211106 -0.030433009331 -2.50702775043e-21)
(0.0642675980396 -0.0277421968808 -2.32711609678e-21)
(0.058195314562 -0.0362508387985 -7.28573582343e-21)
(0.0628413120673 -0.0322753886704 -4.00340131954e-21)
(0.0573418014732 -0.0440378317783 -1.58797065392e-20)
(0.0601978063062 -0.0413028199663 -9.55314043264e-21)
(0.0614678182357 -0.0523484544516 -3.18842669718e-20)
(0.062139406208 -0.0349409558088 -1.43649890346e-20)
(0.06372124652 -0.0675463274031 -3.82312795491e-20)
(0.0711372813099 -0.0582096542473 -1.44479784527e-20)
(0.0680307040993 -0.08132735414 -1.00702426956e-20)
(0.0661439112398 -0.0294162573053 -3.8234896659e-21)
(0.0649412310238 -0.0354326943711 -6.27080592875e-21)
(0.0651992470337 -0.0427029703426 -8.0384229281e-21)
(0.0674657103151 -0.0401132465334 -7.41212508407e-21)
(0.0738307362543 -0.0512073557647 3.07129948448e-21)
(0.0706433349714 -0.0327907200811 -7.77618484001e-21)
(0.0771439397436 -0.0694615135336 1.37130584008e-20)
(0.0893898907121 -0.0577477041102 1.77016336155e-20)
(0.077429927015 -0.0817403709327 1.55853923769e-20)
(0.073372498189 -0.0412909076016 -7.14988699599e-21)
(0.07519252436 -0.0384078060484 -7.14431537533e-21)
(0.0862208001489 -0.0503711454026 6.85414929097e-21)
(0.0797229101294 -0.0296761495307 -6.77567976302e-21)
(0.0901890602896 -0.0670522769942 1.95739675915e-20)
(0.106076196908 -0.0565677908441 -2.47619663677e-21)
(0.0887968201051 -0.0836744195097 6.94943853369e-22)
(0.0821450713136 -0.038504158763 -6.77010814236e-21)
(0.0832905163286 -0.0348111147794 -6.56211685581e-21)
(0.100758732487 -0.0485812279934 -1.61060256908e-20)
(0.0897993165722 -0.0247098521155 -9.81578444076e-21)
(0.104535204865 -0.0693533840658 -2.13552203749e-20)
(0.126845699054 -0.050974963378 -1.99176722691e-20)
(0.100523621096 -0.0829822731455 -1.31778335194e-20)
(0.0904576163185 -0.0325237457141 -9.60779315421e-21)
(0.11511840089 -0.0404421771782 -1.36274310191e-20)
(0.121994727025 -0.0600207237188 -1.17402854136e-20)
)
;

boundaryField
{
    back
    {
        type            calculated;
        value           uniform (0 0 0);
    }
    sides
    {
        type            calculated;
        value           nonuniform List<vector> 0();
    }
    bottom
    {
        type            calculated;
        value           nonuniform List<vector> 0();
    }
    front
    {
        type            calculated;
        value           uniform (0 0 0);
    }
    atmosphere
    {
        type            calculated;
        value           nonuniform List<vector> 
27
(
(0 -0.0285729204624 0)
(0 -0.0629789210107 0)
(0 -0.101167145928 0)
(0 -0.0748914586796 0)
(0 -0.0461580124806 0)
(0 -0.0435698019829 0)
(0 -0.0518616760479 0)
(0 -0.0580726320582 0)
(0 -0.0540813415122 0)
(0 -0.0490082362899 0)
(0 -0.0494427475245 0)
(0 -0.0518538494268 0)
(0 -0.0525231081721 0)
(0 -0.0508294706173 0)
(0 -0.0568861941905 0)
(0 -0.0515137298074 0)
(0 -0.0403849109746 0)
(0 -0.0333824810464 0)
(0 -0.0380957387182 0)
(0 -0.0559944840225 0)
(0 -0.071296293385 0)
(0 -0.0750047328162 0)
(0 -0.0785172398813 0)
(0 -0.0788613111264 0)
(0 -0.0784285217699 0)
(0 -0.081085338101 0)
(0 -0.0717693771646 0)
)
;
    }
    floatingObject
    {
        type            calculated;
        value           nonuniform List<vector> 4((0 0 0) (0 0 0) (-1.04083408559e-16 0 0) (0 0 0));
    }
    procBoundary6to3
    {
        type            processor;
        value           nonuniform List<vector> 8((-0.0705315866835 -0.0377231929532 6.44409525403e-18) (-0.0329719069125 -0.0413365173439 4.76541409304e-18) (-0.00997940917424 -0.0496892276675 2.76651338327e-18) (0.00240690955205 -0.0542455747155 1.64910486634e-18) (0.00608182746291 -0.0581672405417 1.26982263127e-18) (0.00117223048798 -0.0582390200237 1.07939414701e-18) (-0.00675946693624 -0.0524238886803 1.08268657474e-18) (-0.00934740076308 -0.0343043589015 3.69161174334e-19));
    }
    procBoundary6to7
    {
        type            processor;
        value           nonuniform List<vector> 
11
(
(0.0506285261753 -0.0322927450762 -4.3086713855e-21)
(0.0534598567352 -0.0302181742947 -5.28906135094e-21)
(0.0560819719765 -0.028405886049 -3.24883593407e-21)
(0.0588402282193 -0.0272874887886 -2.21367311585e-21)
(0.0620851835886 -0.026382083189 -1.50680334119e-21)
(0.0657709845415 -0.0251364002846 -1.69548465297e-21)
(0.0685381853426 -0.0263395891897 -2.25354476539e-21)
(0.0688529273497 -0.0307812870214 -6.40416353703e-21)
(0.0717030241886 -0.0335578203102 -7.54548269235e-21)
(0.0785437896094 -0.0303989011995 -5.83147041181e-21)
(0.0850266568271 -0.0252562131737 -3.04261040947e-21)
)
;
    }
    procBoundary6to8
    {
        type            processor;
        value           nonuniform List<vector> 
16
(
(0.0706835330651 -0.0374707008163 6.45683171202e-18)
(0.0330370817273 -0.0406255757675 4.7758991831e-18)
(0.0239268135431 -0.042671357813 4.17668946517e-18)
(0.0251789036292 -0.0406384057963 3.63253840469e-18)
(0.0249632682063 -0.0393546335359 1.97191512362e-18)
(0.0262076051621 -0.0383847733382 6.8922009021e-19)
(0.0282355763707 -0.0376967020784 1.69508913114e-19)
(0.0303834791279 -0.0369246099013 2.39114434295e-20)
(0.0324908306716 -0.0363683590457 -7.94565585268e-21)
(0.0345662591323 -0.0363064224101 -2.05055223424e-20)
(0.0367997327205 -0.036255309547 -2.72447523447e-20)
(0.0388062652611 -0.0355992566659 -2.53841551079e-20)
(0.0405287008749 -0.0350183707717 -2.0899495776e-20)
(0.0424826932759 -0.0350764818884 -1.53509393165e-20)
(0.0449018913177 -0.0350588172786 -8.78706938031e-21)
(0.0476972144445 -0.0341442268873 -5.11927648203e-21)
)
;
    }
    procBoundary6to9
    {
        type            processor;
        value           nonuniform List<vector> 4((0.0905510146607 -0.0288244909437 -7.15090114035e-21) (0.0977170389924 -0.0184045691519 -1.25288063495e-20) (0.1464137433 -0.0424331116943 -1.35686669631e-20) (0.112273610032 -0.0725023554814 -9.71538304712e-21));
    }
}


// ************************************************************************* //
