/*--------------------------------*- C++ -*----------------------------------*\
| =========                 |                                                 |
| \\      /  F ield         | OpenFOAM: The Open Source CFD Toolbox           |
|  \\    /   O peration     | Version:  v2012                                 |
|   \\  /    A nd           | Website:  www.openfoam.com                      |
|    \\/     M anipulation  |                                                 |
\*---------------------------------------------------------------------------*/
FoamFile
{
    version     2.0;
    format      ascii;
    class       surfaceScalarField;
    location    "5.3";
    object      alphaPhi0.water;
}
// * * * * * * * * * * * * * * * * * * * * * * * * * * * * * * * * * * * * * //

dimensions      [0 3 -1 0 0 0 0];
oriented        oriented;


internalField   nonuniform List<scalar> 
3840
(
-1.47641402021e-05
1.47639841161e-05
-3.0659240808e-05
1.58949750522e-05
-4.73722094364e-05
1.67129058701e-05
-6.4545785321e-05
1.71735337303e-05
-8.21199394216e-05
1.75743041438e-05
-0.000100195715648
1.80758120711e-05
-0.000119009148281
1.88135201208e-05
-0.000138685152565
1.96758347649e-05
-0.000159391975362
2.0706962007e-05
-0.000181260429816
2.18676176272e-05
-0.000204277438364
2.30162001807e-05
-0.000228638052853
2.43603523762e-05
-0.000254022251596
2.53838427304e-05
-0.000279527762728
2.55031504702e-05
-0.000304912126225
2.538233888e-05
-0.000328019309568
2.3103059713e-05
-0.000283674917215
2.16238605707e-05
-3.03237985455e-06
2.91582087312e-05
-3.94533929031e-07
-6.19849666825e-08
8.17540635171e-08
-1.57557431544e-05
3.05195882571e-05
-3.19852641101e-05
3.21244294743e-05
-4.85840530238e-05
3.33116317747e-05
-6.56957535554e-05
3.42854320961e-05
-8.33652977456e-05
3.52439040704e-05
-0.000101644449726
3.6354990896e-05
-0.000120595057123
3.77638503349e-05
-0.000140455635707
3.95365367001e-05
-0.000161361267396
4.16115404968e-05
-0.000183443525294
4.39486728731e-05
-0.00020694526823
4.65171108701e-05
-0.000231958248515
4.93724848152e-05
-0.000258704397267
5.21294168867e-05
-0.000287967788862
5.47635570325e-05
-0.000321532776409
5.89452021503e-05
-0.000358911451004
6.04771916689e-05
-0.000318147658783
5.39556858204e-05
-6.65507881284e-06
2.3391060703e-05
-2.630372194e-08
-1.43701539529e-08
5.54501465567e-08
-1.62429480372e-05
4.67624554557e-05
-3.24752727012e-05
4.83567598434e-05
-4.90440693817e-05
4.98804650768e-05
-6.60710521947e-05
5.13126132446e-05
-8.36151606011e-05
5.27880515892e-05
-0.000101813099384
5.45528222448e-05
-0.000120698096928
5.66487555123e-05
-0.000140431560511
5.92688583236e-05
-0.000161220507168
6.24001789898e-05
-0.000183251754419
6.59769556503e-05
-0.000206775602166
7.00393319305e-05
-0.000232129779298
7.47255583204e-05
-0.000259994528357
7.99930990329e-05
-0.000291265036206
8.60311339963e-05
-0.000327363071307
9.50407785126e-05
-0.000365736592996
9.88461318163e-05
-0.000324172734956
8.33613486622e-05
-7.30622275221e-06
2.39379620202e-05
-5.51055878909e-08
9.41818080694e-10
3.55544889669e-10
-1.61167030409e-05
6.28790957048e-05
-3.22564931736e-05
6.44965378598e-05
-4.86695529708e-05
6.62936650973e-05
-6.54870192263e-05
6.81302142254e-05
-8.28006501964e-05
7.01017349576e-05
-0.000100662971732
7.24150503743e-05
-0.000119238144105
7.52232289943e-05
-0.000138600201025
7.86304886052e-05
-0.000158918882337
8.2716834046e-05
-0.000180493633368
8.75489179021e-05
-0.000203612994499
9.31541670734e-05
-0.000228591386331
9.97009314982e-05
-0.000256205083567
0.000107605326952
-0.000287786710664
0.000117609991592
-0.00032367010414
0.000130921680317
-0.000362091356993
0.000137263085342
-0.000330672244493
0.000115655929165
-1.93627171254e-06
2.88799204634e-05
-3.70244762848e-10
7.52707765961e-08
1.94470714556e-11
-1.56718957184e-05
7.8550945139e-05
-3.14863873128e-05
8.03110128422e-05
-4.75744020052e-05
8.23817145686e-05
-6.40307022219e-05
8.45866005065e-05
-8.09203930894e-05
8.69914700101e-05
-9.832644796e-05
8.98210663537e-05
-0.000116352278311
9.32485510756e-05
-0.000135106635621
9.73836013032e-05
-0.000154732388195
0.000102341041687
-0.000175438967176
0.00010825128561
-0.000197506421377
0.000115216516863
-0.000221299908071
0.000123488513533
-0.000247342691064
0.000133646318883
-0.000276118491643
0.00014638314295
-0.000307900334591
0.000162701019466
-0.000342549645373
0.000171908589534
-0.00032834063294
0.000152122462468
7.06886045342e-06
4.73855537287e-05
-5.51263398367e-11
1.83828830788e-07
-1.49752321627e-13
-1.50910960888e-05
9.36419969122e-05
-3.04139447897e-05
9.56338247015e-05
-4.60157799545e-05
9.7983534616e-05
-6.19544655694e-05
0.000100525302178
-7.82777230569e-05
0.00010331475859
-9.50647527955e-05
0.000106607994282
-0.000112384828704
0.000110568275996
-0.00013035489816
0.000115352541788
-0.000149061622649
0.000121045931146
-0.000168647943984
0.000127834327792
-0.00018925656443
0.000135821352241
-0.000211035373267
0.000145262291655
-0.000233761271728
0.00015636908461
-0.000257115951009
0.000169735193492
-0.000280333187179
0.000185916542158
-0.000306564047085
0.000198136481936
-0.000310700702611
0.00019159625948
7.67762983335e-06
8.58680593172e-05
7.04921493715e-12
-1.01497328299e-07
8.68228510835e-13
-1.44378077597e-05
0.000108079733101
-2.91467203155e-05
0.000110342647827
-4.41403218625e-05
0.000112977048099
-5.94466685577e-05
0.000115831551062
-7.50948392487e-05
0.00011896288841
-9.11277172174e-05
0.000122640742344
-0.000107632047512
0.000127072371684
-0.000124664704053
0.000132384204411
-0.000142328537234
0.000138707409394
-0.000160653510271
0.000146157908364
-0.000179723165302
0.0001548873665
-0.000199421535504
0.000164956449359
-0.000219366116123
0.000176310059991
-0.000238245722979
0.000188612673475
-0.000254928119896
0.00020259802042
-0.000273942829126
0.000217149023218
-0.00028847153984
0.000228799644348
-7.03137932176e-06
0.000132487752901
-8.83286548256e-09
-3.53115819117e-07
8.38494832344e-10
-1.37323765697e-05
0.00012181197154
-2.77373037114e-05
0.000124347371165
-4.20336084212e-05
0.000127273165127
-5.66151356717e-05
0.000130412955596
-7.14913768042e-05
0.000133839
-8.67006896341e-05
0.000137849977897
-0.000102295882035
0.000142667313665
-0.000118337700339
0.000148425048389
-0.000134882659673
0.000155250658958
-0.000151983545202
0.000163258850258
-0.000169630870738
0.000172531243004
-0.000187750848224
0.000183075733914
-0.000206120156906
0.000194674900952
-0.000224376427508
0.000206865707842
-0.000242307655321
0.00022052798613
-0.000261803411799
0.000236651684062
-0.000275502479319
0.000256600754109
-8.67515322166e-06
0.000165230032821
-8.30347680106e-10
4.51451338526e-07
7.44186798683e-12
-1.29694675965e-05
0.000134781189254
-2.62093819542e-05
0.000137586994789
-3.9740717328e-05
0.000140804170807
-5.35298946434e-05
0.000144201862395
-6.75749666405e-05
0.000147883851396
-8.18889558014e-05
0.00015216387038
-9.6510963492e-05
0.000157289234156
-0.000111497795488
0.000163411279253
-0.00012687750025
0.000170629800228
-0.000142734787807
0.000179118711556
-0.000159120782846
0.000188913789025
-0.000176034548474
0.000199990599994
-0.000193590415544
0.000212229686416
-0.000212238638407
0.000225512162934
-0.000232302421648
0.000240590741242
-0.000253728434501
0.000258044556606
-0.000262673101454
0.000272846603811
2.15804510521e-05
0.000178676444656
-1.51688545453e-11
-2.57015232727e-07
6.57220505029e-13
-1.21557599052e-05
0.000146936535172
-2.46340716758e-05
0.00015006478113
-3.73134988324e-05
0.000153483091702
-5.02296361489e-05
0.000157117503717
-6.33754916757e-05
0.000161029342574
-7.67510089725e-05
0.000165539211063
-9.03758770107e-05
0.00017091404872
-0.000104278202084
0.0001773134424
-0.000118507411643
0.000184859416716
-0.000133109982602
0.000193724662336
-0.000148207037154
0.000204009016312
-0.000163805092618
0.000215588639632
-0.000180012395774
0.000228436771553
-0.000197527592674
0.00024302699174
-0.000217075113243
0.000260137678163
-0.000235813891793
0.00027677071318
-0.000243976980065
0.000282200622442
-2.11931508575e-05
0.000179070152666
-6.2798128654e-08
-5.1986332586e-07
2.50792924549e-09
-1.13086692172e-05
0.000158244556186
-2.28925694287e-05
0.000161647888709
-3.47161616354e-05
0.00016530582625
-4.67500018464e-05
0.000169150588924
-5.89741453342e-05
0.000173252913307
-7.13809058779e-05
0.000177945546491
-8.39684030934e-05
0.000183501460121
-9.68140207478e-05
0.000190159696737
-0.00010992589029
0.000197972341929
-0.000123296667516
0.000207097173958
-0.000136905984075
0.000217621635762
-0.000150830268609
0.000229511982916
-0.000165175416165
0.000242781469946
-0.000180172945954
0.000258023747618
-0.000196002479376
0.000275966398513
-0.000209724370431
0.000290492221933
-0.000215625034605
0.000288102635775
-4.37256071139e-05
0.000175365743269
-2.43725792772e-09
-2.83751941803e-07
6.99715908128e-11
-1.04255862987e-05
0.000168669203974
-2.11019626402e-05
0.000172323144729
-3.20186112939e-05
0.000176221282917
-4.31397452843e-05
0.000180270567983
-5.43989506879e-05
0.000184511221566
-6.58315354787e-05
0.000189377592784
-7.74389946484e-05
0.000195109060904
-8.91595008768e-05
0.000201880334722
-0.000101066884919
0.000209879445728
-0.00011310166046
0.000219131437049
-0.000125265800656
0.000229784692089
-0.00013747402378
0.000241719982463
-0.000149643990717
0.000254951621657
-0.00016153292957
0.000269913664648
-0.000172468121283
0.000286901684395
-0.000181024087507
0.00029904804478
-0.000185672020544
0.000292751749599
-4.1305444796e-05
0.000174543271946
-1.41160259594e-07
4.63922778147e-08
3.08678489219e-09
-9.52319414242e-06
0.000178191148844
-1.9261324652e-05
0.000182059803382
-2.92418887234e-05
0.000186200255234
-3.94193285826e-05
0.00019044636792
-4.97345529119e-05
0.000194824983307
-6.01311709292e-05
0.000199773782498
-7.06492586551e-05
0.000205626724956
-8.12859475565e-05
0.000212516362064
-9.20221506983e-05
0.000220615393164
-0.000102782010801
0.000229890607531
-0.000113476049493
0.000240478324104
-0.000124101824067
0.00025234572178
-0.000134390531638
0.000265240864986
-0.000143665799691
0.000279190608863
-0.000150777510143
0.000294013432891
-0.000155804853358
0.00030407532401
-0.000161360581574
0.000298308557315
-3.93955866553e-05
0.000178710745215
-8.55949162594e-09
1.10518289644e-07
2.52448342057e-08
-8.5725420677e-06
0.000186762037118
-1.73647606161e-05
0.00019085012099
-2.64014220253e-05
0.000195234864753
-3.55927375604e-05
0.000199635679433
-4.49124013256e-05
0.000204142807121
-5.43224553789e-05
0.000209182233548
-6.38191960385e-05
0.000215122417733
-7.33748584663e-05
0.000222070842927
-8.29024578476e-05
0.000230141160957
-9.24572632218e-05
0.000239443728606
-0.000101926839175
0.000249946197409
-0.000111156676656
0.000261574994119
-0.000119942089066
0.000274026760988
-0.000127661998981
0.000286912782211
-0.00013330487222
0.000299652323596
-0.000137220848335
0.000307991277009
-0.000143055282056
0.000304146712168
-3.8795608384e-05
0.000188591899675
-3.78718903904e-07
3.74913478794e-07
4.59693163016e-09
-7.59454432862e-06
0.000194355092555
-1.54508766078e-05
0.000198704593162
-2.34931260929e-05
0.000203274783788
-3.17083585155e-05
0.00020784863228
-4.00369191446e-05
0.000212469307564
-4.84272086998e-05
0.000217570201806
-5.68218098579e-05
0.000223513637246
-6.52821736849e-05
0.000230528295756
-7.37655217378e-05
0.000238620980436
-8.22420615897e-05
0.000247917165186
-9.0507726306e-05
0.000258207332781
-9.86322595218e-05
0.000269698244803
-0.00010634719249
0.000281741237739
-0.000113280192099
0.000293847834987
-0.000118799773311
0.000305185760426
-0.000123365295301
0.000312556776807
-0.000129861308215
0.000310642130348
-3.84188416308e-05
0.00020152144339
-1.36154893058e-07
1.65206166387e-06
1.17896323025e-08
-6.62565179782e-06
0.000200978637905
-1.34680741656e-05
0.000205544819673
-2.05218939221e-05
0.000210326585105
-2.7719773925e-05
0.000215043914755
-3.49957295746e-05
0.000219740525525
-4.23322656064e-05
0.000224900406557
-4.97093916603e-05
0.000230887209354
-5.71320800198e-05
0.000237946443704
-6.45150339842e-05
0.000245999724991
-7.19330197304e-05
0.000255329963741
-7.92836761679e-05
0.000265552637264
-8.64356219375e-05
0.000276847405352
-9.33099132102e-05
0.000288614899706
-9.97132072051e-05
0.000300251649923
-0.000105441626548
0.000310925276094
-0.000110858825123
0.000317973669591
-0.000118078173034
0.000317861177836
-3.80125372674e-05
0.000217016302689
-1.02226997363e-07
4.51509564099e-06
-3.66755284772e-12
-5.64492060677e-06
0.000206620751061
-1.14704091715e-05
0.000211367532981
-1.74620833621e-05
0.000216315434907
-2.35845161602e-05
0.000221160414161
-2.97883323421e-05
0.00022593954413
-3.60610746237e-05
0.000231168243478
-4.24160329305e-05
0.000237235482528
-4.87662047474e-05
0.000244289062508
-5.52343658789e-05
0.000252461243441
-6.15770991365e-05
0.000261665855173
-6.79105858647e-05
0.000271878882776
-7.41046581204e-05
0.000283036455616
-8.02444065434e-05
0.000294751024797
-8.5968257155e-05
0.00030597432522
-9.15141724364e-05
0.000316477583729
-9.67248795085e-05
0.000323185513387
-0.000105041725473
0.000326177023033
-3.6754698863e-05
0.000235144909548
-4.01903752643e-10
8.22649097292e-06
-4.43184828661e-10
-4.6466908625e-06
0.000211264610234
-9.44269202968e-06
0.000216160010213
-1.44192980797e-05
0.000221286255543
-1.94892705752e-05
0.000226227967292
-2.46310613553e-05
0.000231077380364
-2.98413805083e-05
0.000236374571548
-3.51308304401e-05
0.00024252013811
-4.04825602487e-05
0.000249636645554
-4.5773808626e-05
0.000257747795897
-5.09874561429e-05
0.000266874332503
-5.61634422215e-05
0.000277049383866
-6.12429025266e-05
0.000288111033953
-6.63511502635e-05
0.000299855091753
-7.14571125228e-05
0.000311077265451
-7.57587069053e-05
0.000320781322518
-8.11217493378e-05
0.000328549414166
-9.04167592072e-05
0.00033547168176
-3.38841350355e-05
0.000254067267497
-1.02799324189e-08
1.16505195541e-05
-5.97710373705e-10
-3.61649962526e-06
0.00021487677783
-7.43354591107e-06
0.000219972493788
-1.14051155645e-05
0.00022525370776
-1.54728135341e-05
0.000230291686427
-1.96068426558e-05
0.000235207396094
-2.38253407492e-05
0.000240589133935
-2.80339157731e-05
0.000246727048974
-3.21820638138e-05
0.000253780833701
-3.6235890028e-05
0.000261797073175
-4.02617574015e-05
0.000270895100414
-4.41643386072e-05
0.000280946501023
-4.81057815777e-05
0.00029204715634
-5.19037290795e-05
0.000303648200782
-5.59305043711e-05
0.000315099982051
-5.96982337895e-05
0.000324548014206
-6.35653924006e-05
0.000332416777237
-7.39769639391e-05
0.000345882992468
-2.91514791266e-05
0.000271494908163
-8.61996817425e-09
1.39979680657e-05
-1.56276253246e-10
-2.65767986923e-06
0.000217532508245
-5.50610926276e-06
0.000222818797719
-8.50208472148e-06
0.000228245188214
-1.16454559078e-05
0.000233431278293
-1.47951713058e-05
0.000238354471654
-1.79362019625e-05
0.000243728379619
-2.10474538306e-05
0.000249835357456
-2.40703815358e-05
0.000256799487103
-2.70019321134e-05
0.000264723981306
-2.9805485545e-05
0.000273693529632
-3.25930100019e-05
0.000283728490696
-3.51815038514e-05
0.00029463009408
-3.77373353238e-05
0.00030619871618
-4.01980137753e-05
0.000317555946566
-4.27609126461e-05
0.0003271076473
-4.60926006429e-05
0.000335748004855
-5.46530926557e-05
0.000354443159245
-2.25853717461e-05
0.000285582666703
-1.25240874619e-09
1.57510623873e-05
-9.07954236405e-10
-1.74071238393e-06
0.000219271253238
-3.65122731987e-06
0.000224727223257
-5.7179401505e-06
0.000230309778966
-7.87381183441e-06
0.000235584920374
-1.00168408077e-05
0.000240494686722
-1.21165422942e-05
0.00024582526505
-1.41255898911e-05
0.00025184083825
-1.60636229303e-05
0.000258733233489
-1.78856119793e-05
0.000266541255559
-1.9582561803e-05
0.000275385172377
-2.10706533034e-05
0.000285210806653
-2.25020423439e-05
0.000296055461019
-2.37390623282e-05
0.000307429716354
-2.49638859646e-05
0.000318775103122
-2.620701625e-05
0.00032834546321
-2.90198138123e-05
0.000338561631422
-3.45273061482e-05
0.000359950264414
-1.45813975202e-05
0.000293847897741
-2.56931900506e-08
1.69239963866e-05
-3.85417490063e-10
-8.13402012967e-07
0.000220082953778
-1.7819412659e-06
0.000225693758923
-2.88574112255e-06
0.000231411311121
-4.05869373144e-06
0.000236755197718
-5.23438529397e-06
0.000241667170547
-6.30851059049e-06
0.000246895896474
-7.26716942979e-06
0.000252796015694
-8.10665090633e-06
0.000259568879606
-8.89012327801e-06
0.000267320051014
-9.50692352824e-06
0.000275996499374
-9.95689320665e-06
0.000285654621776
-1.01256922324e-05
0.0002962175647
-1.01144363513e-05
0.000307411424482
-1.01851780136e-05
0.000318838781097
-1.10537292295e-05
0.000329206879863
-1.31642428977e-05
0.000340669680639
-1.43662538042e-05
0.00036115112056
-5.0430950891e-06
0.000294816211299
-2.02356949913e-09
1.86203785124e-05
-2.59586064222e-09
9.39542170993e-08
0.000219987313977
6.28539784659e-08
0.000225723003679
-9.29223908535e-08
0.000231564932521
-2.76492985661e-07
0.000236936247966
-4.55609987089e-07
0.000241843552827
-5.76938222812e-07
0.000247013776518
-5.89866569113e-07
0.000252805011324
-4.49592905588e-07
0.000259424652755
-1.10989390004e-07
0.000266976674667
3.92033362523e-07
0.000275487336159
1.04941762399e-06
0.000284989516083
1.99035862181e-06
0.000295267329928
2.99721140076e-06
0.00030639390112
3.92789036946e-06
0.000317896508312
3.64552608884e-06
0.00032947897462
1.66637241779e-06
0.000342639381661
2.12819465278e-06
0.000360690798416
4.66870689263e-06
0.000287296664171
9.40480070858e-09
2.05591046081e-05
2.90759153086e-09
1.00104067128e-06
0.000218984637536
1.87757831725e-06
0.000224844692124
2.66067193775e-06
0.000230779798718
3.40687048608e-06
0.000236187761411
4.20075480128e-06
0.000241046876511
5.07358065313e-06
0.00024613829481
6.0700373923e-06
0.000251804015991
7.21176520061e-06
0.000258278546777
8.55858161357e-06
0.000265622411632
1.0124569012e-05
0.000273912629701
1.19351839299e-05
0.000283168591947
1.38074636027e-05
0.000293381616307
1.58567224767e-05
0.000304328511328
1.77298583049e-05
0.000316005861079
1.83631099339e-05
0.000328825013074
1.70196510906e-05
0.000343967569033
1.75250820821e-05
0.000360183525038
9.45545624065e-06
0.000279399508092
7.76439664515e-10
2.1897278311e-05
9.86628976332e-09
1.88616483982e-06
0.00021709703322
3.66613080995e-06
0.000223063216195
5.35939962601e-06
0.000229084838248
7.0412970203e-06
0.000234503969837
8.78609397933e-06
0.000239300189888
1.06708818634e-05
0.00024425064928
1.26955079096e-05
0.000249775729713
1.48448060154e-05
0.000256122066145
1.71456728703e-05
0.00026331105239
1.9670907854e-05
0.000271375504472
2.24502910962e-05
0.000280373450214
2.53809585549e-05
0.000290431115111
2.845609518e-05
0.00030122926728
3.13829570981e-05
0.000313051431057
3.33677627747e-05
0.000326816872803
3.32242014427e-05
0.000344091577726
3.32068337535e-05
0.000360192454859
1.31704560471e-05
0.000273293349499
3.79832330242e-08
2.16627672466e-05
9.01909978235e-08
2.75905811919e-06
0.000214336275658
5.41389191678e-06
0.000220406736314
7.99392494046e-06
0.000226503016572
1.05775018512e-05
0.000231918404514
1.32135976603e-05
0.000236661889862
1.6022963312e-05
0.00024143856604
1.89965921211e-05
0.000246798757298
2.21288932473e-05
0.000252984494263
2.54304822737e-05
0.000260000293969
2.89619061267e-05
0.000267827153584
3.27739276029e-05
0.000276540280897
3.69013541293e-05
0.00028627519416
4.09603150733e-05
0.000297134462218
4.48533180827e-05
0.000309118200062
4.78115052573e-05
0.000323817526675
4.92989954655e-05
0.000342569786147
5.06149550676e-05
0.000358859761566
1.80024826451e-05
0.000268382155389
3.70422590687e-07
2.0380833133e-05
2.15351215595e-07
3.61485636324e-06
0.000210721353692
7.11647967144e-06
0.000216905330969
1.05495904168e-05
0.000223070249099
1.39889653836e-05
0.000228479462667
1.75084793902e-05
0.00023314285756
2.11602292236e-05
0.000237787048963
2.50043857005e-05
0.000242954138903
2.90997756237e-05
0.000248886906923
3.34074786159e-05
0.000255683484194
3.79341293275e-05
0.00026328989676
4.28000125055e-05
0.000271654656814
4.8001050398e-05
0.000281050648751
5.34665171056e-05
0.000291638617866
5.86653456788e-05
0.000303884230782
6.28990821783e-05
0.000319546911422
6.52178466052e-05
0.000340220516584
6.59909359128e-05
0.000358071776257
2.02229524859e-05
0.000273842767808
1.24903716733e-06
1.98940724833e-05
1.24610830674e-07
4.41817951913e-06
0.000206304204165
8.73962347598e-06
0.000212585413117
1.30026551982e-05
0.000218809045619
1.72831340185e-05
0.000224201093984
2.16523131261e-05
0.000228776010351
2.6169226958e-05
0.000233272407237
3.08991723321e-05
0.000238225765243
3.59040175486e-05
0.000243879351522
4.12415986883e-05
0.000250333231425
4.68563054212e-05
0.000257647227232
5.27218718511e-05
0.00026576097135
5.89958182116e-05
0.000274744709696
6.566976111e-05
0.000284929616518
7.25362722288e-05
0.000296965175737
7.85843522762e-05
0.0003134453376
8.31566288599e-05
0.000335604267361
8.73001267258e-05
0.000353907485983
2.99437873126e-05
0.000273142665148
-1.65434359382e-07
1.96897445888e-05
4.76785877826e-08
5.18680853547e-06
0.00020111970205
1.02870153543e-05
0.000207488245151
1.53465284303e-05
0.000213753081625
2.04435737147e-05
0.000219108092526
2.56358494482e-05
0.000223588166305
3.09885703402e-05
0.000227924067756
3.65596730481e-05
0.000232657970195
4.23927466056e-05
0.000238043475515
4.85442865793e-05
0.000244166777031
5.5125873697e-05
0.000251044135275
6.21063612583e-05
0.000258731865192
6.9617495209e-05
0.000267189061654
7.77245790593e-05
0.000276758022221
8.6164887273e-05
0.00028845079248
9.40474772336e-05
0.000305487808406
0.000101069426571
0.000328521088452
0.000109093700641
0.000345854079223
3.76312267189e-05
0.000271469404291
-2.5187090266e-07
2.23398561283e-05
-2.04009830955e-07
5.91235654194e-06
0.000195211122715
1.17677881839e-05
0.000201637573577
1.75998991235e-05
0.000207926483966
2.3455241611e-05
0.000213259005975
2.94277300526e-05
0.000217622501255
3.55717525266e-05
0.000221786763573
4.19391179624e-05
0.000226295706955
4.85877410429e-05
0.000231391742291
5.55773086386e-05
0.000237156936968
6.2982518293e-05
0.000243601692667
7.09606005232e-05
0.000250704706081
7.95947038732e-05
0.000258491038967
8.90093729704e-05
0.00026725905757
9.90397165851e-05
0.000278328066802
0.00010865744602
0.000295768464569
0.000117294776976
0.000319800804228
0.000129050309023
0.000334061492562
4.75244665246e-05
0.000264103577368
-1.10785695344e-07
2.34685372186e-05
-3.17813716334e-07
6.58753725948e-06
0.000188628977467
1.31451940065e-05
0.000195086537212
1.96903034124e-05
0.00020138901321
2.62966694939e-05
0.000206661294274
3.30170508172e-05
0.000210911518524
3.99071573355e-05
0.000214905840017
4.70175880061e-05
0.000219192229259
5.44015494479e-05
0.000224003505894
6.21140224441e-05
0.0002294178244
7.02526522641e-05
0.000235415137586
7.89667351745e-05
0.000241918576177
8.8459862727e-05
0.000248926315439
9.8866155256e-05
0.000256743570549
0.000109789740375
0.000267268969436
0.000119833840886
0.00028558678028
0.000129062734286
0.00031046847301
0.000139830683666
0.000323243565847
5.16247827995e-05
0.000255440008439
-5.37584308359e-07
2.52060772504e-05
-9.6021239156e-07
7.21458646758e-06
0.000181421431436
1.44497936913e-05
0.000187859818616
2.16969097769e-05
0.000194151674546
2.90079988032e-05
0.000199361279651
3.64311656025e-05
0.000203500336404
4.40115603113e-05
0.000207337098148
5.17896946997e-05
0.000211422412538
5.97955885176e-05
0.000215991826197
6.80883066396e-05
0.00022109140356
7.6743077218e-05
0.000226703001631
8.58627763095e-05
0.000232699826438
9.56875944783e-05
0.000238995438151
0.000106224450873
0.00024606160484
0.000116879132359
0.000256468834184
0.000126210397308
0.000276091024832
0.000133719471535
0.000302824051969
0.000140397733826
0.00031650054227
5.24788523867e-05
0.000245331506392
1.43784789676e-07
2.46991676825e-05
-1.04899564813e-06
7.84623227371e-06
0.000173583769383
1.57077095142e-05
0.000180008533021
2.36128607331e-05
0.000186258260531
3.15963496849e-05
0.000191391097911
3.9684101822e-05
0.000195426953481
4.79082054011e-05
0.000199126863206
5.62883381256e-05
0.000203052017515
6.48359875239e-05
0.000207436541864
7.35477498028e-05
0.000212339132329
8.24939927897e-05
0.000217687688351
9.16705974151e-05
0.000223398457819
0.000101162420974
0.000229369729833
0.000110792410288
0.000236280546429
0.000119880763953
0.000247184987153
0.000127916743684
0.000267855436787
0.00013392448339
0.000296669207854
0.000132911923817
0.00031743711731
4.1183235296e-05
0.00025268678223
-3.28278265124e-07
3.46541548574e-05
-1.07826079294e-06
8.44653883184e-06
0.000165147039378
1.69181563286e-05
0.000171548452357
2.54537921391e-05
0.000177735927821
3.40803044809e-05
0.000182779706612
4.28076709012e-05
0.000186715912969
5.16508673646e-05
0.000190299364932
6.05906115464e-05
0.000194123202594
6.96418055404e-05
0.00019837620167
7.87464822494e-05
0.000203188622934
8.78674674056e-05
0.000208487554722
9.69482093297e-05
0.000214177196955
0.000105859827369
0.000220309589185
0.000114201597507
0.000227749314865
0.000121914181937
0.00023925036166
0.000130171293133
0.000259391840871
0.000140255526259
0.000286423416615
0.000149154740413
0.000308470414603
5.45574135188e-05
0.00024302188072
-4.34898337854e-06
3.05478413729e-05
5.84273553049e-07
9.00620900444e-06
0.00015615141795
1.80755189601e-05
0.000162491481879
2.72258457483e-05
0.000168599866947
3.64734193612e-05
0.00017354841852
4.58275761444e-05
0.000177379382986
5.5263576743e-05
0.000180880327652
6.48182080298e-05
0.000184580430404
7.43953672778e-05
0.000188789274379
8.39488155565e-05
0.000193587427403
9.33744819958e-05
0.000198979239672
0.000102426366463
0.000204979612352
0.000110870287863
0.000211709487991
0.000118509059913
0.000219906170658
0.000126077011701
0.000231454025289
0.000136182734993
0.000249069258975
0.000151261759564
0.000271181733216
0.000168626948072
0.00029105161095
6.53415791678e-05
0.000219479370723
-5.7177969113e-06
1.83052230701e-05
5.34348460598e-07
9.53191169247e-06
0.000146630273299
1.91690811323e-05
0.000152866763296
2.89207824965e-05
0.000158862623186
3.87776568216e-05
0.000163708148667
4.87549339309e-05
0.000167420158921
5.88451195996e-05
0.000170807588102
6.90005421948e-05
0.000174437382212
7.91746341006e-05
0.000178605967814
8.92841596763e-05
0.000183432727042
9.91862740857e-05
0.000188998772541
0.000108612296165
0.00019540759097
0.000117412392889
0.000202753399304
0.000125531514275
0.000211587542271
0.0001341919059
0.00022256862369
0.000146552488403
0.000236499004822
0.000164939671541
0.000252641789842
0.000186030133979
0.000269909802284
6.41625708135e-05
0.000205826830744
-2.90607441112e-06
2.15873662248e-05
6.15500426774e-07
1.00271853705e-05
0.000136613355569
2.01965158408e-05
0.000142709226599
3.05228604167e-05
0.000148550064859
4.10077229429e-05
0.000153239237523
5.16188401304e-05
0.00015682647582
6.23505821224e-05
0.000160092781696
7.31696704626e-05
0.000163630543143
8.40195714159e-05
0.000167748462072
9.48222040025e-05
0.000172591327322
0.000105434234357
0.000178317804764
0.000115809725603
0.000184898698915
0.000125805718146
0.000192611961821
0.000135518665192
0.00020169470635
0.000145972587031
0.000211913051691
0.000160195481928
0.000222084792612
0.000180422501598
0.000232280091794
0.000203931479562
0.000246348554069
6.66418376165e-05
0.000189155559313
5.22683367407e-07
1.94158542004e-05
1.13940193221e-06
1.04734165842e-05
0.000126149040805
2.11496258215e-05
0.000132043417599
3.20339537059e-05
0.000137678015088
4.31187058063e-05
0.000142168831682
5.43742023587e-05
0.000145586760079
6.5785647161e-05
0.000148696716144
7.73211624372e-05
0.000152106358554
8.892747181e-05
0.000156136737464
0.000100527101229
0.000160961083977
0.000112089913925
0.000166697899023
0.000123538040922
0.000173337422937
0.000134959969461
0.000181066600677
0.000146530015764
0.000189965027168
0.000159240830867
0.000199029208669
0.000174894810586
0.000206269646984
0.000194522330578
0.000212540782573
0.000217101911689
0.00022372300426
6.67724420042e-05
0.000173671703272
-7.56841966384e-07
1.98609537079e-05
3.93263052968e-07
1.08679464695e-05
0.000115288485402
2.20020133063e-05
0.000120917786105
3.34129726792e-05
0.000126277197212
4.50890876703e-05
0.000130504797061
5.70020816492e-05
0.000133687252683
6.91313045686e-05
0.000136580761566
8.1450834968e-05
0.000139796712996
9.39044687634e-05
0.000143679762897
0.000106369054365
0.000148473771515
0.000118888431852
0.000154133108047
0.000131423474295
0.000160714146249
0.000144191827426
0.000168192878585
0.000157256773377
0.000176768372656
0.000171334823021
0.000184804460706
0.000187686740592
0.000189783052155
0.000206325137591
0.000193808275479
0.000227589084485
0.000202417833163
6.91465613257e-05
0.000154387755933
-1.46425277607e-07
1.70512120549e-05
2.68310236842e-07
1.1206271965e-05
0.000104087076635
2.27415699052e-05
0.00010938819112
3.46350967381e-05
0.000114390742826
4.68824579885e-05
0.000118265489291
5.94552735073e-05
0.000121124536743
7.23400137423e-05
0.000123705262968
8.55180557915e-05
0.000126625214869
9.88457727833e-05
0.000130350249766
0.000112308347938
0.000134992105411
0.000125859738678
0.000140553286638
0.000139647857166
0.000146851695345
0.00015384134725
0.000153912604189
0.000168626155234
0.000161868071031
0.000183903438357
0.000169395486129
0.000199929859729
0.000173634650105
0.00021509448715
0.000178563118856
0.000230673581482
0.000186800192746
6.58859494866e-05
0.000138864288567
-1.4052768396e-07
1.49639159248e-05
-3.42816758379e-08
1.14720401841e-05
9.2616912284e-05
2.33344313772e-05
9.75282100911e-05
3.56550926424e-05
0.000102072157217
4.84334013043e-05
0.000105495100921
6.16543710553e-05
0.000107904979816
7.5305168037e-05
0.00011006066295
8.93957428847e-05
0.000112539956109
0.000103729656919
0.000116012746868
0.000118134155831
0.000120583893867
0.000132620948432
0.000126037883498
0.000147663472949
0.000131762667513
0.000163646161873
0.000137862681207
0.000180434445244
0.000144986512244
0.000196825006914
0.000152902220664
0.000211582061616
0.000158778789146
0.000222436969549
0.000167640598492
0.000229573418173
0.00017962515972
6.13968692333e-05
0.000132749200076
3.11931098807e-06
1.43900579481e-05
4.42386477935e-07
1.16324266799e-05
8.09843670111e-05