/*--------------------------------*- C++ -*----------------------------------*\
| =========                 |                                                 |
| \\      /  F ield         | OpenFOAM: The Open Source CFD Toolbox           |
|  \\    /   O peration     | Version:  v2012                                 |
|   \\  /    A nd           | Website:  www.openfoam.com                      |
|    \\/     M anipulation  |                                                 |
\*---------------------------------------------------------------------------*/
FoamFile
{
    version     2.0;
    format      ascii;
    class       surfaceVectorField;
    location    "5.3";
    object      Uf;
}
// * * * * * * * * * * * * * * * * * * * * * * * * * * * * * * * * * * * * * //

dimensions      [0 1 -1 0 0 0 0];


internalField   nonuniform List<vector> 
3840
(
(0.00153323457222 -0.00295398699368 6.63860313622e-22)
(0.00295389861992 -0.00153143619035 7.81229633498e-22)
(0.00169830666099 -0.00613417101052 5.18744731885e-22)
(0.00318007573664 -0.00465083532465 8.39969755537e-22)
(0.00178280236775 -0.00947791570966 4.04916625622e-23)
(0.00334363695159 -0.00790696431896 4.21966106936e-22)
(0.00182307615776 -0.0129137120132 -4.73708688594e-22)
(0.00343572148184 -0.01130010989 -2.07147806108e-22)
(0.0018607886221 -0.0164294971176 -6.98068622416e-22)
(0.00351579645454 -0.0147783900099 -6.2742802591e-22)
(0.00191246844569 -0.0200448068693 -5.75641665861e-22)
(0.00361596404302 -0.0183573432524 -6.9407228847e-22)
(0.00198398909591 -0.0238065531006 -2.13411977719e-22)
(0.00376322894581 -0.0220601331653 -4.37739681742e-22)
(0.00208188058103 -0.027739722893 2.12828228785e-22)
(0.00393527660824 -0.0259179852386 -3.98120658567e-23)
(0.00220575615897 -0.0318772533392 3.53734028095e-22)
(0.00414088501131 -0.0299648243013 2.62106049987e-22)
(0.00234966673242 -0.036247216131 2.16829959875e-22)
(0.00437272641221 -0.0342282808621 2.18702968942e-22)
(0.00249703947484 -0.0408464083089 -1.16274125693e-23)
(0.00460250431329 -0.0387348696494 2.17995710889e-23)
(0.00262097215428 -0.0457142382201 -3.15508362895e-22)
(0.00487156975068 -0.0435604188549 -1.71553337474e-22)
(0.00263464939443 -0.050787168358 -9.51023588532e-22)
(0.00507674860204 -0.0485908771862 -5.36952803021e-22)
(0.0024385203032 -0.0558847812181 -1.24512861845e-21)
(0.00510122568673 -0.0533561505685 -1.73991137048e-21)
(0.00179541384767 -0.0609606962425 1.98014912824e-21)
(0.00507885652691 -0.0591627978465 -2.86399065936e-21)
(0.00162243509952 -0.0655802878965 1.16325189e-20)
(0.00462139153938 -0.0683670647562 -2.17473969565e-21)
(0.0117107142822 -0.0699896205722 4.38385092007e-20)
(0.00440989719133 -0.0784683861608 3.28659097583e-21)
(0.0552153707897 -0.085607503492 6.82669105577e-20)
(0.0156171757449 -0.0831133310466 2.52500934544e-20)
(0.0436270487944 -0.128704114116 3.74069441421e-20)
(0.0430980555572 -0.0742234051464 2.32205404738e-20)
(0.0134876854297 -0.0932893799496 -1.66873002114e-21)
(0.0046683729392 -0.00315229649246 9.57339075413e-22)
(0.0061060780203 -0.0016637632103 1.11797973947e-21)
(0.0049215523562 -0.00639935894082 7.43191130588e-22)
(0.00642700118594 -0.00482853905075 1.10183318196e-21)
(0.00510053403688 -0.00972025736626 1.74326638265e-22)
(0.00666440668629 -0.00808098104612 6.51318821291e-22)
(0.00524147065999 -0.0131437167035 -3.60867143425e-22)
(0.00685909934169 -0.0114577296197 -2.07446434609e-23)
(0.00539032407017 -0.0166785682094 -6.23431691965e-22)
(0.00705068094581 -0.0149259653306 -4.52209748988e-22)
(0.00557534052633 -0.0203346586652 -5.56170304351e-22)
(0.00727269815241 -0.0185101583627 -5.70915051824e-22)
(0.00580724698289 -0.0241239375178 -2.6413976988e-22)
(0.00755411338676 -0.0222236889058 -3.76141704395e-22)
(0.00608928850291 -0.0280942029696 9.4657553448e-24)
(0.007907724789 -0.0260883418912 -1.1117801826e-22)
(0.00641669751277 -0.0322711265975 1.27074990834e-22)
(0.00832202812056 -0.0301416343862 5.46059170421e-23)
(0.00678349802719 -0.0366834730645 2.3672580156e-23)
(0.00878861594694 -0.0344209858876 7.29299806136e-23)
(0.00717246749386 -0.0413794835628 -1.38126353816e-22)
(0.00930232507782 -0.038959086399 -1.22127583586e-22)
(0.00754469934064 -0.0463775735026 -3.929977776e-22)
(0.00987377943874 -0.0438430668 -2.51740981232e-22)
(0.00788581236314 -0.0517223636016 -1.32584058497e-21)
(0.01042573738 -0.0490416963814 -6.83382854567e-22)
(0.00834877778388 -0.057570471806 -3.3587734114e-21)
(0.0109531658921 -0.0541934735133 -2.10462401675e-21)
(0.00875717030481 -0.0642770706792 -7.01887948326e-21)
(0.0117885768852 -0.060767537569 -5.27092436063e-21)
(0.00844684541911 -0.0717488157492 -1.05206676198e-20)
(0.0120949983753 -0.0716932344528 -1.10132021857e-20)
(0.00961274225854 -0.0783841124384 -1.53018247705e-20)
(0.0110457727501 -0.082459540048 -1.53110582924e-20)
(0.0117032102748 -0.0752373441669 -1.97962766296e-20)
(0.0124703019345 -0.0854777134858 -3.86345398661e-20)
(0.0160453430446 -0.0501502018784 -1.58551336895e-20)
(0.0180116798811 -0.0714539709257 -3.9685365216e-20)
(0.00764110849117 -0.0483967579648 -1.92617869418e-20)
(0.00787409069846 -0.00324973602415 1.26247384602e-21)
(0.00935565777999 -0.00169102754528 1.3131213311e-21)
(0.00816885832673 -0.00649736492543 1.00996087267e-21)
(0.00967444870587 -0.00486420078938 1.28068314687e-21)
(0.00842703889893 -0.00981229330318 4.56247539565e-22)
(0.00997915701833 -0.00810593946712 8.75626888337e-22)
(0.00866705266496 -0.0132188419208 -1.12087249024e-22)
(0.0102655183084 -0.0114527123845 2.30801796982e-22)
(0.00892766743451 -0.0167286754228 -3.99693108847e-22)
(0.0105605037641 -0.0148866470849 -1.92946656874e-22)
(0.00924748225034 -0.0203686622944 -3.90886451867e-22)
(0.0109132871169 -0.0184323874676 -3.27004945777e-22)
(0.00964499157841 -0.0241453607348 -2.23179952775e-22)
(0.0113319588543 -0.022105223857 -2.39791719881e-22)
(0.0101229753857 -0.0280900048923 -6.60378565631e-23)
(0.011855362866 -0.0259262057218 -7.78444071359e-23)
(0.0106764129697 -0.0322437677998 4.60906822037e-25)
(0.0124800082084 -0.0299273135502 6.70472849067e-26)
(0.0113014866396 -0.0366449856747 -7.28701831284e-23)
(0.0131945557751 -0.0341514640604 -3.63418209971e-23)
(0.0120078794672 -0.0413450407005 -2.35742211003e-22)
(0.0140067732103 -0.0386416790779 -1.15038080003e-22)
(0.0127863449085 -0.0464112253269 -5.42126058199e-22)
(0.0149445221773 -0.0434973417778 -2.83908194081e-22)
(0.0136182682545 -0.0519795421128 -1.46216628635e-21)
(0.0159985463161 -0.0487507388089 -6.3874121663e-22)
(0.0146918047261 -0.0582283120199 -4.01677496599e-21)
(0.0172060869705 -0.0541139842416 -1.62923541285e-21)
(0.015613941926 -0.0654427902052 -9.26524706305e-21)
(0.0190063540205 -0.0608945823645 -3.9212152385e-21)
(0.0148949773221 -0.073112807934 -1.58035928583e-20)
(0.0197670219486 -0.0719605175166 -9.31853089712e-21)
(0.0130681441392 -0.079070406858 -3.8643773388e-20)
(0.0170040117625 -0.0821298566462 -1.69234793321e-20)
(0.0134868427501 -0.0790064986768 -5.85236284526e-20)
(0.0124053982457 -0.0838027513773 -4.59283024335e-20)
(0.0083075912811 -0.0732291658167 -4.30920184683e-20)
(0.0122358289128 -0.0737560546144 -4.60057878235e-20)
(0.00236150736619 -0.0735207693944 -1.95927230574e-20)
(0.0111207718462 -0.00322449229992 1.33133063195e-21)
(0.0125799464842 -0.00165426826252 1.22949860409e-21)
(0.0114471466463 -0.00645362716151 1.14634916254e-21)
(0.0129033460233 -0.00478754255646 1.25046857846e-21)
(0.0117774517277 -0.00973744162916 6.50181145754e-22)
(0.0132627293536 -0.00798523948948 9.59037195461e-22)
(0.0121139297118 -0.0131021211314 1.49942389132e-22)
(0.0136299985718 -0.0112788826401 4.14422385237e-22)
(0.0124873675222 -0.0165659255596 -1.20258493804e-22)
(0.014024228482 -0.0146512902833 3.78701764928e-23)
(0.0129369406266 -0.0201391187654 -1.75910213791e-22)
(0.0144867665578 -0.0181248384218 -1.03428591041e-22)
(0.0134873206391 -0.0238539440913 -9.44561742419e-23)
(0.0150481322869 -0.0217158107881 -9.91993455784e-23)
(0.0141502802499 -0.0277253014382 -1.17395032879e-23)
(0.0157289149348 -0.025445831124 -1.62935834677e-23)
(0.014930911538 -0.0317844320505 -3.67356805342e-23)
(0.0165457423127 -0.0293396017869 4.69646909012e-24)
(0.0158322719306 -0.0360937986494 -7.85097178712e-23)
(0.0175104059903 -0.0334369049149 -4.90335611327e-23)
(0.0168747956476 -0.0407122462375 -1.63204063081e-22)
(0.0186306561913 -0.0377881994797 -7.65078764147e-23)
(0.0180964946033 -0.045703149832 -3.80523352511e-22)
(0.0199404861729 -0.0424837923154 -2.53914152969e-22)
(0.0195537671724 -0.0512212929959 -8.05810343121e-22)
(0.0215215936038 -0.0475796801974 -6.23439110653e-22)
(0.021464428562 -0.0575326511166 -1.53367568535e-21)
(0.0235218677151 -0.0528535372646 -1.30096545301e-21)
(0.023133992004 -0.0647062174872 -3.97449907257e-21)
(0.0261834771789 -0.0592093609529 -1.83239983543e-21)
(0.0219447774422 -0.072386258657 -1.0438417371e-20)
(0.027449224675 -0.0693384186652 -4.13799711024e-21)
(0.0165351226657 -0.078853075967 -2.42080083775e-20)
(0.0234715030305 -0.0789311010144 -8.15580802358e-21)
(0.0125771076803 -0.0805510362812 -3.34104618044e-20)
(0.0141045263262 -0.0799807249282 -2.39358405748e-20)
(0.00748934332937 -0.0819601709627 -2.25064924126e-20)
(0.0136443169899 -0.0741073602527 -2.38176935017e-20)
(0.00460160277137 -0.0914005773013 -8.55737401726e-21)
(0.0143157293984 -0.00313553057701 1.1486365506e-21)
(0.0157152230471 -0.00159064095925 1.02931832528e-21)
(0.0146769354977 -0.00629961577882 1.06315661138e-21)
(0.0160671349035 -0.00464366629476 1.10078376904e-21)
(0.0150725671259 -0.00951844141447 7.23278434944e-22)
(0.0164812477461 -0.00775923480557 9.21383342071e-22)
(0.0154947312485 -0.0128109243007 3.02350172598e-22)
(0.016922216877 -0.0109703474132 4.77378142255e-22)
(0.0159716745805 -0.0161899908859 5.47000792557e-23)
(0.0174031640661 -0.0142505619661 1.53480200212e-22)
(0.0165414021074 -0.0196720695568 -2.67177228292e-23)
(0.0179690208223 -0.0176205756428 1.27287982756e-23)
(0.0172313061254 -0.023277429648 -2.10367548042e-23)
(0.0186543821073 -0.0210949664955 -1.70602084137e-23)
(0.0180622553441 -0.0270270642579 1.42388910336e-25)
(0.0194810482824 -0.0246941841901 -2.78453858628e-24)
(0.0190528200833 -0.0309489284881 -7.60141150842e-24)
(0.0204722111481 -0.0284391387396 3.74891162549e-25)
(0.0202189157843 -0.0350838609725 -4.70317196762e-23)
(0.0216541574972 -0.0323584991219 -1.7184946081e-23)
(0.0215894860653 -0.0394906333584 -1.67217966302e-22)
(0.0230461229352 -0.036491376286 -7.2173824106e-23)
(0.0232374393479 -0.0442446857275 -4.96829911111e-22)
(0.0247000860544 -0.0408909834124 -2.51442585002e-22)
(0.0253028351808 -0.0494487371317 -1.11859422054e-21)
(0.0267308805722 -0.0455915562153 -8.64880638772e-22)
(0.027991028475 -0.0551992613658 -1.59968960309e-21)
(0.0292771049198 -0.0504286229436 -1.80412303243e-21)
(0.0303446903626 -0.0615508653593 -1.9958978731e-21)
(0.0325388507193 -0.0556603813287 -2.23632719679e-21)
(0.0289887037019 -0.0684747633327 -1.85538776285e-21)
(0.034375418994 -0.063434051247 -1.71039364348e-21)
(0.0217817801451 -0.0757312528295 -7.88364022087e-21)
(0.0307287202962 -0.0719548159952 3.51129566562e-21)
(0.0157723910044 -0.0829114131967 -1.4343072272e-20)
(0.0212852039995 -0.0735573017645 -2.34461882694e-21)
(0.0107378584297 -0.0888420301591 -9.86857510627e-21)
(0.0195748239593 -0.0742887050568 -3.30383432262e-21)
(0.0108408425316 -0.10830891964 5.42289391869e-23)
(0.017414284422 -0.00301936046448 9.8146554371e-22)
(0.0187342803871 -0.00151797013817 8.69879084908e-22)
(0.0178226781571 -0.00608511517583 9.59010499726e-22)
(0.0191325379969 -0.00446511419917 1.02754033868e-21)
(0.0182804362789 -0.00920671413191 6.75483049381e-22)
(0.0196024804709 -0.00746824788417 8.39329867943e-22)
(0.0187784919502 -0.0123956986068 3.28508169868e-22)
(0.020110883094 -0.0105697314634 4.56430775365e-22)
(0.0193455796514 -0.0156615231753 1.11508919232e-22)
(0.0206688308545 -0.013731433425 1.74589591323e-22)
(0.020022458168 -0.0190198570761 2.23863126911e-23)
(0.0213275293669 -0.0169708607596 5.0350722397e-23)
(0.0208382828992 -0.0224842827039 1.19200780426e-24)
(0.0221196008321 -0.0203009464226 3.26049273273e-24)
(0.0218180746378 -0.0260771108407 -2.55203633406e-24)
(0.0230763984797 -0.0237388141733 -3.98386448267e-24)
(0.0229890170618 -0.0298150768748 -9.20864341001e-24)
(0.0242149461441 -0.0273012635947 -8.94239890217e-24)
(0.0243761671425 -0.0337271389729 -4.23270505108e-23)
(0.0255725820856 -0.0310060754706 -1.7117116729e-23)
(0.0260131924577 -0.0378413005331 -1.56398442805e-22)
(0.0271695188994 -0.034877190366 -8.40800093221e-23)
(0.0279686653221 -0.0421923442474 -6.19493312663e-22)
(0.0290569717524 -0.0389293964432 -2.84454642626e-22)
(0.0303798996494 -0.0467329597542 -1.55040945066e-21)
(0.0312769699617 -0.0431319804466 -1.04547762713e-21)
(0.0334158604413 -0.0513995547052 -2.44076062613e-21)
(0.0339485748658 -0.0473260862332 -2.30390339082e-21)
(0.0362577291944 -0.0560383509102 -1.95082296717e-21)
(0.0371815287067 -0.0513347445713 -4.23318715366e-21)
(0.0360451573662 -0.0612819809712 3.65628978498e-21)
(0.039621414893 -0.0564739733259 -5.42072508989e-21)
(0.0311015568605 -0.0690983400346 9.05031705955e-21)
(0.0385458440389 -0.0634957810235 6.47080690963e-21)
(0.0259680053908 -0.0834321339796 8.69461912249e-21)
(0.0356182388955 -0.0658459322455 1.4450744195e-20)
(0.0196068884205 -0.0972075711576 6.61896972284e-21)
(0.0333513578563 -0.072767085069 1.28948598354e-20)
(0.0200864006627 -0.115998117983 9.32530264473e-21)
(0.020393020715 -0.00288867768581 9.15953879876e-22)
(0.0216226111229 -0.00144099822894 8.61731961594e-22)
(0.020856320796 -0.00583162369855 9.07859706895e-22)
(0.0220750856147 -0.00426545734479 9.65890523302e-22)
(0.0213749290481 -0.00883156260532 6.20277593926e-22)
(0.0226020048695 -0.007133957237 7.9663185002e-22)
(0.0219414671563 -0.0118940786252 3.02512196819e-22)
(0.023173036775 -0.0101039982469 4.42839248826e-22)
(0.0225872441809 -0.015024897495 1.13431394488e-22)
(0.0237994713036 -0.0131262103374 1.77762252588e-22)
(0.0233568996427 -0.0182324312261 3.12249024386e-23)
(0.0245352567371 -0.0162145562249 6.09932405863e-23)
(0.0242818071508 -0.0215337960656 -1.9153795542e-24)
(0.0254217996421 -0.0193799669088 1.0612941965e-23)
(0.0253880410128 -0.0249392723252 -1.03742270508e-23)
(0.0264843916739 -0.0226355240763 -4.33322031501e-24)
(0.0267042085299 -0.0284686411888 -1.68508722211e-23)
(0.0277492557807 -0.0259935186278 -1.08323943186e-23)
(0.0282571685764 -0.0321292629861 -5.88700755403e-23)
(0.0292396122934 -0.0294658484995 -2.37176425532e-23)
(0.0300737754326 -0.0359354066576 -2.12136209143e-22)
(0.0309851909532 -0.0330666949274 -1.04809164121e-22)
(0.0321743043665 -0.0398705563406 -7.1043895709e-22)
(0.032998070385 -0.0367980235014 -3.40426380988e-22)
(0.03457210934 -0.043855273112 -1.79897156728e-21)
(0.0352672037215 -0.0406120838946 -1.0097347684e-21)
(0.0373288769511 -0.0476277232588 -4.09632991834e-21)
(0.0377258949497 -0.0443632058997 -2.07910996853e-21)
(0.0402401533745 -0.0509625466077 -7.70308927638e-21)
(0.0405202065049 -0.0478807633675 -4.60435137188e-21)
(0.0421506412023 -0.054766543283 -2.60620796525e-21)
(0.0434277591042 -0.0520382759964 -9.66180891201e-21)
(0.0432024655099 -0.0621224922586 1.1871234045e-20)
(0.0459025554289 -0.057974922826 3.24215626565e-21)
(0.0421235845874 -0.0778448225681 1.86509849079e-20)
(0.0513397240336 -0.0588744491788 7.54835715467e-21)
(0.0324221543136 -0.0938250517165 1.56011927573e-20)
(0.0493327849487 -0.0676351793138 6.34328361811e-21)
(0.0290740120147 -0.0994123390393 7.89515807275e-21)
(0.0232370785239 -0.00274754768923 9.1166860502e-22)
(0.024369778302 -0.0013617349075 8.78420161691e-22)
(0.0237575168345 -0.00554964946378 8.54662666427e-22)
(0.0248767559492 -0.00404837184745 9.23204093194e-22)
(0.0243356010665 -0.00841008470014 6.1919350492e-22)
(0.0254619913988 -0.00676552444069 7.79284188159e-22)
(0.0249638089885 -0.0113275997972 3.18089304595e-22)
(0.0260901571147 -0.00958813817438 4.45400682675e-22)
(0.0256777642719 -0.0143039998215 1.25324098686e-22)
(0.0267756663213 -0.012454487026 1.89836648198e-22)
(0.0265260777985 -0.0173468018798 4.03812801127e-23)
(0.0275782512647 -0.0153766549049 7.08084530149e-23)
(0.0275432655679 -0.0204663415518 8.19510120417e-24)
(0.0285421766657 -0.0183626123782 2.17069741111e-23)
(0.028755346787 -0.0236736959639 -4.79138758289e-24)
(0.0296942609592 -0.0214219511807 1.65456049269e-24)
(0.0301877121275 -0.0269796029151 -1.76991646507e-23)
(0.0310599275268 -0.0245637884707 -4.60058906035e-24)
(0.0318633976319 -0.0303958416409 -6.96567311343e-23)
(0.0326621642746 -0.0277995174843 -2.52564403442e-23)
(0.0337951878662 -0.0339177283226 -2.33099335967e-22)
(0.0345163538441 -0.0311413648935 -1.05967556784e-22)
(0.0359695742303 -0.0375380461786 -6.39722192294e-22)
(0.036624150736 -0.0345939571768 -3.29342295235e-22)
(0.0383141560254 -0.0412079479299 -1.28987316964e-21)
(0.0389424102627 -0.0381494264538 -7.94398691232e-22)
(0.0408237421641 -0.0448561014038 -2.58713142206e-21)
(0.0413786950169 -0.0417441209135 -1.40198157406e-21)
(0.0437068194838 -0.048440160578 -6.56307100751e-21)
(0.0441079206995 -0.0453630428741 -2.70009342793e-21)
(0.0473229646242 -0.0523343192947 -3.81344468111e-21)
(0.0473241341761 -0.0499602644778 -6.9716121873e-21)
(0.0534686900589 -0.0578178009388 -1.08072062471e-21)
(0.0513867565693 -0.055229409534 -2.46988782801e-21)
(0.0556394596432 -0.066744612648 -4.75934413513e-21)
(0.0602651505514 -0.0531370011268 -7.33464253896e-21)
(0.0421299441291 -0.0736128092408 -1.36275106648e-21)
(0.0562027394419 -0.0581534781259 -7.92415906199e-21)
(0.0294402737273 -0.0536970470526 1.2685722056e-21)
(0.0259348505464 -0.00259490111423 8.89955649865e-22)
(0.0269642811704 -0.00128097419366 7.43377073527e-22)
(0.0265119477993 -0.00524392690199 8.47825614926e-22)
(0.0275253358075 -0.00381482210743 8.01196254795e-22)
(0.0271466871328 -0.00795128985392 6.05491365914e-22)
(0.0281688903417 -0.00636821837392 6.98940231181e-22)
(0.0278296935431 -0.0107102547692 3.17148026278e-22)
(0.028848707481 -0.00903188074653 4.12434013985e-22)
(0.0286013864164 -0.013520340098 1.35321002527e-22)
(0.029585522493 -0.0117297603826 1.78292382306e-22)
(0.0295149344366 -0.0163840094128 5.21341470134e-23)
(0.0304420694802 -0.0144741997353 6.69391420028e-23)
(0.0306075910509 -0.0193088585421 1.51664333996e-23)
(0.0314678120746 -0.0172701659106 2.14475541405e-23)
(0.03190604319 -0.0223053061927 1.84535901523e-24)
(0.0326930195554 -0.0201239030484 3.916905306e-24)
(0.0334344191915 -0.0253784577646 -1.21578647538e-23)
(0.034137578424 -0.0230433362556 -2.50876370575e-24)
(0.0352131010922 -0.0285464388701 -6.15672659935e-23)
(0.0358358459867 -0.0260395276685 -1.93601491882e-23)
(0.0372462460292 -0.0318165070576 -2.02210516052e-22)
(0.0377950936401 -0.0291270984609 -9.46740587988e-23)
(0.0395123681603 -0.0351959703289 -4.84018794173e-22)
(0.0400089108744 -0.032315439582 -2.84188383026e-22)
(0.0419573058375 -0.0387039516551 -9.06507095646e-22)
(0.042455238629 -0.0356188141458 -5.997302541e-22)
(0.044619050189 -0.0424308388277 -1.51494357992e-21)
(0.0451097954556 -0.0390501450391 -1.04317942939e-21)
(0.0476955368378 -0.0464415322422 -3.10863460772e-21)
(0.0481219034944 -0.0426582740909 -1.77115580828e-21)
(0.0512925050487 -0.0507206828158 -5.6280553342e-21)
(0.0516052677314 -0.0474315711581 -4.06607268959e-21)
(0.0578066726712 -0.0539044599301 -8.72380974226e-21)
(0.0545711644725 -0.0518951078855 -6.47616780691e-21)
(0.0585970968872 -0.0555495868243 -1.04994574658e-20)
(0.0619095271265 -0.0479301752582 -1.28806445073e-20)
(0.0426827975083 -0.0289428486004 -5.29283578991e-21)
(0.0295972320935 -0.0479583912987 -1.31211936053e-20)
(0.0280495231913 -0.0175298456484 -3.48869905191e-21)
(0.0284776893605 -0.00243207785116 6.54617678456e-22)
(0.0293959647411 -0.00119627092232 4.55805703669e-22)
(0.0291091972573 -0.00492868479614 6.52310871049e-22)
(0.030021506096 -0.00356608352322 6.03009435643e-22)
(0.0297941344795 -0.00746555652035 5.05882879251e-22)
(0.0307053043188 -0.00594926861782 5.55492589971e-22)
(0.0305260947685 -0.0100497908273 2.73578370013e-22)
(0.0314325242575 -0.00844186522446 3.40647753174e-22)
(0.0313461699441 -0.0126799154199 1.09910521782e-22)
(0.0322153893685 -0.0109618409009 1.466995236e-22)
(0.032312374527 -0.0153557771312 3.625254913e-23)
(0.0331180215002 -0.013519903249 4.81174803628e-23)
(0.0334652825189 -0.0180811166961 1.01980260469e-23)
(0.0341938001152 -0.016118400818 1.25247602788e-23)
(0.0348321186202 -0.0208607144473 -4.3721741498e-25)
(0.035474666978 -0.0187630773666 1.01343036747e-24)
(0.0364399685739 -0.0237040811387 -9.71104814011e-24)
(0.0369847148477 -0.0214594125979 -1.15312880374e-24)
(0.0383111491899 -0.0266215120284 -5.24669419934e-23)
(0.0387582485524 -0.0242152856273 -1.45817467183e-23)
(0.0404460248544 -0.0296346216519 -1.76651925772e-22)
(0.0408156264504 -0.0270413209511 -9.14039210596e-23)
(0.0428305898088 -0.032751009338 -3.99899842952e-22)
(0.043129851904 -0.0299410619251 -2.6432422213e-22)
(0.0454717859562 -0.035989678294 -7.36402587839e-22)
(0.04569806952 -0.0329241866508 -5.43261308103e-22)
(0.0484814853803 -0.039490526839 -1.29939165774e-21)
(0.0486142498862 -0.0360284015219 -9.28838033228e-22)
(0.0518289826933 -0.0433989798002 -2.72859389015e-21)
(0.0520331562839 -0.0392548930844 -1.59181248229e-21)
(0.0545359142302 -0.0471478112563 -4.91418516231e-21)
(0.0553557789197 -0.0432711112054 -2.17748449181e-21)
(0.0584162724901 -0.0490362312387 -1.0633002572e-20)
(0.0564601132098 -0.0468169384961 -5.98312488786e-21)
(0.0328120532493 -0.0466754760986 -1.55023806469e-20)
(0.0595482201918 -0.0424452426564 -1.33656863551e-20)
(0.0184309463098 -0.0188453336057 -1.13170568673e-20)
(0.00176824821178 -0.0425162218652 -1.41661375833e-20)
(0.0374170663062 -0.021512597129 -7.05063689163e-21)
(0.0308553717663 -0.00226256552917 4.04197460855e-22)
(0.031658166087 -0.00110532295949 2.23807592224e-22)
(0.0315385506426 -0.00458017616169 5.06191154565e-22)
(0.0323387164826 -0.00330411675913 4.66394161221e-22)
(0.0322684482025 -0.00694574789618 3.90257463894e-22)
(0.0330704503707 -0.00551342768877 4.56678445184e-22)
(0.03304370449 -0.00935337661198 2.13768906762e-22)
(0.0338397496509 -0.00782376202569 2.87264061541e-22)
(0.0339044279146 -0.011799006711 8.49064821811e-23)
(0.0346607436079 -0.0101587077323 1.21237226563e-22)
(0.0349126349597 -0.0142809784219 2.43896915117e-23)
(0.0355999895687 -0.0125245169259 3.62641761566e-23)
(0.0361137172191 -0.0167987450718 3.3401645994e-24)
(0.0367120394222 -0.0149202222821 1.07467800207e-23)
(0.03753652433 -0.0193671117273 2.97518978709e-25)
(0.0380446023716 -0.017355676375 -7.56598811659e-24)
(0.0392068385283 -0.0219873619817 -6.02382738192e-24)
(0.0396080247877 -0.0198319428718 -2.86584024835e-24)
(0.041148428311 -0.0246586719592 -5.35187257845e-23)
(0.0414333520444 -0.0223446982798 -1.23935327133e-23)
(0.0433619798276 -0.0273752545787 -1.79076217417e-22)
(0.0435382182417 -0.024896340895 -9.70296427938e-23)
(0.0458411852495 -0.0301571445608 -4.07685687281e-22)
(0.0459153947997 -0.027480826659 -2.34793525923e-22)
(0.0486480075214 -0.0330236141289 -7.35696753491e-22)
(0.0485678857534 -0.0300914449867 -4.80376878662e-22)
(0.0519279349107 -0.0360208727326 -1.22125885778e-21)
(0.0516144055119 -0.0327467070205 -8.87391632856e-22)
(0.055271340116 -0.0391851244214 -1.04070308395e-21)
(0.0551996522105 -0.0353597859506 -1.78433924449e-21)
(0.0569109272304 -0.0419297085989 -3.24642421736e-21)
(0.0581017104739 -0.0380345236312 -1.61108458821e-21)
(0.0574801364046 -0.0431052290057 -8.71580867093e-21)
(0.0576360547535 -0.0407607929709 -6.74788969592e-21)
(0.0293484524773 -0.0401341806394 -1.20294432915e-20)
(0.056577351419 -0.0363630807407 -1.19166532292e-20)
(0.018320359773 -0.037523934773 -9.89971760761e-21)
(-0.000842553509946 -0.0393626145656 -1.30041850875e-20)
(0.0328454561868 -0.0357580504064 -7.72394253823e-21)
(0.0330560978281 -0.00208585208035 2.8600429259e-22)
(0.0337437121788 -0.0010091035949 1.55880426052e-22)
(0.0337894246234 -0.0042218383057 4.1688145184e-22)
(0.0344743679055 -0.00303054661875 3.42203097167e-22)
(0.0345633356241 -0.00640588083965 3.5368504283e-22)
(0.0352541260633 -0.00506133801121 4.07204325165e-22)
(0.035376413611 -0.00863080706507 1.94732381342e-22)
(0.0360643104377 -0.00718323675842 2.68403020088e-22)
(0.0362716135577 -0.0108832870846 7.25949205384e-23)
(0.0369129352874 -0.00932731932795 1.11800155765e-22)
(0.0373145371051 -0.0131702903102 2.26212646657e-23)
(0.0378869092864 -0.0114976578435 3.0028470055e-23)
(0.0385521075667 -0.0154919615376 -1.59372695288e-25)
(0.039033964292 -0.0136909999857 1.14981664271e-23)
(0.0400170831009 -0.0178353161133 -1.07293473437e-23)
(0.0403890848374 -0.0159134526263 -8.47656358039e-24)
(0.0417301049604 -0.0202149801413 -9.23554557978e-24)
(0.0419897184209 -0.0181639079695 -1.35104042548e-24)
(0.0437091967752 -0.0226194135319 -5.59044497227e-23)
(0.0438405386356 -0.0204286754386 -1.46807534687e-23)
(0.0459590541637 -0.0250480754614 -1.527469513e-22)
(0.0459711089033 -0.0227040240858 -8.86738892171e-23)
(0.0484783616459 -0.027487124236 -3.07484717304e-22)
(0.0483570979978 -0.0249791588181 -1.62167408336e-22)
(0.0513314516709 -0.0299187125109 -6.32071758027e-22)
(0.0510019341145 -0.0272296030239 -3.73414822653e-22)
(0.0546378983788 -0.0322943398637 -1.45047201957e-21)
(0.0539921772559 -0.0294324279666 -7.466438323e-22)
(0.0577407515354 -0.0344792855899 -2.35472074875e-21)
(0.057386260684 -0.0314093263742 -1.95103686515e-21)
(0.0585605844589 -0.036189026634 -5.11255006678e-21)
(0.059812456182 -0.0328646425653 -4.59939485082e-21)
(0.0567332348822 -0.0371234260787 -9.94873425419e-21)
(0.0585707624666 -0.0349369693242 -5.44409844968e-21)
(0.0294402076752 -0.0355092144871 -1.28913950252e-20)
(0.0549632875237 -0.0306470114609 -1.15265231778e-20)
(0.0157146407806 -0.041640456121 -1.08284100182e-20)
(0.00528924840673 -0.0353371405613 -1.26433747447e-20)
(0.0243355983195 -0.0356410337206 -7.12320293805e-21)
(0.0350739152521 -0.00190528401265 2.12079230629e-22)
(0.0356487744505 -0.000910093232446 5.14386692028e-23)
(0.035855511273 -0.00385350887907 3.32525970492e-22)
(0.0364223491616 -0.00274752064114 2.20262987989e-22)
(0.0366731231046 -0.00585020148111 3.21922302423e-22)
(0.0372505371111 -0.00459383273818 3.09031990666e-22)
(0.0375201053823 -0.00788623623531 1.85470794511e-22)
(0.0381000406119 -0.00652377055796 2.19686069651e-22)
(0.0384429094296 -0.0099497589957 6.92337052815e-23)
(0.038976184726 -0.00847528540515 9.18294592133e-23)
(0.0395137333431 -0.0120294288022 1.89053718164e-23)
(0.0399664114976 -0.0104484478375 2.54043084963e-23)
(0.0407777989275 -0.0141330838296 3.18097554202e-24)
(0.0411376815225 -0.0124389457712 9.4624223485e-24)
(0.0422673740747 -0.0162597637127 9.01743337783e-25)
(0.0425163486396 -0.0144435876904 -9.86802919462e-24)
(0.0440017814479 -0.0184055403109 -6.79624831438e-24)
(0.0441367515373 -0.0164646739043 -1.82451296521e-24)
(0.045992134816 -0.0205554969724 -4.74501929631e-23)
(0.0459920021391 -0.0184904783139 -1.43585682853e-23)
(0.048244280652 -0.022691050795 -9.80943462538e-23)
(0.0481093366769 -0.0205049568534 -8.64178581828e-23)
(0.0507439186625 -0.0248139478551 -2.28097513686e-22)
(0.0504816937286 -0.0225016389709 -1.32471138493e-22)
(0.0535076000405 -0.0268695761088 -4.87986896927e-22)
(0.0530591654484 -0.0244476465985 -3.70864534448e-22)
(0.0565740977782 -0.0287228751552 -1.24720867788e-21)
(0.0558468908942 -0.0262892176951 -6.4634400162e-22)
(0.0593080106277 -0.0301434370968 -4.19571096722e-21)
(0.0588079256595 -0.0278185073456 -1.92309702044e-21)
(0.0597994817498 -0.0311472165566 -4.93094323372e-21)
(0.0608169025893 -0.0285866640151 -3.73818563778e-21)
(0.056903177663 -0.0322616372148 -7.02188737329e-21)
(0.0596853748621 -0.0302767565965 -3.44091054149e-21)
(0.0295326108528 -0.0324314722593 -1.12785028973e-20)
(0.0551332249109 -0.0261917457743 -7.96649863456e-21)
(0.01390579169 -0.0312676030975 -8.93816766459e-21)
(0.00412584197972 -0.0326413961051 -8.32688069551e-21)
(0.0217111844962 -0.0344457993205 -4.47382642305e-21)
(0.0369057543155 -0.0017150805408 5.96224265625e-23)
(0.0373637366506 -0.000811442610231 -1.80088491545e-22)
(0.0377334283344 -0.00347403102853 1.96769008163e-22)
(0.0381811659496 -0.00245717099316 -8.72427351777e-26)
(0.0385929576321 -0.00528183180368 2.06795757894e-22)
(0.0390581607459 -0.00411396367579 1.17248066535e-22)
(0.039470892127 -0.00712051581672 1.26044734353e-22)
(0.0399385037663 -0.00585094051028 1.02658417607e-22)
(0.0404161933068 -0.00898479721993 4.8000062428e-23)
(0.0408402251137 -0.0076077066504 3.98340474592e-23)
(0.0415061251771 -0.0108669968014 1.59613590284e-23)
(0.041848410224 -0.00937891355704 1.04606483888e-23)
(0.0427882799244 -0.0127662893488 -3.58658238815e-24)
(0.043036871212 -0.0111615208773 3.85211809703e-24)
(0.0442899610671 -0.0146768633602 -1.25942854976e-23)
(0.0444270862707 -0.0129523385115 -1.65202122895e-23)
(0.0460297670581 -0.0165812626935 -9.38683293609e-24)
(0.0460414033566 -0.0147524586073 -7.46628749003e-24)
(0.0480145463471 -0.0184905941851 -5.3326233505e-23)
(0.0479019174579 -0.0165558023901 2.47747919667e-24)
(0.0502456143077 -0.0203821311239 -1.20794650422e-22)
(0.0500018320289 -0.0183331712032 -8.6337418702e-23)
(0.0526926342816 -0.0222262190966 -2.75238159254e-22)
(0.0523264842978 -0.0200843182732 -1.03814079782e-22)
(0.0553084538581 -0.0239815689697 -5.29221639141e-22)
(0.0548152145872 -0.0217882946343 -2.89259569811e-22)
(0.0580352439728 -0.0255243119878 -1.32223234418e-21)
(0.0573902994364 -0.0233860999398 -3.74785426157e-22)
(0.0603474230781 -0.0266512202206 -1.46557169101e-21)
(0.0599353551268 -0.0247221784297 -8.27753558503e-22)
(0.0608014085559 -0.0274340288564 -2.24815294555e-21)
(0.0616000493194 -0.0252855147409 1.28176018807e-21)
(0.0581361502632 -0.0286039638688 -4.38552180276e-21)
(0.0608553933402 -0.0268965337243 -1.30166674392e-21)
(0.0300430925433 -0.030664952963 -5.01487643278e-21)
(0.0571942811718 -0.0227543940831 -3.95063299209e-21)