/*--------------------------------*- C++ -*----------------------------------*\
| =========                 |                                                 |
| \\      /  F ield         | OpenFOAM: The Open Source CFD Toolbox           |
|  \\    /   O peration     | Version:  v2012                                 |
|   \\  /    A nd           | Website:  www.openfoam.com                      |
|    \\/     M anipulation  |                                                 |
\*---------------------------------------------------------------------------*/
FoamFile
{
    version     2.0;
    format      ascii;
    class       volScalarField;
    location    "3.1";
    object      ddt0(epsilon);
}
// * * * * * * * * * * * * * * * * * * * * * * * * * * * * * * * * * * * * * //

dimensions      [0 2 -4 0 0 0 0];


internalField   nonuniform List<scalar> 
164
(
-0.00174103559186
-0.00174571733289
-0.00175045355402
-0.00175444497247
-0.00175613433004
-0.00175313145086
-0.00174264335985
-0.00167476378603
-0.000749560219965
0.00791722273564
0.0665717542045
0.188939012912
-0.00174193230529
-0.00174687529904
-0.00175198937089
-0.00175655667174
-0.00175910084075
-0.00175730875416
-0.0017532620939
-0.0017605779459
-0.00136516922233
0.00502852527199
0.0791297413079
0.539861215732
-0.00175335689082
-0.00175865194786
-0.00176231084855
-0.00176176520015
-0.0017597444888
-0.00179875904468
-0.00165769543205
0.00281926564361
0.0647755945579
0.757713521541
-0.00175458664017
-0.00176072957123
-0.00176583578769
-0.00176684806072
-0.00176129817392
-0.00177359047481
-0.00154367526746
0.00360413251303
0.0674636154648
0.646491705097
-0.00175567820528
-0.00176280713814
-0.00176986534145
-0.00177516289065
-0.00177367355276
-0.00175190724261
-0.0011186018922
0.00881739452984
0.0788013604742
0.101985214529
-0.00175661042153
-0.00176488987347
-0.00177486661402
-0.00178943123446
-0.00181650664576
-0.00183500115694
-0.00102300830567
0.01219431108
0.0907274948896
0.115703988404
-0.0017572733626
-0.00176691566375
-0.00178123085933
-0.00181479818657
-0.0019172168311
-0.00215519856731
-0.00185898730232
0.0102463403057
0.095260929059
0.201009985105
-0.00175796821113
-0.00176911993998
-0.00179073174012
-0.00185578533625
-0.00208702377157
-0.00271126581437
-0.00311407899687
0.00532084066244
0.0392592662745
0.10781387638
-0.00175789176527
-0.0017719965216
-0.00180552153045
-0.00191121060582
-0.00229054945952
-0.00334099376902
-0.00472851792823
-0.00218530008883
-0.00196071047306
-0.608645588359
-0.00175732959993
-0.00177311874752
-0.00181493727803
-0.00197657119551
-0.00245773881356
-0.00387350613074
-0.00665809466178
-0.00908682217933
-0.0261834147265
-0.32053251138
-0.00175622129074
-0.00177154861538
-0.00181223338563
-0.0019627510859
-0.00252750212085
-0.00420669935889
-0.00761315341
-0.0110878086303
-0.0103820576616
-0.0661112946658
-0.00175491857786
-0.00176770302806
-0.00179864817087
-0.00192600382735
-0.00246197655459
-0.00426067422965
-0.00824602790991
-0.0131594473518
-0.0120505983709
-0.020641499106
-0.00175556204826
-0.00177114032493
-0.00181451283148
-0.00199736270075
-0.00270937521779
-0.00479996110303
-0.00931671826005
-0.0159533426831
-0.023459256842
-0.0743542797139
-0.00175718007908
-0.00177871608356
-0.00184922631561
-0.00213426565619
-0.00309375344385
-0.00550744426375
-0.0107181659732
-0.022390229734
-0.0614536867672
-0.260561347415
-0.00175834361586
-0.00178097123311
-0.0018524283164
-0.00213113407296
-0.00306837624266
-0.00558560416008
-0.0117965232482
-0.0275967021373
-0.0787306315498
-0.710652937259
-0.00175841140563
-0.00177346517844
-0.00180376665167
-0.00193579514222
-0.0025866975055
-0.00527449134666
-0.0131093594066
-0.0316326488928
-0.0792259461934
-0.0969272354201
)
;

boundaryField
{
    back
    {
        type            calculated;
        value           nonuniform List<scalar> 
164
(
-0.00174103559186
-0.00174571733289
-0.00175045355402
-0.00175444497247
-0.00175613433004
-0.00175313145086
-0.00174264335985
-0.00167476378603
-0.000749560219965
0.00791722273564
0.0665717542045
0.188939012912
-0.00174193230529
-0.00174687529904
-0.00175198937089
-0.00175655667174
-0.00175910084075
-0.00175730875416
-0.0017532620939
-0.0017605779459
-0.00136516922233
0.00502852527199
0.0791297413079
0.539861215732
-0.00175335689082
-0.00175865194786
-0.00176231084855
-0.00176176520015
-0.0017597444888
-0.00179875904468
-0.00165769543205
0.00281926564361
0.0647755945579
0.757713521541
-0.00175458664017
-0.00176072957123
-0.00176583578769
-0.00176684806072
-0.00176129817392
-0.00177359047481
-0.00154367526746
0.00360413251303
0.0674636154648
0.646491705097
-0.00175567820528
-0.00176280713814
-0.00176986534145
-0.00177516289065
-0.00177367355276
-0.00175190724261
-0.0011186018922
0.00881739452984
0.0788013604742
0.101985214529
-0.00175661042153
-0.00176488987347
-0.00177486661402
-0.00178943123446
-0.00181650664576
-0.00183500115694
-0.00102300830567
0.01219431108
0.0907274948896
0.115703988404
-0.0017572733626
-0.00176691566375
-0.00178123085933
-0.00181479818657
-0.0019172168311
-0.00215519856731
-0.00185898730232
0.0102463403057
0.095260929059
0.201009985105
-0.00175796821113
-0.00176911993998
-0.00179073174012
-0.00185578533625
-0.00208702377157
-0.00271126581437
-0.00311407899687
0.00532084066244
0.0392592662745
0.10781387638
-0.00175789176527
-0.0017719965216
-0.00180552153045
-0.00191121060582
-0.00229054945952
-0.00334099376902
-0.00472851792823
-0.00218530008883
-0.00196071047306
-0.608645588359
-0.00175732959993
-0.00177311874752
-0.00181493727803
-0.00197657119551
-0.00245773881356
-0.00387350613074
-0.00665809466178
-0.00908682217933
-0.0261834147265
-0.32053251138
-0.00175622129074
-0.00177154861538
-0.00181223338563
-0.0019627510859
-0.00252750212085
-0.00420669935889
-0.00761315341
-0.0110878086303
-0.0103820576616
-0.0661112946658
-0.00175491857786
-0.00176770302806
-0.00179864817087
-0.00192600382735
-0.00246197655459
-0.00426067422965
-0.00824602790991
-0.0131594473518
-0.0120505983709
-0.020641499106
-0.00175556204826
-0.00177114032493
-0.00181451283148
-0.00199736270075
-0.00270937521779
-0.00479996110303
-0.00931671826005
-0.0159533426831
-0.023459256842
-0.0743542797139
-0.00175718007908
-0.00177871608356
-0.00184922631561
-0.00213426565619
-0.00309375344385
-0.00550744426375
-0.0107181659732
-0.022390229734
-0.0614536867672
-0.260561347415
-0.00175834361586
-0.00178097123311
-0.0018524283164
-0.00213113407296
-0.00306837624266
-0.00558560416008
-0.0117965232482
-0.0275967021373
-0.0787306315498
-0.710652937259
-0.00175841140563
-0.00177346517844
-0.00180376665167
-0.00193579514222
-0.0025866975055
-0.00527449134666
-0.0131093594066
-0.0316326488928
-0.0792259461934
-0.0969272354201
)
;
    }
    sides
    {
        type            calculated;
        value           nonuniform List<scalar> 0();
    }
    bottom
    {
        type            calculated;
        value           nonuniform List<scalar> 0();
    }
    front
    {
        type            calculated;
        value           nonuniform List<scalar> 
164
(
-0.00174103559186
-0.00174571733289
-0.00175045355402
-0.00175444497247
-0.00175613433004
-0.00175313145086
-0.00174264335985
-0.00167476378603
-0.000749560219965
0.00791722273564
0.0665717542045
0.188939012912
-0.00174193230529
-0.00174687529904
-0.00175198937089
-0.00175655667174
-0.00175910084075
-0.00175730875416
-0.0017532620939
-0.0017605779459
-0.00136516922233
0.00502852527199
0.0791297413079
0.539861215732
-0.00175335689082
-0.00175865194786
-0.00176231084855
-0.00176176520015
-0.0017597444888
-0.00179875904468
-0.00165769543205
0.00281926564361
0.0647755945579
0.757713521541
-0.00175458664017
-0.00176072957123
-0.00176583578769
-0.00176684806072
-0.00176129817392
-0.00177359047481
-0.00154367526746
0.00360413251303
0.0674636154648
0.646491705097
-0.00175567820528
-0.00176280713814
-0.00176986534145
-0.00177516289065
-0.00177367355276
-0.00175190724261
-0.0011186018922
0.00881739452984
0.0788013604742
0.101985214529
-0.00175661042153
-0.00176488987347
-0.00177486661402
-0.00178943123446
-0.00181650664576
-0.00183500115694
-0.00102300830567
0.01219431108
0.0907274948896
0.115703988404
-0.0017572733626
-0.00176691566375
-0.00178123085933
-0.00181479818657
-0.0019172168311
-0.00215519856731
-0.00185898730232
0.0102463403057
0.095260929059
0.201009985105
-0.00175796821113
-0.00176911993998
-0.00179073174012
-0.00185578533625
-0.00208702377157
-0.00271126581437
-0.00311407899687
0.00532084066244
0.0392592662745
0.10781387638
-0.00175789176527
-0.0017719965216
-0.00180552153045
-0.00191121060582
-0.00229054945952
-0.00334099376902
-0.00472851792823
-0.00218530008883
-0.00196071047306
-0.608645588359
-0.00175732959993
-0.00177311874752
-0.00181493727803
-0.00197657119551
-0.00245773881356
-0.00387350613074
-0.00665809466178
-0.00908682217933
-0.0261834147265
-0.32053251138
-0.00175622129074
-0.00177154861538
-0.00181223338563
-0.0019627510859
-0.00252750212085
-0.00420669935889
-0.00761315341
-0.0110878086303
-0.0103820576616
-0.0661112946658
-0.00175491857786
-0.00176770302806
-0.00179864817087
-0.00192600382735
-0.00246197655459
-0.00426067422965
-0.00824602790991
-0.0131594473518
-0.0120505983709
-0.020641499106
-0.00175556204826
-0.00177114032493
-0.00181451283148
-0.00199736270075
-0.00270937521779
-0.00479996110303
-0.00931671826005
-0.0159533426831
-0.023459256842
-0.0743542797139
-0.00175718007908
-0.00177871608356
-0.00184922631561
-0.00213426565619
-0.00309375344385
-0.00550744426375
-0.0107181659732
-0.022390229734
-0.0614536867672
-0.260561347415
-0.00175834361586
-0.00178097123311
-0.0018524283164
-0.00213113407296
-0.00306837624266
-0.00558560416008
-0.0117965232482
-0.0275967021373
-0.0787306315498
-0.710652937259
-0.00175841140563
-0.00177346517844
-0.00180376665167
-0.00193579514222
-0.0025866975055
-0.00527449134666
-0.0131093594066
-0.0316326488928
-0.0792259461934
-0.0969272354201
)
;
    }
    atmosphere
    {
        type            calculated;
        value           nonuniform List<scalar> 
16
(
-0.00450432365301
0.16085213097
-0.269386535968
-0.0825030603414
-5.78296553099e-35
-0.000414792099046
-0.00763834605825
0.00572713330311
-2.16099061602
-0.0840928895713
-1.45872679878e-05
1.81935899019
-0.0742714322037
-0.273224823677
-2.39845750716
3.34012217701
)
;
    }
    floatingObject
    {
        type            calculated;
        value           nonuniform List<scalar> 0();
    }
    procBoundary5to0
    {
        type            processor;
        value           nonuniform List<scalar> 
12
(
-0.00173989525772
-0.00174432198544
-0.00174869413896
-0.00175210777633
-0.00175308271413
-0.00174918647783
-0.0017317622847
-0.00159028045014
-0.000100923507663
0.0112568434419
0.0674214083913
0.109739310636
)
;
    }
    procBoundary5to3
    {
        type            processor;
        value           nonuniform List<scalar> 10(-0.00176218880684 -0.0017785904281 -0.00180487324035 -0.00191201724689 -0.00251355224494 -0.00548226167798 -0.0156771107246 -0.0419868820581 -0.108371188308 0.328581210966);
    }
    procBoundary5to4
    {
        type            processor;
        value           nonuniform List<scalar> 
18
(
-0.00173674929617
-0.0017374478292
-0.00174256164511
-0.00174780303155
-0.00174780303155
-0.0017485335963
-0.00174905711547
-0.00174936061447
-0.00174933768023
-0.00174917963114
-0.0017484949087
-0.00174749223278
-0.0017462998437
-0.00174521272359
-0.00174478007964
-0.00174471985487
-0.00174478504896
-0.00174527548912
)
;
    }
}


// ************************************************************************* //
