/*--------------------------------*- C++ -*----------------------------------*\
| =========                 |                                                 |
| \\      /  F ield         | OpenFOAM: The Open Source CFD Toolbox           |
|  \\    /   O peration     | Version:  v2012                                 |
|   \\  /    A nd           | Website:  www.openfoam.com                      |
|    \\/     M anipulation  |                                                 |
\*---------------------------------------------------------------------------*/
FoamFile
{
    version     2.0;
    format      ascii;
    class       volScalarField;
    location    "3.4";
    object      ddt0(epsilon);
}
// * * * * * * * * * * * * * * * * * * * * * * * * * * * * * * * * * * * * * //

dimensions      [0 2 -4 0 0 0 0];


internalField   nonuniform List<scalar> 
167
(
-0.000600868605388
-0.000602176385869
-0.000601904596939
-0.000598721493854
-0.000591847509966
-0.000571279746768
-0.000437946647398
0.000507477229822
0.00613449509052
0.0304384019581
0.0733196830201
0.00790566578101
-0.000634173901546
-0.000636329140247
-0.000637300743911
-0.000635970760599
-0.000630504835436
-0.000605773046586
-0.000451583843935
0.00042160327066
0.00510710930991
0.0266097530831
0.0430587781659
0.00789072306337
-0.000687658419493
-0.00068927978594
-0.000689439693644
-0.00068711235021
-0.000679926662413
-0.000649073433953
-0.000475415547555
0.00038580335817
0.00462089777741
0.0255722375887
0.0473263034835
0.0104304074564
-0.000706484994151
-0.000706302341286
-0.000703721297798
-0.000696694845318
-0.000665990643739
-0.000488302830432
0.000374285660464
0.00419607026125
0.0206306249885
0.00879112757297
-0.00257179763136
-0.00071246384172
-0.000710404111603
-0.000705097517373
-0.000678547104958
-0.000504670293013
0.000365288269543
0.00370276858584
0.0121282379902
-0.010313331175
-0.0175714430358
-0.00071588725219
-0.000714785866089
-0.000712049981569
-0.000692105136611
-0.000531984634386
0.000308793023936
0.00313931163631
0.00650389646773
0.0289186791996
0.0123845425467
-0.000718866959598
-0.000718875802889
-0.000718920097178
-0.000706524383046
-0.000571705411191
0.00016252674041
0.00230976359031
0.00199968981182
0.0275258930043
0.0276248594071
-0.000721920866173
-0.000722979757748
-0.000725485928404
-0.000720187831753
-0.000614316432276
-3.30995202112e-05
0.0012993511318
-0.00184901123935
-0.00198076210436
0.520976818979
-0.000725081000476
-0.000727113551148
-0.000731747755142
-0.000732367774248
-0.000652494699458
-0.000208512820652
0.000498043094598
-0.00444859951236
-0.0172440809763
0.559918206951
-0.000728244991603
-0.000731054420216
-0.00073743481551
-0.000743137967429
-0.000684683524003
-0.000344317661547
-6.80967844713e-05
-0.00601600805045
-0.0208419235562
0.610016717872
-0.000731324809496
-0.000734657486699
-0.000742059106411
-0.000751011057132
-0.000708788051976
-0.000438937718626
-0.000277794620465
-0.00507863421153
-0.0102281505156
0.0470603829729
-0.000734240538744
-0.00073779321709
-0.000745216611818
-0.000754114979257
-0.000719703944407
-0.000514906219227
-0.000501188789709
-0.00501541197195
-0.0210770380941
-0.00484312698161
-0.000736952761656
-0.000740521571137
-0.000747460832969
-0.000754671077735
-0.000718504820922
-0.000517229964405
-0.000447242140551
-0.00470561973563
-0.0212962562324
-0.0136253784782
-0.000739454692032
-0.000742912564606
-0.00074918538757
-0.00075421556661
-0.000710034386638
-0.000462041183968
-0.000112226574125
-0.00345656988419
-0.0189913123827
-0.0122064541531
-0.000741746768899
-0.000745024453962
-0.000750685002188
-0.000753540632013
-0.000696290035793
-0.000365920769279
0.000326359651759
-0.00180317389683
-0.0122492713552
-0.00690590167686
-0.000743757560358
-0.000746763675372
-0.000751505023493
-0.000751718560178
-0.000682143226622
-0.00028233975165
0.000716846994966
-0.000223085951092
-0.00769282185969
-0.00448713330008
)
;

boundaryField
{
    back
    {
        type            calculated;
        value           nonuniform List<scalar> 
167
(
-0.000600868605388
-0.000602176385869
-0.000601904596939
-0.000598721493854
-0.000591847509966
-0.000571279746768
-0.000437946647398
0.000507477229822
0.00613449509052
0.0304384019581
0.0733196830201
0.00790566578101
-0.000634173901546
-0.000636329140247
-0.000637300743911
-0.0006359707606
-0.000630504835436
-0.000605773046586
-0.000451583843935
0.00042160327066
0.00510710930991
0.0266097530831
0.0430587781659
0.00789072306337
-0.000687658419493
-0.00068927978594
-0.000689439693644
-0.00068711235021
-0.000679926662413
-0.000649073433953
-0.000475415547555
0.00038580335817
0.00462089777741
0.0255722375887
0.0473263034835
0.0104304074564
-0.000706484994151
-0.000706302341286
-0.000703721297798
-0.000696694845318
-0.000665990643739
-0.000488302830432
0.000374285660464
0.00419607026125
0.0206306249885
0.00879112757297
-0.00257179763136
-0.00071246384172
-0.000710404111603
-0.000705097517373
-0.000678547104958
-0.000504670293013
0.000365288269543
0.00370276858584
0.0121282379902
-0.010313331175
-0.0175714430358
-0.00071588725219
-0.000714785866089
-0.000712049981569
-0.000692105136611
-0.000531984634386
0.000308793023936
0.00313931163631
0.00650389646773
0.0289186791996
0.0123845425467
-0.000718866959598
-0.000718875802889
-0.000718920097178
-0.000706524383046
-0.000571705411191
0.00016252674041
0.00230976359031
0.00199968981182
0.0275258930043
0.0276248594071
-0.000721920866173
-0.000722979757748
-0.000725485928404
-0.000720187831753
-0.000614316432276
-3.30995202112e-05
0.0012993511318
-0.00184901123935
-0.00198076210436
0.520976818979
-0.000725081000476
-0.000727113551148
-0.000731747755142
-0.000732367774248
-0.000652494699458
-0.000208512820652
0.000498043094597
-0.00444859951236
-0.0172440809763
0.559918206951
-0.000728244991603
-0.000731054420216
-0.00073743481551
-0.000743137967429
-0.000684683524003
-0.000344317661547
-6.80967844714e-05
-0.00601600805045
-0.0208419235562
0.610016717872
-0.000731324809496
-0.000734657486699
-0.000742059106411
-0.000751011057132
-0.000708788051976
-0.000438937718626
-0.000277794620465
-0.00507863421153
-0.0102281505156
0.0470603829729
-0.000734240538744
-0.00073779321709
-0.000745216611818
-0.000754114979257
-0.000719703944407
-0.000514906219227
-0.000501188789709
-0.00501541197195
-0.0210770380941
-0.00484312698161
-0.000736952761656
-0.000740521571137
-0.000747460832969
-0.000754671077735
-0.000718504820922
-0.000517229964405
-0.000447242140551
-0.00470561973563
-0.0212962562324
-0.0136253784782
-0.000739454692032
-0.000742912564606
-0.00074918538757
-0.00075421556661
-0.000710034386638
-0.000462041183968
-0.000112226574125
-0.00345656988419
-0.0189913123827
-0.0122064541531
-0.000741746768899
-0.000745024453962
-0.000750685002188
-0.000753540632013
-0.000696290035793
-0.000365920769279
0.000326359651759
-0.00180317389683
-0.0122492713552
-0.00690590167686
-0.000743757560358
-0.000746763675372
-0.000751505023492
-0.000751718560178
-0.000682143226622
-0.00028233975165
0.000716846994966
-0.000223085951092
-0.00769282185969
-0.00448713330008
)
;
    }
    sides
    {
        type            calculated;
        value           nonuniform List<scalar> 
12
(
-0.000600868605388
-0.000602176385869
-0.000601904596939
-0.000598721493854
-0.000591847509966
-0.000571279746768
-0.000437946647398
0.000507477229822
0.00613449509052
0.0304384019581
0.0733196830201
0.00790566578101
)
;
    }
    bottom
    {
        type            calculated;
        value           nonuniform List<scalar> 0();
    }
    front
    {
        type            calculated;
        value           nonuniform List<scalar> 
167
(
-0.000600868605388
-0.000602176385869
-0.000601904596939
-0.000598721493854
-0.000591847509966
-0.000571279746768
-0.000437946647398
0.000507477229822
0.00613449509052
0.0304384019581
0.0733196830201
0.00790566578101
-0.000634173901546
-0.000636329140247
-0.000637300743911
-0.0006359707606
-0.000630504835436
-0.000605773046586
-0.000451583843935
0.00042160327066
0.00510710930991
0.0266097530831
0.0430587781659
0.00789072306337
-0.000687658419493
-0.00068927978594
-0.000689439693644
-0.00068711235021
-0.000679926662413
-0.000649073433953
-0.000475415547555
0.00038580335817
0.00462089777741
0.0255722375887
0.0473263034835
0.0104304074564
-0.000706484994151
-0.000706302341286
-0.000703721297798
-0.000696694845318
-0.000665990643739
-0.000488302830432
0.000374285660464
0.00419607026125
0.0206306249885
0.00879112757297
-0.00257179763136
-0.00071246384172
-0.000710404111603
-0.000705097517373
-0.000678547104958
-0.000504670293013
0.000365288269543
0.00370276858584
0.0121282379902
-0.010313331175
-0.0175714430358
-0.00071588725219
-0.000714785866089
-0.000712049981569
-0.000692105136611
-0.000531984634386
0.000308793023936
0.00313931163631
0.00650389646773
0.0289186791996
0.0123845425467
-0.000718866959598
-0.000718875802889
-0.000718920097178
-0.000706524383046
-0.000571705411191
0.00016252674041
0.00230976359031
0.00199968981182
0.0275258930043
0.0276248594071
-0.000721920866173
-0.000722979757748
-0.000725485928404
-0.000720187831753
-0.000614316432276
-3.30995202112e-05
0.0012993511318
-0.00184901123935
-0.00198076210436
0.520976818979
-0.000725081000476
-0.000727113551148
-0.000731747755142
-0.000732367774248
-0.000652494699458
-0.000208512820652
0.000498043094597
-0.00444859951236
-0.0172440809763
0.559918206951
-0.000728244991603
-0.000731054420216
-0.00073743481551
-0.000743137967429
-0.000684683524003
-0.000344317661547
-6.80967844714e-05
-0.00601600805045
-0.0208419235562
0.610016717872
-0.000731324809496
-0.000734657486699
-0.000742059106411
-0.000751011057132
-0.000708788051976
-0.000438937718626
-0.000277794620465
-0.00507863421153
-0.0102281505156
0.0470603829729
-0.000734240538744
-0.00073779321709
-0.000745216611818
-0.000754114979257
-0.000719703944407
-0.000514906219227
-0.000501188789709
-0.00501541197195
-0.0210770380941
-0.00484312698161
-0.000736952761656
-0.000740521571137
-0.000747460832969
-0.000754671077735
-0.000718504820922
-0.000517229964405
-0.000447242140551
-0.00470561973563
-0.0212962562324
-0.0136253784782
-0.000739454692032
-0.000742912564606
-0.00074918538757
-0.00075421556661
-0.000710034386638
-0.000462041183968
-0.000112226574125
-0.00345656988419
-0.0189913123827
-0.0122064541531
-0.000741746768899
-0.000745024453962
-0.000750685002188
-0.000753540632013
-0.000696290035793
-0.000365920769279
0.000326359651759
-0.00180317389683
-0.0122492713552
-0.00690590167686
-0.000743757560358
-0.000746763675372
-0.000751505023492
-0.000751718560178
-0.000682143226622
-0.00028233975165
0.000716846994966
-0.000223085951092
-0.00769282185969
-0.00448713330008
)
;
    }
    atmosphere
    {
        type            calculated;
        value           nonuniform List<scalar> 
16
(
5.61095976777e-10
-0.000223300353075
0.000574693309855
-0.000174129816008
-4.97931136194e-05
-1.41863868079e-13
7.13748257155e-13
-0.274201583292
-0.463893381255
-0.233847094423
-0.19042302343
7.95470892476e-08
-8.506455502e-08
-1.01758309705e-08
2.84541489787e-08
8.46141041501e-09
)
;
    }
    floatingObject
    {
        type            calculated;
        value           nonuniform List<scalar> 0();
    }
    procBoundary1to0
    {
        type            processor;
        value           nonuniform List<scalar> 10(-0.000745533375939 -0.000748073307421 -0.00075133404969 -0.00074727747568 -0.000663408913875 -0.000200226475642 0.00110164851011 0.00114135839208 -0.00672665129457 -0.00609598003694);
    }
    procBoundary1to2
    {
        type            processor;
        value           nonuniform List<scalar> 
18
(
-0.000598838611563
-0.000631465990971
-0.000685406432591
-0.000705228241787
-0.000705228241787
-0.00071259569215
-0.00071259569215
-0.000715670562645
-0.000718202153963
-0.000720792891558
-0.00072350360376
-0.000726288950992
-0.000729071211329
-0.000731782389433
-0.000734387418102
-0.00073684711328
-0.000739132649355
-0.000741243310251
)
;
    }
}


// ************************************************************************* //
