/*--------------------------------*- C++ -*----------------------------------*\
| =========                 |                                                 |
| \\      /  F ield         | OpenFOAM: The Open Source CFD Toolbox           |
|  \\    /   O peration     | Version:  v2012                                 |
|   \\  /    A nd           | Website:  www.openfoam.com                      |
|    \\/     M anipulation  |                                                 |
\*---------------------------------------------------------------------------*/
FoamFile
{
    version     2.0;
    format      ascii;
    class       volScalarField;
    location    "5.4";
    object      k;
}
// * * * * * * * * * * * * * * * * * * * * * * * * * * * * * * * * * * * * * //

dimensions      [0 2 -2 0 0 0 0];


internalField   nonuniform List<scalar> 
164
(
0.00127939929329
0.00159078615295
0.00169510655193
0.00173518193326
0.00175130403162
0.00175912021739
0.00176454826717
0.00176973486531
0.00127939354987
0.00159059532762
0.00169507501872
0.00173529418928
0.0017515270946
0.00175942454984
0.00176491660313
0.00177015874421
0.00127897290625
0.0015899885475
0.00169459207213
0.00173494561762
0.00175129596756
0.0017592874064
0.00176486010601
0.00177017484315
0.00177605837193
0.00178309798404
0.00127814173886
0.00158894472819
0.00169363923313
0.00173412046323
0.0017505979387
0.00175869976531
0.00176437136273
0.00176977944942
0.00177575344577
0.00178287583033
0.00127690666656
0.00158745009086
0.0016921926337
0.0017327999115
0.00174942060693
0.00175765345484
0.0017634457112
0.00176897222226
0.00177506800539
0.00178231554235
0.00127528377033
0.00158549597814
0.0016902391016
0.00173097146424
0.0017477530641
0.00175614180041
0.00176208066855
0.00176775365184
0.00177400707426
0.00178144013189
0.00127325546515
0.00158305660195
0.00168775539701
0.00172861506072
0.00174558406402
0.0017541597635
0.00176027667093
0.00176612945237
0.00177258269666
0.00178027835382
0.00127077266585
0.00158007402997
0.00168471776919
0.00172572066335
0.00174290727391
0.00175170474928
0.00175803585435
0.00176410776673
0.00177081087493
0.00177886121923
0.00126781212071
0.00157654946813
0.00168111646965
0.00172228074576
0.00173971730331
0.00174877399766
0.00175535905344
0.00176169383734
0.00176870115477
0.00177719600769
0.00126436877476
0.00157248239541
0.00167694452152
0.00171828661461
0.00173600713503
0.00174536344444
0.00175224559379
0.00175888825321
0.00176624913633
0.00177524900032
0.00126043012224
0.00156785980286
0.001672195998
0.00171373136835
0.00173177061587
0.00174146969998
0.00174869469761
0.00175569155389
0.00176344461147
0.00177296022083
0.00125598109849
0.00156267091069
0.00166686779875
0.00170861245422
0.00172700483887
0.00173709245273
0.00174471049097
0.00175210976486
0.00176029046254
0.00177030790212
0.00125101510073
0.00155692394193
0.00166096423248
0.00170293316302
0.00172171407115
0.00173223697542
0.00174030127368
0.00174815655705
0.00175680959444
0.00176732760365
0.00124552779034
0.00155062690285
0.00165450113109
0.00169670642466
0.0017159074699
0.00172691255902
0.00173548009723
0.00174385285451
0.0017530298669
0.00176406762997
0.00123954910387
0.00154380103709
0.00164750105351
0.00168995219746
0.00170960160417
0.00172113492441
0.00173026763634
0.00173922540571
0.00174898498855
0.00176053731443
0.00123306059655
0.00153648636459
0.00164000990048
0.00168270736319
0.00170282393585
0.00171492748469
0.00172468715287
0.00173429840532
0.00174469592096
0.0017567879728
0.00122615680624
0.0015287715271
0.00163210025566
0.00167503430203
0.00169561238443
0.00170830641639
0.00171872903448
0.00168800283794
)
;

boundaryField
{
    back
    {
        type            kqRWallFunction;
        value           nonuniform List<scalar> 
164
(
0.00127939929329
0.00159078615295
0.00169510655193
0.00173518193326
0.00175130403162
0.00175912021739
0.00176454826717
0.00176973486531
0.00127939354987
0.00159059532762
0.00169507501872
0.00173529418928
0.0017515270946
0.00175942454984
0.00176491660313
0.00177015874421
0.00127897290625
0.0015899885475
0.00169459207213
0.00173494561762
0.00175129596756
0.0017592874064
0.00176486010601
0.00177017484315
0.00177605837193
0.00178309798404
0.00127814173886
0.00158894472819
0.00169363923313
0.00173412046323
0.0017505979387
0.00175869976531
0.00176437136273
0.00176977944942
0.00177575344577
0.00178287583033
0.00127690666656
0.00158745009086
0.0016921926337
0.0017327999115
0.00174942060693
0.00175765345484
0.0017634457112
0.00176897222226
0.00177506800539
0.00178231554235
0.00127528377033
0.00158549597814
0.0016902391016
0.00173097146424
0.0017477530641
0.00175614180041
0.00176208066855
0.00176775365184
0.00177400707426
0.00178144013189
0.00127325546515
0.00158305660195
0.00168775539701
0.00172861506072
0.00174558406402
0.0017541597635
0.00176027667093
0.00176612945237
0.00177258269666
0.00178027835382
0.00127077266585
0.00158007402997
0.00168471776919
0.00172572066335
0.00174290727391
0.00175170474928
0.00175803585435
0.00176410776673
0.00177081087493
0.00177886121923
0.00126781212071
0.00157654946813
0.00168111646965
0.00172228074576
0.00173971730331
0.00174877399766
0.00175535905344
0.00176169383734
0.00176870115477
0.00177719600769
0.00126436877476
0.00157248239541
0.00167694452152
0.00171828661461
0.00173600713503
0.00174536344444
0.00175224559379
0.00175888825321
0.00176624913633
0.00177524900032
0.00126043012224
0.00156785980286
0.001672195998
0.00171373136835
0.00173177061587
0.00174146969998
0.00174869469761
0.00175569155389
0.00176344461147
0.00177296022083
0.00125598109849
0.00156267091069
0.00166686779875
0.00170861245422
0.00172700483887
0.00173709245273
0.00174471049097
0.00175210976486
0.00176029046254
0.00177030790212
0.00125101510073
0.00155692394193
0.00166096423248
0.00170293316302
0.00172171407115
0.00173223697542
0.00174030127368
0.00174815655705
0.00175680959444
0.00176732760365
0.00124552779034
0.00155062690285
0.00165450113109
0.00169670642466
0.0017159074699
0.00172691255902
0.00173548009723
0.00174385285451
0.0017530298669
0.00176406762997
0.00123954910387
0.00154380103709
0.00164750105351
0.00168995219746
0.00170960160417
0.00172113492441
0.00173026763634
0.00173922540571
0.00174898498855
0.00176053731443
0.00123306059655
0.00153648636459
0.00164000990048
0.00168270736319
0.00170282393585
0.00171492748469
0.00172468715287
0.00173429840532
0.00174469592096
0.0017567879728
0.00122615680624
0.0015287715271
0.00163210025566
0.00167503430203
0.00169561238443
0.00170830641639
0.00171872903448
0.00168800283794
)
;
    }
    sides
    {
        type            kqRWallFunction;
        value           nonuniform List<scalar> 0();
    }
    bottom
    {
        type            kqRWallFunction;
        value           nonuniform List<scalar> 
17
(
0.00127939929329
0.00127939354987
0.00127897290625
0.00127814173886
0.00127690666656
0.00127528377033
0.00127325546515
0.00127077266585
0.00126781212071
0.00126436877476
0.00126043012224
0.00125598109849
0.00125101510073
0.00124552779034
0.00123954910387
0.00123306059655
0.00122615680624
)
;
    }
    front
    {
        type            kqRWallFunction;
        value           nonuniform List<scalar> 
164
(
0.00127939929329
0.00159078615295
0.00169510655193
0.00173518193326
0.00175130403162
0.00175912021739
0.00176454826717
0.00176973486531
0.00127939354987
0.00159059532762
0.00169507501872
0.00173529418928
0.0017515270946
0.00175942454984
0.00176491660313
0.00177015874421
0.00127897290625
0.0015899885475
0.00169459207213
0.00173494561762
0.00175129596756
0.0017592874064
0.00176486010601
0.00177017484315
0.00177605837193
0.00178309798404
0.00127814173886
0.00158894472819
0.00169363923313
0.00173412046323
0.0017505979387
0.00175869976531
0.00176437136273
0.00176977944942
0.00177575344577
0.00178287583033
0.00127690666656
0.00158745009086
0.0016921926337
0.0017327999115
0.00174942060693
0.00175765345484
0.0017634457112
0.00176897222226
0.00177506800539
0.00178231554235
0.00127528377033
0.00158549597814
0.0016902391016
0.00173097146424
0.0017477530641
0.00175614180041
0.00176208066855
0.00176775365184
0.00177400707426
0.00178144013189
0.00127325546515
0.00158305660195
0.00168775539701
0.00172861506072
0.00174558406402
0.0017541597635
0.00176027667093
0.00176612945237
0.00177258269666
0.00178027835382
0.00127077266585
0.00158007402997
0.00168471776919
0.00172572066335
0.00174290727391
0.00175170474928
0.00175803585435
0.00176410776673
0.00177081087493
0.00177886121923
0.00126781212071
0.00157654946813
0.00168111646965
0.00172228074576
0.00173971730331
0.00174877399766
0.00175535905344
0.00176169383734
0.00176870115477
0.00177719600769
0.00126436877476
0.00157248239541
0.00167694452152
0.00171828661461
0.00173600713503
0.00174536344444
0.00175224559379
0.00175888825321
0.00176624913633
0.00177524900032
0.00126043012224
0.00156785980286
0.001672195998
0.00171373136835
0.00173177061587
0.00174146969998
0.00174869469761
0.00175569155389
0.00176344461147
0.00177296022083
0.00125598109849
0.00156267091069
0.00166686779875
0.00170861245422
0.00172700483887
0.00173709245273
0.00174471049097
0.00175210976486
0.00176029046254
0.00177030790212
0.00125101510073
0.00155692394193
0.00166096423248
0.00170293316302
0.00172171407115
0.00173223697542
0.00174030127368
0.00174815655705
0.00175680959444
0.00176732760365
0.00124552779034
0.00155062690285
0.00165450113109
0.00169670642466
0.0017159074699
0.00172691255902
0.00173548009723
0.00174385285451
0.0017530298669
0.00176406762997
0.00123954910387
0.00154380103709
0.00164750105351
0.00168995219746
0.00170960160417
0.00172113492441
0.00173026763634
0.00173922540571
0.00174898498855
0.00176053731443
0.00123306059655
0.00153648636459
0.00164000990048
0.00168270736319
0.00170282393585
0.00171492748469
0.00172468715287
0.00173429840532
0.00174469592096
0.0017567879728
0.00122615680624
0.0015287715271
0.00163210025566
0.00167503430203
0.00169561238443
0.00170830641639
0.00171872903448
0.00168800283794
)
;
    }
    atmosphere
    {
        type            inletOutlet;
        inletValue      nonuniform List<scalar> 0();
        value           nonuniform List<scalar> 0();
    }
    floatingObject
    {
        type            kqRWallFunction;
        value           nonuniform List<scalar> 0();
    }
    procBoundary4to0
    {
        type            processor;
        value           nonuniform List<scalar> 8(0.0012789812884 0.00159054439021 0.00169468717331 0.00173461454082 0.00175063194204 0.00175837870326 0.00176375794879 0.00176890533273);
    }
    procBoundary4to3
    {
        type            processor;
        value           nonuniform List<scalar> 
13
(
0.00172906723713
0.00174023649983
0.0017529564266
0.00121886006947
0.00152074385237
0.00162387049622
0.00166699754451
0.00170123538687
0.00172906723713
0.00171230761069
0.00166699754451
0.00170123538687
0.00167999901108
)
;
    }
    procBoundary4to5
    {
        type            processor;
        value           nonuniform List<scalar> 
18
(
0.00177550557039
0.00177597671411
0.00177597671411
0.00178296555917
0.0017924890079
0.00179231830145
0.00179189698181
0.0017912990325
0.00179062112239
0.00178993713444
0.0017892216016
0.00178830836512
0.00178695235496
0.00178502671879
0.00178262024042
0.00177984140617
0.00177661605494
0.0017729414217
)
;
    }
}


// ************************************************************************* //
