/*--------------------------------*- C++ -*----------------------------------*\
| =========                 |                                                 |
| \\      /  F ield         | OpenFOAM: The Open Source CFD Toolbox           |
|  \\    /   O peration     | Version:  v2012                                 |
|   \\  /    A nd           | Website:  www.openfoam.com                      |
|    \\/     M anipulation  |                                                 |
\*---------------------------------------------------------------------------*/
FoamFile
{
    version     2.0;
    format      ascii;
    class       volVectorField;
    location    "5.4";
    object      U;
}
// * * * * * * * * * * * * * * * * * * * * * * * * * * * * * * * * * * * * * //

dimensions      [0 1 -1 0 0 0 0];


internalField   nonuniform List<vector> 
164
(
(0.0364137480619 0.000104752730227 -1.88436871429e-22)
(0.0376464919949 0.000176073513504 -7.74571469211e-23)
(0.038806750224 0.000262431712023 -1.18506607144e-23)
(0.0398281932016 0.000338280924088 4.41668826853e-23)
(0.0407083815944 0.000400115758781 2.43626557228e-23)
(0.0415792075085 0.000469387361646 2.31869774653e-24)
(0.0425412300569 0.000554261618994 -3.71944697136e-24)
(0.0436379000759 0.000650017419029 -4.98776050627e-24)
(0.0362110383049 0.000185577629989 -1.31242647166e-22)
(0.0374687577865 0.000406508258155 -7.99070216917e-23)
(0.038651401476 0.000641689238878 -1.73649280626e-23)
(0.0396839951726 0.000870834160256 1.50452068613e-23)
(0.0405628251009 0.00108618518991 6.89701630541e-24)
(0.0414262452685 0.00130548730841 -2.0796382385e-24)
(0.0423743628086 0.00153723478438 -4.74484943868e-24)
(0.0434551563446 0.0017880686705 -9.47688889547e-25)
(0.0358561820044 0.000260190989425 -1.17979132907e-22)
(0.037139434894 0.000631320511218 -3.06100002123e-23)
(0.0383441247549 0.00101428107316 1.11943388449e-23)
(0.0393878913436 0.00139581185518 2.58067542836e-23)
(0.0402669194565 0.00176427732688 1.37808621017e-23)
(0.0411217551679 0.00213611896055 6.96571695986e-24)
(0.0420557572488 0.00251967397413 -5.80681678111e-26)
(0.0431159257086 0.002924054423 4.97468699324e-24)
(0.0443185172354 0.0033577429712 2.53424654844e-23)
(0.0456534244294 0.0038138552952 3.03640488292e-23)
(0.035356409403 0.000334222017076 -5.10225606819e-23)
(0.0366618178032 0.000851779316228 3.90357956577e-23)
(0.0378860735518 0.00137947998884 7.60624122367e-23)
(0.038939507579 0.00191217143689 8.02300387505e-23)
(0.0398194051493 0.00243268625589 4.527605968e-23)
(0.0406661958216 0.00295674720991 2.03091436749e-23)
(0.0415852792421 0.00349138744383 6.53879379904e-24)
(0.0426238846316 0.00404098581141 7.85355914959e-24)
(0.0437968841946 0.00461164574283 2.38847504951e-23)
(0.0451069408875 0.00521123431805 2.98651450833e-23)
(0.034716060466 0.000410396616039 8.51914480891e-23)
(0.0360382435378 0.00106948680623 1.29046700495e-22)
(0.0372785020066 0.00173727913568 1.49505989772e-22)
(0.0383409796554 0.00241951738904 1.27019391115e-22)
(0.039220734367 0.00309115632665 7.76680449327e-23)
(0.0400600938483 0.0037645496802 4.55591055463e-23)
(0.0409663232098 0.00444728733253 1.82515228907e-23)
(0.0419885194931 0.00514231327691 8.74341512798e-24)
(0.0431393816999 0.00585091160425 2.28106873509e-23)
(0.0444186895052 0.00658722809832 5.17698422537e-23)
(0.0339375152266 0.000478332647169 1.83948026722e-22)
(0.0352708240837 0.0012794441234 2.02094433594e-22)
(0.036524907505 0.00208924905077 1.90127838873e-22)
(0.0375951935338 0.00291963098062 1.77753095735e-22)
(0.0384738262347 0.00373836886191 1.03313537872e-22)
(0.0393068259329 0.00455881003284 6.57857664586e-23)
(0.0402029030668 0.00538715041574 3.7055563536e-23)
(0.0412105000499 0.00622531507382 2.25430292183e-23)
(0.0423418533055 0.00707515671549 2.49867796276e-23)
(0.043593388774 0.00794347140292 4.13039635642e-23)
(0.0330241562802 0.00054002397797 1.83346023005e-22)
(0.0343624424976 0.00148440585547 2.10718094473e-22)
(0.0356273146172 0.00243536526406 1.93200452662e-22)
(0.0367021230617 0.0034126520028 1.73981543537e-22)
(0.0375808256086 0.00437830203128 1.22492282857e-22)
(0.0384103384026 0.00534384963169 1.09835411565e-22)
(0.0393001113837 0.00631288387997 7.6509261255e-23)
(0.040297039901 0.00728491504759 5.97506700542e-23)
(0.0414131415698 0.00825940569066 4.33552555835e-23)
(0.0426452339947 0.00923931022786 4.55485421335e-23)
(0.031975087918 0.000604047745284 1.69507364707e-22)
(0.0333142612475 0.00168974398744 1.90489978551e-22)
(0.0345853785742 0.00278082768418 1.72395074143e-22)
(0.0356627210899 0.00390360969013 1.73696172554e-22)
(0.0365423118007 0.00501622264108 1.4524229752e-22)
(0.0373715752258 0.00612597709292 1.18541228955e-22)
(0.0382610432083 0.00723259254797 9.02849475828e-23)
(0.0392587899051 0.0083321333137 7.62228227035e-23)
(0.0403767733174 0.00941839358955 7.88144000091e-23)
(0.0416100137167 0.0104896630206 9.31790373449e-23)
(0.0307899385361 0.000669906081789 1.5897616668e-22)
(0.0321270385616 0.00189685517588 1.92880429229e-22)
(0.0333993208502 0.00312828341759 1.55207012063e-22)
(0.0344773509882 0.00439708003817 1.60359024e-22)
(0.0353577827941 0.00565754144317 1.34483396897e-22)
(0.0361896731141 0.00691243280084 1.03464961452e-22)
(0.0370867825089 0.00815866260438 1.02661694423e-22)
(0.0381013578976 0.00938942498518 1.18879546149e-22)
(0.0392466011822 0.0105918293266 1.40961847437e-22)
(0.0405143532025 0.0117509807309 1.15598341407e-22)
(0.0294700262876 0.000731721936267 1.84604769107e-22)
(0.0308001614282 0.00210271181762 1.80133050625e-22)
(0.0320679518551 0.00347683981681 1.16789167501e-22)
(0.033143135684 0.00489313625171 1.27786413032e-22)
(0.0340240279508 0.00630306068643 1.20264319092e-22)
(0.0348619239488 0.00770826772118 1.08999195748e-22)
(0.035775183079 0.00910485276358 1.29574278485e-22)
(0.0368183156206 0.0104811546751 9.75737359905e-23)
(0.0380094724891 0.0118196640895 1.40123372326e-22)
(0.0393465633922 0.0130964890687 1.27338918761e-22)
(0.0280168068172 0.000792410036778 1.0175401855e-22)
(0.029333023499 0.00230569197391 7.19671523369e-24)
(0.0305898767047 0.00382260122 1.34841211148e-23)
(0.0316572112231 0.00538931446979 6.98932031033e-23)
(0.0325376819705 0.00695462069484 1.0925285527e-22)
(0.03338338953 0.00852045805048 1.01789485407e-22)
(0.0343140677602 0.0100792775786 1.054543094e-22)
(0.0353878741328 0.0116168530221 9.10736129302e-23)
(0.0366314174554 0.0131143216562 9.94657271849e-23)
(0.0380563679131 0.014543073288 1.16673901356e-22)
(0.0264325936739 0.000853438437661 6.26360664647e-24)
(0.0277267823933 0.00250479926712 -9.21248806846e-23)
(0.0289655375901 0.0041628056091 -1.41271653035e-22)
(0.0300191091173 0.00588389252817 -6.05516350131e-24)
(0.0308935142764 0.00761198811629 1.08457693348e-22)
(0.0317411255887 0.00934561361335 1.48955783413e-22)
(0.0326826643573 0.0110783311166 1.27261101443e-22)
(0.0337834724662 0.0127969929567 1.18379560945e-22)
(0.0350769298375 0.0144806608374 1.22598133316e-22)
(0.0365896452915 0.0161068482865 1.67737890253e-22)
(0.024720189979 0.00090856709737 -5.05836098576e-23)
(0.0259834777672 0.0026969662143 -2.44940734707e-22)
(0.0271938665221 0.00449476022887 -3.03097299735e-22)
(0.028223866335 0.00636987671146 -9.38275878366e-23)
(0.0290814539054 0.00826390826275 8.47920405696e-23)
(0.0299198678977 0.010174698975 1.38823584598e-22)
(0.0308629281692 0.0120960391892 1.422681409e-22)
(0.0319812794623 0.0140146370029 1.40969830316e-22)
(0.0333150901377 0.0159151366218 1.86075483854e-22)
(0.0348922829104 0.0177806753861 2.37957057776e-22)
(0.0228874527556 0.000960494883 -5.35674328251e-24)
(0.0241060821174 0.00287722773806 -2.48029787339e-22)
(0.025274215657 0.00480937496979 -3.80558846664e-22)
(0.0262659324461 0.00683788728269 -1.77131578819e-22)
(0.0270931274078 0.00890169182964 5.17191178523e-23)
(0.0279081352503 0.0109992811416 1.4511123876e-22)
(0.0288378943288 0.0131247297163 1.67718135287e-22)
(0.0299590434005 0.0152665248874 1.84375033681e-22)
(0.0313157796802 0.0174068161309 2.42806383767e-22)
(0.0329280713263 0.0195302388819 2.42534349093e-22)
(0.0209454075491 0.00100923857783 3.70722258186e-22)
(0.0221033946557 0.00304157924865 -9.7293473355e-23)
(0.0232116513305 0.00510033993789 -3.08237545983e-22)
(0.0241462857357 0.00727818002821 -1.47927337139e-22)
(0.0249238369485 0.0095131785346 6.59507931401e-23)
(0.0256944752951 0.0118045226148 1.73291334892e-22)
(0.0265873712581 0.0141478448036 2.46653979422e-22)
(0.0276909640454 0.0165310945631 3.61318203891e-22)
(0.0290498500462 0.0189326537012 4.68938272525e-22)
(0.030676629252 0.0213342723744 5.21625432937e-22)
(0.0189075725408 0.00105094912511 9.39224776397e-22)
(0.0199877937578 0.00318512155914 2.37157329162e-22)
(0.0210163110331 0.00535766240704 -8.5447305944e-23)
(0.0218706082272 0.00767623405988 -1.17071445633e-23)
(0.0225722038289 0.0100785165566 1.75347369123e-22)
(0.023270782047 0.0125643925153 3.95286007405e-22)
(0.0241022238338 0.0151387420449 8.08294400126e-22)
(0.0251611473829 0.0177858209799 1.44264609004e-21)
(0.0265069676232 0.0204603920586 2.02820609583e-21)
(0.028126518738 0.0231309421655 2.30318402504e-21)
(0.0167899888965 0.00108120837506 1.17287168e-21)
(0.0177748993409 0.00329825449367 4.99380833785e-22)
(0.0187027272511 0.00556712294995 1.25058050233e-22)
(0.0194494580772 0.00801118182381 2.1804446562e-22)
(0.0200396929196 0.0105712169525 6.44020406997e-22)
(0.0206262847594 0.0132574154318 1.70512133021e-21)
(0.021362309181 0.0160758635569 4.10531601372e-21)
(0.0173327989029 0.0109560163045 2.91479828624e-21)
)
;

boundaryField
{
    back
    {
        type            noSlip;
    }
    sides
    {
        type            noSlip;
    }
    bottom
    {
        type            noSlip;
    }
    front
    {
        type            noSlip;
    }
    atmosphere
    {
        type            pressureInletOutletVelocity;
        value           nonuniform List<vector> 0();
    }
    floatingObject
    {
        type            movingWallVelocity;
        value           nonuniform List<vector> 0();
    }
    procBoundary4to0
    {
        type            processor;
        value           nonuniform List<vector> 8((0.0364621220105 2.50308855238e-05 -2.17454321997e-22) (0.0376713710338 -5.35092664194e-05 -1.12022884723e-22) (0.0388082549932 -0.000118354461528 4.84327699667e-24) (0.0398170242019 -0.000200265654057 6.38270369713e-23) (0.0406976485829 -0.000294599628085 3.80659876822e-23) (0.0415764488302 -0.000383376836965 9.78748002357e-24) (0.0425497236832 -0.000461014999166 -7.92445858434e-25) (0.0436556170421 -0.000531366378198 -7.93128954614e-24));
    }
    procBoundary4to3
    {
        type            processor;
        value           nonuniform List<vector> 
13
(
(0.0223517199822 0.0190059509579 7.78291468942e-21)
(0.0236928205669 0.0219573775001 1.12156240052e-20)
(0.0253134910414 0.024834281558 1.28929856643e-20)
(0.014609463115 0.00109939836858 1.26736968289e-21)
(0.0154876909761 0.00337458541641 6.54826336955e-22)
(0.016291870242 0.00571303522502 3.96525264884e-22)
(0.0168986070321 0.00825509367517 9.05032213254e-22)
(0.0177516106463 0.0138412418392 8.55665647584e-21)
(0.0223517199822 0.0190059509579 7.78291468942e-21)
(0.0183319459385 0.0169204000796 2.11235268044e-20)
(0.0168986070321 0.00825509367517 9.05032213254e-22)
(0.0177516106463 0.0138412418392 8.55665647584e-21)
(0.0144739389591 0.0111696630907 1.27643059401e-20)
)
;
    }
    procBoundary4to5
    {
        type            processor;
        value           nonuniform List<vector> 
18
(
(0.0448728841717 0.000754948324132 3.91537487686e-25)
(0.0446783924731 0.00205750771601 7.2379067809e-24)
(0.0446783924731 0.00205750771601 7.2379067809e-24)
(0.0460250479856 0.00234146379196 2.05767666953e-23)
(0.0470969120042 0.00428082407813 4.13469555441e-23)
(0.0465412693759 0.00583576816506 4.2694976551e-23)
(0.0458249024544 0.00736099396966 4.12115234311e-23)
(0.0449565871674 0.00883982759851 5.04161664805e-23)
(0.0439760070088 0.0102314546769 6.61029861946e-23)
(0.0429378882458 0.0115436668085 1.98401483966e-23)
(0.0418842063602 0.012852252739 1.20140601443e-22)
(0.0408186120304 0.014272752365 2.28146498821e-22)
(0.0396792136751 0.0158590765628 3.47546038075e-22)
(0.0383542547717 0.0176487411228 4.47800929474e-22)
(0.0367410063828 0.0195950423068 2.4239684861e-22)
(0.0348168931616 0.0216314986605 3.45363386961e-22)
(0.0325708695474 0.0237463175466 5.75751463502e-22)
(0.0299618650171 0.0258423733244 2.54593202771e-21)
)
;
    }
}


// ************************************************************************* //
