/*--------------------------------*- C++ -*----------------------------------*\
| =========                 |                                                 |
| \\      /  F ield         | OpenFOAM: The Open Source CFD Toolbox           |
|  \\    /   O peration     | Version:  v2012                                 |
|   \\  /    A nd           | Website:  www.openfoam.com                      |
|    \\/     M anipulation  |                                                 |
\*---------------------------------------------------------------------------*/
FoamFile
{
    version     2.0;
    format      ascii;
    class       volVectorField;
    location    "3.4";
    object      ddt0(rho,U);
}
// * * * * * * * * * * * * * * * * * * * * * * * * * * * * * * * * * * * * * //

dimensions      [1 -2 -2 0 0 0 0];


internalField   nonuniform List<vector> 
167
(
(-0.233183705993 0.265273458328 4.89488512555e-20)
(-0.101764347492 1.23068840611 -6.50622820969e-20)
(-0.0542692840816 1.8786865775 -1.4616553764e-19)
(0.00348985049224 2.45006912071 -5.39265921413e-20)
(0.0932044250695 2.92090207037 8.08708081107e-20)
(0.199060173801 3.22615184468 1.03198443952e-19)
(0.335034880044 3.30281084862 1.66753409433e-19)
(0.503061646627 3.11227981596 2.14259926047e-19)
(-1.23133502095 0.15303163783 5.84383602526e-20)
(-1.07882832775 1.19641123811 -2.42209611466e-19)
(-0.992518530162 1.8737869716 -8.72377280891e-20)
(-0.841170025768 2.43804611864 5.64032077377e-20)
(-0.616622153159 2.90909413544 -2.10697423915e-19)
(-0.325032906567 3.21239580268 1.84042710066e-19)
(0.036441964283 3.2962711982 1.83281458359e-20)
(0.487539600112 3.11087248659 -8.64391324481e-21)
(-2.01010022184 0.159314132034 -2.58006578393e-19)
(-1.82450526999 1.30530256786 -2.54281175627e-19)
(-1.67185981228 2.05664962689 -2.59182579618e-19)
(-1.40495586967 2.69379762864 -8.24823199259e-20)
(-1.03780234134 3.24959682881 2.79631289581e-20)
(-0.560399615121 3.6395064423 1.79744407232e-20)
(0.0302557639345 3.82243675084 8.16694346554e-20)
(0.754103333237 3.75752796646 -2.22232790457e-20)
(-2.86195249732 0.207217317753 2.1518524402e-19)
(-2.60377995909 1.46548562161 -2.17011525549e-19)
(-2.38614764859 2.30333924744 -2.30299831389e-19)
(-2.0220348546 3.0495325654 -1.22599195788e-19)
(-1.50841170588 3.7218779799 -7.32281382686e-20)
(-0.855231538216 4.24235004957 -6.83869325815e-20)
(-0.0380041464784 4.56372021613 4.03246084827e-20)
(0.948542586985 4.65897872127 -3.92852787943e-20)
(2.12929297778 4.47368447963 -4.70233458974e-20)
(-3.85721855854 0.274406761651 -6.5171751842e-20)
(-3.55515149421 1.67092429158 2.54930498181e-19)
(-3.28309431294 2.63167585303 -2.19849291398e-19)
(-2.81935627101 3.52818195934 -8.48060534499e-20)
(-2.17284751046 4.3579181855 -5.34441355747e-20)
(-1.35294907252 5.03998777217 -6.58744549575e-20)
(-0.337499108226 5.54076177515 -3.35775707068e-20)
(0.879598957912 5.82502880005 -1.61838296426e-21)
(2.33482102422 5.87227458749 -2.81764827759e-21)
(4.05702796314 5.64529514357 -3.91589666249e-20)
(-5.00752588258 0.368700368523 -5.56313354144e-20)
(-4.66290143515 1.92653925409 1.78839986699e-19)
(-4.33942666681 3.06370827737 -1.17022696865e-19)
(-3.77922890005 4.13778214277 -1.04078289861e-20)
(-3.01406706825 5.14981569226 1.20419702409e-20)
(-2.03824950054 6.03112129892 -1.30427147213e-20)
(-0.844460839097 6.73807388696 -1.16820287165e-20)
(0.592668597238 7.25917404562 2.83468591117e-21)
(2.29290379621 7.56800325257 3.69152668116e-21)
(4.26028893288 7.62518370142 -3.12887492181e-20)
(-6.34891431972 0.482446337626 1.05910425416e-19)
(-5.95594890324 2.23050019953 -1.57871275951e-19)
(-5.58461887091 3.57531437553 -3.14108570712e-20)
(-4.94741554074 4.8566718961 4.32950948658e-20)
(-4.06647967305 6.08515624917 1.31023392504e-20)
(-2.94566590232 7.19180400493 1.86465192531e-21)
(-1.58221146442 8.14754634232 1.04578092008e-20)
(0.0531255470553 8.92873856123 -6.9226287123e-24)
(1.95447953804 9.49697988806 -2.92991844644e-21)
(4.15465305538 9.84234638417 -5.93544588921e-22)
(-7.91269331832 0.607079548183 -1.30483119511e-19)
(-7.46690320441 2.57476423465 1.66019701764e-19)
(-7.05640058525 4.15526551322 -2.02830074305e-19)
(-6.34387371895 5.67235499953 -4.9648199047e-20)
(-5.35733531591 7.14871329848 4.16636357517e-21)
(-4.10902885545 8.51115017578 7.39444726978e-21)
(-2.57974024101 9.73014290986 -6.3714239217e-21)
(-0.771012370957 10.7831062784 1.84956493948e-20)
(1.33683148341 11.6467738471 -1.12606052278e-20)
(3.75070633381 12.2965252888 -1.72651637187e-20)
(-9.72663249842 0.748072118577 4.79987180134e-20)
(-9.22798141586 2.95585511118 -2.04586772872e-19)
(-8.78407102564 4.79615483688 -1.32020590876e-19)
(-7.99902686062 6.57769123403 -4.17698663673e-20)
(-6.91386100109 8.32022528145 1.84829857022e-20)
(-5.54450427652 9.96998500393 -2.43653917883e-20)
(-3.87243252142 11.4833744486 2.8581229838e-20)
(-1.88967779022 12.8362875363 -6.94901666291e-21)
(0.412655127112 14.002636173 2.12628687322e-20)
(3.04087404944 14.9486891593 4.81003414881e-20)
(-11.8086045732 0.901227606058 1.58538615409e-19)
(-11.270885402 3.36981026717 4.05434903041e-19)
(-10.785524726 5.49261220006 -4.0464691625e-20)
(-9.93966214975 7.56649456473 8.37608826223e-21)
(-8.76196087131 9.60381609279 2.89974421676e-20)
(-7.27465078868 11.5529357621 3.08017197618e-20)
(-5.47188798543 13.3822687293 6.75459118732e-21)
(-3.32779333617 15.0600714403 -3.73419094313e-22)
(-0.836868416837 16.5634229605 -5.90853693025e-20)
(2.00567797336 17.8491721292 -2.42797352829e-20)
(-14.188034749 1.05699330429 2.99768365849e-19)
(-13.6115517313 3.81576805 -5.73541220637e-20)
(-13.0888800867 6.24459258772 1.32020829324e-19)
(-12.1854338648 8.62535522949 1.27819031398e-20)
(-10.9284319242 10.9849924529 2.81733087283e-20)
(-9.33788377542 13.2608036328 2.40727289149e-20)
(-7.40278055053 15.4272390934 3.07742034817e-21)
(-5.108833152 17.4592328526 3.14298274164e-21)
(-2.43696710836 19.317478662 8.78793255877e-20)
(0.618992203127 20.9735728287 6.81100497562e-20)
(-16.8838880663 1.22526944064 -2.78285026022e-20)
(-16.2599194619 4.29035184289 1.56328740151e-19)
(-15.7163969624 7.04415143245 -1.00443056834e-19)
(-14.7602474545 9.75179902145 -3.82187528003e-20)
(-13.4332421695 12.4499580219 1.6623761228e-20)
(-11.7525616465 15.0784573138 8.51934367822e-21)
(-9.70267416437 17.6078924591 2.31509055345e-20)
(-7.26457236374 20.0147255236 1.57502486564e-20)
(-4.42438402351 22.2721078916 1.07463183398e-19)
(-1.15616943173 24.3373966029 7.8619381414e-20)
(-19.9011366882 1.40570491581 8.06666141319e-20)
(-19.2448219052 4.79041872128 3.57574571613e-19)
(-18.6831447955 7.87804145792 -1.76360323233e-19)
(-17.6875581581 10.9341952895 -4.19926042222e-20)
(-16.2989183974 13.9903342695 4.10986576378e-20)
(-14.5401642473 16.9899745259 2.99093526563e-20)
(-12.3933327275 19.9112711252 5.25753852261e-20)
(-9.83245329963 22.7268336011 3.99089987544e-20)
(-6.83280627359 25.4079863915 6.26340747992e-20)
(-3.37815754581 27.9206540791 1.34396979148e-20)
(-23.2587218652 1.5846437611 1.189097406e-20)
(-22.5883128475 5.30365443439 3.69064351191e-20)
(-22.0097311839 8.74385287776 7.72942631721e-20)
(-20.978931931 12.1614750635 1.10835108643e-20)
(-19.5444878941 15.5929314334 1.71137598503e-20)
(-17.7236327991 18.981301686 2.52938374284e-20)
(-15.4987134262 22.3121218106 3.25505195841e-20)
(-12.8377929978 25.5677353426 -1.96787105231e-20)
(-9.70723661147 28.7127217397 2.72922753237e-20)
(-6.0838173552 31.7121590088 -8.30679505568e-21)
(-26.9794593123 1.76295276263 2.75434660518e-19)
(-26.2856853163 5.82268069679 5.43743387741e-19)
(-25.7024261587 9.63565271108 2.77085310057e-19)
(-24.6550558704 13.4226841309 1.18035028639e-19)
(-23.187199147 17.2387802384 2.11600633764e-20)
(-21.3269878351 21.0335178134 4.10061785782e-21)
(-19.0464282888 24.7966190646 2.27788142448e-20)
(-16.3062691924 28.5153456392 -2.79146271505e-20)
(-13.0752156389 32.1536858135 -1.04822145223e-20)
(-9.3107141729 35.681899463 1.07964361958e-20)
(-31.0629824985 1.94860217534 2.78683087834e-19)
(-30.3397440726 6.35141159898 9.45945498878e-20)
(-29.7644494625 10.5271783612 2.15493495938e-19)
(-28.7144388591 14.6980576666 7.79799069393e-20)
(-27.2443161674 18.9128898504 2.49760643695e-20)
(-25.3708555862 23.1217046274 2.25156753296e-20)
(-23.0600856986 27.3371501619 5.69243697207e-21)
(-20.27423631 31.5424239023 -1.17044905855e-21)
(-16.973254443 35.7064468633 1.08603147595e-20)
(-13.1087817353 39.7973525584 8.60738640416e-20)
(-35.4984593563 2.13772753661 -1.45776428272e-20)
(-34.7683269255 6.88111586826 -4.6212542774e-20)
(-34.205338165 11.4220683275 -1.71738198529e-20)
(-33.1744233796 15.9686851316 -3.45304827901e-20)
(-31.720638753 20.5838664198 4.29017845859e-21)
(-29.8593538777 25.2334914842 5.63641593138e-21)
(-27.5586856005 29.9112019471 -1.02140061559e-20)
(-40.2881846107 2.31199848127 -4.20256728349e-19)
(-39.561694248 7.39619011039 -2.83789349328e-19)
(-39.0321609529 12.2890739998 -1.79164185852e-19)
(-38.0414391958 17.2123830053 -8.11897586979e-20)
(-36.6251478643 22.2347166429 6.70147007566e-21)
(-44.2384938083 13.1126432951 -1.58549652568e-19)
(-43.2996880023 18.3974935007 -1.41032279666e-19)
)
;

boundaryField
{
    back
    {
        type            calculated;
        value           uniform (0 0 0);
    }
    sides
    {
        type            calculated;
        value           uniform (0 0 0);
    }
    bottom
    {
        type            calculated;
        value           uniform (0 0 0);
    }
    front
    {
        type            calculated;
        value           uniform (0 0 0);
    }
    atmosphere
    {
        type            calculated;
        value           nonuniform List<vector> 0();
    }
    floatingObject
    {
        type            calculated;
        value           nonuniform List<vector> 0();
    }
    procBoundary2to0
    {
        type            processor;
        value           nonuniform List<vector> 
14
(
(-24.7659020204 34.6139653211 8.92383845424e-21)
(-21.4308769291 39.3247063582 3.79326654935e-21)
(-17.5086288701 44.0186069686 3.42893323932e-21)
(-34.8156539456 27.3055393757 -6.37884607092e-21)
(-24.7659020204 34.6139653211 8.92383845424e-21)
(-32.5529200133 32.4581786521 3.44663976771e-21)
(-45.4405369514 2.48265408202 -2.34014977811e-19)
(-44.7186852184 7.88165028101 -3.45935817121e-19)
(-34.8156539456 27.3055393757 -6.37884607092e-21)
(-41.9648265433 23.8052360269 -1.88081064027e-20)
(-44.7186852184 7.88165028101 -3.45935817121e-19)
(-49.7828317393 13.8817390066 5.5978382113e-20)
(-41.9648265433 23.8052360269 -1.88081064027e-20)
(-48.9234819875 19.4967199692 -4.45852493367e-20)
)
;
    }
    procBoundary2to1
    {
        type            processor;
        value           nonuniform List<vector> 
18
(
(0.704846208021 2.59613036122 -1.6061054779e-19)
(1.03356452078 2.60385952676 1.5828620039e-19)
(1.63283917874 3.38629326193 -1.34899785076e-19)
(1.63283917874 3.38629326193 -1.34899785076e-19)
(3.54516693955 3.97047936867 -3.81623860045e-20)
(3.54516693955 3.97047936867 -3.81623860045e-20)
(6.07836052534 5.12594396666 -5.03928187986e-20)
(6.53400520473 7.42795681443 -4.9121860741e-20)
(6.65594220216 9.9711744065 -6.72912601356e-20)
(6.45883056572 12.7051703906 -1.03814231893e-19)
(5.97974121904 15.6596634524 -1.46390701748e-19)
(5.20447479515 18.8709707677 -6.64761472799e-20)
(4.07428390834 22.3773897251 -6.37960166204e-20)
(2.54340550898 26.1605803186 -6.58042322e-20)
(0.557334059299 30.2145576835 -4.82079949695e-20)
(-1.93631404271 34.521328529 -6.67733985769e-20)
(-4.9866206884 39.0565821261 -8.66122281335e-20)
(-8.63749323556 43.7873000452 -9.26468335646e-20)
)
;
    }
}


// ************************************************************************* //
