/*--------------------------------*- C++ -*----------------------------------*\
| =========                 |                                                 |
| \\      /  F ield         | OpenFOAM: The Open Source CFD Toolbox           |
|  \\    /   O peration     | Version:  v2012                                 |
|   \\  /    A nd           | Website:  www.openfoam.com                      |
|    \\/     M anipulation  |                                                 |
\*---------------------------------------------------------------------------*/
FoamFile
{
    version     2.0;
    format      ascii;
    class       volVectorField;
    location    "1.3";
    object      ddtCorrDdt0(U);
}
// * * * * * * * * * * * * * * * * * * * * * * * * * * * * * * * * * * * * * //

dimensions      [0 1 -2 0 0 0 0];


internalField   nonuniform List<vector> 
164
(
(-0.207695317561 -0.170419415477 6.13711807687e-18)
(-0.125587867139 -0.17949704406 3.62605570204e-18)
(-0.0902544423323 -0.237615040706 -3.11079871913e-20)
(-0.03477220843 -0.304591455473 7.07347463447e-19)
(0.0602351344839 -0.346127593392 -1.64594708982e-18)
(0.194974980324 -0.420135623939 6.8334833113e-19)
(0.390098408979 -0.259745938874 1.25079240464e-18)
(-4.03352647868 4.20316710138 1.42919767372e-18)
(0.045590535289 -0.051897904925 2.36279017625e-18)
(-0.0211400793812 -0.10966472885 2.19253531641e-18)
(-0.0262647867875 -0.18448079506 2.0988447698e-18)
(0.00176433813828 -0.216574536015 2.90041985501e-18)
(0.0489652986809 -0.223845910622 3.16780128792e-18)
(0.109142085625 -0.0316696384297 2.08184973447e-18)
(0.226724305479 0.407338100058 6.54297055876e-19)
(2.01396868592 -1.74711229361 4.39178713874e-18)
(-0.0445881918953 -0.051971044366 2.33145163778e-18)
(0.0218674223691 -0.109820184129 2.20119383251e-18)
(0.0266530829833 -0.184642026374 2.09460226691e-18)
(-0.00167928245259 -0.216685449125 2.92991773463e-18)
(-0.0490327008774 -0.223871597739 3.64857112015e-18)
(-0.109200077325 -0.0315610636342 2.49980895379e-18)
(-0.226604568691 0.40731680435 -2.67896034306e-19)
(-2.0139033274 -1.74955210367 1.64965495194e-19)
(0.208831983238 -0.170608874159 6.10953628485e-18)
(0.126500941302 -0.179943773851 3.66572707533e-18)
(0.0909079394014 -0.238096726321 -3.82782534656e-20)
(0.035115392382 -0.304938897122 7.15840896131e-19)
(-0.0601065975291 -0.346244119933 -1.65523936507e-18)
(-0.194958544632 -0.420078341605 7.95025623051e-19)
(-0.390233273433 -0.259683173394 5.02446189941e-18)
(4.0440909551 4.21078498647 1.00026899381e-17)
(0.130873770989 -0.332802371448 -3.97370726564e-20)
(0.11809644766 -0.391710256058 1.98662256543e-19)
(0.05506575237 -0.552162201959 2.35610691694e-18)
(-0.065801079297 -0.92476047859 -2.26244877115e-19)
(-0.529859993742 -0.695652901405 1.89173814321e-19)
(-6.71711541624 -1.60440937106 3.74199989163e-18)
(0.181015681834 -0.339878290853 -3.8336818781e-19)
(0.214340016898 -0.398768195128 1.6617837238e-18)
(0.25030851547 -0.482808427694 1.43578612281e-18)
(0.185262980766 -0.736011328763 8.47267356793e-19)
(0.0492332951504 -1.67432703383 -8.73117027186e-19)
(1.31084866548 -0.540809981576 1.32506588087e-18)
(0.235554785695 -0.300053849107 -4.40389633925e-19)
(0.282135140778 -0.369731509688 -7.93005915263e-19)
(0.378984357625 -0.395751712854 -5.24146583955e-19)
(0.52150064358 -0.688326198304 -2.57195549156e-19)
(-0.147304251274 -0.850254720493 2.17019822985e-19)
(-4.77214675446 -6.91398335007 5.90604348014e-18)
(0.261799633274 -0.249989556942 2.0124615311e-19)
(0.324453118151 -0.268801350965 2.60802278964e-19)
(0.439484799406 -0.262099885831 1.40412086702e-20)
(0.674545941226 -0.260953926983 -1.92363567294e-20)
(1.51869296473 0.184377793857 2.57346116031e-18)
(6.32075650483 0.797085142969 2.61220351083e-19)
(0.271632527355 -0.197255204541 -5.04454502691e-20)
(0.333962017615 -0.192759252326 -6.78553015451e-20)
(0.418922565173 -0.214703359484 -3.20688986359e-20)
(0.532571136727 -0.180924923156 -5.50187527799e-20)
(0.880150837221 -0.384341441693 7.56399207239e-19)
(0.244544361162 0.522366325105 1.29612580592e-18)
(0.261810267589 -0.144272882578 1.85493089108e-21)
(0.317510948137 -0.113122665675 -4.00840770426e-20)
(0.421176167956 -0.0924742557265 -7.59788786162e-21)
(0.585524061219 0.0381370062483 -6.25710155696e-20)
(0.904641617625 0.00196278934842 -4.44364505204e-19)
(0.659002915305 0.548383647182 1.07811498143e-19)
(0.232288649854 -0.102710120393 -8.12407238484e-21)
(0.262856117049 -0.0517966549899 -3.31832115563e-20)
(0.329955022897 0.000824217153005 5.4758102354e-20)
(0.456314483393 0.179561776058 -3.4992594914e-19)
(0.917836095857 0.162474967907 2.63929372911e-19)
(0.310755431561 0.695005177643 -9.98689273505e-19)
(0.198358749503 -0.0863372844894 -8.95369635033e-21)
(0.186295492809 -0.0201547358464 -1.56028739575e-20)
(0.157818207369 0.0785801734842 -2.6293929272e-20)
(0.0230167980803 0.530556748519 -5.705192708e-19)
(0.171621827428 0.90574447494 -1.59294616023e-18)
(1.4490240578 0.542748086044 -1.77833129556e-18)
(0.178445411325 -0.109186416356 -1.02560809113e-20)
(0.156019377137 -0.0997936598631 2.06475239924e-20)
(0.0888154219906 -0.164886853814 -1.60334078517e-19)
(-0.0179155321569 -0.314111393066 -4.21915151086e-19)
(0.220071320879 -0.455817083124 -7.5837280022e-19)
(0.351613755662 -0.397819221546 -3.09100763416e-18)
(0.173670613585 -0.115529633986 1.51794323534e-20)
(0.167591866251 -0.11089114303 -4.67466961188e-20)
(0.18402657707 -0.159624736418 -1.30822487061e-20)
(0.255380088134 -0.224231042443 -6.96761878425e-19)
(0.177338290023 -0.254572938819 -1.25966190099e-18)
(1.09096588561 -0.10962341621 -4.3605168371e-18)
(0.174583859997 -0.126490479393 -3.55586473085e-20)
(0.157082298652 -0.103366047753 -4.26217963342e-20)
(0.170534802001 -0.115075761362 1.06080130818e-19)
(0.168926312178 -0.0553660734234 -7.81220894129e-19)
(0.214393316491 0.0734761598495 2.30615581479e-19)
(0.521600368762 -0.85745526305 -7.21340845151e-18)
(0.185320533124 -0.140303387083 -4.69201456045e-21)
(0.171605217094 -0.116798130053 -1.7347462699e-20)
(0.159593734485 -0.248144089951 -2.88280286592e-20)
(0.218094488336 -0.161723476759 -5.62845540735e-19)
(1.11717903276 -0.239700116492 -2.74136243959e-18)
(1.1096400643 -0.133478371784 -1.86073526689e-18)
(0.200043771413 -0.137260812245 -2.80333544559e-20)
(0.210608321411 -0.121122545163 5.25929687574e-20)
(0.187806683259 -0.235281738017 1.19186653761e-19)
(0.234890436621 -0.301272521998 5.60557232452e-20)
(0.375203359705 -0.310810498911 -2.58168591751e-18)
(0.308190476871 0.0449535474176 -1.01435324211e-18)
(0.205491009068 -0.129724125704 4.20525065772e-21)
(0.213107010117 -0.120534156475 -5.8607523894e-21)
(0.201974280829 -0.149967593121 4.87320484838e-20)
(0.283894422042 -0.0541144559708 -1.13881519819e-20)
(0.425075250565 0.00944271131583 2.11030250907e-18)
(0.575482400841 0.572434714789 4.84886468399e-18)
(0.211062591331 -0.131490860098 6.34745740112e-21)
(0.205356246617 -0.132820784344 4.65741797582e-21)
(0.18642246534 -0.135884038944 -1.89620620305e-21)
(0.180092288947 -0.0745857730344 -1.84245634875e-20)
(0.0612561468715 0.00181038230556 -2.42299744264e-20)
(-0.243776304652 0.267028721105 -2.4248068532e-18)
(0.219190171763 -0.138942225708 2.35372987181e-22)
(0.209966316163 -0.145712951434 -3.62807112276e-21)
(0.182105403861 -0.161563350077 8.69807884703e-21)
(0.108431604434 -0.116263458755 -5.45495553266e-21)
(-0.0694208670242 -0.155800128638 -2.08921923238e-19)
(0.078833141822 0.0310246563821 -4.839178199e-19)
(0.232517744935 -0.146766785996 -3.14534009923e-21)
(0.230440436572 -0.166612651191 -1.8364350619e-20)
(0.195747026967 -0.206813729134 3.00814003147e-21)
(0.127971127285 -0.199809006103 1.00034783548e-20)
(-0.0442533872677 -0.300021876134 3.81654033948e-20)
(0.166749433316 -0.335481967837 1.15390289799e-19)
(0.262120728164 -0.150168225912 1.34210053039e-22)
(0.254586570929 -0.180300954208 5.03736817863e-21)
(0.234212019017 -0.248208397814 -8.7697134773e-21)
(0.18293074094 -0.264089508872 -3.43772682812e-20)
(0.0685922083526 -0.378531348508 -4.92766762339e-20)
(0.213471436468 -0.535141502784 -3.70300148767e-20)
(0.295289474537 -0.156013622777 -7.8290759878e-22)
(0.290179362311 -0.190038927609 2.17309900398e-22)
(0.291014223546 -0.255549994353 -1.84990048385e-20)
(0.268522372712 -0.271546468052 -1.81140022733e-20)
(0.236700624404 -0.383867447894 -1.87671881297e-20)
(0.270919411791 -0.709840778863 1.10144737531e-20)
(0.324459191298 -0.150465131021 -2.2054372301e-21)
(0.338761633794 -0.180349837669 -3.1149637839e-21)
(0.355734567726 -0.243084898167 1.97534347433e-20)
(0.356850027908 -0.240821207591 -2.08204479362e-20)
(0.407032998907 -0.340238256608 -3.56669564402e-20)
(0.357856881773 -0.618915070524 -1.17967382016e-20)
(0.417999720383 -0.207935176598 3.05627705097e-20)
(0.424397225618 -0.197434884878 1.12486923199e-20)
(0.53382598833 -0.29493270189 -1.52485326471e-20)
(0.396355814963 -0.586813302678 -2.15593755085e-20)
(0.450242078412 -0.161689468053 2.76811419362e-20)
(0.466230872094 -0.150600650324 3.44143709311e-21)
(0.650513112741 -0.239290961649 -4.87913883227e-20)
(0.728761965706 -0.383075332827 -6.51562103665e-20)
(0.464466454241 -0.110573538919 3.6323970993e-20)
(0.495102196958 -0.0827976889977 -1.64423750144e-20)
(0.744250174199 -0.149479097986 -2.05585191106e-20)
(0.701503410945 -0.285406952613 -1.15635225384e-20)
)
;

boundaryField
{
    back
    {
        type            calculated;
        value           uniform (0 0 0);
    }
    sides
    {
        type            calculated;
        value           nonuniform List<vector> 0();
    }
    bottom
    {
        type            calculated;
        value           nonuniform List<vector> 0();
    }
    front
    {
        type            calculated;
        value           uniform (0 0 0);
    }
    atmosphere
    {
        type            calculated;
        value           nonuniform List<vector> 
27
(
(3.54406420207e-11 4.20316710138 -8.22996148318e-31)
(2.01396868592 -1.74711229361 4.39178713874e-18)
(-2.0139033274 -1.74955210367 1.64965495194e-19)
(-3.54405624267e-11 4.21078498647 -1.83913513234e-30)
(-3.61564797042e-14 -1.60440937106 -4.84215146278e-33)
(1.31084831934 -0.540809981576 1.32506597002e-18)
(-39.8763196037 -6.91398335007 -6.2088017567e-18)
(2.09616536148e-05 0.797085142969 2.36748288768e-24)
(-3.99345464131e-11 0.522366325105 1.41738412446e-30)
(1.27501386693e-20 0.548383647182 -3.61229880291e-40)
(0 0.695005177643 0)
(0 0.542748086044 0)
(0.351613755662 -0.397819221546 -3.09100763416e-18)
(-2.1626302608e-15 -0.10962341621 8.98411375554e-35)
(-1.68659773026e-15 -0.85745526305 -4.16125366432e-35)
(0 -0.133478371784 0)
(0.308190476876 0.0449535474176 -1.01435324211e-18)
(-6.4236160607e-11 0.572434714789 2.82398129568e-30)
(1.34116275651e-10 0.267028721105 5.27566308052e-30)
(-9.79340217501e-10 0.0310246563821 -3.00079051526e-29)
(1.93390991314e-06 -0.335481967837 -3.2971074851e-26)
(-0.172182696262 -0.535141502784 2.1551228538e-20)
(0.000565217308759 -0.709840778863 4.13942442665e-24)
(0.00644570228922 -0.618915070524 1.56452021051e-22)
(-1.61374005903 -0.586813302678 3.38511065165e-21)
(-5.33825612381 -0.383075332827 5.78769034774e-19)
(3.90392299137 -0.285406952613 -2.20502732016e-19)
)
;
    }
    floatingObject
    {
        type            calculated;
        value           nonuniform List<vector> 4((0 0 0) (0 0 0) (6.29658549464e-29 0 0) (0 0 0));
    }
    procBoundary6to3
    {
        type            processor;
        value           nonuniform List<vector> 8((-0.188634153538 -0.32995350825 7.02297414866e-18) (-0.163279472784 -0.300230685875 5.83573987361e-18) (-0.129969832812 -0.332060301733 -4.09119134015e-20) (-0.11744645988 -0.391072699314 1.91117447311e-19) (-0.0546910909975 -0.551816106601 2.37135338985e-18) (0.0658810059516 -0.924678329852 -1.43846952058e-19) (0.529554180712 -0.695707980605 7.52072216965e-19) (6.71085373759 -1.60536750747 1.26671144289e-17));
    }
    procBoundary6to7
    {
        type            processor;
        value           nonuniform List<vector> 
11
(
(0.214731058714 -0.124716309622 1.2145983596e-21)
(0.225763695273 -0.12860696069 4.99381329541e-22)
(0.241166130927 -0.133629173209 -6.02499572351e-22)
(0.263442882065 -0.138775884383 4.60216626187e-22)
(0.289555635792 -0.131994841296 1.09547680608e-21)
(0.310159941415 -0.123173092084 1.40332366581e-21)
(0.354410268607 -0.128745454335 3.01064082838e-22)
(0.37942748218 -0.156400129472 -1.118200667e-20)
(0.37942748218 -0.156400129472 -1.118200667e-20)
(0.410240411841 -0.114567518762 -6.76073109047e-21)
(0.430281542976 -0.0802524927345 -5.4131963778e-21)
)
;
    }
    procBoundary6to8
    {
        type            processor;
        value           nonuniform List<vector> 
16
(
(0.18971563312 -0.330628078347 7.03121185444e-18)
(0.164279845987 -0.300887822406 5.81305291216e-18)
(0.164279845987 -0.300887822406 5.81305291216e-18)
(0.176661495366 -0.3006380758 -2.03330221296e-18)
(0.199224041335 -0.272269962786 2.68958601565e-19)
(0.216934823682 -0.233802976294 1.27748883418e-22)
(0.225008750114 -0.191648488253 -1.01112354144e-20)
(0.222131386413 -0.153433973459 3.04888015665e-21)
(0.210139704002 -0.124052346396 -3.01686819701e-21)
(0.194555122067 -0.110418274353 -2.15149615354e-21)
(0.183380830531 -0.111784257211 1.41057278428e-21)
(0.179761719627 -0.114383804581 -2.75672518241e-21)
(0.182294643428 -0.118765357275 -8.4915989714e-22)
(0.19006012549 -0.123780028112 -4.89702128559e-21)
(0.19874135957 -0.123460199684 5.50488968798e-22)
(0.206175841113 -0.123268848607 5.08336394753e-21)
)
;
    }
    procBoundary6to9
    {
        type            processor;
        value           nonuniform List<vector> 4((0.475766965028 -0.0545043613204 -2.1731080578e-20) (0.51312764299 -0.0184648812995 -9.71131581141e-21) (0.824187706526 -0.0626152194149 2.42536494846e-20) (0.675003446393 -0.124780069824 8.39291822649e-21));
    }
}


// ************************************************************************* //
