/*--------------------------------*- C++ -*----------------------------------*\
| =========                 |                                                 |
| \\      /  F ield         | OpenFOAM: The Open Source CFD Toolbox           |
|  \\    /   O peration     | Version:  v2012                                 |
|   \\  /    A nd           | Website:  www.openfoam.com                      |
|    \\/     M anipulation  |                                                 |
\*---------------------------------------------------------------------------*/
FoamFile
{
    version     2.0;
    format      ascii;
    class       volScalarField;
    location    "1.3";
    object      p;
}
// * * * * * * * * * * * * * * * * * * * * * * * * * * * * * * * * * * * * * //

dimensions      [1 -1 -2 0 0 0 0];


internalField   nonuniform List<scalar> 
164
(
2930.14994681
2462.93802359
1984.94764849
1507.18618584
1029.36024437
549.689043149
98.3510469318
-88.4534935148
2943.41220595
2466.88208868
1988.1731658
1506.58741896
1015.16254946
514.597061514
-141.806029991
-316.203117381
2943.42075092
2466.8872802
1988.1745463
1506.58542844
1015.15938053
514.596534924
-141.796450445
-316.196348396
2930.17417584
2462.95457948
1984.95310649
1507.18066435
1029.34913539
549.679295235
98.3490984112
-88.452621601
1979.01235488
1504.52642908
1036.6503416
592.632239012
224.396918025
-57.6766048556
1971.87458429
1494.59636722
1013.47708082
527.144348228
-87.888091989
-194.590189334
1963.26652983
1484.42768261
1006.86106248
531.397902987
115.755317328
-46.7817646287
1952.92694839
1471.7617925
990.240670678
502.438330656
119.32595465
-20.0340039066
1941.47361488
1458.10641683
974.582649338
489.802482784
118.955187985
-14.4477207991
1929.83842006
1443.7601201
955.561780086
466.009577005
103.684923934
-13.3539536413
1919.20288675
1431.8205341
938.453744674
435.068436969
77.8889558585
-15.2671194574
1909.69486683
1423.67136162
934.223788457
454.731387138
73.0161920181
-24.4664344471
1900.70496894
1414.66701151
925.147578059
457.289715632
-71.5607244195
-80.0410624967
1892.18004541
1405.92579662
918.654079962
438.307454572
71.1961375623
-27.180505203
1884.22139725
1398.88469379
908.36750238
408.038619373
64.0051053586
-18.7004082105
1876.34650953
1394.11684675
908.610681466
448.991891697
95.8464628502
-22.2820488805
1866.8421024
1383.76086514
894.883613175
437.878753055
-69.1789912994
-66.1007603064
1856.90456851
1372.31581423
885.427008471
406.787762438
51.2035125436
-21.9799236191
1846.88748266
1362.26468853
876.801691589
389.275329455
62.516367484
-13.5050161833
1836.89403698
1353.01301866
868.906038001
386.228539305
66.9544777324
-11.1679859484
1826.57121226
1343.59722652
861.766176585
384.322783174
69.7709372584
-10.3146816149
1815.10377523
1333.40247409
853.556433063
381.235691591
71.1567709728
-9.99416138872
1802.3329142
1321.10625403
842.305798779
374.002121807
69.0507228536
-9.83099966145
1787.8569644
1306.46658018
827.574888136
361.736099729
63.2747002157
-9.73270992112
809.417140902
345.426761917
55.8038621301
-9.66705310268
788.190369958
325.419694062
47.3431546994
-9.62610215375
765.339040674
305.371680843
38.602648125
-9.60166573177
)
;

boundaryField
{
    back
    {
        type            calculated;
        value           nonuniform List<scalar> 
164
(
2930.14994681
2462.93802359
1984.94764849
1507.18618584
1029.36024437
549.689043149
98.3510469318
-88.4534935148
2943.41220595
2466.88208868
1988.1731658
1506.58741896
1015.16254946
514.597061514
-141.806029991
-316.203117381
2943.42075092
2466.8872802
1988.1745463
1506.58542844
1015.15938053
514.596534924
-141.796450445
-316.196348396
2930.17417584
2462.95457948
1984.95310649
1507.18066435
1029.34913539
549.679295235
98.3490984112
-88.452621601
1979.01235488
1504.52642908
1036.6503416
592.632239012
224.396918025
-57.6766048556
1971.87458429
1494.59636722
1013.47708082
527.144348228
-87.888091989
-194.590189334
1963.26652983
1484.42768261
1006.86106248
531.397902987
115.755317328
-46.7817646287
1952.92694839
1471.7617925
990.240670678
502.438330656
119.32595465
-20.0340039066
1941.47361488
1458.10641683
974.582649338
489.802482784
118.955187985
-14.4477207991
1929.83842006
1443.7601201
955.561780086
466.009577005
103.684923934
-13.3539536413
1919.20288675
1431.8205341
938.453744674
435.068436969
77.8889558585
-15.2671194574
1909.69486683
1423.67136162
934.223788457
454.731387138
73.0161920181
-24.4664344471
1900.70496894
1414.66701151
925.147578059
457.289715632
-71.5607244195
-80.0410624967
1892.18004541
1405.92579662
918.654079962
438.307454572
71.1961375623
-27.180505203
1884.22139725
1398.88469379
908.36750238
408.038619373
64.0051053586
-18.7004082105
1876.34650953
1394.11684675
908.610681466
448.991891697
95.8464628502
-22.2820488805
1866.8421024
1383.76086514
894.883613175
437.878753055
-69.1789912994
-66.1007603064
1856.90456851
1372.31581423
885.427008471
406.787762438
51.2035125436
-21.9799236191
1846.88748266
1362.26468853
876.801691589
389.275329455
62.516367484
-13.5050161833
1836.89403698
1353.01301866
868.906038001
386.228539305
66.9544777324
-11.1679859484
1826.57121226
1343.59722652
861.766176585
384.322783174
69.7709372584
-10.3146816149
1815.10377523
1333.40247409
853.556433063
381.235691591
71.1567709728
-9.99416138872
1802.3329142
1321.10625403
842.305798779
374.002121807
69.0507228536
-9.83099966145
1787.8569644
1306.46658018
827.574888136
361.736099729
63.2747002157
-9.73270992112
809.417140902
345.426761917
55.8038621301
-9.66705310268
788.190369958
325.419694062
47.3431546994
-9.62610215375
765.339040674
305.371680843
38.602648125
-9.60166573177
)
;
    }
    sides
    {
        type            calculated;
        value           nonuniform List<scalar> 0();
    }
    bottom
    {
        type            calculated;
        value           nonuniform List<scalar> 0();
    }
    front
    {
        type            calculated;
        value           nonuniform List<scalar> 
164
(
2930.14994681
2462.93802359
1984.94764849
1507.18618584
1029.36024437
549.689043149
98.3510469318
-88.4534935148
2943.41220595
2466.88208868
1988.1731658
1506.58741896
1015.16254946
514.597061514
-141.806029991
-316.203117381
2943.42075092
2466.8872802
1988.1745463
1506.58542844
1015.15938053
514.596534924
-141.796450445
-316.196348396
2930.17417584
2462.95457948
1984.95310649
1507.18066435
1029.34913539
549.679295235
98.3490984112
-88.452621601
1979.01235488
1504.52642908
1036.6503416
592.632239012
224.396918025
-57.6766048556
1971.87458429
1494.59636722
1013.47708082
527.144348228
-87.888091989
-194.590189334
1963.26652983
1484.42768261
1006.86106248
531.397902987
115.755317328
-46.7817646287
1952.92694839
1471.7617925
990.240670678
502.438330656
119.32595465
-20.0340039066
1941.47361488
1458.10641683
974.582649338
489.802482784
118.955187985
-14.4477207991
1929.83842006
1443.7601201
955.561780086
466.009577005
103.684923934
-13.3539536413
1919.20288675
1431.8205341
938.453744674
435.068436969
77.8889558585
-15.2671194574
1909.69486683
1423.67136162
934.223788457
454.731387138
73.0161920181
-24.4664344471
1900.70496894
1414.66701151
925.147578059
457.289715632
-71.5607244195
-80.0410624967
1892.18004541
1405.92579662
918.654079962
438.307454572
71.1961375623
-27.180505203
1884.22139725
1398.88469379
908.36750238
408.038619373
64.0051053586
-18.7004082105
1876.34650953
1394.11684675
908.610681466
448.991891697
95.8464628502
-22.2820488805
1866.8421024
1383.76086514
894.883613175
437.878753055
-69.1789912994
-66.1007603064
1856.90456851
1372.31581423
885.427008471
406.787762438
51.2035125436
-21.9799236191
1846.88748266
1362.26468853
876.801691589
389.275329455
62.516367484
-13.5050161833
1836.89403698
1353.01301866
868.906038001
386.228539305
66.9544777324
-11.1679859484
1826.57121226
1343.59722652
861.766176585
384.322783174
69.7709372584
-10.3146816149
1815.10377523
1333.40247409
853.556433063
381.235691591
71.1567709728
-9.99416138872
1802.3329142
1321.10625403
842.305798779
374.002121807
69.0507228536
-9.83099966145
1787.8569644
1306.46658018
827.574888136
361.736099729
63.2747002157
-9.73270992112
809.417140902
345.426761917
55.8038621301
-9.66705310268
788.190369958
325.419694062
47.3431546994
-9.62610215375
765.339040674
305.371680843
38.602648125
-9.60166573177
)
;
    }
    atmosphere
    {
        type            calculated;
        value           nonuniform List<scalar> 
27
(
-10.8269596564
-2736.11620041
-2736.07043114
-10.8269875432
-9.83726549552
-2722.62749934
-10.0798989933
-9.93498678088
-9.85923884134
-9.85038530628
-9.94042800166
-9.90000244164
-1619.38186186
-9.96941131808
-10.1529008018
-9.91012424408
-1131.44477768
-9.96796348744
-9.89137130746
-9.84214275869
-9.82401817179
-9.81752282798
-9.81290139755
-9.8112814881
-9.81048179593
-9.81016159355
-9.81005097272
)
;
    }
    floatingObject
    {
        type            calculated;
        value           nonuniform List<scalar> 4(3174.96055122 3188.22252023 3188.23128662 3174.98471766);
    }
    procBoundary6to3
    {
        type            processor;
        value           nonuniform List<scalar> 8(2932.26901392 2455.55943971 1978.9895035 1504.52157585 1036.65765126 592.645474277 224.412446943 -57.673909502);
    }
    procBoundary6to7
    {
        type            processor;
        value           nonuniform List<scalar> 
11
(
2331.26098336
2320.82494929
2309.84693123
2297.97457985
2284.99027839
2270.76214102
1771.73216063
1289.39001571
1289.39001571
1270.1690234
1249.41723594
)
;
    }
    procBoundary6to8
    {
        type            processor;
        value           nonuniform List<scalar> 
16
(
2932.31942684
2455.59754741
2455.59754741
2449.45081777
2442.75183381
2434.17886614
2424.58791876
2414.64740321
2404.8766692
2395.45417298
2386.51075432
2377.86354561
2369.34723651
2360.55892777
2351.16126265
2341.36753909
)
;
    }
    procBoundary6to9
    {
        type            processor;
        value           nonuniform List<scalar> 4(741.457655983 284.056380155 30.1730248872 -9.58454378956);
    }
}


// ************************************************************************* //
