/*--------------------------------*- C++ -*----------------------------------*\
| =========                 |                                                 |
| \\      /  F ield         | OpenFOAM: The Open Source CFD Toolbox           |
|  \\    /   O peration     | Version:  v2012                                 |
|   \\  /    A nd           | Website:  www.openfoam.com                      |
|    \\/     M anipulation  |                                                 |
\*---------------------------------------------------------------------------*/
FoamFile
{
    version     2.0;
    format      ascii;
    class       surfaceVectorField;
    location    "1.3";
    object      Uf_0;
}
// * * * * * * * * * * * * * * * * * * * * * * * * * * * * * * * * * * * * * //

dimensions      [0 1 -1 0 0 0 0];


internalField   nonuniform List<vector> 
293
(
(0.0722243445684 0.0932732162533 9.77076502146e-18)
(-0.0148441078171 0.0378612117464 8.9373239681e-18)
(0.0925502727942 0.129592393609 5.87792646085e-18)
(0.0550124303737 0.0547657844771 5.45394692252e-18)
(0.0999617940138 0.161856072844 4.7350749846e-18)
(0.0692113015968 0.106704447102 4.69528955216e-18)
(0.116587616823 0.199637106716 3.44507965015e-18)
(0.0750225991493 0.166194695579 3.83046425363e-18)
(0.160710477421 0.22556678248 2.06329295339e-18)
(0.112294838826 0.217116141325 2.6681883798e-18)
(0.311542735016 0.221964194919 1.08173090392e-18)
(0.180555657428 0.340169087296 1.5793440904e-18)
(1.52723394458 -0.020199562106 7.71522082941e-19)
(0.462719869371 0.274443972225 1.10393487089e-18)
(2.77460500022 0.65892395297 1.06384039753e-18)
(-0.0269364698703 -0.0148445275307 4.62050586916e-18)
(2.03864655809e-07 -0.0284119820724 4.81498050047e-18)
(0.034006978808 0.0401682177477 4.27131001382e-18)
(-4.78960349417e-07 0.00446031777086 4.46603016475e-18)
(0.0449698726559 0.109379951435 3.79067882119e-18)
(-4.4461694019e-07 0.0735344331692 4.10026715265e-18)
(0.0624839911288 0.184402745778 3.05357298328e-18)
(-1.65227356726e-07 0.152249214785 3.48555975083e-18)
(0.115122085381 0.2966970386 2.18423951681e-18)
(5.36223780291e-07 0.219029166058 2.64466556483e-18)
(0.256825744883 0.477251545315 1.60154805738e-18)
(1.08407892517e-06 0.441626638887 1.77718448893e-18)
(0.427319325251 0.939969747072 1.39625318549e-18)
(1.41226596805e-06 0.363208187065 1.51105512153e-18)
(-1.07519664064e-05 2.77872898223 1.38223304646e-18)
(0.0269359091654 -0.0148443141721 4.66050479607e-18)
(0.0148441235821 0.0378620979339 9.03849882391e-18)
(-0.0340081639727 0.0401691043109 4.29498730358e-18)
(-0.0550141959554 0.054766660081 5.47490002521e-18)
(-0.0449705915175 0.10938032674 3.7951480823e-18)
(-0.0692118780856 0.106704883381 4.71778759688e-18)
(-0.0624836963693 0.184402513682 3.07665233238e-18)
(-0.0750225110789 0.166194417991 3.82803428065e-18)
(-0.115120419802 0.296696236299 2.23761053694e-18)
(-0.112293337809 0.217115634477 2.70385152935e-18)
(-0.256823971114 0.477249945685 1.68669155309e-18)
(-0.18055270698 0.34016859343 1.60968250095e-18)
(-0.427322834239 0.93996935355 1.49703498251e-18)
(-0.462718196718 0.274441378959 6.33277132639e-19)
(-2.77463775533 0.658913560214 9.05913809681e-19)
(-0.0722256134894 0.0932752240097 9.85289405306e-18)
(-0.0925504953345 0.129593242423 5.89770031851e-18)
(-0.0999614198614 0.161855897889 4.75067379523e-18)
(-0.101474990417 0.164665410791 4.53888726142e-18)
(-0.116586720886 0.199636230737 3.45523347762e-18)
(-0.112803204586 0.193957326319 3.35565165995e-18)
(-0.160708750149 0.225566353369 2.07592349336e-18)
(-0.138223729889 0.213208393919 1.70380859561e-18)
(-0.311539545422 0.221964839058 5.56268080504e-19)
(-0.176951462784 0.221692711391 9.32849370358e-19)
(-1.52725089798 -0.0202033301435 4.21559598135e-20)
(-0.220542347271 0.198873907755 7.10261373675e-20)
(-0.0974583729407 -0.837481348779 5.22618257438e-19)
(-0.115750909513 0.202139503718 3.14386512614e-18)
(-0.118271842591 0.190186236895 1.96166749094e-18)
(-0.126919143827 0.218564248364 1.60422677794e-18)
(-0.129228474107 0.211630310098 1.1567596482e-18)
(-0.125041870413 0.219247759009 5.60734472604e-19)
(-0.138907625704 0.227131377393 2.58800436563e-19)
(-0.0262207167038 0.177291052254 4.47607427222e-19)
(-0.134994932462 0.302650251877 1.58790480619e-19)
(0.371468235489 0.0655850315241 5.51488434992e-19)
(-0.10883432822 0.275573028703 2.21163285089e-19)
(0.288075842894 1.34585037399 3.20732195418e-19)
(-0.13493688794 0.19943615314 -2.54379869923e-20)
(-0.134617238758 0.178455219672 4.73501138133e-20)
(-0.157913260187 0.228389228874 -1.88666693171e-19)
(-0.158182190512 0.195596764819 -4.40720371144e-20)
(-0.18866143289 0.293388798125 -1.43143555423e-19)
(-0.20390766105 0.211666361086 -1.45610778922e-21)
(-0.303929111421 0.434237695069 -6.7653661514e-20)
(-0.275844000616 0.291877903063 -5.67597572133e-20)
(-0.398438146984 0.962821404331 -9.59295448524e-21)
(-0.637416625136 0.227798014327 -1.53372320824e-19)
(-2.63334432905 1.11457193727 -1.18036836949e-19)
(-0.153074958131 0.168853178368 2.87160636912e-20)
(-0.142601809747 0.154221175915 -3.56598245135e-20)
(-0.188871456257 0.178781826309 1.43138548268e-19)
(-0.16811153769 0.15915815648 3.19004426022e-20)
(-0.251388018706 0.179876966445 8.492769042e-20)
(-0.205003261777 0.164610795654 2.96765656175e-20)
(-0.476588485372 0.152803513049 -1.42478416523e-19)
(-0.248770488006 0.152531835262 -1.48990892002e-20)
(-1.76934669075 -0.00771226289346 -2.61816203288e-19)
(-0.476936863347 0.111476809308 -4.22126015097e-19)
(-1.41874975484 -0.589202024629 -2.86655130885e-19)
(-0.156929982945 0.141987030538 -3.24754456025e-20)
(-0.145573426742 0.131342538296 4.25805858834e-21)
(-0.186960049509 0.142749478861 -8.15615400481e-20)
(-0.168874673611 0.130166594659 -1.68862176773e-20)
(-0.222950262864 0.135359943596 -7.01502140027e-20)
(-0.197614153289 0.132329787951 -3.50174886068e-20)
(-0.317906498455 0.120134206345 -2.94546687774e-19)
(-0.233545028071 0.0975548723756 -1.48227978906e-20)
(-0.78791087189 -0.039715516638 -4.46964942695e-19)
(-0.317081840669 0.0869215561576 -4.48407103191e-19)
(-0.640817656968 -0.409254887577 -3.27333849011e-19)
(-0.157693723025 0.118902522777 1.98472865136e-20)
(-0.146034849488 0.110366374372 1.47186895071e-21)
(-0.180835102968 0.114614341349 2.9657833764e-20)
(-0.164587128749 0.10836251852 9.00275143e-21)
(-0.202247194499 0.0998742185221 2.03099275054e-20)
(-0.18287440434 0.104901374875 2.10635762522e-21)
(-0.22879289226 0.0637051161123 -1.68683213307e-19)
(-0.197375992833 0.0661470313805 -4.13120063642e-21)
(-0.333415805084 -0.0563543316004 -3.28776009507e-19)
(-0.197024334931 0.0541859913409 -2.62474765929e-19)
(-0.244995169575 -0.303606700835 -2.34912345045e-19)
(-0.155196527869 0.0987104655633 -9.37266613285e-21)
(-0.144880283138 0.0921681669615 -9.44842593538e-22)
(-0.172965272302 0.0955355617031 -1.85487247088e-20)
(-0.16141278618 0.0904719902059 -1.23354152382e-20)
(-0.18326872274 0.0815195648389 -2.23347705166e-20)
(-0.168858724029 0.0837509279478 -2.10363184307e-21)
(-0.162902442075 0.0465162138716 -9.79227532579e-20)
(-0.162372740926 0.0612263335044 -2.80718099806e-20)
(-0.121180217533 -0.0591836649483 -1.68611101467e-19)
(-0.091322299209 0.0568527621839 -2.06877949955e-19)
(0.117445858698 -0.405643399421 -1.72620661389e-19)
(-0.149077403843 0.0803238048528 -3.90759169889e-21)
(-0.140514775859 0.0788794163005 6.53816396128e-22)
(-0.162299186668 0.0742421020691 4.10967762754e-21)
(-0.15533155182 0.0755102956564 -1.78813519488e-20)
(-0.173511222425 0.0738168899712 -7.84067130713e-21)
(-0.168433765281 0.053690243917 1.31439043766e-20)
(-0.127961815343 0.0782458460567 -1.37027006678e-19)
(-0.166801857856 0.0437374160653 -1.09565132815e-19)
(0.200312956951 -0.13598737989 -2.10887509878e-19)
(0.122920288266 -0.0202512245159 -6.53256221206e-19)
(0.639205793796 -0.475976043962 -5.02881046404e-19)
(-0.141773458635 0.0715494480043 -1.33199438538e-20)
(-0.136034609686 0.0725001034354 -6.21374228838e-21)
(-0.145526723058 0.0556572081671 -8.84712519976e-21)
(-0.139439687118 0.0744428491048 -1.39317451329e-20)
(-0.128782248193 0.0235564219115 -8.85805571309e-20)
(-0.136333183625 0.0520106757616 3.69398765596e-20)
(0.144458617238 -0.031251195268 -6.25794347343e-19)
(-0.111994261208 0.100392804217 -1.15237937065e-19)
(1.01794310582 -0.0812917773504 -9.45249757733e-19)
(0.172956787692 -0.0502892444819 -7.78389210836e-19)
(1.37743985547 1.09188915971 -6.14657564044e-19)
(-0.14008277527 0.0732714771573 -6.82554356745e-21)
(-0.140555244185 0.0663912047414 -4.11295370809e-21)
(-0.141652954038 0.0825123329141 3.18552566265e-20)
(-0.148680831158 0.073077400456 -1.09028363716e-21)
(-0.132533810377 0.105452309278 1.02824966255e-20)
(-0.159273319874 0.0708018642218 3.05211515425e-20)
(-0.147722046796 0.13766226167 -2.67832800558e-19)
(-0.144204269521 0.13726833136 -1.02157977888e-19)
(-0.174416703377 0.702367068716 -4.47797017147e-19)
(-0.391747866356 0.0423351422643 -5.76091675462e-19)
(-1.6063944714 1.02616295841 -4.92984831566e-19)
(-0.148627247835 0.0632483279195 1.6223062222e-21)
(-0.144196686246 0.0560160971569 1.46420268066e-21)
(-0.160763866555 0.0711230946233 -2.42438872113e-21)
(-0.156555796034 0.0593806439395 -5.40543037589e-21)
(-0.169758443838 0.0764102109621 -8.19193229713e-20)
(-0.164560537082 0.0617531700315 -1.57144297111e-21)
(-0.309197755516 0.100196336494 -4.10416852793e-19)
(-0.167990394054 0.0795259044925 -1.47888002464e-19)
(-1.08509833036 -0.0366820736993 -6.21279489882e-19)
(-0.254871531346 0.0918032924475 -4.24602277338e-19)
(-0.65913528429 -0.690687125928 -4.65752038243e-19)
(-0.150158079305 0.049399680883 -5.56353391743e-21)
(-0.143870494501 0.0454658964347 -2.17738254223e-21)
(-0.16365473784 0.049618352694 -4.55248462587e-21)
(-0.156774573718 0.0460931795254 -1.51409230465e-20)
(-0.186749342192 0.0587356874374 -6.75401224635e-20)
(-0.17367791907 0.0288580900577 -1.18451229552e-21)
(-0.191590144876 0.0983723024789 -1.62073427009e-19)
(-0.207627022756 0.0293874080423 -1.34626999222e-19)
(-0.229377300114 -0.194369870293 -2.69074825699e-19)
(0.0378711580571 -0.00994158199295 -5.56840214994e-19)
(0.256477131584 -0.629248807384 -4.62503514925e-19)
(-0.146620435972 0.0395823886211 -1.17547716713e-20)
(-0.141612865534 0.0383516152412 -3.6238655618e-21)
(-0.153105840035 0.0284192694509 -1.17729507161e-20)
(-0.145611483692 0.0418133106892 -8.33727946109e-21)
(-0.155270960171 -6.08341588313e-05 -6.82713890541e-20)
(-0.145197824232 0.0162489591525 7.96355882315e-21)
(0.0757467383565 -0.0735495178596 -5.29393787207e-19)
(-0.134138293492 0.0643295582418 -4.4674625748e-20)
(0.808378898912 -0.0661840664066 -7.5026890422e-19)
(0.0305012052715 -0.0876157212376 -3.01138233643e-19)
(1.0669522277 1.00967336751 -6.00941626324e-21)
(-0.145309389394 0.0374876726996 -2.06373351599e-22)
(-0.143734377462 0.0323790593877 -2.15001897082e-21)
(-0.15014266168 0.0425331234099 1.13992300782e-20)
(-0.1506569021 0.0371980017364 3.47649635151e-21)
(-0.146933229512 0.0627528026887 3.15603221293e-20)
(-0.165417480004 0.0288960618521 8.27447839769e-21)
(-0.221925622054 0.0789901486183 1.83580927816e-19)
(-0.150375631829 0.0953775608361 6.39142717308e-21)
(-0.30865311021 0.619336167568 4.43121254313e-19)
(-0.509844785491 -0.000777812750037 -6.52938316005e-20)
(-1.87497945369 0.944540424672 2.2715299035e-19)
(-0.149196207931 0.0289555623856 1.53285073228e-21)
(-0.144899151885 0.0240184967372 -3.23754262011e-23)
(-0.161698691923 0.0335024681463 3.51744670994e-22)
(-0.155203740265 0.0239733015238 3.05210032073e-21)
(-0.172868709735 0.0373332184065 -1.68944165585e-20)
(-0.16924819163 0.0243134344928 -4.49479440748e-21)
(-0.351900082651 0.0690850918322 -2.42483332243e-19)
(-0.182127541088 0.035858153861 -9.81751861077e-21)
(-1.3045732923 -0.0821370315207 -2.81262095564e-19)
(-0.358618102213 0.033987567794 -2.09301841565e-19)
(-1.01526714832 -0.488306090291 4.29272800455e-20)
(-0.149444792989 0.0182678407131 1.48687416225e-21)
(-0.143557238943 0.0150112249138 1.11450971978e-21)
(-0.161652391876 0.0164347909923 -1.79443875774e-21)
(-0.153370611668 0.01132070313 1.07001954081e-21)
(-0.176668379339 0.0146255323434 2.58210354025e-21)
(-0.167438890686 0.00786737369909 -9.04144497995e-21)
(-0.237543343895 0.0233326220874 2.33639720673e-20)
(-0.190834622518 -0.00326459511104 1.28138794722e-21)
(-0.553967929123 -0.0843578756258 1.14887534045e-19)
(-0.250927157486 -0.00719981265392 -2.78308884043e-20)
(-0.479375439801 -0.330485158065 3.65866668217e-20)
(-0.145924841938 0.00827292578296 6.97655098341e-22)
(-0.1398207075 0.00739577021784 6.69278456795e-22)
(-0.155796242882 0.00165688509001 -6.1769866814e-21)
(-0.146754497318 0.00138897917399 -4.13718382517e-22)
(-0.171245670131 -0.0104888862935 -1.0342160573e-20)
(-0.155293081166 -0.00687351963911 -7.3213077429e-21)
(-0.199861440711 -0.0321258207085 -4.99134725243e-20)
(-0.169197659204 -0.0227469777476 -4.85309010402e-21)
(-0.287119256505 -0.0994152124514 -1.06131755627e-19)
(-0.183639666199 -0.0425563786243 -5.86989046382e-20)
(-0.262869009721 -0.209065295821 -6.82814210118e-20)
(-0.13989926113 0.00122676822823 -4.42095024063e-22)
(-0.135031100269 0.00221668088879 1.76071170329e-22)
(-0.14524081237 -0.00705434302124 -1.55803944402e-21)
(-0.138473326597 -0.00431105404066 -2.68771770393e-21)
(-0.152475333388 -0.0201679661572 -1.83223727394e-21)
(-0.14217942663 -0.0132681838774 -4.84140449361e-21)
(-0.15607768229 -0.0416703443451 -1.36385222179e-20)
(-0.147695258514 -0.0264353260051 -1.93958282391e-21)
(-0.187337195552 -0.0888253013547 -2.08485700228e-20)
(-0.136486686746 -0.0415718030746 -8.30527017899e-21)
(-0.17616803439 -0.140226494861 -3.97027633724e-21)
(-0.133687305445 -0.00278591512924 -2.06955150954e-21)
(-0.130345880493 -0.000628986790857 1.14400956089e-22)
(-0.135348154783 -0.00996778343925 -5.97108275352e-21)
(-0.131291415761 -0.006379216715 -4.71284834176e-21)
(-0.137118409917 -0.0215040378162 -4.94875004358e-21)
(-0.130643149302 -0.0127097223654 -8.99834639772e-21)
(-0.127754162281 -0.0385546388058 3.39366921496e-21)
(-0.130644635898 -0.0208369547988 -6.86067718197e-21)
(-0.135655445332 -0.0739138874053 8.57302350653e-21)
(-0.101129884064 -0.0292263790701 -1.09295336478e-21)
(-0.134267503753 -0.0920954745542 -2.24242261555e-21)
(-0.12877675113 -0.00386738009009 -2.52889587613e-21)
(-0.126999952689 -0.0019586869187 -5.05378280998e-22)
(-0.128143054836 -0.00847164573638 -7.74011198596e-21)
(-0.12668712221 -0.00632973326332 -3.43956795401e-21)
(-0.126932797569 -0.0145506976121 -1.09102735361e-20)
(-0.124564082647 -0.00886230797421 -1.49088444547e-20)
(-0.109301527046 -0.022480358484 -1.13472997617e-20)
(-0.122714964293 -0.0126391715895 -1.06729933924e-20)
(-0.105931564194 -0.0397909695323 -1.19083994869e-20)
(-0.0838205309264 -0.0147980863122 -1.34521425825e-20)
(-0.10670133134 -0.0552583002631 -1.23815130436e-20)
(-0.125718244205 -0.00404460453731 -1.41605035888e-21)
(-0.124301824134 -0.00651361050507 -1.06083004228e-20)
(-0.122175183336 -0.00921595958095 -1.4671564311e-20)
(-0.121861725289 -0.00516057254488 -1.81457452689e-20)
(-0.0995626316086 -0.0121557473533 -1.27778362132e-20)
(-0.119775166763 -0.0072364216063 -9.76317560983e-21)
(-0.0871349895722 -0.0242252329999 -1.39252561393e-20)
(-0.0717522292642 -0.00544040755858 -7.30739407035e-21)
(-0.0891820248091 -0.0333386134971 -6.53241200253e-21)
(-0.120938417988 -0.00453221223176 -1.32373565677e-20)
(-0.121768515378 -0.00219704788154 -1.67568575827e-20)
(-0.0942232531208 -0.00422637989291 -4.292733467e-21)
(-0.120080998422 -0.00378841072271 -6.19028175765e-21)
(-0.0753639642118 -0.0113717322378 8.54500663852e-23)
(-0.064607687952 0.00144219215603 4.39516587543e-21)
(-0.0780151939883 -0.0183330747233 4.41411694287e-21)
(-0.121782183156 -0.00212280313567 -9.70978277264e-21)
(-0.122901075793 -0.00052535683602 -1.39760067009e-20)
(-0.0920993236405 -0.000283673725125 2.49761758478e-21)
(-0.121920129091 -0.00276020669136 -2.29369019159e-21)
(-0.0690111893142 -0.00430346986319 8.72383275192e-21)
(-0.0605880503655 0.00566168854709 6.90241451239e-21)
(-0.0709820315705 -0.00959594194206 6.61670120497e-21)
(-0.12386272421 -0.00168679897526 -6.55991411987e-21)
(-0.0920798428888 0.00174835088889 2.11110673602e-21)
(-0.0640377365936 0.000367416279212 4.79528296544e-21)
)
;

boundaryField
{
    back
    {
        type            calculated;
        value           uniform (0 0 0);
    }
    sides
    {
        type            calculated;
        value           nonuniform List<vector> 0();
    }
    bottom
    {
        type            calculated;
        value           nonuniform List<vector> 0();
    }
    front
    {
        type            calculated;
        value           uniform (0 0 0);
    }
    atmosphere
    {
        type            calculated;
        value           nonuniform List<vector> 
27
(
(0 -2.69734065597 0)
(0.491938045869 3.71457756538 1.34423335727e-18)
(-0.491946238788 3.71458831147 1.42023273565e-18)
(0 -2.69738368703 0)
(0 -0.319978158118 0)
(-0.394102016465 3.88416853332 -1.217724033e-20)
(0 -1.22228879716 0)
(0 -0.817646543344 0)
(0 -0.452172302773 0)
(0 -0.421626889577 0)
(0 -0.657756399591 0)
(0 -0.819519857617 0)
(-0.176779434382 3.68619617264 -4.04223537787e-19)
(0 -0.983936688736 0)
(0 -1.10998271981 0)
(0 -0.876653957023 0)
(-0.314682324165 3.5612654057 5.63230246184e-19)
(0 -0.941852303808 0)
(0 -0.620249911042 0)
(0 -0.315919788623 0)
(0 -0.175524312141 0)
(0 -0.115811979671 0)
(0 -0.0673558441018 0)
(0 -0.0417433602972 0)
(0 -0.0225377774 0)
(0 -0.0113361938767 0)
(0 -0.00503076278167 0)
)
;
    }
    floatingObject
    {
        type            calculated;
        value           nonuniform List<vector> 4((0 0 0) (0 0 0) (-2.77555756156e-16 0 0) (0 0 0));
    }
    procBoundary6to3
    {
        type            processor;
        value           nonuniform List<vector> 8((0.0784294747917 0.141267493874 1.46790113076e-17) (0.0913318201363 0.142026293456 6.19005258158e-18) (0.101474909085 0.164666419559 4.52305784404e-18) (0.112803384216 0.193958716662 3.34698520396e-18) (0.138224293425 0.213209461887 1.70317907727e-18) (0.176953210822 0.221692545876 9.23854930786e-19) (0.220550239714 0.198873917433 5.52791188195e-19) (0.097469938554 -0.837476976425 6.89480918928e-19));
    }
    procBoundary6to7
    {
        type            processor;
        value           nonuniform List<vector> 
11
(
(-0.140461037794 0.0196095535791 2.21025879614e-23)
(-0.138323802919 0.0120092786031 1.13641990649e-21)
(-0.134840051468 0.00601623309016 -5.28756338808e-22)
(-0.130992242945 0.00189920461461 7.02691242141e-22)
(-0.127654604816 -0.000521514569909 -4.51554684148e-22)
(-0.125300212651 -0.00194107715563 2.05379340651e-22)
(-0.124896389935 -0.00262970546944 -2.35790190044e-23)
(-0.124218100732 -0.00578649878432 -2.0057728247e-21)
(-0.122939034201 -0.00443900962854 -9.54321767081e-21)
(-0.123353378521 -0.00325535490489 -9.85577153672e-21)
(-0.124761874852 -0.00348401951867 -8.02231043567e-21)
)
;
    }
    procBoundary6to8
    {
        type            processor;
        value           nonuniform List<vector> 
16
(
(-0.0784314787211 0.141267813253 1.47633618436e-17)
(-0.0913327385004 0.142026003975 6.20639314966e-18)
(-0.10495785181 0.185343645223 4.84758009256e-18)
(-0.115217528441 0.183091920252 4.07346670554e-19)
(-0.128434874467 0.16086988378 -1.30570908599e-19)
(-0.133325143969 0.139016728655 2.1736911681e-20)
(-0.136937731944 0.118442385684 5.68758200219e-22)
(-0.137447348352 0.0998662310724 -8.29532328223e-22)
(-0.135478099945 0.0846903814155 3.90202939533e-22)
(-0.133628077107 0.0760305308658 -5.05793003806e-22)
(-0.134736236865 0.068751579715 -5.64871617004e-21)
(-0.138144374018 0.0596074191466 2.51399106989e-21)
(-0.139378481448 0.0497261929947 -8.083406918e-22)
(-0.138992928055 0.0418401496786 -1.69451772322e-21)
(-0.139559278967 0.0353660984818 -2.2646267899e-21)
(-0.140759495704 0.0277906311867 3.40442716518e-22)
)
;
    }
    procBoundary6to9
    {
        type            processor;
        value           nonuniform List<vector> 4((-0.124698315945 -0.000519321212853 -5.29854503511e-21) (-0.125355284487 -0.00435187838145 -3.34763150431e-21) (-0.0592060187404 0.00653141757601 -1.22976421426e-21) (-0.065586150646 -0.00471840479092 -1.05042710889e-21));
    }
}


// ************************************************************************* //
