/*--------------------------------*- C++ -*----------------------------------*\
| =========                 |                                                 |
| \\      /  F ield         | OpenFOAM: The Open Source CFD Toolbox           |
|  \\    /   O peration     | Version:  v2012                                 |
|   \\  /    A nd           | Website:  www.openfoam.com                      |
|    \\/     M anipulation  |                                                 |
\*---------------------------------------------------------------------------*/
FoamFile
{
    version     2.0;
    format      ascii;
    class       volScalarField;
    location    "3.6";
    object      epsilon;
}
// * * * * * * * * * * * * * * * * * * * * * * * * * * * * * * * * * * * * * //

dimensions      [0 2 -3 0 0 0 0];


internalField   nonuniform List<scalar> 
166
(
0.00162701838209
0.0016333685355
0.00164158494864
0.00165429446961
0.00167848705465
0.0017312598662
0.00185580072928
0.00218809096394
0.00324489146901
0.00690235594289
0.0184980295346
0.0518790577193
0.160751881184
0.0016215009452
0.00162694724807
0.00163235057064
0.0016385774089
0.00164658353507
0.00165887491029
0.00168221998721
0.00173361408469
0.00185683437515
0.00218957909714
0.00325073650772
0.00693398725931
0.0187143820462
0.0525134386741
0.160883078954
0.00136250623526
0.00142028933204
0.00161901443241
0.0016267738121
0.0016321640105
0.00163749723861
0.00164362364101
0.00165143948306
0.00166329365669
0.00168563920683
0.00173498309662
0.00185447462828
0.00217980575397
0.00322715712905
0.00693338342243
0.0190066277713
0.0534498889157
0.161270879791
0.00136674920589
0.00142460504084
0.00155852887129
0.0016066324294
0.00162405012658
0.00163179279596
0.00163714598597
0.00164242953174
0.00164847841486
0.00165613319899
0.00166755399621
0.00168879714113
0.00173563230886
0.00184982809734
0.00216336831334
0.00318774796122
0.00690871317289
0.0192889335649
0.0544293126857
0.161708871314
0.00137065431393
0.00142856337201
0.00156300435662
0.00161130952528
0.00162878391631
0.00163652982468
0.00164186901487
0.0016471279194
0.00165312537946
0.00166064189184
0.00167166646195
0.00169182960126
0.00173609792668
0.00184475611376
0.00214621624064
0.0031483597525
0.00688624375291
0.0195809442949
0.0553852506205
0.162133149336
0.0013740768338
0.00143215509264
0.00156711612035
0.00161564034006
0.00163319425947
0.00164096722688
0.00164631401398
0.00165157468822
0.00165755128659
0.00166496416665
0.00167563685322
0.00169480344543
0.00173667165214
0.0018401992057
0.00213106249351
0.00311353574992
0.00685852374859
0.0197848573395
0.056008054385
0.162357791501
0.00137709268816
0.00143534729392
0.00157083499323
0.00161959771284
0.00163725216567
0.00164507724162
0.00165045856571
0.00165574922126
0.00166173728214
0.00166908545617
0.00167945790968
0.00169772333925
0.00173740865067
0.00183639737284
0.00211783479476
0.0030799057543
0.00680256395965
0.0197428141387
0.0559472444513
0.162020193678
0.00137960842825
0.00143810195613
0.00157413350504
0.00162315573708
0.00164093121275
0.00164882554021
0.00165426937497
0.00165961989342
0.001665654371
0.0016729819911
0.00168311610947
0.00170057176243
0.0017382246488
0.00183285553988
0.00210460654177
0.00303957941973
0.00667217846953
0.0194480312196
0.0552148936165
0.152216042998
0.00138157088125
0.00144039670298
0.00157697613419
0.00162628203109
0.00164420391325
0.00165219238386
0.00165772217453
0.00166316006975
0.00166927555056
0.00167662851413
0.0016865927746
0.00170333354731
0.00173904225403
0.00182916730932
0.00208901223807
0.00297701486168
0.00644659605808
0.0189232743196
0.0544451902895
0.150946019313
)
;

boundaryField
{
    back
    {
        lowReCorrection 0;
        blending        stepwise;
        n               2;
        type            epsilonWallFunction;
        value           nonuniform List<scalar> 
166
(
0.00162701838209
0.0016333685355
0.00164158494864
0.00165429446961
0.00167848705465
0.0017312598662
0.00185580072928
0.00218809096394
0.00324489146901
0.00690235594289
0.0184980295346
0.0518790577193
0.160751881184
0.0016215009452
0.00162694724807
0.00163235057064
0.0016385774089
0.00164658353507
0.00165887491029
0.00168221998721
0.00173361408469
0.00185683437515
0.00218957909714
0.00325073650772
0.00693398725931
0.0187143820462
0.0525134386741
0.160883078954
0.00136250623526
0.00142028933204
0.00161901443241
0.0016267738121
0.0016321640105
0.00163749723861
0.00164362364101
0.00165143948306
0.00166329365669
0.00168563920683
0.00173498309662
0.00185447462828
0.00217980575397
0.00322715712905
0.00693338342243
0.0190066277713
0.0534498889157
0.161270879791
0.00136674920589
0.00142460504084
0.00155852887129
0.0016066324294
0.00162405012658
0.00163179279596
0.00163714598597
0.00164242953174
0.00164847841486
0.00165613319899
0.00166755399621
0.00168879714113
0.00173563230886
0.00184982809734
0.00216336831334
0.00318774796122
0.00690871317289
0.0192889335649
0.0544293126857
0.161708871314
0.00137065431393
0.00142856337201
0.00156300435662
0.00161130952528
0.00162878391631
0.00163652982468
0.00164186901487
0.0016471279194
0.00165312537946
0.00166064189184
0.00167166646195
0.00169182960126
0.00173609792668
0.00184475611376
0.00214621624064
0.0031483597525
0.00688624375291
0.0195809442949
0.0553852506205
0.162133149336
0.0013740768338
0.00143215509264
0.00156711612035
0.00161564034006
0.00163319425947
0.00164096722688
0.00164631401398
0.00165157468822
0.00165755128659
0.00166496416665
0.00167563685322
0.00169480344543
0.00173667165214
0.0018401992057
0.00213106249351
0.00311353574992
0.00685852374859
0.0197848573395
0.056008054385
0.162357791501
0.00137709268816
0.00143534729392
0.00157083499323
0.00161959771284
0.00163725216567
0.00164507724162
0.00165045856571
0.00165574922126
0.00166173728214
0.00166908545617
0.00167945790968
0.00169772333925
0.00173740865067
0.00183639737284
0.00211783479476
0.0030799057543
0.00680256395965
0.0197428141387
0.0559472444513
0.162020193678
0.00137960842825
0.00143810195613
0.00157413350504
0.00162315573708
0.00164093121275
0.00164882554021
0.00165426937497
0.00165961989342
0.001665654371
0.0016729819911
0.00168311610947
0.00170057176243
0.0017382246488
0.00183285553988
0.00210460654177
0.00303957941973
0.00667217846953
0.0194480312196
0.0552148936165
0.152216042998
0.00138157088125
0.00144039670298
0.00157697613419
0.00162628203109
0.00164420391325
0.00165219238386
0.00165772217453
0.00166316006975
0.00166927555056
0.00167662851413
0.0016865927746
0.00170333354731
0.00173904225403
0.00182916730932
0.00208901223807
0.00297701486168
0.00644659605808
0.0189232743196
0.0544451902895
0.150946019313
)
;
    }
    sides
    {
        lowReCorrection 0;
        blending        stepwise;
        n               2;
        type            epsilonWallFunction;
        value           nonuniform List<scalar> 0();
    }
    bottom
    {
        lowReCorrection 0;
        blending        stepwise;
        n               2;
        type            epsilonWallFunction;
        value           nonuniform List<scalar> 7(0.00136250623526 0.00136674920589 0.00137065431393 0.0013740768338 0.00137709268816 0.00137960842825 0.00138157088125);
    }
    front
    {
        lowReCorrection 0;
        blending        stepwise;
        n               2;
        type            epsilonWallFunction;
        value           nonuniform List<scalar> 
166
(
0.00162701838209
0.0016333685355
0.00164158494864
0.00165429446961
0.00167848705465
0.0017312598662
0.00185580072928
0.00218809096394
0.00324489146901
0.00690235594289
0.0184980295346
0.0518790577193
0.160751881184
0.0016215009452
0.00162694724807
0.00163235057064
0.0016385774089
0.00164658353507
0.00165887491029
0.00168221998721
0.00173361408469
0.00185683437515
0.00218957909714
0.00325073650772
0.00693398725931
0.0187143820462
0.0525134386741
0.160883078954
0.00136250623526
0.00142028933204
0.00161901443241
0.0016267738121
0.0016321640105
0.00163749723861
0.00164362364101
0.00165143948306
0.00166329365669
0.00168563920683
0.00173498309662
0.00185447462828
0.00217980575397
0.00322715712905
0.00693338342243
0.0190066277713
0.0534498889157
0.161270879791
0.00136674920589
0.00142460504084
0.00155852887129
0.0016066324294
0.00162405012658
0.00163179279596
0.00163714598597
0.00164242953174
0.00164847841486
0.00165613319899
0.00166755399621
0.00168879714113
0.00173563230886
0.00184982809734
0.00216336831334
0.00318774796122
0.00690871317289
0.0192889335649
0.0544293126857
0.161708871314
0.00137065431393
0.00142856337201
0.00156300435662
0.00161130952528
0.00162878391631
0.00163652982468
0.00164186901487
0.0016471279194
0.00165312537946
0.00166064189184
0.00167166646195
0.00169182960126
0.00173609792668
0.00184475611376
0.00214621624064
0.0031483597525
0.00688624375291
0.0195809442949
0.0553852506205
0.162133149336
0.0013740768338
0.00143215509264
0.00156711612035
0.00161564034006
0.00163319425947
0.00164096722688
0.00164631401398
0.00165157468822
0.00165755128659
0.00166496416665
0.00167563685322
0.00169480344543
0.00173667165214
0.0018401992057
0.00213106249351
0.00311353574992
0.00685852374859
0.0197848573395
0.056008054385
0.162357791501
0.00137709268816
0.00143534729392
0.00157083499323
0.00161959771284
0.00163725216567
0.00164507724162
0.00165045856571
0.00165574922126
0.00166173728214
0.00166908545617
0.00167945790968
0.00169772333925
0.00173740865067
0.00183639737284
0.00211783479476
0.0030799057543
0.00680256395965
0.0197428141387
0.0559472444513
0.162020193678
0.00137960842825
0.00143810195613
0.00157413350504
0.00162315573708
0.00164093121275
0.00164882554021
0.00165426937497
0.00165961989342
0.001665654371
0.0016729819911
0.00168311610947
0.00170057176243
0.0017382246488
0.00183285553988
0.00210460654177
0.00303957941973
0.00667217846953
0.0194480312196
0.0552148936165
0.152216042998
0.00138157088125
0.00144039670298
0.00157697613419
0.00162628203109
0.00164420391325
0.00165219238386
0.00165772217453
0.00166316006975
0.00166927555056
0.00167662851413
0.0016865927746
0.00170333354731
0.00173904225403
0.00182916730932
0.00208901223807
0.00297701486168
0.00644659605808
0.0189232743196
0.0544451902895
0.150946019313
)
;
    }
    atmosphere
    {
        type            inletOutlet;
        inletValue      uniform 0.1;
        value           nonuniform List<scalar> 9(0.1 0.1 0.1 0.1 0.1 0.1 0.162020193678 0.152216042998 0.150946019313);
    }
    floatingObject
    {
        lowReCorrection 0;
        blending        stepwise;
        n               2;
        type            epsilonWallFunction;
        value           nonuniform List<scalar> 0();
    }
    procBoundary0to1
    {
        type            processor;
        value           nonuniform List<scalar> 10(0.00164959485499 0.00167457623382 0.00172852461907 0.00185373220283 0.00218269469364 0.00322523919723 0.00685615018704 0.0183984317472 0.0517012607673 0.160961930452);
    }
    procBoundary0to2
    {
        type            processor;
        value           nonuniform List<scalar> 
14
(
0.00162153699715
0.00162803022483
0.00163646515924
0.0016160087578
0.00162152712148
0.00162152712148
0.00135787480489
0.00141565850033
0.00161370770152
0.00161370770152
0.00155370949677
0.00155370949677
0.00160163346832
0.00160163346832
)
;
    }
    procBoundary0to4
    {
        type            processor;
        value           nonuniform List<scalar> 8(0.00138302748799 0.00144219262943 0.00157932002317 0.00162893798199 0.00164703740088 0.00165514918005 0.00166079099747 0.00166634463499);
    }
    procBoundary0to5
    {
        type            processor;
        value           nonuniform List<scalar> 
12
(
0.00167257414135
0.00167999619744
0.00168984946753
0.00170596143284
0.00173981075651
0.00182506206489
0.00206877681925
0.00288670342002
0.0061198622417
0.0183024884448
0.0534319202396
0.138051093723
)
;
    }
}


// ************************************************************************* //
