/*--------------------------------*- C++ -*----------------------------------*\
| =========                 |                                                 |
| \\      /  F ield         | OpenFOAM: The Open Source CFD Toolbox           |
|  \\    /   O peration     | Version:  v2012                                 |
|   \\  /    A nd           | Website:  www.openfoam.com                      |
|    \\/     M anipulation  |                                                 |
\*---------------------------------------------------------------------------*/
FoamFile
{
    version     2.0;
    format      ascii;
    class       volScalarField;
    location    "3.6";
    object      nut;
}
// * * * * * * * * * * * * * * * * * * * * * * * * * * * * * * * * * * * * * //

dimensions      [0 2 -1 0 0 0 0];


internalField   nonuniform List<scalar> 
166
(
0.000645032555876
0.00064588406272
0.000646987304261
0.000648692770335
0.000651919396249
0.000658857169591
0.000674828863636
0.000714827204832
0.000819773945896
0.00105649054017
0.00145818125429
0.00205401103918
0.00304036017677
0.00064426918581
0.000645001119407
0.000645724851353
0.000646557665727
0.000647628801359
0.000649270911556
0.000652367853551
0.000659086231669
0.000674781878559
0.000714505583016
0.000819074249924
0.00105594494789
0.00145938968676
0.00205256497168
0.00303754878573
0.000413989291832
0.000616223112232
0.000643909342192
0.000644954259831
0.000645676825616
0.000646389251769
0.00064720639909
0.00064824832332
0.00064982473597
0.000652772807158
0.00065918484885
0.000674303953964
0.000712897416849
0.00081585636146
0.00105389654451
0.00146287319896
0.00205626040451
0.00303656550389
0.000414405089831
0.000616815165695
0.000635671016023
0.000642211535665
0.000644560588552
0.000645601926936
0.000646318355109
0.000647022601231
0.000647827384439
0.000648844732131
0.000650357819037
0.000653147514231
0.000659200241741
0.000673555141621
0.00071051112574
0.000811070027514
0.00105066555066
0.00146652523206
0.00206135219669
0.00303604120024
0.000414785957138
0.000617353168894
0.000636251990749
0.000642812758881
0.000645168052164
0.000646209269443
0.000646922842641
0.000647622376983
0.000648418498314
0.000649415044851
0.000650871682872
0.000653511690322
0.000659214154758
0.000672830128515
0.000708303217437
0.000806926702791
0.00104752346014
0.00146924729692
0.00206595883306
0.00303542939626
0.000415117286398
0.000617836600085
0.000636781024129
0.00064336501303
0.000645729898456
0.000646774244743
0.000647487903485
0.000648186289607
0.000648977864453
0.000649958389049
0.000651365299757
0.00065386892569
0.000659249210901
0.000672198624128
0.000706430452694
0.000803399672121
0.00104443856895
0.00147122679118
0.00206608335861
0.00302890901289
0.000415405037647
0.000618260278035
0.000637254728842
0.000643865320309
0.000646242817879
0.000647293609299
0.000648010914189
0.000648711819492
0.000649503029587
0.0006504725935
0.000651836748552
0.000654217064864
0.000659304144549
0.000671657002354
0.000704768121013
0.000799999490685
0.00104016388693
0.00146673246046
0.00205547480706
0.00278506237365
0.000415641270338
0.00061862004111
0.0006376699783
0.00064431074646
0.00064670366725
0.000647763184509
0.000648487668898
0.000649194855719
0.000649990074932
0.000650954295904
0.000652283791563
0.000654553498778
0.000659368871445
0.000671150903357
0.000703083778564
0.000795828194362
0.00103219827747
0.00145594745559
0.00202981162416
0.00262695952826
0.000415821210332
0.000618914510944
0.000638022607474
0.000644697283192
0.000647108965975
0.0006481803552
0.000648915039668
0.000649632075959
0.000650435789655
0.000651400591965
0.000652704863593
0.00065487728747
0.000659434419662
0.000670628157069
0.000701123926869
0.000789878680111
0.00101950871868
0.00144015986492
0.00201268826652
0.00259466561116
)
;

boundaryField
{
    back
    {
        type            nutkWallFunction;
        blending        stepwise;
        Cmu             0.09;
        kappa           0.41;
        E               9.8;
        value           nonuniform List<scalar> 
166
(
6.69210237481e-05
6.7000449609e-05
6.7103011469e-05
6.72611010302e-05
6.75597995993e-05
6.82012285464e-05
6.96659564264e-05
7.32789370978e-05
8.26864315745e-05
0.000104008333221
0.000140301921621
0.000241679099498
0.000343727673946
6.68513250646e-05
6.69196166395e-05
6.69871924044e-05
6.70648922975e-05
6.71645739568e-05
6.73170576909e-05
6.76045215692e-05
6.82277073056e-05
6.96736770257e-05
7.32827680326e-05
8.27042208941e-05
0.000104104466603
0.000140704907351
0.000242323669606
0.000343719029623
5.81054381973e-05
6.42131243021e-05
6.68194999757e-05
6.69168879425e-05
6.69843177415e-05
6.70508599508e-05
6.71271283554e-05
6.72241978318e-05
6.73708686693e-05
6.76453011161e-05
6.82422813596e-05
6.96423027551e-05
7.31707308136e-05
8.24934998192e-05
0.000104056491896
0.000141282630556
0.000243423788636
0.000343883868943
5.81598463784e-05
6.42714984784e-05
6.60495189566e-05
6.66628633881e-05
6.68820961956e-05
6.69790844145e-05
6.70459152644e-05
6.71116959533e-05
6.71868331496e-05
6.72816839271e-05
6.74226572846e-05
6.76829411739e-05
6.82484514255e-05
6.95849856657e-05
7.29891818901e-05
8.21532667348e-05
0.000103899567028
0.000141841227781
0.00024459451794
0.000344084862988
5.8209784203e-05
6.43248363236e-05
6.61063518758e-05
6.67211579533e-05
6.6940733473e-05
6.70376005246e-05
6.71041318584e-05
6.71694729252e-05
6.72438169034e-05
6.73367611365e-05
6.74725643535e-05
6.77191525993e-05
6.82529432891e-05
6.95245089616e-05
7.28055982655e-05
8.18259041667e-05
0.000103751837669
0.000142389878124
0.0002457141722
0.000344276405079
5.82534093287e-05
6.43730530129e-05
6.61583775126e-05
6.67749507415e-05
6.69951854961e-05
6.7092240249e-05
6.71587491851e-05
6.72239864442e-05
6.72979248845e-05
6.73894062683e-05
6.75206261719e-05
6.7754632451e-05
6.82588988192e-05
6.94705684973e-05
7.26445985205e-05
8.15378838357e-05
0.000103587083063
0.000142770716886
0.000246357218391
0.000344215747953
5.82916682775e-05
6.44157100412e-05
6.62052559898e-05
6.68239354667e-05
6.70451216878e-05
6.71426856218e-05
6.72095128399e-05
6.72750001995e-05
6.73489373629e-05
6.74394440714e-05
6.75667378096e-05
6.77893743857e-05
6.8266780604e-05
6.94251662353e-05
7.2502931206e-05
8.12583061034e-05
0.000103297595277
0.000142600390668
0.000246000393905
0.000337468933608
5.83234270165e-05
6.44523406236e-05
6.62466696286e-05
6.68678185593e-05
6.70902397824e-05
6.71885363719e-05
6.72560309388e-05
6.73221392323e-05
6.73965072128e-05
6.74865871266e-05
6.76107298853e-05
6.78231599437e-05
6.8275596969e-05
6.93827899469e-05
7.2360286676e-05
8.09188115514e-05
0.000102663828395
0.000141868059595
0.000244527219606
0.000328205926335
5.83480408784e-05
6.44827024877e-05
6.62821984676e-05
6.6906219967e-05
6.71302193487e-05
6.72295645191e-05
6.729802097e-05
6.73650939346e-05
6.74403231589e-05
6.75305459704e-05
6.76524020434e-05
6.78558318656e-05
6.828444464e-05
6.93387178445e-05
7.21921369034e-05
8.03995979738e-05
0.000101576973012
0.000140626842625
0.000243205223819
0.000326632949654
)
;
    }
    sides
    {
        type            nutkWallFunction;
        blending        stepwise;
        Cmu             0.09;
        kappa           0.41;
        E               9.8;
        value           nonuniform List<scalar> 0();
    }
    bottom
    {
        type            nutkWallFunction;
        blending        stepwise;
        Cmu             0.09;
        kappa           0.41;
        E               9.8;
        value           nonuniform List<scalar> 7(3.08773231185e-05 3.09063955926e-05 3.0933079215e-05 3.09563896035e-05 3.09768325646e-05 3.09938021904e-05 3.10069540562e-05);
    }
    front
    {
        type            nutkWallFunction;
        blending        stepwise;
        Cmu             0.09;
        kappa           0.41;
        E               9.8;
        value           nonuniform List<scalar> 
166
(
6.69210237481e-05
6.7000449609e-05
6.7103011469e-05
6.72611010302e-05
6.75597995993e-05
6.82012285464e-05
6.96659564264e-05
7.32789370978e-05
8.26864315745e-05
0.000104008333221
0.000140301921621
0.000241679099498
0.000343727673946
6.68513250646e-05
6.69196166395e-05
6.69871924044e-05
6.70648922975e-05
6.71645739568e-05
6.73170576909e-05
6.76045215692e-05
6.82277073056e-05
6.96736770257e-05
7.32827680326e-05
8.27042208941e-05
0.000104104466603
0.000140704907351
0.000242323669606
0.000343719029623
5.81054381973e-05
6.42131243021e-05
6.68194999757e-05
6.69168879425e-05
6.69843177415e-05
6.70508599508e-05
6.71271283554e-05
6.72241978318e-05
6.73708686693e-05
6.76453011161e-05
6.82422813596e-05
6.96423027551e-05
7.31707308136e-05
8.24934998192e-05
0.000104056491896
0.000141282630556
0.000243423788636
0.000343883868943
5.81598463784e-05
6.42714984784e-05
6.60495189566e-05
6.66628633881e-05
6.68820961956e-05
6.69790844145e-05
6.70459152644e-05
6.71116959533e-05
6.71868331496e-05
6.72816839271e-05
6.74226572846e-05
6.76829411739e-05
6.82484514255e-05
6.95849856657e-05
7.29891818901e-05
8.21532667348e-05
0.000103899567028
0.000141841227781
0.00024459451794
0.000344084862988
5.8209784203e-05
6.43248363236e-05
6.61063518758e-05
6.67211579533e-05
6.6940733473e-05
6.70376005246e-05
6.71041318584e-05
6.71694729252e-05
6.72438169034e-05
6.73367611365e-05
6.74725643535e-05
6.77191525993e-05
6.82529432891e-05
6.95245089616e-05
7.28055982655e-05
8.18259041667e-05
0.000103751837669
0.000142389878124
0.0002457141722
0.000344276405079
5.82534093287e-05
6.43730530129e-05
6.61583775126e-05
6.67749507415e-05
6.69951854961e-05
6.7092240249e-05
6.71587491851e-05
6.72239864442e-05
6.72979248845e-05
6.73894062683e-05
6.75206261719e-05
6.7754632451e-05
6.82588988192e-05
6.94705684973e-05
7.26445985205e-05
8.15378838357e-05
0.000103587083063
0.000142770716886
0.000246357218391
0.000344215747953
5.82916682775e-05
6.44157100412e-05
6.62052559898e-05
6.68239354667e-05
6.70451216878e-05
6.71426856218e-05
6.72095128399e-05
6.72750001995e-05
6.73489373629e-05
6.74394440714e-05
6.75667378096e-05
6.77893743857e-05
6.8266780604e-05
6.94251662353e-05
7.2502931206e-05
8.12583061034e-05
0.000103297595277
0.000142600390668
0.000246000393905
0.000337468933608
5.83234270165e-05
6.44523406236e-05
6.62466696286e-05
6.68678185593e-05
6.70902397824e-05
6.71885363719e-05
6.72560309388e-05
6.73221392323e-05
6.73965072128e-05
6.74865871266e-05
6.76107298853e-05
6.78231599437e-05
6.8275596969e-05
6.93827899469e-05
7.2360286676e-05
8.09188115514e-05
0.000102663828395
0.000141868059595
0.000244527219606
0.000328205926335
5.83480408784e-05
6.44827024877e-05
6.62821984676e-05
6.6906219967e-05
6.71302193487e-05
6.72295645191e-05
6.729802097e-05
6.73650939346e-05
6.74403231589e-05
6.75305459704e-05
6.76524020434e-05
6.78558318656e-05
6.828444464e-05
6.93387178445e-05
7.21921369034e-05
8.03995979738e-05
0.000101576973012
0.000140626842625
0.000243205223819
0.000326632949654
)
;
    }
    atmosphere
    {
        type            calculated;
        value           nonuniform List<scalar> 9(0.009 0.009 0.009 0.009 0.009 0.009 0.00278506237365 0.00262695952826 0.00259466561116);
    }
    floatingObject
    {
        type            nutkWallFunction;
        blending        stepwise;
        Cmu             0.09;
        kappa           0.41;
        E               9.8;
        value           nonuniform List<scalar> 0();
    }
    procBoundary0to1
    {
        type            processor;
        value           nonuniform List<scalar> 10(0.000648098914721 0.000651449117147 0.000658584695206 0.000674760222569 0.000714752221866 0.00081947069247 0.00105670934562 0.00146058863884 0.00206227944439 0.0030455533748);
    }
    procBoundary0to2
    {
        type            processor;
        value           nonuniform List<scalar> 
14
(
0.00064431779094
0.00064519163536
0.000646328051932
0.000643552744064
0.000644295490148
0.000644295490148
0.000413539389469
0.000615580015226
0.000643218750145
0.000643218750145
0.000635039507897
0.000635039507897
0.000641563717108
0.000641563717108
)
;
    }
    procBoundary0to4
    {
        type            processor;
        value           nonuniform List<scalar> 8(0.000415949059133 0.000619138059135 0.000638307812661 0.000645020792303 0.000647455294025 0.000648542227895 0.000649290305278 0.000650020506598);
    }
    procBoundary0to5
    {
        type            processor;
        value           nonuniform List<scalar> 
12
(
0.000650836558853
0.000651807359338
0.00065309365418
0.000655180341066
0.000659490571322
0.000670051772353
0.000698656865943
0.000781464754683
0.00100158058161
0.00141934537402
0.00198054240632
0.00252972625433
)
;
    }
}


// ************************************************************************* //
