/*--------------------------------*- C++ -*----------------------------------*\
| =========                 |                                                 |
| \\      /  F ield         | OpenFOAM: The Open Source CFD Toolbox           |
|  \\    /   O peration     | Version:  v2012                                 |
|   \\  /    A nd           | Website:  www.openfoam.com                      |
|    \\/     M anipulation  |                                                 |
\*---------------------------------------------------------------------------*/
FoamFile
{
    version     2.0;
    format      ascii;
    class       volVectorField;
    location    "2.3";
    object      ddt0(rho,U);
}
// * * * * * * * * * * * * * * * * * * * * * * * * * * * * * * * * * * * * * //

dimensions      [1 -2 -2 0 0 0 0];


internalField   nonuniform List<vector> 
164
(
(-49.9440887357 11.1078123812 9.2223406318e-19)
(-64.072513667 14.9802900047 1.95742030271e-18)
(-81.8585843784 21.0738169675 1.97360077817e-18)
(-104.014122951 30.3566745106 1.49132256507e-18)
(-130.868469363 44.7129535171 8.9727983415e-19)
(-161.358768461 66.2797752649 -5.86987198422e-19)
(-196.523508295 95.535349766 7.17469995249e-20)
(-240.686231243 142.27050094 -2.70853450223e-18)
(-292.903945104 215.794036659 -3.20614810934e-17)
(-292.847863141 308.627831606 -4.80666918301e-17)
(-41.9415643923 224.421401386 7.42695550623e-17)
(-0.256333597169 0.776995901755 7.88879608669e-21)
(-0.443966045073 1.36969470472 7.22085449687e-20)
(-11.8213226523 -0.584710273201 -4.80225696334e-19)
(-14.7270043856 0.870958553014 1.17542718508e-18)
(-16.9868007141 0.50584051281 3.16222804562e-19)
(-20.1737714777 0.443318488532 5.19293859004e-20)
(-31.288798035 -0.758157003975 7.890904396e-19)
(-40.1232475227 -1.55712688979 3.10730158414e-18)
(-51.8632823273 -2.1090677719 8.07612350847e-18)
(-67.2378300273 -1.98670775364 1.43196257499e-17)
(-87.1570685557 -0.47084467061 1.81371173489e-17)
(-112.944257521 3.65743558141 1.40685256922e-17)
(-145.262647645 12.989547315 1.18080157238e-17)
(-181.550031079 29.429077763 7.01405592367e-18)
(-223.102089549 49.9573463186 4.24736653276e-18)
(-277.720352797 78.5173813924 6.85143835404e-19)
(-354.845898336 99.4049281532 1.34301957528e-17)
(-413.992212041 87.4190343963 -3.9181930496e-17)
(-120.263528682 129.220738094 4.70408100215e-17)
(-0.553298490601 0.0790577488358 -2.27358004842e-20)
(-0.378805369659 0.371195782409 1.77671162135e-19)
(-11.8306862943 -1.10306902137 -1.756369564e-18)
(-14.4412251399 -0.556366748654 1.24474645064e-18)
(-16.5236485496 -2.05520570406 2.70333474576e-19)
(-19.4586560416 -3.39909712494 2.14715407125e-19)
(-23.7778953247 -5.54203361394 1.08933584456e-18)
(-29.877699992 -8.34956489958 5.65021364055e-18)
(-38.3626887215 -11.8825955199 2.19374805204e-17)
(-49.8174037434 -16.1532272364 5.65857751297e-17)
(-65.5630623588 -20.6487589197 1.03240329603e-16)
(-86.6924244916 -24.9805248221 1.29860632064e-16)
(-115.74315734 -27.9720274031 1.07878829578e-16)
(-154.893618036 -24.8389526371 9.74279592149e-17)
(-197.30916844 -12.7670857061 7.47801244667e-17)
(-239.800003915 0.560505662943 4.7675007225e-17)
(-287.321693546 12.7864042515 1.8014490579e-17)
(-329.395666391 -19.7375882093 -3.76984146565e-17)
(-323.319137722 -129.37066307 5.68109399811e-17)
(-81.388590827 -5.24329756545 2.47462543819e-16)
(1.02561116868 0.709840470231 7.33060307457e-19)
(-0.230004293531 0.232416082201 2.65214345873e-19)
(-10.9926424498 -1.5520749355 -2.30488879949e-18)
(-13.2065889741 -1.80822247359 1.23512242865e-18)
(-14.9268007465 -4.27759740308 -3.17271353816e-19)
(-17.3082757847 -6.78695411294 4.8686185948e-19)
(-20.8740651154 -10.4202707216 6.43287247955e-18)
(-25.9087120702 -15.2575887153 3.32617627315e-17)
(-33.3621995791 -21.7445987949 1.24572228413e-16)
(-43.6703776358 -30.3519722692 3.31016374132e-16)
(-58.8411656246 -40.2966456884 6.39936269236e-16)
(-79.2710061334 -52.2503189483 7.6464230356e-16)
(-110.583165755 -65.5539792403 6.46024620308e-16)
(-160.049742019 -70.6362720274 7.31182408013e-16)
(-210.52329275 -57.011453282 6.30697064105e-16)
(-248.192386234 -38.3873957503 2.97127880349e-16)
(-284.120871075 -23.2691109035 8.23888739472e-17)
(-286.721748687 -56.635652027 2.9300413834e-17)
(-227.577422324 -117.73795203 1.71379175343e-16)
(-96.4869972795 40.1419442695 3.17245036945e-16)
(-1.12861268342 -7.83657294134 -3.94521717628e-18)
(-0.873531403561 0.427786012041 1.67665004997e-19)
(-9.45322283404 -1.88171083182 -2.5279533849e-18)
(-11.2121545023 -2.73539649631 1.13777412255e-18)
(-12.4155026774 -5.91180452476 4.6139574472e-19)
(-13.9893047506 -9.30254733485 6.11433530581e-18)
(-16.2853976212 -14.1058531397 3.17184464338e-17)
(-19.3387619222 -20.9413383801 1.47818582853e-16)
(-24.410676901 -31.176750758 5.69217019066e-16)
(-31.427612168 -45.3937630658 1.54953935767e-15)
(-43.1361002513 -61.0867695625 3.12691357248e-15)
(-60.7679678858 -81.0387118328 3.17745968916e-15)
(-92.581432269 -110.504342109 2.69013853712e-15)
(-157.307665508 -131.227671176 4.14964402459e-15)
(-228.944601365 -110.627912685 3.96440624541e-15)
(-265.145734763 -82.8148614335 2.75226521219e-15)
(-288.198032603 -53.6455350554 1.0298063152e-15)
(-243.362535577 -62.7097743509 2.94630064322e-16)
(-46.0082579108 -27.293174587 6.72433052433e-16)
(142.931661239 96.0905577479 -8.84172647548e-17)
(-0.429623484691 2.59915601706 -3.25320660629e-18)
(-4.24017282103 2.74678626449 1.69897241172e-18)
(-7.44917657287 -2.06097598188 -1.25624662824e-18)
(-8.75381378907 -3.26256813535 7.33508115587e-19)
(-9.37324886655 -6.78963194041 3.97459726829e-18)
(-10.0489922269 -10.5577674672 2.38889064767e-17)
(-10.9892759291 -15.6214281258 1.19382908945e-16)
(-11.4418445275 -23.9023183322 5.83676325441e-16)
(-13.4960762994 -38.6341820836 2.32728843131e-15)
(-17.7646888795 -56.8642477027 5.67151373269e-15)
(-25.5291433163 -74.8045928433 9.47145607475e-15)
(-30.5837423046 -104.054370607 6.56681678657e-15)
(-40.4387298901 -147.144680466 3.74995715702e-15)
(-116.574876529 -193.288454664 9.80500285109e-15)
(-277.726627446 -172.755790386 7.76673173507e-15)
(-310.300821174 -141.788224162 5.41258092855e-15)
(-354.843749288 -58.0663762504 1.63130307392e-15)
(-366.90964997 96.5026368796 5.72442941041e-16)
(-376.629807425 486.763185688 8.54208779243e-16)
(-342.424717783 518.91505253 -1.86370836261e-15)
(-5.53690678838 -4.5483922159 6.28509848052e-17)
(-10.865410753 12.0526840144 5.16731223877e-19)
(-5.18642349818 -2.086875075 -1.5005283252e-18)
(-5.96703453699 -3.39859954752 2.33575009657e-18)
(-5.77342314379 -7.04987902707 1.06300662603e-17)
(-4.73661987204 -11.2742224378 6.25093136584e-17)
(-2.43624238391 -16.5653477799 3.01221623033e-16)
(3.27456059703 -25.1184791956 1.49481934856e-15)
(7.9749067299 -37.1915618755 6.25557749168e-15)
(0.978394946287 -52.9616290103 1.46436990697e-14)
(-1.93274259366 -60.4566241601 9.35432860007e-15)
(-7.90299609664 -63.7200008319 1.25432102694e-15)
(-36.7498182018 -82.5014217712 -8.36300395113e-15)
(-196.836140014 -215.094175516 -1.41613533749e-14)
(-324.651354905 -190.995841115 -1.00809614505e-14)
(-331.114187877 -216.5961825 -6.94053094869e-15)
(-425.417697976 -179.213877416 -2.59199135315e-15)
(-614.555090675 -147.264962662 -7.01709210983e-16)
(-896.694280329 95.13574987 8.79866132593e-16)
(-899.671835123 152.394039467 6.02452311168e-16)
(-74.8430249739 30.5700340858 -1.19482588314e-15)
(-26.2818736181 26.0523543485 -9.01748839813e-18)
(-3.09898541733 -1.84264865197 1.10496338513e-18)
(-3.48505538955 -2.78385867469 5.53242942641e-18)
(-3.0361944899 -5.39036738131 2.59161744271e-17)
(-1.69589768715 -7.49681896228 1.22924528342e-16)
(1.1864167331 -8.84782682965 4.75034760542e-16)
(7.35485106198 -9.96583829906 1.48956543573e-15)
(12.2551231693 0.731922514939 3.15491237945e-15)
(5.89051242342 -19.3911481083 2.41496826423e-15)
(-1.23027783373 -1.75229582813 -6.77852742761e-19)
(-1.36295613934 -2.60119799706 6.34085478036e-18)
(-1.24114506823 -5.10613923417 4.32355231083e-17)
(-0.988517127901 -7.28223310407 2.50245084727e-16)
(-0.531090107281 -7.9582903444 1.11773457777e-15)
(0.221883777126 -7.38410964983 1.64667974092e-15)
(1.92819630727 0.4215287203 4.4406584086e-15)
(-8.67196006951 -1.55888947805 -5.18766210653e-16)
(0.755809984037 -1.73491660274 -8.70234173599e-19)
(0.958527781219 -2.54968248177 6.40786420583e-18)
(0.964328656468 -5.02099563162 4.32209756931e-17)
(0.900447301854 -7.16562873359 2.50400295773e-16)
(0.685407347895 -7.8175386123 1.11785588593e-15)
(0.201702332056 -7.24113608086 1.64633112856e-15)
(-1.24302093054 0.523686199707 4.44494601942e-15)
(9.52159680911 -1.52428641856 -5.22775758302e-16)
(2.82372327128 -1.79529617854 -5.09999273129e-19)
(3.26083952168 -2.6439441951 1.50261924883e-18)
(2.90814314462 -5.16015978379 2.49009612418e-17)
(1.71248542515 -7.18102955925 1.22795524207e-16)
(-0.981380312657 -8.47448614615 4.75135977998e-16)
(-6.92863520171 -9.5731859196 1.49099010769e-15)
(-11.6044354259 1.05515627773 3.15458719891e-15)
(-4.97304197737 -19.2679981296 2.42620759215e-15)
)
;

boundaryField
{
    back
    {
        type            calculated;
        value           uniform (0 0 0);
    }
    sides
    {
        type            calculated;
        value           nonuniform List<vector> 0();
    }
    bottom
    {
        type            calculated;
        value           uniform (0 0 0);
    }
    front
    {
        type            calculated;
        value           uniform (0 0 0);
    }
    atmosphere
    {
        type            calculated;
        value           nonuniform List<vector> 7((0 1.36969470472 0) (-2.71575261496e-42 0.371195972494 3.11742319486e-63) (7.65279902728e-32 0.232415794997 1.91028191294e-52) (-1.02454095663e-26 0.42778602268 9.63696900523e-48) (5.17142532836e-20 2.74678627032 -3.91593172417e-39) (0.00737034805809 12.0526840144 2.33558350806e-20) (1.31079113072e-34 26.0523543485 -4.07675146749e-53));
    }
    floatingObject
    {
        type            calculated;
        value           nonuniform List<vector> 8((0 3.11687498078e-12 -3.89609372598e-13) (0 0 -3.8960749821e-13) (0 0 0) (0 6.23358297622e-12 -3.89598936014e-13) (-7.7922254953e-13 0 0) (0 0 -3.89611194626e-13) (0 0 -3.8961138385e-13) (0 0 0));
    }
    procBoundary3to4
    {
        type            processor;
        value           nonuniform List<vector> 
13
(
(-45.0429659471 23.0143258965 3.39216151861e-19)
(-57.2656599198 29.9259496164 7.80292126701e-19)
(-72.2039402521 39.4803461214 -1.0658643324e-19)
(-10.8835133256 -0.0441240811633 -2.7552822647e-18)
(-13.9964593852 2.34517671196 9.30435050662e-19)
(-16.2724540471 3.15154237266 -1.38720043692e-19)
(-19.4288069042 4.39264793581 -3.78978126606e-19)
(-30.4014293246 6.87502628267 2.44022981116e-19)
(-38.884534739 8.618286552 4.61534617413e-19)
(-38.884534739 8.618286552 4.61534617413e-19)
(-24.7987150007 -0.0484116420013 1.40164219978e-19)
(-24.7987150007 -0.0484116420013 1.40164219978e-19)
(-24.7987150007 -0.0484116420013 1.40164219978e-19)
)
;
    }
    procBoundary3to5
    {
        type            processor;
        value           nonuniform List<vector> 10((-90.176168406 52.6868017939 1.36418222229e-19) (-111.2971378 70.9964270354 1.35140103802e-18) (-135.074722555 94.4527848583 5.42648050989e-18) (-164.421685316 123.14862873 -7.53840856826e-19) (-201.330098315 160.846337056 5.52664701042e-18) (-236.813583049 219.417563899 -3.50583760869e-17) (-124.175031185 348.39121913 -2.20869391573e-17) (102.147462843 234.536410927 -6.00973228506e-17) (0.180820134841 0.788995431653 -4.49975221528e-20) (-0.0535511266296 1.65011151042 2.4395721325e-19));
    }
    procBoundary3to6
    {
        type            processor;
        value           nonuniform List<vector> 8((-276.401407085 -138.590434152 -5.6991332864e-15) (-270.883104829 -227.585285299 -5.58170583521e-15) (-389.650904945 -305.062535425 -1.54890348986e-15) (-594.00834244 -511.134587757 -3.7003896529e-15) (-1009.10371278 -472.574797536 -1.16358237885e-16) (-1324.3709381 -552.541615145 3.50514918991e-16) (-492.546200007 -3.75377151693 -8.81780178389e-16) (-86.0169531277 55.1705950823 1.70526628192e-17));
    }
    procBoundary3to8
    {
        type            processor;
        value           nonuniform List<vector> 8((5.28045058849 -2.02298259442 -3.57678058997e-19) (6.07911641474 -3.20563020393 2.53653319123e-18) (5.92265907551 -6.72586570828 1.16372690933e-17) (4.94313385943 -10.8245022637 6.12723073145e-17) (2.71956106578 -16.0127237803 3.05157420379e-16) (-2.88702744395 -24.5254580978 1.49717571329e-15) (-7.48165673382 -36.6037332728 6.25659775855e-15) (-0.333303920423 -52.2932109241 1.46384123731e-14));
    }
}


// ************************************************************************* //
