/*--------------------------------*- C++ -*----------------------------------*\
| =========                 |                                                 |
| \\      /  F ield         | OpenFOAM: The Open Source CFD Toolbox           |
|  \\    /   O peration     | Version:  v2012                                 |
|   \\  /    A nd           | Website:  www.openfoam.com                      |
|    \\/     M anipulation  |                                                 |
\*---------------------------------------------------------------------------*/
FoamFile
{
    version     2.0;
    format      ascii;
    class       volScalarField;
    location    "2.3";
    object      epsilon_0;
}
// * * * * * * * * * * * * * * * * * * * * * * * * * * * * * * * * * * * * * //

dimensions      [0 2 -3 0 0 0 0];


internalField   nonuniform List<scalar> 
164
(
0.00474852834954
0.00478867191297
0.00483291408806
0.00488117122643
0.00493426093738
0.00500032430806
0.00513225600716
0.00562100825564
0.00779792646075
0.0168143874901
0.043925384401
0.0933008357386
0.181761315965
0.00387170610188
0.00401045563653
0.00438502014971
0.00453595855975
0.0046509898496
0.00468948192515
0.00472933603977
0.00477292158014
0.00482084434853
0.00487281404254
0.0049285408617
0.00499185454816
0.00509498091236
0.00543535936515
0.00705888729612
0.0147849627883
0.0416273030767
0.0950529014754
0.182224811546
0.0038363275864
0.0039768865739
0.00435083183281
0.00450347745065
0.00457637092839
0.0046232725792
0.00466447394976
0.0047072893839
0.00475432143298
0.00480650266541
0.00486323135713
0.00492312803968
0.00498725707231
0.00507994649284
0.00535067497504
0.00664573489535
0.0132613351543
0.039412532091
0.0996924859905
0.187950167341
0.00380015811188
0.00394341355179
0.00431651422276
0.00447015011
0.00454444068658
0.00459264324749
0.00463466483441
0.00467760127548
0.00472517904539
0.00478134334431
0.00484391114602
0.00490896154698
0.00497417580328
0.00506752296141
0.00531370588392
0.00650699804231
0.0127408852621
0.0372038460147
0.0979059425851
0.191003118719
0.00376458704951
0.00391156711986
0.00428359080573
0.00443709616274
0.00451090564741
0.00455650172836
0.00459111232771
0.00461992246007
0.00465068227511
0.00470783336043
0.00477807407604
0.00484697458133
0.00490795275542
0.00503155787701
0.00528996687735
0.00649424004068
0.0128587740068
0.0386399233583
0.0967670667938
0.194188093591
0.00373121523943
0.00388303844801
0.00425375749331
0.00440559930889
0.00447506748022
0.00450714718195
0.00450659996988
0.00446307555923
0.0043911705652
0.00443953621272
0.00452958705273
0.00460554519508
0.00467240298226
0.00494814127465
0.00550952043934
0.00831187242498
0.020579991263
0.0552088370608
0.117904566831
0.205060575843
0.00370149001243
0.00385936859861
0.00422863217706
0.00437667863185
0.00443507520792
0.00442919100704
0.00430387123938
0.00395814449782
0.00461859796724
0.00458759896328
0.00475081027645
0.00510932593279
0.00417097323466
0.00470837687028
0.00524587415259
0.00718080792643
0.0157981521112
0.0453100773353
0.129536610909
0.219940242733
0.00367772362171
0.00384209453925
0.00420983172883
0.00435193537994
0.00439422142701
0.00434313035343
0.00410260981797
0.00436647331661
0.00366156626493
0.0038322940479
0.00420016593217
0.00433974471283
0.00437292969523
0.00429320841306
0.00397120153533
0.00396401093132
0.00366157127443
0.00383229869969
0.00420017063416
0.00433974895369
0.00437293302567
0.004293211017
0.00397120493543
0.00396402516804
0.00367773491056
0.00384210652279
0.00420984400873
0.00435194658368
0.0043942307088
0.00434313917484
0.00410262314271
0.00436649781322
)
;

boundaryField
{
    back
    {
        lowReCorrection 0;
        blending        stepwise;
        n               2;
        type            epsilonWallFunction;
        value           nonuniform List<scalar> 
164
(
0.00474852834954
0.00478867191297
0.00483291408806
0.00488117122643
0.00493426093738
0.00500032430806
0.00513225600716
0.00562100825564
0.00779792646075
0.0168143874901
0.043925384401
0.0933008357386
0.181761315965
0.00387170610188
0.00401045563653
0.00438502014971
0.00453595855975
0.0046509898496
0.00468948192515
0.00472933603977
0.00477292158014
0.00482084434853
0.00487281404254
0.0049285408617
0.00499185454816
0.00509498091236
0.00543535936515
0.00705888729612
0.0147849627883
0.0416273030767
0.0950529014754
0.182224811546
0.0038363275864
0.0039768865739
0.00435083183281
0.00450347745065
0.00457637092839
0.0046232725792
0.00466447394976
0.0047072893839
0.00475432143298
0.00480650266541
0.00486323135713
0.00492312803968
0.00498725707231
0.00507994649284
0.00535067497504
0.00664573489535
0.0132613351543
0.039412532091
0.0996924859905
0.187950167341
0.00380015811188
0.00394341355179
0.00431651422276
0.00447015011
0.00454444068658
0.00459264324749
0.00463466483441
0.00467760127548
0.00472517904539
0.00478134334431
0.00484391114602
0.00490896154698
0.00497417580328
0.00506752296141
0.00531370588392
0.00650699804231
0.0127408852621
0.0372038460147
0.0979059425851
0.191003118719
0.00376458704951
0.00391156711986
0.00428359080573
0.00443709616274
0.00451090564741
0.00455650172836
0.00459111232771
0.00461992246007
0.00465068227511
0.00470783336043
0.00477807407604
0.00484697458133
0.00490795275542
0.00503155787701
0.00528996687735
0.00649424004068
0.0128587740068
0.0386399233583
0.0967670667938
0.194188093591
0.00373121523943
0.00388303844801
0.00425375749331
0.00440559930889
0.00447506748022
0.00450714718195
0.00450659996988
0.00446307555923
0.0043911705652
0.00443953621272
0.00452958705273
0.00460554519508
0.00467240298226
0.00494814127465
0.00550952043934
0.00831187242498
0.020579991263
0.0552088370608
0.117904566831
0.205060575843
0.00370149001243
0.00385936859861
0.00422863217706
0.00437667863185
0.00443507520792
0.00442919100704
0.00430387123938
0.00395814449782
0.00461859796724
0.00458759896328
0.00475081027645
0.00510932593279
0.00417097323466
0.00470837687028
0.00524587415259
0.00718080792643
0.0157981521112
0.0453100773353
0.129536610909
0.219940242733
0.00367772362171
0.00384209453925
0.00420983172883
0.00435193537994
0.00439422142701
0.00434313035343
0.00410260981797
0.00436647331661
0.00366156626493
0.0038322940479
0.00420016593217
0.00433974471283
0.00437292969523
0.00429320841306
0.00397120153533
0.00396401093132
0.00366157127443
0.00383229869969
0.00420017063416
0.00433974895369
0.00437293302567
0.004293211017
0.00397120493543
0.00396402516804
0.00367773491056
0.00384210652279
0.00420984400873
0.00435194658368
0.0043942307088
0.00434313917484
0.00410262314271
0.00436649781322
)
;
    }
    sides
    {
        lowReCorrection 0;
        blending        stepwise;
        n               2;
        type            epsilonWallFunction;
        value           nonuniform List<scalar> 0();
    }
    bottom
    {
        lowReCorrection 0;
        blending        stepwise;
        n               2;
        type            epsilonWallFunction;
        value           nonuniform List<scalar> 10(0.00387170610188 0.0038363275864 0.00380015811188 0.00376458704951 0.00373121523943 0.00370149001243 0.00367772362171 0.00366156626493 0.00366157127443 0.00367773491056);
    }
    front
    {
        lowReCorrection 0;
        blending        stepwise;
        n               2;
        type            epsilonWallFunction;
        value           nonuniform List<scalar> 
164
(
0.00474852834954
0.00478867191297
0.00483291408806
0.00488117122643
0.00493426093738
0.00500032430806
0.00513225600716
0.00562100825564
0.00779792646075
0.0168143874901
0.043925384401
0.0933008357386
0.181761315965
0.00387170610188
0.00401045563653
0.00438502014971
0.00453595855975
0.0046509898496
0.00468948192515
0.00472933603977
0.00477292158014
0.00482084434853
0.00487281404254
0.0049285408617
0.00499185454816
0.00509498091236
0.00543535936515
0.00705888729612
0.0147849627883
0.0416273030767
0.0950529014754
0.182224811546
0.0038363275864
0.0039768865739
0.00435083183281
0.00450347745065
0.00457637092839
0.0046232725792
0.00466447394976
0.0047072893839
0.00475432143298
0.00480650266541
0.00486323135713
0.00492312803968
0.00498725707231
0.00507994649284
0.00535067497504
0.00664573489535
0.0132613351543
0.039412532091
0.0996924859905
0.187950167341
0.00380015811188
0.00394341355179
0.00431651422276
0.00447015011
0.00454444068658
0.00459264324749
0.00463466483441
0.00467760127548
0.00472517904539
0.00478134334431
0.00484391114602
0.00490896154698
0.00497417580328
0.00506752296141
0.00531370588392
0.00650699804231
0.0127408852621
0.0372038460147
0.0979059425851
0.191003118719
0.00376458704951
0.00391156711986
0.00428359080573
0.00443709616274
0.00451090564741
0.00455650172836
0.00459111232771
0.00461992246007
0.00465068227511
0.00470783336043
0.00477807407604
0.00484697458133
0.00490795275542
0.00503155787701
0.00528996687735
0.00649424004068
0.0128587740068
0.0386399233583
0.0967670667938
0.194188093591
0.00373121523943
0.00388303844801
0.00425375749331
0.00440559930889
0.00447506748022
0.00450714718195
0.00450659996988
0.00446307555923
0.0043911705652
0.00443953621272
0.00452958705273
0.00460554519508
0.00467240298226
0.00494814127465
0.00550952043934
0.00831187242498
0.020579991263
0.0552088370608
0.117904566831
0.205060575843
0.00370149001243
0.00385936859861
0.00422863217706
0.00437667863185
0.00443507520792
0.00442919100704
0.00430387123938
0.00395814449782
0.00461859796724
0.00458759896328
0.00475081027645
0.00510932593279
0.00417097323466
0.00470837687028
0.00524587415259
0.00718080792643
0.0157981521112
0.0453100773353
0.129536610909
0.219940242733
0.00367772362171
0.00384209453925
0.00420983172883
0.00435193537994
0.00439422142701
0.00434313035343
0.00410260981797
0.00436647331661
0.00366156626493
0.0038322940479
0.00420016593217
0.00433974471283
0.00437292969523
0.00429320841306
0.00397120153533
0.00396401093132
0.00366157127443
0.00383229869969
0.00420017063416
0.00433974895369
0.00437293302567
0.004293211017
0.00397120493543
0.00396402516804
0.00367773491056
0.00384210652279
0.00420984400873
0.00435194658368
0.0043942307088
0.00434313917484
0.00410262314271
0.00436649781322
)
;
    }
    atmosphere
    {
        type            inletOutlet;
        inletValue      uniform 0.1;
        value           uniform 0.1;
    }
    floatingObject
    {
        lowReCorrection 0;
        blending        stepwise;
        n               2;
        type            epsilonWallFunction;
        value           nonuniform List<scalar> 8(0.00461859796724 0.00458759896328 0.00475081027645 0.00510932593279 0.00436647331661 0.00396401093132 0.00396402516804 0.00436649781322);
    }
    procBoundary3to4
    {
        type            processor;
        value           nonuniform List<scalar> 
13
(
0.004765692086
0.00480286134918
0.00484401671992
0.00390535613184
0.00404299235095
0.00441793805829
0.00456672962655
0.00467626676687
0.00471184309328
0.00471184309328
0.00460657484163
0.00460657484163
0.00460657484163
)
;
    }
    procBoundary3to5
    {
        type            processor;
        value           nonuniform List<scalar> 10(0.0048895103481 0.00494157191145 0.00501642370648 0.0052093545356 0.00597030083748 0.00892987292211 0.0185853179511 0.0433309593587 0.0852882861237 0.172452303812);
    }
    procBoundary3to6
    {
        type            processor;
        value           nonuniform List<scalar> 8(0.00489666664228 0.00451086942258 0.00497885239082 0.00601815614546 0.010760270284 0.0328104677622 0.112715196153 0.230224492392);
    }
    procBoundary3to8
    {
        type            processor;
        value           nonuniform List<scalar> 8(0.00370151509564 0.00385939229328 0.00422865676275 0.00437670210257 0.00443509600491 0.00442920881478 0.00430388828402 0.00395815849479);
    }
}


// ************************************************************************* //
