/*--------------------------------*- C++ -*----------------------------------*\
| =========                 |                                                 |
| \\      /  F ield         | OpenFOAM: The Open Source CFD Toolbox           |
|  \\    /   O peration     | Version:  v2012                                 |
|   \\  /    A nd           | Website:  www.openfoam.com                      |
|    \\/     M anipulation  |                                                 |
\*---------------------------------------------------------------------------*/
FoamFile
{
    version     2.0;
    format      ascii;
    class       volScalarField;
    location    "2.3";
    object      k;
}
// * * * * * * * * * * * * * * * * * * * * * * * * * * * * * * * * * * * * * //

dimensions      [0 2 -2 0 0 0 0];


internalField   nonuniform List<scalar> 
164
(
0.00690529796643
0.00694465402806
0.00698788071961
0.00703489317456
0.00708668589698
0.00715254596376
0.00729035560765
0.00779606265329
0.00983121306896
0.0164778730171
0.0308163981634
0.0505477634493
0.0796208870409
0.00497390244059
0.00616885084955
0.00654708440129
0.00669639941322
0.00680960038478
0.0068475503602
0.0068868119104
0.00692962984906
0.00697655274169
0.00702728309047
0.00708163281201
0.0071442897382
0.00725248687518
0.00762096824819
0.00926063224532
0.0155109198075
0.0305745402354
0.0520407396194
0.0803058158594
0.00494357623246
0.00613448716759
0.0065130847076
0.00666443129486
0.00673628727881
0.00678255426024
0.00682324937382
0.00686547965953
0.00691170899996
0.00696288333429
0.00701837530365
0.0070767980732
0.00713998053908
0.00723760527696
0.00754325782428
0.00894343087447
0.0147182894253
0.0300803023319
0.0538135792674
0.0818638187657
0.00491245129371
0.00610009846648
0.00647885685417
0.0066315591145
0.00670494157781
0.00675255195023
0.00679402972898
0.00683628406428
0.00688287512403
0.00693801478464
0.00699930922349
0.00706242889643
0.00712609114173
0.00722538058293
0.00751583428142
0.00887825295578
0.0145493970587
0.0294706327679
0.0535601213391
0.0827471747882
0.00488170552199
0.00606723207755
0.00644589257748
0.00659884071834
0.00667185889013
0.00671680127407
0.00675070242014
0.00677865522702
0.00680808248278
0.00686448733148
0.00693346710772
0.00699879570441
0.00705736205973
0.00719159272411
0.00751180376219
0.00895007747202
0.014763858721
0.0298932513507
0.0527442716139
0.0831077168402
0.0048527157502
0.00603762338966
0.00641587375595
0.00656749332985
0.00663617501849
0.00666725673881
0.00666547386258
0.0066211021799
0.00654819907983
0.00659807381825
0.00668826871782
0.00675868646994
0.00682643206478
0.00712628011853
0.00778796794858
0.0105456418153
0.018951054415
0.0351627998846
0.0571904398594
0.0824858428994
0.00482674448895
0.00601288147348
0.00639042973426
0.0065384986128
0.00659587868801
0.00658757663674
0.00645646951728
0.00609993945355
0.00558994804252
0.00557346920349
0.00571514104886
0.00600876176043
0.00634312060532
0.00689905200056
0.00751114697191
0.00957084142215
0.0163575559315
0.0320468682709
0.0620851361972
0.0867674237277
0.00480580904955
0.00599462386075
0.00637117183472
0.00651340201327
0.00655452572384
0.00650122730324
0.00625622918629
0.0053898935221
0.00479151927316
0.00598426942151
0.00636130248953
0.00650110320075
0.00653302123591
0.00645048334499
0.00612030971159
0.00504883738704
0.00479152016694
0.00598427017582
0.00636130335055
0.00650110446294
0.00653302301005
0.0064504866904
0.00612031659063
0.0050488500044
0.00480581047404
0.0059946265988
0.00637117495408
0.00651340553849
0.00655453081583
0.00650123621802
0.00625624780555
0.00538991437993
)
;

boundaryField
{
    back
    {
        type            kqRWallFunction;
        value           nonuniform List<scalar> 
164
(
0.00690529796643
0.00694465402806
0.00698788071961
0.00703489317456
0.00708668589698
0.00715254596376
0.00729035560765
0.00779606265329
0.00983121306896
0.0164778730171
0.0308163981634
0.0505477634493
0.0796208870409
0.00497390244059
0.00616885084955
0.00654708440129
0.00669639941322
0.00680960038478
0.0068475503602
0.0068868119104
0.00692962984906
0.00697655274169
0.00702728309047
0.00708163281201
0.0071442897382
0.00725248687518
0.00762096824819
0.00926063224532
0.0155109198075
0.0305745402354
0.0520407396194
0.0803058158594
0.00494357623246
0.00613448716759
0.0065130847076
0.00666443129486
0.00673628727881
0.00678255426024
0.00682324937382
0.00686547965953
0.00691170899996
0.00696288333429
0.00701837530365
0.0070767980732
0.00713998053908
0.00723760527696
0.00754325782428
0.00894343087447
0.0147182894253
0.0300803023319
0.0538135792674
0.0818638187657
0.00491245129371
0.00610009846648
0.00647885685417
0.0066315591145
0.00670494157781
0.00675255195023
0.00679402972898
0.00683628406428
0.00688287512403
0.00693801478464
0.00699930922349
0.00706242889643
0.00712609114173
0.00722538058293
0.00751583428142
0.00887825295578
0.0145493970587
0.0294706327679
0.0535601213391
0.0827471747882
0.00488170552199
0.00606723207755
0.00644589257748
0.00659884071834
0.00667185889013
0.00671680127407
0.00675070242014
0.00677865522702
0.00680808248278
0.00686448733148
0.00693346710772
0.00699879570441
0.00705736205973
0.00719159272411
0.00751180376219
0.00895007747202
0.014763858721
0.0298932513507
0.0527442716139
0.0831077168402
0.0048527157502
0.00603762338966
0.00641587375595
0.00656749332985
0.00663617501849
0.00666725673881
0.00666547386258
0.0066211021799
0.00654819907983
0.00659807381825
0.00668826871782
0.00675868646994
0.00682643206478
0.00712628011853
0.00778796794858
0.0105456418153
0.018951054415
0.0351627998846
0.0571904398594
0.0824858428994
0.00482674448895
0.00601288147348
0.00639042973426
0.0065384986128
0.00659587868801
0.00658757663674
0.00645646951728
0.00609993945355
0.00558994804252
0.00557346920349
0.00571514104886
0.00600876176043
0.00634312060532
0.00689905200056
0.00751114697191
0.00957084142215
0.0163575559315
0.0320468682709
0.0620851361972
0.0867674237277
0.00480580904955
0.00599462386075
0.00637117183472
0.00651340201327
0.00655452572384
0.00650122730324
0.00625622918629
0.0053898935221
0.00479151927316
0.00598426942151
0.00636130248953
0.00650110320075
0.00653302123591
0.00645048334499
0.00612030971159
0.00504883738704
0.00479152016694
0.00598427017582
0.00636130335055
0.00650110446294
0.00653302301005
0.0064504866904
0.00612031659063
0.0050488500044
0.00480581047404
0.0059946265988
0.00637117495408
0.00651340553849
0.00655453081583
0.00650123621802
0.00625624780555
0.00538991437993
)
;
    }
    sides
    {
        type            kqRWallFunction;
        value           nonuniform List<scalar> 0();
    }
    bottom
    {
        type            kqRWallFunction;
        value           nonuniform List<scalar> 10(0.00497390244059 0.00494357623246 0.00491245129371 0.00488170552199 0.0048527157502 0.00482674448895 0.00480580904955 0.00479151927316 0.00479152016694 0.00480581047404);
    }
    front
    {
        type            kqRWallFunction;
        value           nonuniform List<scalar> 
164
(
0.00690529796643
0.00694465402806
0.00698788071961
0.00703489317456
0.00708668589698
0.00715254596376
0.00729035560765
0.00779606265329
0.00983121306896
0.0164778730171
0.0308163981634
0.0505477634493
0.0796208870409
0.00497390244059
0.00616885084955
0.00654708440129
0.00669639941322
0.00680960038478
0.0068475503602
0.0068868119104
0.00692962984906
0.00697655274169
0.00702728309047
0.00708163281201
0.0071442897382
0.00725248687518
0.00762096824819
0.00926063224532
0.0155109198075
0.0305745402354
0.0520407396194
0.0803058158594
0.00494357623246
0.00613448716759
0.0065130847076
0.00666443129486
0.00673628727881
0.00678255426024
0.00682324937382
0.00686547965953
0.00691170899996
0.00696288333429
0.00701837530365
0.0070767980732
0.00713998053908
0.00723760527696
0.00754325782428
0.00894343087447
0.0147182894253
0.0300803023319
0.0538135792674
0.0818638187657
0.00491245129371
0.00610009846648
0.00647885685417
0.0066315591145
0.00670494157781
0.00675255195023
0.00679402972898
0.00683628406428
0.00688287512403
0.00693801478464
0.00699930922349
0.00706242889643
0.00712609114173
0.00722538058293
0.00751583428142
0.00887825295578
0.0145493970587
0.0294706327679
0.0535601213391
0.0827471747882
0.00488170552199
0.00606723207755
0.00644589257748
0.00659884071834
0.00667185889013
0.00671680127407
0.00675070242014
0.00677865522702
0.00680808248278
0.00686448733148
0.00693346710772
0.00699879570441
0.00705736205973
0.00719159272411
0.00751180376219
0.00895007747202
0.014763858721
0.0298932513507
0.0527442716139
0.0831077168402
0.0048527157502
0.00603762338966
0.00641587375595
0.00656749332985
0.00663617501849
0.00666725673881
0.00666547386258
0.0066211021799
0.00654819907983
0.00659807381825
0.00668826871782
0.00675868646994
0.00682643206478
0.00712628011853
0.00778796794858
0.0105456418153
0.018951054415
0.0351627998846
0.0571904398594
0.0824858428994
0.00482674448895
0.00601288147348
0.00639042973426
0.0065384986128
0.00659587868801
0.00658757663674
0.00645646951728
0.00609993945355
0.00558994804252
0.00557346920349
0.00571514104886
0.00600876176043
0.00634312060532
0.00689905200056
0.00751114697191
0.00957084142215
0.0163575559315
0.0320468682709
0.0620851361972
0.0867674237277
0.00480580904955
0.00599462386075
0.00637117183472
0.00651340201327
0.00655452572384
0.00650122730324
0.00625622918629
0.0053898935221
0.00479151927316
0.00598426942151
0.00636130248953
0.00650110320075
0.00653302123591
0.00645048334499
0.00612030971159
0.00504883738704
0.00479152016694
0.00598427017582
0.00636130335055
0.00650110446294
0.00653302301005
0.0064504866904
0.00612031659063
0.0050488500044
0.00480581047404
0.0059946265988
0.00637117495408
0.00651340553849
0.00655453081583
0.00650123621802
0.00625624780555
0.00538991437993
)
;
    }
    atmosphere
    {
        type            inletOutlet;
        inletValue      uniform 0.1;
        value           nonuniform List<scalar> 7(0.1 0.1 0.1 0.1 0.1 0.0824858428994 0.1);
    }
    floatingObject
    {
        type            kqRWallFunction;
        value           nonuniform List<scalar> 8(0.00558994804252 0.00557346920349 0.00571514104886 0.00600876176043 0.0053898935221 0.00504883738704 0.0050488500044 0.00538991437993);
    }
    procBoundary3to4
    {
        type            processor;
        value           nonuniform List<scalar> 
13
(
0.00692182960233
0.00695819336097
0.00699832331342
0.00500264405429
0.00620204989846
0.00657974225808
0.0067266244428
0.00683421075868
0.00686922406675
0.00686922406675
0.00676585627412
0.00676585627412
0.00676585627412
)
;
    }
    procBoundary3to5
    {
        type            processor;
        value           nonuniform List<scalar> 10(0.00704256801901 0.00709345237295 0.00716871563902 0.00736675944513 0.00811051888409 0.0106550833159 0.0172627818557 0.0299236364606 0.0466509500188 0.0761817177605);
    }
    procBoundary3to6
    {
        type            processor;
        value           nonuniform List<scalar> 8(0.00585473399486 0.00671344430252 0.00723209895493 0.00851920746885 0.0133408606352 0.0279689399096 0.0563060828106 0.0855067133893);
    }
    procBoundary3to8
    {
        type            processor;
        value           nonuniform List<scalar> 8(0.00482675337913 0.00601289045954 0.00639043953205 0.00653851016303 0.00659589293082 0.00658759671156 0.0064564958351 0.00609996881216);
    }
}


// ************************************************************************* //
