/*--------------------------------*- C++ -*----------------------------------*\
| =========                 |                                                 |
| \\      /  F ield         | OpenFOAM: The Open Source CFD Toolbox           |
|  \\    /   O peration     | Version:  v2012                                 |
|   \\  /    A nd           | Website:  www.openfoam.com                      |
|    \\/     M anipulation  |                                                 |
\*---------------------------------------------------------------------------*/
FoamFile
{
    version     2.0;
    format      ascii;
    class       surfaceVectorField;
    location    "2.3";
    object      Uf;
}
// * * * * * * * * * * * * * * * * * * * * * * * * * * * * * * * * * * * * * //

dimensions      [0 1 -1 0 0 0 0];


internalField   nonuniform List<vector> 
296
(
(-0.0456742174952 -0.0315362863231 3.73653316875e-22)
(-0.042067106484 -0.0311713784886 9.35015208844e-22)
(-0.0494576428202 -0.0351867846995 4.00227339809e-22)
(-0.0457024957368 -0.0352676466148 1.53696182847e-21)
(-0.0539296788563 -0.03850434988 3.68611256822e-22)
(-0.0499659037915 -0.0391357859593 1.82206758611e-21)
(-0.0592071463677 -0.0412092113027 2.10302264846e-22)
(-0.0551716068024 -0.0426041500647 1.3779599033e-21)
(-0.0652036200473 -0.0429397075395 1.21949784094e-23)
(-0.0614055131678 -0.0452536999939 9.69722644459e-22)
(-0.0716256205003 -0.0436667495371 1.32321703166e-22)
(-0.0682533523525 -0.0465722237167 3.76593870146e-22)
(-0.0794507047546 -0.0437057029835 3.83085149252e-22)
(-0.0747786176702 -0.0465252807998 2.79300345089e-22)
(-0.0926044870596 -0.0430416058959 5.53376514319e-22)
(-0.0834422029639 -0.0464825406148 -3.94433520201e-22)
(-0.115047729341 -0.0422139140371 7.85591598291e-21)
(-0.100038147994 -0.0455338404948 -9.34285919144e-22)
(-0.139021300163 -0.0445099585761 1.79258269036e-20)
(-0.127195078917 -0.0589743563177 2.55393778869e-21)
(-0.129499730017 -0.0582971136371 1.93911980585e-20)
(-0.142333348202 -0.0634682762767 -6.08697078958e-21)
(-0.0726866931839 -0.0718898281348 6.76176601287e-21)
(-0.0997486864511 -0.0704955265276 -7.90543364415e-21)
(-0.0236571707623 -0.14423569799 -9.74309143668e-21)
(-0.033057978897 -0.00423892484678 7.25129888391e-22)
(-0.0317675646291 -0.00225438557467 2.61986680838e-21)
(-0.0319548662432 -0.00836663617399 -3.7216078804e-22)
(-0.0302465915907 -0.00662393100311 -3.86788194447e-22)
(-0.0318089702816 -0.0125057127338 -2.6089535205e-23)
(-0.0295982592554 -0.0105985078253 7.20488590276e-24)
(-0.0298988160028 -0.0150732297147 1.98923982893e-22)
(-0.0356264217326 -0.0257340284408 5.83706677377e-22)
(-0.0322945999717 -0.0243187199452 7.06201346777e-22)
(-0.0382009066625 -0.0304349130844 1.21583407185e-21)
(-0.0343976866847 -0.0293365391261 2.91648409187e-21)
(-0.0415525000181 -0.0350462905591 2.09832372044e-21)
(-0.0374553095719 -0.0344027241996 7.23171048358e-21)
(-0.0456047623349 -0.039420018351 2.95880207478e-21)
(-0.0413285324771 -0.0392690642515 1.27337143911e-20)
(-0.0505175277005 -0.0435673410928 2.83141623259e-21)
(-0.0458186332828 -0.0440608715559 1.5827876458e-20)
(-0.0566186109894 -0.047146644688 2.13738028292e-21)
(-0.0515927173937 -0.0487343084821 1.20141711428e-20)
(-0.0637232779268 -0.0493942010355 1.33412153619e-21)
(-0.0591587434117 -0.052409091851 9.68878316689e-21)
(-0.0708079330062 -0.0500777261859 5.23572512069e-22)
(-0.0675709195056 -0.0538008625728 5.12226892003e-21)
(-0.0781965201848 -0.0501350458222 -4.98218324363e-22)
(-0.0747225343102 -0.0539516708734 2.72492189529e-21)
(-0.0890127727643 -0.0502384994065 -1.88209595366e-21)
(-0.0833399053005 -0.0550869013903 1.53379076742e-22)
(-0.10572834783 -0.0545676525183 -6.23626411336e-21)
(-0.095709775386 -0.0578226211418 -3.80614324459e-21)
(-0.118823621384 -0.0736604358678 -2.14588599044e-20)
(-0.108102558317 -0.0751369101112 -7.9423314856e-21)
(-0.108984172903 -0.111699780468 -3.33836024922e-20)
(-0.104294252793 -0.0755457003144 -2.56366786017e-20)
(-0.052426525834 -0.131177265276 -2.44102910937e-20)
(-0.0802707628018 -0.109395622328 -2.68852310117e-20)
(0.00479893006042 -0.208997481147 -1.61670028506e-20)
(-0.0287714079831 -0.00444990752615 1.50794872554e-21)
(-0.0273175192123 -0.00233183907602 3.61336203717e-21)
(-0.0277051551007 -0.0088003567286 -7.42252050501e-24)
(-0.0258959090575 -0.00690063273646 -2.31309502478e-23)
(-0.0274737927708 -0.0131964412508 2.32218404001e-22)
(-0.0252017879148 -0.0110719868037 4.48319471251e-22)
(-0.0279693335208 -0.0177638360339 3.70268527237e-22)
(-0.0253308621729 -0.0158101876507 3.81691385683e-22)
(-0.0290314045516 -0.0226012158851 7.9819667702e-22)
(-0.025972584751 -0.0206500761198 1.20220915341e-21)
(-0.0306884394634 -0.0277475476125 3.03897876128e-21)
(-0.0271475625676 -0.0258962838782 4.36221381604e-21)
(-0.0332015877907 -0.0332361154411 8.93236050361e-21)
(-0.028908420189 -0.0316970540768 1.9021007169e-20)
(-0.0366746874699 -0.0387169199711 1.78671011542e-20)
(-0.0319739038484 -0.0377999385081 5.40450692137e-20)
(-0.0408603309915 -0.0440113484764 2.56027887743e-20)
(-0.0360337139451 -0.0436353459164 9.92190930536e-20)
(-0.0460635984926 -0.0494083367357 2.50106313682e-20)
(-0.0404215781521 -0.0496158857664 1.28228924074e-19)
(-0.0531847217496 -0.0544678459044 1.95655740268e-20)
(-0.0465335418087 -0.0561491878476 1.001872659e-19)
(-0.0621333897186 -0.0575443516751 1.34769305507e-20)
(-0.0560829732733 -0.0615645201543 8.77140030329e-20)
(-0.0704602270239 -0.0579735566505 7.32361830325e-21)
(-0.0671427686144 -0.0623576113804 5.78037473199e-20)
(-0.0781430500823 -0.0591089150531 3.37651929639e-21)
(-0.073588372974 -0.0617348586365 2.83082275301e-20)
(-0.087521224466 -0.0616791094347 -1.77066821418e-21)
(-0.0807708206329 -0.0648104088193 9.26638038539e-21)
(-0.0953418998554 -0.0687757248225 -5.51221061683e-21)
(-0.0886138991344 -0.0714656200671 -4.46418157742e-21)
(-0.0909501254032 -0.0915649983253 -1.21201501829e-20)
(-0.0853135263716 -0.0947274277221 -8.79404183081e-21)
(-0.0753142623187 -0.135039395272 -1.91383071212e-20)
(-0.0608196087625 -0.0864333395087 -3.1137539733e-20)
(-0.0227921470483 -0.166266292288 -1.86419427686e-20)
(-0.0490429183344 -0.128110353808 -3.43444000008e-20)
(0.0509684179032 -0.247368677593 -1.59467218158e-20)
(-0.0243122646745 -0.00458814602802 2.08228236138e-21)
(-0.0227291547737 -0.00237293031773 3.65716777508e-21)
(-0.02325970488 -0.00909364930122 4.32611041508e-22)
(-0.0213901059565 -0.00706225266165 2.23373871331e-22)
(-0.0228878287545 -0.0136673784331 5.97792452933e-22)
(-0.0206276192911 -0.0113469307969 8.5537157385e-22)
(-0.0230954290949 -0.0185044086338 1.21363201186e-21)
(-0.0204932274119 -0.0162365486941 1.4662602704e-21)
(-0.023757044745 -0.0237506285355 4.76622629243e-21)
(-0.0207256157043 -0.0213199003118 5.87652257882e-21)
(-0.0249181537639 -0.0295334553771 2.03442422237e-20)
(-0.0213638903398 -0.0269828623851 2.62345192152e-20)
(-0.0270807465509 -0.0360288048212 6.41337158791e-20)
(-0.022412209413 -0.033768436994 1.10970386387e-19)
(-0.0306093047978 -0.0427963627366 1.35397061113e-19)
(-0.0252055852672 -0.0417506388533 3.44913459066e-19)
(-0.0347403494704 -0.0491376235451 2.01845228354e-19)
(-0.0296919241861 -0.0492309549596 7.08769565328e-19)
(-0.039854781939 -0.0562730829812 2.03405558606e-19)
(-0.0332859432549 -0.056738860296 8.79283032279e-19)
(-0.0483372544658 -0.0636076007294 1.68335694906e-19)
(-0.0391992740797 -0.0661676974698 6.92159300328e-19)
(-0.060553633686 -0.0678269951604 1.32040819802e-19)
(-0.0518642504663 -0.07479662828 7.12945926562e-19)
(-0.0699677841213 -0.0656050690221 7.87883565468e-20)
(-0.0693656844338 -0.07290830346 5.39345175259e-19)
(-0.0750471801438 -0.0667059716342 3.41980886191e-20)
(-0.0724885929208 -0.0677425083334 2.81932985742e-19)
(-0.079162020543 -0.0727804133975 6.57286702215e-21)
(-0.0746974013324 -0.0707193401879 1.01769494052e-19)
(-0.0738784318679 -0.0855188421169 -7.7460127914e-21)
(-0.0758761235043 -0.0767969839695 3.78370752183e-20)
(-0.0491223902952 -0.112924811344 -2.7811431381e-20)
(-0.0579077471839 -0.103410901935 5.64602954672e-20)
(-0.0313600905359 -0.151754589429 -4.63436326127e-20)
(-0.0219893333818 -0.0911527694941 6.8884637596e-20)
(0.0233843299636 -0.170250672397 -3.16491790481e-20)
(-0.0305447912155 -0.123063369096 6.74438563565e-20)
(0.121750938788 -0.221626987805 -6.9479049071e-20)
(-0.0197567323099 -0.00465014959566 1.79825928503e-21)
(-0.018078748962 -0.00238691948834 2.83876331831e-21)
(-0.01870581929 -0.00921873783903 6.46134403673e-22)
(-0.016821188961 -0.00710657710644 3.12616520475e-22)
(-0.0181675174305 -0.0138670153636 1.72383939132e-21)
(-0.015978877724 -0.0113996113476 1.13551076952e-21)
(-0.0180260290406 -0.0188053082642 6.12915083736e-21)
(-0.0155542973609 -0.0162942079789 5.14209182456e-21)
(-0.0181283238702 -0.0242983958231 2.73448155016e-20)
(-0.0152317223735 -0.0214356432912 2.59698992748e-20)
(-0.0183593059631 -0.0307561207451 1.16860663378e-19)
(-0.014905239625 -0.0272754000007 1.27164150726e-19)
(-0.0196360396061 -0.0389026905304 3.91750129574e-19)
(-0.0142646868163 -0.0356838295898 5.54638558682e-19)
(-0.0234369304713 -0.0484333483036 9.18285963282e-19)
(-0.0156740728885 -0.0480149434331 1.75663105247e-18)
(-0.027484046754 -0.0564409832323 1.38620736925e-18)
(-0.0216836348562 -0.0583078096582 3.79098874324e-18)
(-0.0314852693195 -0.0660255096239 1.368036774e-18)
(-0.0237011419371 -0.0669957289848 4.47580981223e-18)
(-0.0411995844801 -0.0770979239036 1.23676953198e-18)
(-0.0281270370733 -0.0802609094639 3.19850906881e-18)
(-0.0596019033454 -0.0834476618416 1.12025028202e-18)
(-0.0455151118871 -0.095312326892 3.86752742516e-18)
(-0.0720365819973 -0.0733327435145 7.42489804455e-19)
(-0.0794815557134 -0.0891095702826 3.16141938332e-18)
(-0.0741862256728 -0.0708987936877 3.49504391175e-19)
(-0.0749236302461 -0.0749387808734 1.70675322588e-18)
(-0.0752533735343 -0.0733148486469 1.33033702248e-19)
(-0.0722823186996 -0.0781038663754 6.82953327003e-19)
(-0.06166189955 -0.0824492453979 1.02043383477e-19)
(-0.066742316663 -0.0792664371321 2.76194961896e-19)
(-0.0268390186105 -0.103847675021 1.53156364444e-19)
(-0.0365094810528 -0.0942534725355 3.39816376332e-19)
(-0.0199332200105 -0.131026274837 1.82672126565e-19)
(0.00519014533168 -0.0843054151397 5.50992417639e-19)
(0.0507701124575 -0.113608065094 2.96139863335e-20)
(-0.0479590836745 -0.0655623878933 6.29658302805e-19)
(0.210933044216 -0.0531317646576 7.02999250366e-20)
(-0.0151609220147 -0.00464823214759 1.35312055376e-21)
(-0.0134302929706 -0.00237934008336 2.01787155166e-21)
(-0.0141086688934 -0.00918482444148 8.01992886325e-22)
(-0.0122843128607 -0.00703072126945 2.35515676395e-22)
(-0.0133913433335 -0.0137786386702 4.55376320277e-21)
(-0.0113846466185 -0.011221447188 2.7839017963e-21)
(-0.0128758538527 -0.0186621915088 2.4982840262e-20)
(-0.0106701510664 -0.0160100250738 1.76338888073e-20)
(-0.0124352112695 -0.0242240846743 1.25789234499e-19)
(-0.00966905858118 -0.0212368084641 9.11361783746e-20)
(-0.0117326097226 -0.0315216013951 5.6494204603e-19)
(-0.00760682422707 -0.0273049407494 4.48678000349e-19)
(-0.0115904326442 -0.0432910010475 1.91951948158e-18)
(-0.00249435152721 -0.0372011480519 1.99630257708e-18)
(-0.0144703775388 -0.0593165910976 4.62933383243e-18)
(0.000352471222643 -0.0543495503468 6.59405179338e-18)
(-0.0171892857451 -0.0677375865051 6.88059118621e-18)
(-0.0132619467366 -0.069531871647 1.45805525812e-17)
(-0.0181797313695 -0.0795334717123 6.30628210703e-18)
(-0.0119049675342 -0.0796345970059 1.60700708749e-17)
(-0.0265345000249 -0.0962545360769 5.82926696198e-18)
(-0.011406129133 -0.0924659132664 9.10984817209e-18)
(-0.0605906384206 -0.108522590131 5.90869652646e-18)
(-0.0332477461471 -0.121312969398 1.27687278456e-17)
(-0.0824444636012 -0.0872723787749 4.12568280474e-18)
(-0.100732759459 -0.104204714261 7.51086600143e-18)
(-0.0745891117113 -0.082921156743 2.04020216171e-18)
(-0.0792759501257 -0.0834022676807 4.56493747062e-18)
(-0.0695749324762 -0.0878036648504 8.26114586651e-19)
(-0.067400711961 -0.0889548655383 2.11144807793e-18)
(-0.0548155544432 -0.0894169189324 5.1396795475e-19)
(-0.0651295346555 -0.0905142442191 8.65951334629e-19)
(-0.020191813586 -0.0668344613273 7.37652429527e-19)
(-0.0590920066197 -0.0981780025211 7.18748941677e-19)
(-0.0466716270623 -0.032836776438 9.97978593879e-19)
(-0.0288059410755 -0.0780708646127 8.97286109746e-19)
(0.107741050885 0.0410235013478 6.70344241508e-19)
(-0.121806150645 -0.0417972703688 1.46723680232e-18)
(0.22870166887 9.9824678007e-05 5.80675482964e-19)
(-0.0106321512123 -0.00457156147067 9.00266674297e-22)
(-0.00885861183714 -0.00237199037306 9.41730117519e-22)
(-0.00959660383151 -0.00896040937351 2.21742458637e-21)
(-0.00789530090562 -0.00682051336366 4.18705084305e-22)
(-0.00854870156104 -0.0133790361946 1.58640274009e-20)
(-0.0069657293821 -0.010641294534 7.60500209543e-21)
(-0.00692095036698 -0.0182585321079 8.378722692e-20)
(-0.00579019320908 -0.0146414262523 4.84032565542e-20)
(-0.00370054032455 -0.0242869684175 4.14024944225e-19)
(-0.00363998757974 -0.0185955576206 2.35337916489e-19)
(0.00294531100747 -0.0323398545255 1.8800385314e-18)
(0.000446828576662 -0.0219859587234 1.05112238833e-18)
(0.0103890367901 -0.0458908491889 6.67083488889e-18)
(0.0110575616643 -0.0260909571198 3.76330808432e-18)
(0.00186803067713 -0.0672043550457 1.65452705422e-17)
(0.0216668243007 -0.0332733850046 1.01476268846e-17)
(-0.00851777985226 -0.0804660527585 2.37700322699e-17)
(-0.00742632337635 -0.0923709874056 1.887363694e-17)
(-0.0254266399504 -0.103777380102 1.60493090557e-17)
(-0.0865933135586 -0.137025575581 1.43708973206e-17)
(-0.106857526476 -0.0924101338592 7.95012066731e-18)
(-0.0724860658622 -0.0889137866965 4.63618338684e-18)
(-0.057342905299 -0.0967271529674 2.15128482591e-18)
(-0.0563108758872 -0.102936373811 1.07073232156e-18)
(-0.052617046477 -0.0939577666851 8.78382621896e-19)
(-0.0562338955807 -0.0585851888101 1.36654431819e-18)
(0.0507539308691 -0.0914341305459 1.37756804377e-18)
(-0.00627096667164 -0.00445550450908 4.60168527527e-22)
(-0.00440314181462 -0.00237546978595 1.45253771445e-21)
(-0.00551708901688 -0.00845789134529 5.80628259337e-21)
(-0.00389291731901 -0.00662959171533 1.86356802521e-21)
(-0.00466676473897 -0.0119922500315 4.01442312488e-20)
(-0.00343125807282 -0.010105044264 1.51851101868e-20)
(-0.00324284033134 -0.0148590160709 1.99953946124e-19)
(-0.00292315388197 -0.0133864761604 9.87403280373e-20)
(-0.000144475027458 -0.0165110858105 8.72435360591e-19)
(-0.00198747506545 -0.0160319681852 4.91016017624e-19)
(0.00674477623261 -0.0165237987558 2.93439194125e-18)
(0.000460158806039 -0.0165804484938 2.05570343872e-18)
(0.0171638682089 -0.0109692815365 7.24010008006e-18)
(0.00550376630811 -0.0147476619372 7.01347308079e-18)
(0.0106978912544 -0.00812235749613 2.00479361251e-17)
(-0.0020626637454 -0.00440746649202 2.85593721214e-21)
(4.02425415988e-06 -0.00237702364816 3.19198763256e-21)
(-0.00181420159941 -0.00830525301761 1.12423956187e-20)
(4.61914617382e-06 -0.0065791953936 3.46678884113e-21)
(-0.00158654959236 -0.0117413492047 7.37812069754e-20)
(4.70907244739e-06 -0.00999777775743 1.96578561448e-20)
(-0.00136549164049 -0.0146685409799 3.89802399537e-19)
(4.08285274772e-06 -0.0132762962997 1.28121942397e-19)
(-0.00102203755721 -0.0166591451451 1.67428409576e-18)
(3.37607030308e-06 -0.0159971307618 6.51082306849e-19)
(0.000153662929456 -0.0162009890076 6.13478457827e-18)
(2.46368603536e-06 -0.0166037751189 2.69665789697e-18)
(0.00192838357833 -0.0106979557724 1.98213091258e-17)
(1.38200452583e-06 -0.0150446322413 9.57201021414e-18)
(3.65446612068e-07 -0.00631277774503 3.00688493361e-17)
(0.00207113771601 -0.0044076952638 3.80283926154e-21)
(0.00441114672045 -0.00237567399808 3.66337991353e-21)
(0.00182315568724 -0.00830551528649 1.18822493673e-20)
(0.00390193830919 -0.00662997686977 3.91862667949e-21)
(0.00159500369106 -0.011741307436 7.39985915667e-20)
(0.00344015488804 -0.0101053109678 1.59645661815e-20)
(0.00137283862421 -0.0146683933806 3.89401849709e-19)
(0.00293105938325 -0.0133864576149 9.85610262175e-20)
(0.00102784788501 -0.0166589942466 1.67345610806e-18)
(0.00199415086575 -0.016031650778 4.89122923077e-19)
(-0.000149779563542 -0.0162006422384 6.13388353285e-18)
(-0.00045537719422 -0.0165800412252 2.05396292798e-18)
(-0.0019266060355 -0.0106975700781 1.98195504244e-17)
(-0.00550085392189 -0.0147471302734 7.01172938075e-18)
(-0.0106966488694 -0.00812216740167 2.00460314537e-17)
(0.00627926427148 -0.00445590131588 3.77916733147e-21)
(0.00552578262552 -0.00845836847242 8.0009434937e-21)
(0.00467491754817 -0.0119925021746 4.05270008323e-20)
(0.00324988906205 -0.0148589635417 1.98282099585e-19)
(0.000150037298706 -0.0165104033934 8.69629742999e-19)
(-0.00674085068986 -0.0165234004111 2.93180877589e-18)
(-0.0171614663483 -0.010968911792 7.23821041002e-18)
)
;

boundaryField
{
    back
    {
        type            calculated;
        value           uniform (0 0 0);
    }
    sides
    {
        type            calculated;
        value           nonuniform List<vector> 0();
    }
    bottom
    {
        type            calculated;
        value           uniform (0 0 0);
    }
    front
    {
        type            calculated;
        value           uniform (0 0 0);
    }
    atmosphere
    {
        type            calculated;
        value           nonuniform List<vector> 7((0 -0.110339940643 0) (0 -0.159632682029 0) (0 -0.212434478184 0) (0 -0.24103089329 0) (0 -0.202780591389 0) (0.310298914676 0.0232676811846 2.65000852809e-19) (0 -0.131966875131 0));
    }
    floatingObject
    {
        type            calculated;
        value           nonuniform List<vector> 8((0 -3.33066907388e-15 4.16333634234e-16) (0 0 4.16333634234e-16) (0 0 0) (0 -6.66133814775e-15 4.16333634234e-16) (8.32667268469e-16 0 0) (0 0 4.16333634234e-16) (0 0 4.16333634234e-16) (0 0 0));
    }
    procBoundary3to4
    {
        type            processor;
        value           nonuniform List<vector> 
13
(
(-0.0459581919873 -0.0280819606156 2.31926728646e-22)
(-0.0493530370497 -0.0315546023943 3.03604368303e-22)
(-0.0532831282474 -0.0347189704808 2.36569603386e-22)
(-0.0360065300121 -0.00214156084913 2.55003020601e-21)
(-0.0343744909233 -0.00625179533533 -4.10011837528e-22)
(-0.0337376521648 -0.00998099060712 -9.64450651803e-23)
(-0.0341453014302 -0.0141358987495 1.21320706675e-22)
(-0.0368730303784 -0.0225149059355 2.45399142321e-22)
(-0.0425035207815 -0.0276456175777 2.78892450436e-22)
(-0.0390992264547 -0.0268723986147 5.59711313441e-22)
(-0.0324848728205 -0.0167515467879 1.84730717874e-22)
(-0.0337659498092 -0.0211567042094 2.64079931976e-22)
(-0.0308109351352 -0.0195670475246 3.56075262218e-22)
)
;
    }
    procBoundary3to5
    {
        type            processor;
        value           nonuniform List<vector> 10((-0.0578756990015 -0.0373783941619 3.42091782751e-22) (-0.0631347606195 -0.0392839155518 2.45222038841e-22) (-0.0689787069638 -0.0400255314701 1.10324305417e-21) (-0.0748156781498 -0.0391713691817 3.45962842778e-22) (-0.0827763025861 -0.0381710128786 2.57876651151e-21) (-0.0992091812638 -0.0338038449061 7.87331170467e-21) (-0.129490640144 -0.0400762087929 2.60262121766e-20) (-0.156119832536 -0.039741515026 4.20763754016e-20) (-0.113340810028 -0.0198673185269 3.9103298575e-20) (-0.062107046207 -0.0498205991077 6.1524651986e-21));
    }
    procBoundary3to6
    {
        type            processor;
        value           nonuniform List<vector> 8((-0.145349220189 -0.0748944894578 8.90011156502e-18) (-0.0827733114251 -0.0822299630662 6.34307354986e-18) (-0.0595880859477 -0.0993544589673 3.76614957696e-18) (-0.0589206195779 -0.108023702118 1.88491648381e-18) (-0.0680706446909 -0.125869542621 1.31817641578e-18) (-0.0641774811857 -0.0778582568581 1.07506679926e-18) (-0.0889634793357 -0.148611301465 2.10569712574e-18) (0.269253871294 -0.00265607809246 1.25470489036e-18));
    }
    procBoundary3to8
    {
        type            processor;
        value           nonuniform List<vector> 8((0.00886636321833 -0.00237254804333 2.93458452523e-21) (0.00790380972228 -0.00682154667243 2.41154082758e-21) (0.00697388250171 -0.0106422198345 8.09904619359e-21) (0.0057973897472 -0.0146418471123 4.75120127484e-20) (0.00364583342782 -0.0185953729134 2.32861030673e-19) (-0.000441743961823 -0.021985262029 1.04935548997e-18) (-0.0110543202204 -0.026089987845 3.76024458606e-18) (-0.0216649992847 -0.0332730138328 1.01449082042e-17));
    }
}


// ************************************************************************* //
