/*--------------------------------*- C++ -*----------------------------------*\
| =========                 |                                                 |
| \\      /  F ield         | OpenFOAM: The Open Source CFD Toolbox           |
|  \\    /   O peration     | Version:  v2012                                 |
|   \\  /    A nd           | Website:  www.openfoam.com                      |
|    \\/     M anipulation  |                                                 |
\*---------------------------------------------------------------------------*/
FoamFile
{
    version     2.0;
    format      ascii;
    class       volScalarField;
    location    "5.5";
    object      p_rgh;
}
// * * * * * * * * * * * * * * * * * * * * * * * * * * * * * * * * * * * * * //

dimensions      [1 -1 -2 0 0 0 0];


internalField   nonuniform List<scalar> 
164
(
8721.87943367
8722.39924961
8722.19504861
8720.95511056
8718.88574915
7038.61936441
887.312969561
-0.51191742226
8723.46767164
8723.20963178
8722.64720639
8720.93001947
8717.70767082
7021.94056649
801.888770533
0.735044901447
8724.44947647
8724.25037726
8723.72623578
8721.9185363
8718.18436306
7033.96339548
795.254406358
2.1507467565
8724.88427665
8725.58421187
8725.58992661
8724.36579022
8721.22219366
7053.66343526
801.983473215
3.73661976534
8728.65360376
8728.50203187
8727.01662391
7073.08482553
811.182056887
4.46637382018
8732.23962505
8733.84671973
8735.42025026
7099.52017594
846.725232664
1.11264044204
8735.81247356
8739.20225571
8744.04809075
7137.16439262
970.266267678
-2.13855464992
8738.54793405
8743.03461306
8748.97755196
7118.37621435
977.001593728
-1.74929205696
8740.20827707
8745.3045924
8751.96133802
7182.29426777
992.641417473
-0.791524342777
8740.70383124
8745.94234113
8752.22458129
7209.37925524
947.606179972
-1.28389384519
8740.27254101
8745.23051806
8750.241369
7198.17658649
897.787517748
-0.563139761252
8739.3336747
8743.95322763
8747.77858719
7179.70500953
893.853867042
1.94159360517
8738.49068054
8742.9537571
8746.41965028
7173.73491484
887.207843313
2.62137152993
8737.79518915
8742.65345477
8746.87111955
7184.37030594
885.167478656
1.42656668931
8737.01587811
8742.50706041
8748.44312837
7201.28192222
921.750186892
-0.115219280227
8735.60579863
8741.75025591
8749.12699873
7186.78328526
982.634771793
-0.819393198227
8733.15362239
8739.68738432
8747.4746555
7133.48195178
1021.77204063
-0.535920392628
8729.86680913
8736.21888447
8743.32262912
7067.4717131
960.716981065
-0.245587339053
8726.05652305
8731.79878141
8737.72578786
6984.34650532
872.762769416
-0.086563701491
8721.74258253
8727.01494826
8732.34600209
6926.82505717
800.963093072
-0.0298051847539
8717.034754
8722.0611089
8727.33733174
6929.05035131
759.3579348
-0.0226745890535
8711.88490135
8716.71705707
8721.76835288
6880.8191692
709.503548206
-0.0165218941927
8706.35928654
8711.08130665
8715.97793559
6817.70776786
656.605471043
-0.00900328479857
8700.54591932
8705.17373224
8709.93544557
6737.8424992
609.794696039
-0.00400403103783
8703.67713334
6644.1755547
570.710815309
-0.0023079690482
8697.34069559
6545.36676532
534.384392339
-0.00440317630005
8690.64321931
6443.3153859
492.391652338
-0.0125786771886
)
;

boundaryField
{
    back
    {
        type            fixedFluxPressure;
        gradient        uniform 0;
        value           nonuniform List<scalar> 
164
(
8721.87943367
8722.39924961
8722.19504861
8720.95511056
8718.88574915
7038.61936441
887.312969561
-0.51191742226
8723.46767164
8723.20963178
8722.64720639
8720.93001947
8717.70767082
7021.94056649
801.888770533
0.735044901447
8724.44947647
8724.25037726
8723.72623578
8721.9185363
8718.18436306
7033.96339548
795.254406358
2.1507467565
8724.88427665
8725.58421187
8725.58992661
8724.36579022
8721.22219366
7053.66343526
801.983473215
3.73661976534
8728.65360376
8728.50203187
8727.01662391
7073.08482553
811.182056887
4.46637382018
8732.23962505
8733.84671973
8735.42025026
7099.52017594
846.725232664
1.11264044204
8735.81247356
8739.20225571
8744.04809075
7137.16439262
970.266267678
-2.13855464992
8738.54793405
8743.03461306
8748.97755196
7118.37621435
977.001593728
-1.74929205696
8740.20827707
8745.3045924
8751.96133802
7182.29426777
992.641417473
-0.791524342777
8740.70383124
8745.94234113
8752.22458129
7209.37925524
947.606179972
-1.28389384519
8740.27254101
8745.23051806
8750.241369
7198.17658649
897.787517748
-0.563139761252
8739.3336747
8743.95322763
8747.77858719
7179.70500953
893.853867042
1.94159360517
8738.49068054
8742.9537571
8746.41965028
7173.73491484
887.207843313
2.62137152993
8737.79518915
8742.65345477
8746.87111955
7184.37030594
885.167478656
1.42656668931
8737.01587811
8742.50706041
8748.44312837
7201.28192222
921.750186892
-0.115219280227
8735.60579863
8741.75025591
8749.12699873
7186.78328526
982.634771793
-0.819393198227
8733.15362239
8739.68738432
8747.4746555
7133.48195178
1021.77204063
-0.535920392628
8729.86680913
8736.21888447
8743.32262912
7067.4717131
960.716981065
-0.245587339053
8726.05652305
8731.79878141
8737.72578786
6984.34650532
872.762769416
-0.086563701491
8721.74258253
8727.01494826
8732.34600209
6926.82505717
800.963093072
-0.0298051847539
8717.034754
8722.0611089
8727.33733174
6929.05035131
759.3579348
-0.0226745890535
8711.88490135
8716.71705707
8721.76835288
6880.8191692
709.503548206
-0.0165218941927
8706.35928654
8711.08130665
8715.97793559
6817.70776786
656.605471043
-0.00900328479857
8700.54591932
8705.17373224
8709.93544557
6737.8424992
609.794696039
-0.00400403103783
8703.67713334
6644.1755547
570.710815309
-0.0023079690482
8697.34069559
6545.36676532
534.384392339
-0.00440317630005
8690.64321931
6443.3153859
492.391652338
-0.0125786771886
)
;
    }
    sides
    {
        type            fixedFluxPressure;
        gradient        nonuniform List<scalar> 0();
        value           nonuniform List<scalar> 0();
    }
    bottom
    {
        type            fixedFluxPressure;
        gradient        nonuniform List<scalar> 0();
        value           nonuniform List<scalar> 0();
    }
    front
    {
        type            fixedFluxPressure;
        gradient        uniform 0;
        value           nonuniform List<scalar> 
164
(
8721.87943367
8722.39924961
8722.19504861
8720.95511056
8718.88574915
7038.61936441
887.312969561
-0.51191742226
8723.46767164
8723.20963178
8722.64720639
8720.93001947
8717.70767082
7021.94056649
801.888770533
0.735044901447
8724.44947647
8724.25037726
8723.72623578
8721.9185363
8718.18436306
7033.96339548
795.254406358
2.1507467565
8724.88427665
8725.58421187
8725.58992661
8724.36579022
8721.22219366
7053.66343526
801.983473215
3.73661976534
8728.65360376
8728.50203187
8727.01662391
7073.08482553
811.182056887
4.46637382018
8732.23962505
8733.84671973
8735.42025026
7099.52017594
846.725232664
1.11264044204
8735.81247356
8739.20225571
8744.04809075
7137.16439262
970.266267678
-2.13855464992
8738.54793405
8743.03461306
8748.97755196
7118.37621435
977.001593728
-1.74929205696
8740.20827707
8745.3045924
8751.96133802
7182.29426777
992.641417473
-0.791524342777
8740.70383124
8745.94234113
8752.22458129
7209.37925524
947.606179972
-1.28389384519
8740.27254101
8745.23051806
8750.241369
7198.17658649
897.787517748
-0.563139761252
8739.3336747
8743.95322763
8747.77858719
7179.70500953
893.853867042
1.94159360517
8738.49068054
8742.9537571
8746.41965028
7173.73491484
887.207843313
2.62137152993
8737.79518915
8742.65345477
8746.87111955
7184.37030594
885.167478656
1.42656668931
8737.01587811
8742.50706041
8748.44312837
7201.28192222
921.750186892
-0.115219280227
8735.60579863
8741.75025591
8749.12699873
7186.78328526
982.634771793
-0.819393198227
8733.15362239
8739.68738432
8747.4746555
7133.48195178
1021.77204063
-0.535920392628
8729.86680913
8736.21888447
8743.32262912
7067.4717131
960.716981065
-0.245587339053
8726.05652305
8731.79878141
8737.72578786
6984.34650532
872.762769416
-0.086563701491
8721.74258253
8727.01494826
8732.34600209
6926.82505717
800.963093072
-0.0298051847539
8717.034754
8722.0611089
8727.33733174
6929.05035131
759.3579348
-0.0226745890535
8711.88490135
8716.71705707
8721.76835288
6880.8191692
709.503548206
-0.0165218941927
8706.35928654
8711.08130665
8715.97793559
6817.70776786
656.605471043
-0.00900328479857
8700.54591932
8705.17373224
8709.93544557
6737.8424992
609.794696039
-0.00400403103783
8703.67713334
6644.1755547
570.710815309
-0.0023079690482
8697.34069559
6545.36676532
534.384392339
-0.00440317630005
8690.64321931
6443.3153859
492.391652338
-0.0125786771886
)
;
    }
    atmosphere
    {
        type            totalPressure;
        rho             rho;
        psi             none;
        gamma           1;
        p0              uniform 0;
        value           nonuniform List<scalar> 
27
(
0
0
0
0
0
0
0
0
-2.64865778491e-05
0
0
0
0
0
0
0
0
-3.45073966749e-05
-2.5539817622e-05
-0.000187155491401
-0.000351228487631
-0.000128998697829
-9.07342549616e-05
-5.70059291299e-06
-3.54713912293e-06
0
-0.000313134333072
)
;
    }
    floatingObject
    {
        type            fixedFluxPressure;
        gradient        uniform 0;
        value           nonuniform List<scalar> 4(8721.87943367 8723.46767164 8724.44947647 8724.88427665);
    }
    procBoundary6to3
    {
        type            processor;
        value           nonuniform List<scalar> 8(8723.1703616 8723.04561707 8722.64244296 8721.56164656 8719.40153088 7040.03876556 809.754243185 0.667284760987);
    }
    procBoundary6to7
    {
        type            processor;
        value           nonuniform List<scalar> 
11
(
8720.98530189
8717.07442156
8712.54774777
8707.49732703
8702.1158688
8696.43907353
8694.409863
8698.98546862
8698.98546862
8692.50100224
8685.58339325
)
;
    }
    procBoundary6to8
    {
        type            processor;
        value           nonuniform List<scalar> 
16
(
8727.84996575
8728.28221021
8728.28221021
8730.68843337
8733.12429061
8734.99686855
8736.1228311
8736.31393021
8736.01550948
8735.41490813
8734.53129043
8733.46184343
8732.37956176
8730.55372857
8727.859436
8724.71843947
)
;
    }
    procBoundary6to9
    {
        type            processor;
        value           nonuniform List<scalar> 4(8682.90454144 6335.69142777 443.55583119 -0.014086180821);
    }
}


// ************************************************************************* //
