/*--------------------------------*- C++ -*----------------------------------*\
| =========                 |                                                 |
| \\      /  F ield         | OpenFOAM: The Open Source CFD Toolbox           |
|  \\    /   O peration     | Version:  v2012                                 |
|   \\  /    A nd           | Website:  www.openfoam.com                      |
|    \\/     M anipulation  |                                                 |
\*---------------------------------------------------------------------------*/
FoamFile
{
    version     2.0;
    format      ascii;
    class       volVectorField;
    location    "1.8";
    object      ddt0(rho,U);
}
// * * * * * * * * * * * * * * * * * * * * * * * * * * * * * * * * * * * * * //

dimensions      [1 -2 -2 0 0 0 0];


internalField   nonuniform List<vector> 
167
(
(-10.4015377212 126.581164703 -4.71594715245e-19)
(-11.1571209427 145.39699955 -1.38286379104e-18)
(-12.0102976294 165.726911412 8.45224397865e-19)
(-12.8534793847 187.779425539 -7.70404220809e-19)
(-13.3583363428 211.378555131 -1.79585611362e-19)
(-13.1287645841 235.71153248 -3.09028594748e-18)
(-11.2168570638 266.652066407 -5.30890678411e-19)
(-10.9433480926 283.909387441 -1.28116248509e-18)
(-34.645529175 324.10444978 -3.09518616759e-18)
(-26.6660988063 124.672743567 -5.62010431707e-18)
(-1.2601074214 0.756493476924 1.405285769e-19)
(-2.46755998832 5.26842458082 -6.12936852758e-20)
(-26.7737019614 128.012687023 -8.06753576223e-19)
(-28.8465093439 146.985694477 2.98033761831e-18)
(-31.2827619804 167.503564314 -1.00219976516e-19)
(-34.0780413456 189.922107792 1.19181679754e-18)
(-37.1339907522 214.567711976 7.11607271978e-19)
(-40.0933372606 241.386885375 -5.0102217898e-19)
(-42.7223100569 280.742389879 -4.60969443899e-18)
(-44.8455849852 314.65233424 -1.53966470035e-17)
(-51.4734570248 357.632165218 -1.00606548615e-17)
(-29.34540043 133.535269485 4.57942430638e-18)
(-1.07475384859 0.69858004407 -4.62200576166e-20)
(-4.82227681746 2.05292972715 1.96138689874e-19)
(-45.5141725624 125.467393101 6.57571636036e-19)
(-48.9643124861 143.974105508 4.89023422754e-19)
(-53.0569162903 163.982996082 -3.85070494509e-19)
(-57.8726622872 185.868094293 -3.36026441528e-20)
(-63.517632757 209.891137633 -4.03534861209e-19)
(-69.9610719202 235.582527719 -9.24557151564e-18)
(-78.3186333456 272.458851582 1.38948489334e-17)
(-88.0157873466 299.942062005 1.31498537762e-18)
(-101.474741188 339.992692812 -3.63336872694e-17)
(-49.6636839244 130.768339791 -6.8714849528e-18)
(-1.29001579947 0.573577686984 -5.32086542225e-20)
(-5.5319981189 1.13681645361 -4.42827150724e-20)
(-67.7168515246 139.369487709 -5.27759172315e-19)
(-73.4212998973 158.535828694 1.34257320461e-19)
(-80.1958467332 179.458670515 -2.44411395743e-19)
(-88.2506707516 202.354125344 3.70941434622e-19)
(-97.5034033786 226.84919129 -9.13315428617e-19)
(-109.588925434 261.689377127 -6.2756036017e-18)
(-122.492930735 288.398258204 5.98840759429e-18)
(-134.257114319 327.833501708 3.82412471527e-18)
(-64.7795621029 128.136243187 -2.76742047739e-18)
(-1.21905365457 0.564574186181 5.63006061722e-21)
(-5.6742889174 0.674520372615 -6.16509621045e-21)
(-92.7960665088 151.415534322 4.58705759625e-20)
(-101.338362293 170.980977152 -4.00266710445e-20)
(-111.559112331 192.2675682 -2.44858676849e-19)
(-123.350229946 214.853874258 -9.5366700672e-18)
(-138.938503931 246.757152021 -6.76736456017e-19)
(-155.466476242 269.745778567 -1.66204890334e-18)
(-171.462282195 307.678790144 -1.6534778989e-17)
(-82.8992610114 122.919811899 -5.30889429004e-18)
(-1.12407677823 0.493703571832 8.01904006467e-20)
(-5.42888510423 0.384751051391 -7.22209158722e-21)
(-110.739975928 142.811810664 1.4379239675e-20)
(-120.788190115 160.6927907 -8.62173116479e-20)
(-132.825269184 180.007938881 -3.43649883635e-19)
(-146.793183815 200.193514081 -9.88605716346e-18)
(-164.969131617 228.714566755 -1.97958184132e-18)
(-184.169723911 247.962700237 -1.06837082416e-17)
(-202.637489882 285.21419676 -2.00294172176e-17)
(-98.6203948315 117.21377169 -6.6682091721e-18)
(-1.00811218748 0.435296219536 -4.09913031836e-20)
(-5.06572690346 0.198805658087 -7.50440202816e-21)
(-127.04470116 132.968246187 3.67554172754e-20)
(-138.297123458 148.924179367 -6.16806493149e-20)
(-151.765143448 165.919228981 4.92343300392e-20)
(-167.484564017 183.499321901 -6.36372569949e-18)
(-187.424565849 208.320381956 3.87344410839e-18)
(-208.952905479 223.841521366 -1.72955809483e-17)
(-229.397709404 260.38854364 -3.8156484172e-17)
(-113.145558677 110.56771615 -2.07291498198e-17)
(-0.88098954687 0.365170580396 -5.67651293096e-20)
(-4.5091552353 -0.0915327104418 -7.14722128893e-20)
(-141.494349893 122.170715859 6.37949799666e-20)
(-153.614283685 136.006120526 2.26290445026e-21)
(-168.137224748 150.497456091 -4.72714617673e-19)
(-185.107756266 165.29972201 -4.47163178025e-18)
(-206.359830461 186.002182015 1.39168790551e-17)
(-229.658871961 197.953292605 2.7376148258e-17)
(-251.916345117 233.345249168 -3.51596051572e-17)
(-126.303888862 102.615931257 -1.14752237529e-17)
(-0.751855715099 0.312637005614 -2.69442689541e-20)
(-3.92002520201 -0.109247451046 -2.61464058814e-20)
(-153.931017889 110.747153612 -1.25686863122e-19)
(-166.555421607 122.314735985 2.45887532152e-20)
(-181.715104827 134.156663211 -2.10469067689e-19)
(-199.500886367 145.960697529 -1.1526543585e-19)
(-221.624980262 162.347779774 3.71299796907e-18)
(-246.017811688 170.504732006 2.1414619691e-17)
(-270.157285282 203.426228977 3.13904672798e-18)
(-138.007393606 92.6318845175 -6.05462101802e-18)
(-0.569491292358 0.206002901568 1.41456749291e-20)
(-3.38183618597 -0.134347976006 -2.0641221276e-20)
(-164.267862498 99.0282343127 7.79103994894e-21)
(-177.006093558 108.259760164 2.95065913559e-21)
(-192.336614014 117.353341951 -4.05509052517e-19)
(-210.451665396 125.956175768 -4.34194871861e-18)
(-232.839315783 137.914104444 -3.2147592568e-19)
(-257.814964782 142.02838879 5.27784886412e-18)
(-283.536238906 170.896949491 -6.81430754697e-18)
(-147.365688154 80.3783497518 -1.13219774216e-17)
(-0.419819191086 0.12018781079 5.00538830595e-20)
(-2.7447539621 -0.413885491431 -3.11156343129e-20)
(-172.467844166 87.4141588916 8.7229002032e-21)
(-184.926582264 94.2836108592 -4.24633834484e-20)
(-199.914118753 100.584121408 -1.17150652829e-18)
(-217.74851765 105.876612962 -5.34063028633e-19)
(-239.784618337 113.356613668 -2.25234540184e-18)
(-264.846121243 113.202806374 7.98053642156e-18)
(-291.592742555 136.672790295 2.07738413681e-18)
(-154.095934986 66.3130547522 -1.34211073176e-17)
(-0.328638878411 0.103267251011 2.03484030386e-20)
(-1.270320764 -1.38275631258 4.08376175457e-20)
(-178.570157503 76.2291084538 1.04681107214e-20)
(-190.300761296 80.8575172516 -9.35346141443e-20)
(-204.44071496 84.4913979378 -6.40745290977e-20)
(-221.448362014 86.3362837415 -5.4168806321e-19)
(-242.200776221 89.2620724377 -9.27869222457e-19)
(-266.633451928 84.4577437318 -1.10444006087e-17)
(-293.868756614 100.727321842 -6.97223355143e-18)
(-157.54939866 50.2113735208 -8.05488757766e-18)
(-0.175151512733 0.209751543798 -1.03192571576e-19)
(-0.103747712749 -0.303415185335 -5.0241478932e-20)
(-182.686881149 65.9221207634 1.2674435607e-20)
(-193.272599154 68.4561485656 -4.39000584319e-20)
(-206.020431259 69.4776399064 -4.73427676567e-19)
(-221.450108224 68.1918732047 -3.51354134571e-18)
(-239.935385237 66.7012544811 3.06531961911e-18)
(-261.770457609 56.9394479279 1.44909117615e-17)
(-290.449867231 64.1383797247 4.3716750554e-18)
(-156.928417603 31.7884821506 -1.12498169897e-17)
(-0.134290788204 0.106462496314 -5.17737757587e-20)
(-0.159840999823 0.148366848847 4.38098507671e-21)
(-185.075383794 56.8439052798 4.84914656654e-21)
(-194.12432403 57.5707382074 -4.91928096271e-20)
(-204.894146192 56.4086045977 -6.95415406135e-19)
(-217.885342303 52.3659237967 -1.71323849212e-18)
(-233.109766971 46.775721002 4.52053662283e-19)
(-251.377242038 32.1433072648 1.51255705229e-18)
(-277.943650559 29.7990211731 -1.73425868698e-18)
(-150.874357084 12.2446234914 -6.19304328235e-18)
(-0.403246524952 0.0606172222828 -8.00249629824e-20)
(-0.258569349631 0.10782408252 -5.84317938007e-20)
(-186.023138824 49.2944110892 8.81101334797e-20)
(-193.212130498 48.6907308756 2.69740880527e-20)
(-201.61038162 45.8660513499 -9.47591759814e-20)
(-211.571834955 39.9128112065 -1.20408366859e-18)
(-222.758213109 31.2565459861 -1.9390806711e-19)
(-235.919866785 14.2269508608 -4.49281503987e-18)
(-255.124095946 1.32336971182 1.00525693069e-17)
(-133.147385776 -6.52151472397 -8.67636654459e-19)
(-0.53401962884 -0.0620440781196 -8.45992644741e-20)
(-0.174861039621 -0.20775434705 -4.13198455656e-20)
(-186.0292923 43.5781792901 2.4257909831e-19)
(-191.116920148 42.0442819343 -2.77083917557e-21)
(-196.846024906 38.2273503076 1.49910900908e-19)
(-203.396260738 31.2660884312 -1.80463906142e-19)
(-210.56156653 20.6680479343 7.31734345198e-19)
(-217.782380857 4.03170391095 -5.03730916427e-18)
(-222.954249314 -18.6538216782 5.28386311908e-18)
(-99.7459310232 -19.5512051838 6.10867450119e-18)
(-0.145284914233 -0.0789918446863 1.92678532485e-20)
(-0.299135972742 0.0514145836388 3.15232516856e-20)
)
;

boundaryField
{
    back
    {
        type            calculated;
        value           uniform (0 0 0);
    }
    sides
    {
        type            calculated;
        value           uniform (0 0 0);
    }
    bottom
    {
        type            calculated;
        value           nonuniform List<vector> 0();
    }
    front
    {
        type            calculated;
        value           uniform (0 0 0);
    }
    atmosphere
    {
        type            calculated;
        value           nonuniform List<vector> 
16
(
(-2.46161131941 5.26842458082 -6.19088388096e-20)
(-4.82227358154 2.05292972715 1.961398233e-19)
(-5.53203225614 1.13681645361 -4.42872094443e-20)
(-5.67430795519 0.674520372615 -6.15484638721e-21)
(-5.42888917272 0.384751051391 -7.20999407121e-21)
(-5.06575692583 0.198805658087 -7.49293076898e-21)
(-4.50920098617 -0.0915327104418 -7.14878637604e-20)
(-3.92008546699 -0.109247451046 -2.61184165046e-20)
(-3.38191178474 -0.134347976006 -2.06228845012e-20)
(-2.74484737099 -0.413885491431 -3.10978400087e-20)
(13.0855057162 -1.38345980925 1.00458434284e-18)
(1.40941241907 -0.302287501771 -1.96664694049e-21)
(-0.251030713377 0.148402625645 -3.42002615233e-20)
(-0.256949872906 0.10782408252 -5.85228192674e-20)
(0 -0.207754347006 0)
(-0.0605616549903 0.0514145836388 8.43640046111e-21)
)
;
    }
    floatingObject
    {
        type            calculated;
        value           nonuniform List<vector> 0();
    }
    procBoundary1to0
    {
        type            processor;
        value           nonuniform List<vector> 10((-185.514435342 39.6409186662 -2.03419927055e-20) (-188.39552401 37.9400369333 -3.9154657513e-19) (-191.263795185 33.8226332461 4.26265610552e-20) (-194.144462422 26.5353634268 -9.31919167475e-20) (-197.043565679 15.3133381952 4.15693632932e-18) (-198.05767875 -2.00243022834 -1.20703050359e-17) (-191.52420658 -28.0002053659 -2.01000866365e-17) (-63.4101383715 -11.760212624 1.72532003232e-18) (-0.253286365015 -0.0644838125466 1.69518500941e-21) (-0.274354695291 -0.258133967188 1.06409621156e-20));
    }
    procBoundary1to2
    {
        type            processor;
        value           nonuniform List<vector> 
18
(
(-9.76061997019 109.033234219 -1.93064845776e-18)
(-25.0362983743 110.310229615 4.60135786412e-19)
(-42.6341801605 108.188938818 -1.16451740459e-18)
(-62.9388078159 121.604863602 3.32567291482e-19)
(-62.9388078159 121.604863602 3.32567291482e-19)
(-85.6418308604 133.401895127 1.27094989681e-19)
(-85.6418308604 133.401895127 1.27094989681e-19)
(-102.342794113 126.218891628 7.09301911748e-20)
(-117.653412363 118.011429588 3.50527159472e-19)
(-131.388051718 109.017467552 1.52378640526e-20)
(-143.407110861 99.5064232832 1.03221497887e-19)
(-153.663289361 89.7735935957 2.60545983374e-20)
(-162.116090391 80.094604689 1.05512973775e-19)
(-168.796413576 70.8014287011 1.10443181073e-19)
(-173.870606156 62.1784222135 1.33706730233e-20)
(-177.479902068 54.5606846845 -8.76509822665e-20)
(-179.934605826 48.1245191084 -5.8857532186e-20)
(-181.443062864 43.0954975379 -1.35164302197e-19)
)
;
    }
}


// ************************************************************************* //
