/*--------------------------------*- C++ -*----------------------------------*\
| =========                 |                                                 |
| \\      /  F ield         | OpenFOAM: The Open Source CFD Toolbox           |
|  \\    /   O peration     | Version:  v2012                                 |
|   \\  /    A nd           | Website:  www.openfoam.com                      |
|    \\/     M anipulation  |                                                 |
\*---------------------------------------------------------------------------*/
FoamFile
{
    version     2.0;
    format      ascii;
    class       volVectorField;
    location    "1.8";
    object      ddtCorrDdt0(U);
}
// * * * * * * * * * * * * * * * * * * * * * * * * * * * * * * * * * * * * * //

dimensions      [0 1 -2 0 0 0 0];


internalField   nonuniform List<vector> 
167
(
(-0.0104202931162 0.126809410358 -4.72444427748e-22)
(-0.0111772399057 0.14565918805 -1.38535667779e-21)
(-0.0120319562508 0.166025775572 8.46748601083e-22)
(-0.0128766604361 0.188118085382 -7.71793500852e-22)
(-0.0133824301644 0.211759811434 -1.79909449491e-22)
(-0.0131524456131 0.236136693989 -3.09585940053e-21)
(-0.0112370871363 0.267132983431 -5.31848176798e-22)
(-0.010963084899 0.28442142861 -1.28347304107e-21)
(-0.039446469555 0.322850348692 2.54036304916e-21)
(-0.0940692173067 0.308494327375 5.64241271907e-20)
(-0.776896065364 0.263919525068 1.54815835046e-19)
(-1.79401619886 3.55173545687 -2.48884140535e-20)
(-0.0268219797607 0.128243515823 -8.08207941625e-22)
(-0.0288985288454 0.147250755293 2.98571099603e-21)
(-0.0313391770488 0.167805637872 -1.0040095434e-22)
(-0.0341395019458 0.190264636395 1.1939659044e-21)
(-0.0372009711837 0.214954737236 7.12890417287e-22)
(-0.0401656532962 0.241822272069 -5.0192569791e-22)
(-0.0427993613031 0.28124871883 -4.6180082439e-21)
(-0.0449264647813 0.315219823112 -1.54244197362e-20)
(-0.0506650510169 0.357971042442 -4.64559435369e-21)
(-0.0244739478653 0.34028669368 8.04406238307e-20)
(-0.691750604854 0.342300995955 -1.02341090608e-20)
(-3.60383394955 1.34520846721 1.80791807842e-19)
(-0.0455962423621 0.125693631689 6.58757515514e-22)
(-0.0490526104628 0.144233735734 4.89905073084e-22)
(-0.0531526014401 0.16427873006 -3.85765008323e-22)
(-0.0579770381417 0.186203315545 -3.36631852749e-23)
(-0.0636322034905 0.210269732042 -4.04262586601e-22)
(-0.070087260036 0.236007446688 -9.26224706004e-21)
(-0.0784598838098 0.272950240933 1.39199086981e-20)
(-0.0881745254737 0.300483021824 1.31734419662e-21)
(-0.102846599318 0.339395137044 -3.34980706483e-20)
(-0.123688234839 0.318966138996 6.80788045843e-20)
(-0.871607963083 0.278245392193 -4.14066967503e-21)
(-4.25888826302 0.724349421519 -2.50708045459e-20)
(-0.067838974502 0.139620831037 -5.28710811878e-22)
(-0.073553715496 0.158821748516 1.34499423309e-22)
(-0.0803404871624 0.179782340446 -2.44852188143e-22)
(-0.088409859145 0.202719136544 3.71610451652e-22)
(-0.0976792727474 0.227258365712 -9.14962657225e-22)
(-0.109786572493 0.262161342113 -6.28692182613e-21)
(-0.122713850132 0.288918399284 5.9992112764e-21)
(-0.132988299989 0.327833964376 6.00748848743e-21)
(-0.12046611492 0.31436690343 1.17448773914e-20)
(-0.840766867473 0.321720579445 1.49495026401e-20)
(-4.53981314336 0.414838077098 -1.27346907871e-21)
(-0.0929634512504 0.151688656256 4.59532892661e-23)
(-0.101521144329 0.17128937242 -4.00988643529e-23)
(-0.111760351582 0.192614396655 -2.45300215094e-22)
(-0.123572725953 0.215241422995 -9.55387165856e-21)
(-0.139189083425 0.24720218546 -6.77956967536e-22)
(-0.15574686511 0.270232274156 -1.6650465004e-21)
(-0.169697946146 0.30648900675 -1.43017970836e-20)
(-0.156820381317 0.290751353419 -7.79901393769e-22)
(-0.808621886652 0.306038277129 7.55049349759e-20)
(-4.50257132756 0.224949493931 -3.77571882077e-21)
(-0.11093972978 0.14306941596 1.44051600395e-23)
(-0.12100606324 0.160982642478 -8.63728366074e-23)
(-0.133064882049 0.180332668903 -3.44269594613e-22)
(-0.147057975062 0.200554631658 -9.90388964567e-21)
(-0.165266657919 0.229127059648 -1.98315206109e-21)
(-0.184501879289 0.248409907989 -1.07029765918e-20)
(-0.199724100629 0.28276967732 -1.69438538802e-20)
(-0.180358614177 0.265269345529 -6.89300854489e-21)
(-0.757448297097 0.295961537005 -3.0552699495e-20)
(-4.36128052732 0.106318223943 -5.26632369972e-21)
(-0.127273876908 0.133208107314 3.68217048626e-23)
(-0.138546589057 0.149192814676 -6.17919106567e-23)
(-0.152038940118 0.166218561907 4.93233000496e-23)
(-0.167786690963 0.183830338706 -6.37520516213e-21)
(-0.187762592137 0.208696094553 3.8804299437e-21)
(-0.209329757891 0.224245225654 -1.73267737019e-20)
(-0.225223799202 0.256874228273 -3.49450009388e-20)
(-0.201643877503 0.237927385504 -8.13855938933e-20)
(-0.695071477711 0.268550808069 -5.0284737428e-20)
(-4.04421484946 -0.12109204026 -6.54615676776e-20)
(-0.141749605758 0.122391111661 6.39100329349e-23)
(-0.153891387 0.136251460755 2.26695805521e-24)
(-0.168440599007 0.150769004412 -4.73567267069e-22)
(-0.185441687266 0.165597920046 -4.47969855383e-21)
(-0.206732006352 0.186337642278 1.39419786324e-20)
(-0.230073069301 0.198310308091 2.74255216554e-20)
(-0.246512126486 0.229137504744 -2.88488802083e-20)
(-0.221115686856 0.209691702201 1.97799921839e-20)
(-0.635015769247 0.255083740906 -1.43975503034e-20)
(-3.62686117131 -0.120865656608 -2.26539108312e-20)
(-0.154208728536 0.110946954722 -1.25913607141e-22)
(-0.166855892672 0.12253539546 2.46330685765e-23)
(-0.182042923099 0.134398684656 -2.10848748198e-22)
(-0.199860832021 0.146224047088 -1.15473552747e-22)
(-0.222024683927 0.162640576018 3.71969457291e-21)
(-0.246461514502 0.170812244622 2.14532415294e-20)
(-0.263697191445 0.198915300882 6.36462844859e-21)
(-0.239523347828 0.179314885331 6.14438227252e-21)
(-0.600461995113 0.227061867951 8.33477303247e-21)
(-3.24892363948 -0.129955674317 -1.98844930862e-20)
(-0.164564215336 0.0992068891656 7.80509296614e-24)
(-0.177325431976 0.10845507225 2.95596318876e-24)
(-0.192683610067 0.117565060117 -4.06240614755e-22)
(-0.210831341921 0.126183413921 -4.34978198595e-21)
(-0.233259255971 0.138162839144 -3.22054950838e-22)
(-0.258279944101 0.142284543004 5.28736752933e-21)
(-0.276352674177 0.166519407053 -3.36814090262e-21)
(-0.255306927306 0.147407011734 -9.25522673499e-21)
(-0.548047193828 0.184287880246 3.32105638171e-20)
(-2.75485893511 -0.395558490914 -3.21210075749e-20)
(-0.17277898942 0.0875718603578 8.73863303616e-24)
(-0.185260264188 0.0944537343727 -4.25400680563e-23)
(-0.200274785474 0.10076558601 -1.17362004417e-21)
(-0.218141359199 0.106067625829 -5.35026511085e-22)
(-0.240217103722 0.113561066727 -2.25640712014e-21)
(-0.265323778126 0.11340697044 7.9949294981e-21)
(-0.284104392195 0.13280106999 4.36899234342e-21)
(-0.268900881469 0.115626791398 -6.78121976064e-21)
(-0.362232158518 0.117994104801 1.53904894265e-20)
(-1.2897859459 -1.37064800483 3.83772133943e-20)
(-0.178892301367 0.0763666272241 1.04869959446e-23)
(-0.190644048314 0.0810033778731 -9.37033385625e-23)
(-0.204809547961 0.0846438293263 -6.41901097638e-23)
(-0.221847877894 0.0864920434193 -5.42665293934e-22)
(-0.242637555015 0.0894230439657 -9.29542783581e-22)
(-0.267114327005 0.0846100628529 -1.10643194367e-20)
(-0.286665457228 0.0976715419101 -4.79047490216e-21)
(-0.279142397256 0.0829170974929 -4.89513743247e-21)
(-0.149404258508 0.199546693237 -1.00138431808e-19)
(-0.105626282075 -0.303704240354 -4.9972068039e-20)
(-0.183016404669 0.0660410311036 1.26973159861e-23)
(-0.193621207014 0.068579625734 -4.397923077e-23)
(-0.20639210631 0.0696029820296 -4.74281742728e-22)
(-0.22184958543 0.0683148858076 -3.51987968299e-21)
(-0.240368147242 0.0668215608259 3.07084948554e-21)
(-0.262242557351 0.0570421362105 1.45170486921e-20)
(-0.284267061821 0.0620800863377 7.41294797522e-21)
(-0.284423691206 0.0477351939154 -1.20282616022e-20)
(-0.131296264534 0.105459882522 -5.12549646743e-20)
(-0.159699913834 0.148350048913 4.39530508793e-21)
(-0.185409165404 0.0569464291326 4.85793165631e-24)
(-0.194474440691 0.0576745758445 -4.92815122762e-23)
(-0.205263703758 0.0565103511376 -6.96669743604e-22)
(-0.218278322337 0.0524603747609 -1.71632903833e-21)
(-0.233530169447 0.0468600799828 4.52870268175e-22)
(-0.251830594182 0.0322012757437 1.51528483525e-21)
(-0.273763458736 0.0287597193162 -1.23652125465e-21)
(-0.283020306232 0.0126140341196 -3.65158588433e-21)
(-0.220445596771 0.0188596557543 -5.44685501338e-20)
(-0.258569379932 0.10782407041 -5.84317895657e-20)
(-0.186358575739 0.0493833133784 8.82690951505e-23)
(-0.193560587509 0.0487785530415 2.70227394934e-23)
(-0.201974033996 0.0459487892567 -9.49302430448e-23)
(-0.211953539373 0.0399848185118 -1.20625590851e-21)
(-0.22315994783 0.0313129193415 -1.94257702016e-22)
(-0.236345339285 0.0142526082937 -4.50091775526e-21)
(-0.254281721564 0.00103652566936 1.06828370433e-20)
(-0.262635820431 -0.0197469806812 4.1668772206e-21)
(-0.196739655007 -0.0687397922433 -2.9273592959e-20)
(-0.174861039814 -0.207754347006 -4.1319845604e-20)
(-0.186364708884 0.0436567697281 2.43016598613e-22)
(-0.191461598301 0.0421201195713 -2.77582773545e-24)
(-0.19720113972 0.0382963154902 1.50181350806e-22)
(-0.203763175724 0.031322500954 -1.80789512869e-22)
(-0.210941308204 0.0207053285368 7.33054567656e-22)
(-0.218175137254 0.00403897621485 -5.04639382541e-21)
(-0.225514367889 -0.0188577651056 5.33435229493e-21)
(-0.218247119557 -0.0425220659761 1.31606774747e-20)
(-0.185237674616 -0.0795667828213 1.37606842266e-20)
(-0.299136131248 0.0514145572787 3.15232736925e-20)
)
;

boundaryField
{
    back
    {
        type            calculated;
        value           uniform (0 0 0);
    }
    sides
    {
        type            calculated;
        value           uniform (0 0 0);
    }
    bottom
    {
        type            calculated;
        value           nonuniform List<vector> 0();
    }
    front
    {
        type            calculated;
        value           uniform (0 0 0);
    }
    atmosphere
    {
        type            calculated;
        value           nonuniform List<vector> 
16
(
(-1.78806752995 3.55173545687 -2.55035675873e-20)
(-3.60383071363 1.34520846721 1.80792941269e-19)
(-4.25892240026 0.724349421519 -2.50752989178e-20)
(-4.53983218115 0.414838077098 -1.26321925547e-21)
(-4.50257539605 0.224949493931 -3.76362130476e-21)
(-4.36131054968 0.106318223943 -5.25485244055e-21)
(-4.04426060032 -0.12109204026 -6.54772185486e-20)
(-3.62692143629 -0.120865656608 -2.26259214544e-20)
(-3.24899923825 -0.129955674317 -1.98661563114e-20)
(-2.754952344 -0.395558490914 -3.21032132708e-20)
(12.9641018901 -1.37064800483 9.95280707843e-19)
(1.40413556488 -0.303704240354 -1.96067440973e-21)
(-0.250867431182 0.148350048913 -3.41779430684e-20)
(-0.256949903208 0.10782407041 -5.85228150324e-20)
(0 -0.207754347006 0)
(-0.0605618134964 0.0514145572787 8.43642246806e-21)
)
;
    }
    floatingObject
    {
        type            calculated;
        value           nonuniform List<vector> 0();
    }
    procBoundary1to0
    {
        type            processor;
        value           nonuniform List<vector> 10((-0.185848899246 0.0397124137365 -2.0378687635e-23) (-0.188735256782 0.0380084808695 -3.92252805715e-22) (-0.191608780244 0.0338836664147 4.27032967224e-23) (-0.194494686451 0.0265832465243 -9.33602228783e-23) (-0.197398910623 0.0153409686576 4.16443421085e-21) (-0.198414861089 -0.00200603631973 -1.20920741332e-20) (-0.194831431808 -0.0285084023762 -2.02946165701e-20) (-0.182529890139 -0.0342182538063 1.10507598426e-21) (-0.253285109731 -0.0644837870707 1.69530657494e-21) (-0.274354486966 -0.258133625284 1.06409068522e-20));
    }
    procBoundary1to2
    {
        type            processor;
        value           nonuniform List<vector> 
18
(
(-0.0097782186137 0.109229825007 -1.93412913921e-21)
(-0.0250814388952 0.110509118438 4.60965181403e-22)
(-0.0427110504928 0.108384005638 -1.16661691244e-21)
(-0.0630523027575 0.121824148186 3.33166961703e-22)
(-0.0630523027575 0.121824148186 3.33166961703e-22)
(-0.0857962865079 0.133642486126 1.2732421543e-22)
(-0.0857962865079 0.133642486126 1.2732421543e-22)
(-0.102527356911 0.126446511878 7.10580980261e-23)
(-0.1178655949 0.118224257603 3.51159298953e-22)
(-0.131625017033 0.109214086055 1.52653406528e-23)
(-0.143665760079 0.0996858928995 1.0340766401e-22)
(-0.153940446932 0.0899355149348 2.61015958124e-23)
(-0.162408485692 0.0802390647855 1.057032787e-22)
(-0.16910084552 0.0709291229904 1.10642368623e-22)
(-0.174184165307 0.0622905572436 1.33947850479e-23)
(-0.177799934432 0.0546590738083 -8.78090511351e-23)
(-0.180259032324 0.0482112964727 -5.89636732e-23)
(-0.181770190614 0.0431732072009 -1.35408059906e-22)
)
;
    }
}


// ************************************************************************* //
