/*--------------------------------*- C++ -*----------------------------------*\
| =========                 |                                                 |
| \\      /  F ield         | OpenFOAM: The Open Source CFD Toolbox           |
|  \\    /   O peration     | Version:  v2012                                 |
|   \\  /    A nd           | Website:  www.openfoam.com                      |
|    \\/     M anipulation  |                                                 |
\*---------------------------------------------------------------------------*/
FoamFile
{
    version     2.0;
    format      ascii;
    class       volScalarField;
    location    "1.8";
    object      epsilon_0;
}
// * * * * * * * * * * * * * * * * * * * * * * * * * * * * * * * * * * * * * //

dimensions      [0 2 -3 0 0 0 0];


internalField   nonuniform List<scalar> 
167
(
0.0065805528724
0.00662768381233
0.00668744990612
0.006792199902
0.00704115932476
0.00768622612608
0.00924720115796
0.0127101044323
0.019765113624
0.0336748058472
0.0601568008313
0.113459174586
0.00676006952699
0.00680009353423
0.00685637808949
0.00696935453797
0.0072551610637
0.00798883886843
0.00968372161316
0.0130841264993
0.0190363112293
0.0290308977314
0.0465825123879
0.0738357953261
0.00736984452468
0.00741216383622
0.00747285046991
0.00759582228133
0.00790449939228
0.00868563342914
0.010467238042
0.0140266811679
0.0202371127807
0.0306968828814
0.0492655160416
0.0794652336713
0.00764128299827
0.00770333271578
0.00782811158043
0.0081382805297
0.00891795490778
0.0106933823186
0.01426127847
0.020560271408
0.0313011987264
0.0508823231273
0.0834356044217
0.00779020780862
0.00791316364583
0.00821716154714
0.00898041920414
0.0107225795117
0.0142434749094
0.0205158235045
0.0313111177536
0.0511174730217
0.0842697193291
0.00782670930065
0.00794606007946
0.00824049076732
0.00898098305507
0.0106786016944
0.0141290468713
0.020326378025
0.0310772652375
0.0509767142435
0.084482020212
0.00784703458686
0.00796186160616
0.00824503408051
0.00895932107946
0.0106054085702
0.0139716704223
0.0200657357924
0.0307256655414
0.0506892627632
0.0845810035199
0.00786299837592
0.00797281282752
0.00824365776237
0.00892942400973
0.0105193469407
0.0137911472642
0.0197596079661
0.0303009046587
0.0503273223762
0.084733113889
0.00787838223422
0.00798292302467
0.00824072822656
0.00889617162959
0.0104255630298
0.0135929220352
0.0194188606272
0.0298140370252
0.0498978992288
0.0848517944675
0.00789424857028
0.00799338786097
0.0082376702564
0.00886136413319
0.0103264932806
0.0133808108879
0.0190482407031
0.0292708330813
0.049412444837
0.0849962026809
0.00791080208836
0.00800451334863
0.00823505883246
0.00882607353769
0.0102243535926
0.0131590372178
0.0186532065742
0.028688853607
0.0489788162571
0.0859587828637
0.00792800576677
0.00801634852361
0.008233121552
0.00879093517037
0.0101207242053
0.0129311819749
0.0182424988939
0.0280922138133
0.0488606129732
0.100462683729
0.00794573304093
0.00802888714542
0.00823209686089
0.00875684392381
0.010016788277
0.0127001105457
0.017815955003
0.0274367332302
0.0486590847081
0.112483962911
0.00796386917423
0.00804207576385
0.00823221133906
0.00872475403114
0.00991618855526
0.0124717480599
0.0173735338256
0.0266839992076
0.0482328911973
0.0981714547052
0.00798233383757
0.00805598095407
0.00823391474852
0.0086961308596
0.00982235903747
0.0122530309555
0.0169080073898
0.0256285560764
0.047718581965
0.150016559734
0.00800110479704
0.00807081522033
0.00823840265645
0.00867529326822
0.00974725322188
0.0120675472044
0.0164392890145
0.0240489511317
0.0392606453666
0.115880560429
)
;

boundaryField
{
    back
    {
        lowReCorrection 0;
        blending        stepwise;
        n               2;
        type            epsilonWallFunction;
        value           nonuniform List<scalar> 
167
(
0.0065805528724
0.00662768381233
0.00668744990612
0.006792199902
0.00704115932476
0.00768622612608
0.00924720115796
0.0127101044323
0.019765113624
0.0336748058472
0.0601568008313
0.113459174586
0.00676006952699
0.00680009353423
0.00685637808949
0.00696935453797
0.0072551610637
0.00798883886843
0.00968372161316
0.0130841264993
0.0190363112293
0.0290308977314
0.0465825123879
0.0738357953261
0.00736984452468
0.00741216383622
0.00747285046991
0.00759582228133
0.00790449939228
0.00868563342914
0.010467238042
0.0140266811679
0.0202371127807
0.0306968828814
0.0492655160416
0.0794652336713
0.00764128299827
0.00770333271578
0.00782811158043
0.0081382805297
0.00891795490778
0.0106933823186
0.01426127847
0.020560271408
0.0313011987264
0.0508823231273
0.0834356044217
0.00779020780862
0.00791316364583
0.00821716154714
0.00898041920414
0.0107225795117
0.0142434749094
0.0205158235045
0.0313111177536
0.0511174730217
0.0842697193291
0.00782670930065
0.00794606007946
0.00824049076732
0.00898098305507
0.0106786016944
0.0141290468713
0.020326378025
0.0310772652375
0.0509767142435
0.084482020212
0.00784703458686
0.00796186160616
0.00824503408051
0.00895932107946
0.0106054085702
0.0139716704223
0.0200657357924
0.0307256655414
0.0506892627632
0.0845810035199
0.00786299837592
0.00797281282752
0.00824365776237
0.00892942400973
0.0105193469407
0.0137911472642
0.0197596079661
0.0303009046587
0.0503273223762
0.084733113889
0.00787838223422
0.00798292302467
0.00824072822656
0.00889617162959
0.0104255630298
0.0135929220352
0.0194188606272
0.0298140370252
0.0498978992288
0.0848517944675
0.00789424857028
0.00799338786097
0.0082376702564
0.00886136413319
0.0103264932806
0.0133808108879
0.0190482407031
0.0292708330813
0.049412444837
0.0849962026809
0.00791080208836
0.00800451334863
0.00823505883246
0.00882607353769
0.0102243535926
0.0131590372178
0.0186532065742
0.028688853607
0.0489788162571
0.0859587828637
0.00792800576677
0.00801634852361
0.008233121552
0.00879093517037
0.0101207242053
0.0129311819749
0.0182424988939
0.0280922138133
0.0488606129732
0.100462683729
0.00794573304093
0.00802888714542
0.00823209686089
0.00875684392381
0.010016788277
0.0127001105457
0.017815955003
0.0274367332302
0.0486590847081
0.112483962911
0.00796386917423
0.00804207576385
0.00823221133906
0.00872475403114
0.00991618855526
0.0124717480599
0.0173735338256
0.0266839992076
0.0482328911973
0.0981714547052
0.00798233383757
0.00805598095407
0.00823391474852
0.0086961308596
0.00982235903747
0.0122530309555
0.0169080073898
0.0256285560764
0.047718581965
0.150016559734
0.00800110479704
0.00807081522033
0.00823840265645
0.00867529326822
0.00974725322188
0.0120675472044
0.0164392890145
0.0240489511317
0.0392606453666
0.115880560429
)
;
    }
    sides
    {
        lowReCorrection 0;
        blending        stepwise;
        n               2;
        type            epsilonWallFunction;
        value           nonuniform List<scalar> 
12
(
0.0065805528724
0.00662768381233
0.00668744990612
0.006792199902
0.00704115932476
0.00768622612608
0.00924720115796
0.0127101044323
0.019765113624
0.0336748058472
0.0601568008313
0.113459174586
)
;
    }
    bottom
    {
        lowReCorrection 0;
        blending        stepwise;
        n               2;
        type            epsilonWallFunction;
        value           nonuniform List<scalar> 0();
    }
    front
    {
        lowReCorrection 0;
        blending        stepwise;
        n               2;
        type            epsilonWallFunction;
        value           nonuniform List<scalar> 
167
(
0.0065805528724
0.00662768381233
0.00668744990612
0.006792199902
0.00704115932476
0.00768622612608
0.00924720115796
0.0127101044323
0.019765113624
0.0336748058472
0.0601568008313
0.113459174586
0.00676006952699
0.00680009353423
0.00685637808949
0.00696935453797
0.0072551610637
0.00798883886843
0.00968372161316
0.0130841264993
0.0190363112293
0.0290308977314
0.0465825123879
0.0738357953261
0.00736984452468
0.00741216383622
0.00747285046991
0.00759582228133
0.00790449939228
0.00868563342914
0.010467238042
0.0140266811679
0.0202371127807
0.0306968828814
0.0492655160416
0.0794652336713
0.00764128299827
0.00770333271578
0.00782811158043
0.0081382805297
0.00891795490778
0.0106933823186
0.01426127847
0.020560271408
0.0313011987264
0.0508823231273
0.0834356044217
0.00779020780862
0.00791316364583
0.00821716154714
0.00898041920414
0.0107225795117
0.0142434749094
0.0205158235045
0.0313111177536
0.0511174730217
0.0842697193291
0.00782670930065
0.00794606007946
0.00824049076732
0.00898098305507
0.0106786016944
0.0141290468713
0.020326378025
0.0310772652375
0.0509767142435
0.084482020212
0.00784703458686
0.00796186160616
0.00824503408051
0.00895932107946
0.0106054085702
0.0139716704223
0.0200657357924
0.0307256655414
0.0506892627632
0.0845810035199
0.00786299837592
0.00797281282752
0.00824365776237
0.00892942400973
0.0105193469407
0.0137911472642
0.0197596079661
0.0303009046587
0.0503273223762
0.084733113889
0.00787838223422
0.00798292302467
0.00824072822656
0.00889617162959
0.0104255630298
0.0135929220352
0.0194188606272
0.0298140370252
0.0498978992288
0.0848517944675
0.00789424857028
0.00799338786097
0.0082376702564
0.00886136413319
0.0103264932806
0.0133808108879
0.0190482407031
0.0292708330813
0.049412444837
0.0849962026809
0.00791080208836
0.00800451334863
0.00823505883246
0.00882607353769
0.0102243535926
0.0131590372178
0.0186532065742
0.028688853607
0.0489788162571
0.0859587828637
0.00792800576677
0.00801634852361
0.008233121552
0.00879093517037
0.0101207242053
0.0129311819749
0.0182424988939
0.0280922138133
0.0488606129732
0.100462683729
0.00794573304093
0.00802888714542
0.00823209686089
0.00875684392381
0.010016788277
0.0127001105457
0.017815955003
0.0274367332302
0.0486590847081
0.112483962911
0.00796386917423
0.00804207576385
0.00823221133906
0.00872475403114
0.00991618855526
0.0124717480599
0.0173735338256
0.0266839992076
0.0482328911973
0.0981714547052
0.00798233383757
0.00805598095407
0.00823391474852
0.0086961308596
0.00982235903747
0.0122530309555
0.0169080073898
0.0256285560764
0.047718581965
0.150016559734
0.00800110479704
0.00807081522033
0.00823840265645
0.00867529326822
0.00974725322188
0.0120675472044
0.0164392890145
0.0240489511317
0.0392606453666
0.115880560429
)
;
    }
    atmosphere
    {
        type            inletOutlet;
        inletValue      uniform 0.1;
        value           nonuniform List<scalar> 
16
(
0.113459174586
0.0738357953261
0.0794652336713
0.0834356044217
0.0842697193291
0.084482020212
0.0845810035199
0.084733113889
0.0848517944675
0.0849962026809
0.1
0.1
0.1
0.0981714547052
0.1
0.1
)
;
    }
    floatingObject
    {
        lowReCorrection 0;
        blending        stepwise;
        n               2;
        type            epsilonWallFunction;
        value           nonuniform List<scalar> 0();
    }
    procBoundary1to0
    {
        type            processor;
        value           nonuniform List<scalar> 10(0.00801997768002 0.0080861393977 0.00824442065794 0.00865905849722 0.00968730001262 0.0119480830639 0.0162563842263 0.0236377113424 0.0363855335692 0.0523523562545);
    }
    procBoundary1to2
    {
        type            processor;
        value           nonuniform List<scalar> 
18
(
0.00653713925267
0.00672442166438
0.00733269790362
0.00759805747788
0.00759805747788
0.00772863551004
0.00772863551004
0.00776667766012
0.00778909869883
0.00780742311045
0.0078252725209
0.00784361311497
0.00786261184516
0.00788216746506
0.00790212139244
0.00792234525252
0.00794271916488
0.00796313886869
)
;
    }
}


// ************************************************************************* //
