/*--------------------------------*- C++ -*----------------------------------*\
| =========                 |                                                 |
| \\      /  F ield         | OpenFOAM: The Open Source CFD Toolbox           |
|  \\    /   O peration     | Version:  v2012                                 |
|   \\  /    A nd           | Website:  www.openfoam.com                      |
|    \\/     M anipulation  |                                                 |
\*---------------------------------------------------------------------------*/
FoamFile
{
    version     2.0;
    format      ascii;
    class       volVectorField;
    location    "0.2";
    object      ddtCorrDdt0(U);
}
// * * * * * * * * * * * * * * * * * * * * * * * * * * * * * * * * * * * * * //

dimensions      [0 1 -2 0 0 0 0];


internalField   nonuniform List<vector> 
164
(
(-0.108021233484 0.00522486066582 -7.48675900681e-23)
(-0.114764036981 0.0146586425259 4.15194081485e-23)
(-0.117795835537 0.0248153075344 -1.60594545214e-22)
(-0.121422799615 0.0355265507977 1.10973858682e-23)
(-0.126562523584 0.0468688646925 5.58332681328e-24)
(-0.133562445387 0.0591769606511 1.06271007344e-22)
(-0.142870728523 0.0726696017955 5.40764273121e-23)
(-0.155498360284 0.0873218662892 9.06915300116e-23)
(-0.1178527861 0.00412650585406 -6.95683301859e-23)
(-0.124266878662 0.0128856542338 6.0906623219e-22)
(-0.127492461457 0.0215598176023 -1.71795848305e-22)
(-0.131631879907 0.0307277466245 -7.80379826025e-24)
(-0.137404138525 0.0403057906534 1.30887285817e-22)
(-0.145188120663 0.0504132256042 -3.61897437382e-24)
(-0.155416583423 0.0611058157287 1.70787061016e-23)
(-0.168711395483 0.072302678679 -9.1913220113e-23)
(-0.18565587983 0.0838336837715 -1.79762665518e-22)
(-0.207204627786 0.0953548942084 -8.17813987412e-23)
(-0.234404456972 0.106172821549 5.21591939393e-23)
(-0.12558225543 0.00329730174196 -5.17467747594e-22)
(-0.132292658104 0.0109451822901 2.60931548121e-22)
(-0.135735776161 0.0180464559112 -4.21320914452e-22)
(-0.14011199688 0.02552761526 1.93371356334e-23)
(-0.146210287051 0.033223647325 9.06547453965e-24)
(-0.15434008263 0.0410936036321 -6.77975127064e-23)
(-0.164860966279 0.0490817796311 -4.9383173439e-23)
(-0.178228160188 0.0570193053214 5.30850772713e-23)
(-0.194959885809 0.0646093561202 2.26563472962e-22)
(-0.215702434914 0.0713695199979 -3.44079166915e-23)
(-0.241156931833 0.0765307490562 3.84015645731e-22)
(-0.272037239797 0.0789418306835 -1.31779849628e-21)
(-0.308937215432 0.0769679481876 2.26994834521e-21)
(-0.13202675379 0.00245234669586 -5.03128698316e-22)
(-0.138807363025 0.00894724241667 1.97486865989e-21)
(-0.142351837046 0.0144447239042 2.09110459012e-22)
(-0.146810461575 0.0201985956776 9.78398816852e-24)
(-0.152968340682 0.026000384387 -6.24720251896e-23)
(-0.161085801245 0.0316988096722 -1.27078981467e-23)
(-0.171440618148 0.0371610217855 -1.47652637706e-22)
(-0.184370640434 0.0421493541966 -2.04639198246e-22)
(-0.2002527508 0.0463047110006 -9.24452964616e-23)
(-0.219505773391 0.0490997390349 -3.2836943025e-22)
(-0.242545229811 0.0497732766169 -5.37162896478e-22)
(-0.269715769824 0.0472786795131 -2.85293270883e-22)
(-0.301181255458 0.0402332218041 -1.62922800484e-21)
(-0.336770511944 0.0268767784246 -8.53832925066e-22)
(-0.137090093216 0.00160442810245 2.3531361914e-22)
(-0.143819359099 0.00689556789816 2.95698208578e-21)
(-0.147349918278 0.0108396576508 1.88542125536e-22)
(-0.151743028138 0.0149213887572 6.26267495492e-23)
(-0.157750241478 0.0189097829092 -3.12058256042e-23)
(-0.165581507413 0.022583050408 -3.99128853559e-23)
(-0.17544138676 0.0257595462523 8.29843318412e-24)
(-0.18756203712 0.0281695571105 -5.88440126732e-23)
(-0.202186676679 0.029435336822 -3.35585142716e-23)
(-0.219557802783 0.0290355405284 -1.75915759667e-22)
(-0.239869640739 0.0262746870801 1.31690674023e-22)
(-0.263208068574 0.0202531875254 -1.22781242102e-22)
(-0.289461741575 0.00985414982709 1.69915216824e-21)
(-0.318202159698 -0.00625121810141 -6.47153996259e-22)
(-0.140792726805 0.000795528034467 -1.99280887109e-22)
(-0.147378312801 0.00487258678282 1.3966822695e-21)
(-0.150797005579 0.00733537364538 -5.15531512268e-23)
(-0.154999518947 0.00984286165796 -5.24426936498e-23)
(-0.160694266452 0.0121521841488 -4.15560401827e-23)
(-0.168042968641 0.0139923467777 1.41232994036e-23)
(-0.177182617509 0.0151617004421 -4.92988556446e-23)
(-0.188254241281 0.0153825981639 -1.44552271133e-22)
(-0.201394450261 0.0142849707657 -1.71323024204e-23)
(-0.216708007932 0.011389872292 -2.76405248202e-22)
(-0.234231021456 0.00609230864708 -9.59532114717e-24)
(-0.253879353877 -0.00234878452382 -3.02767349671e-23)
(-0.275379655856 -0.0148018650579 -6.5654453476e-22)
(-0.298184618178 -0.032244718756 -5.96768242e-22)
(-0.143172493842 4.494220406e-05 -1.08883228934e-21)
(-0.149551145706 0.00294008742878 -3.32894779989e-22)
(-0.152788546345 0.00402084173364 -8.11664433019e-22)
(-0.156708502548 0.00507904617077 -2.68945943987e-22)
(-0.161977444439 0.00586945165995 -4.81986909898e-23)
(-0.16871298385 0.00609229495911 -5.15353778352e-23)
(-0.176992732034 0.00554171117329 6.22184970191e-24)
(-0.186888642049 0.00394769958984 6.32230371217e-23)
(-0.198451086893 0.00096843500924 -1.05035797096e-22)
(-0.211685702869 -0.00381720785812 -2.97937113124e-22)
(-0.226522077763 -0.0109161320834 1.90101847476e-22)
(-0.242773097534 -0.0209187101285 -2.54112621997e-22)
(-0.260083342346 -0.0344793223782 2.32263434439e-22)
(-0.277879399663 -0.0522963169605 4.1813097221e-23)
(-0.144305291646 -0.000636410191285 -9.24649854744e-22)
(-0.150430848971 0.00113998701161 4.74853739747e-23)
(-0.153441145947 0.000959315453561 -9.51258108825e-22)
(-0.157019930214 0.000709537210347 -3.05860706658e-22)
(-0.161792725808 0.000154153224817 -2.96225399073e-23)
(-0.167839298364 -0.00102024917836 -1.29856991497e-23)
(-0.175192424831 -0.00301452296801 -2.0586852863e-24)
(-0.183869296319 -0.00607944057666 2.47138203665e-24)
(-0.193857292678 -0.0105186533008 -5.42525633263e-23)
(-0.205094318215 -0.0166904940745 -3.01228905386e-24)
(-0.21744375938 -0.0250072095082 6.95047064713e-23)
(-0.230663543951 -0.0359253701922 -2.03580112029e-22)
(-0.244371155878 -0.0499276097948 4.31652393531e-22)
(-0.258015455215 -0.0674909743405 -1.13689969685e-22)
(-0.144290407344 -0.00124275866797 -1.2527037064e-21)
(-0.150130713133 -0.000501117420534 2.50924132615e-21)
(-0.152887762205 -0.00181150049963 -7.23439978017e-22)
(-0.15609303619 -0.0032191455572 -1.2468866588e-23)
(-0.1603342589 -0.00494395770234 -5.63565754157e-23)
(-0.165662440376 -0.00730377744612 -5.30442819527e-23)
(-0.172076035547 -0.0104868049033 -1.33036098336e-24)
(-0.179551986522 -0.0147180426344 3.39418698922e-23)
(-0.188034356812 -0.0202597936892 -1.96980354833e-22)
(-0.197418250633 -0.0274091829392 5.46316030648e-24)
(-0.207530627581 -0.0364931566355 8.97895047711e-23)
(-0.218107717877 -0.0478564871071 -1.69931472414e-22)
(-0.228775961519 -0.0618449385099 1.25048583073e-22)
(-0.239025739658 -0.0787693165268 -1.22228455737e-22)
(-0.143241414204 -0.00177274263745 -8.62866794552e-22)
(-0.148775573481 -0.00197054035862 1.46512756221e-22)
(-0.151266674058 -0.00427299807296 8.08311078985e-22)
(-0.154087076626 -0.00668618407028 -5.26912095818e-24)
(-0.157790307382 -0.00941081115354 -1.17453364556e-23)
(-0.162405411442 -0.012759127018 -4.55327790434e-23)
(-0.167905772882 -0.0169024755051 -2.13694911193e-24)
(-0.174240909999 -0.0220378129491 5.04606399957e-24)
(-0.181327379957 -0.0283867156759 6.61887157165e-24)
(-0.189036359406 -0.0361903314495 6.74879944671e-23)
(-0.197179256424 -0.0457020875314 2.20543398928e-23)
(-0.205494024136 -0.0571780897945 -8.32014763032e-23)
(-0.213631698605 -0.0708556289152 2.97955526061e-23)
(-0.221139957224 -0.0869250878891 -7.68550458014e-23)
(-0.227467775961 -0.105497377545 5.49668219806e-23)
(-0.231962287824 -0.126542394169 1.29659922217e-22)
(-0.141275447187 -0.00222740853883 -1.57256636202e-21)
(-0.146492136185 -0.00326229992125 8.55694403926e-23)
(-0.148715415807 -0.00642145634752 -8.26712945798e-23)
(-0.151157152013 -0.00969441013244 -1.78999973011e-22)
(-0.154337330457 -0.0132593487703 -5.96649942641e-23)
(-0.1582691684 -0.0174174722108 -8.67482448258e-24)
(-0.162909298627 -0.0223213084805 -4.16549813719e-24)
(-0.168190058743 -0.0281397798631 1.72153994291e-24)
(-0.174012697252 -0.0350566243198 -7.692416158e-23)
(-0.180237998568 -0.0432637752627 8.81335912672e-24)
(-0.186676717811 -0.0529549527873 -3.14696355486e-23)
(-0.193081581522 -0.0643145349182 -1.11323446215e-22)
(-0.199135381583 -0.0774984363144 5.82389930286e-23)
(-0.204450305997 -0.0926141263671 -3.64566130258e-23)
(-0.208570540312 -0.10969560533 1.42296407443e-23)
(-0.210978501033 -0.128658227128 1.42934217135e-22)
(-0.138509797058 -0.00261054777492 -1.13130008749e-21)
(-0.143405687112 -0.00437998199817 4.24868140721e-22)
(-0.145369091919 -0.00826634648062 -3.56944739881e-22)
(-0.147449634358 -0.0122619133723 -3.79170284607e-22)
(-0.150135995154 -0.0165210225287 -3.96424008178e-23)
(-0.15343064764 -0.0213303310869 -7.23553201888e-23)
(-0.157280034901 -0.0268230824484 -1.59151034943e-23)
(-0.161607225542 -0.0331417013887 2.95728376937e-23)
(-0.166307046711 -0.0404360465762 -5.94184256461e-23)
(-0.171239539202 -0.0488567410075 -7.98040578957e-23)
(-0.176224551353 -0.0585490986232 3.73161215469e-23)
(-0.181034115629 -0.0696412601777 -4.55809464425e-23)
(-0.18538964933 -0.0822303295939 4.47984206267e-23)
(-0.188962953012 -0.0963672958491 -1.32324442485e-22)
(-0.191380995414 -0.112037606916 -5.73341092701e-23)
(-0.192237158472 -0.129130512387 1.12313016005e-22)
)
;

boundaryField
{
    back
    {
        type            calculated;
        value           uniform (0 0 0);
    }
    sides
    {
        type            calculated;
        value           nonuniform List<vector> 0();
    }
    bottom
    {
        type            calculated;
        value           uniform (0 0 0);
    }
    front
    {
        type            calculated;
        value           uniform (0 0 0);
    }
    atmosphere
    {
        type            calculated;
        value           nonuniform List<vector> 0();
    }
    floatingObject
    {
        type            calculated;
        value           nonuniform List<vector> 0();
    }
    procBoundary7to6
    {
        type            processor;
        value           nonuniform List<vector> 
11
(
(-0.375743816105 0.00521293000172 -1.34704294685e-21)
(-0.348540055952 -0.0294988356843 1.55859054066e-21)
(-0.321395277181 -0.0556656520899 -4.03011416415e-22)
(-0.295308929743 -0.0750179578969 3.80435457761e-22)
(-0.270829276526 -0.0890154461852 -1.40072932726e-22)
(-0.248198894137 -0.098855815724 7.04871957196e-23)
(-0.248198894137 -0.098855815724 7.04871957196e-23)
(-0.25548207791 -0.122172033958 4.7933338658e-22)
(-0.233944083526 -0.150173657454 1.76497758492e-21)
(-0.211153306334 -0.149515115835 1.32766008331e-21)
(-0.191134416521 -0.147603599777 1.48342973654e-21)
)
;
    }
    procBoundary7to8
    {
        type            processor;
        value           nonuniform List<vector> 
17
(
(-0.0983541637596 0.00562748336436 -1.01254622968e-22)
(-0.104329001409 0.0160478958482 -4.00196503894e-23)
(-0.106795049575 0.0273908984133 5.24252548426e-23)
(-0.109647640804 0.0394880886436 3.04804159102e-22)
(-0.113792779876 0.0524862370994 1.49624632836e-22)
(-0.11956962942 0.066765379366 2.12054858672e-22)
(-0.127486169333 0.0830901877659 2.93966614794e-22)
(-0.138210261466 0.101224020255 -4.09591963017e-22)
(-0.171734444533 0.103168290622 -1.65230860893e-23)
(-0.171734444533 0.103168290622 -1.65230860893e-23)
(-0.19303996081 0.120191847648 -4.59266151182e-23)
(-0.220839469743 0.137869470663 -5.03459346466e-22)
(-0.268459468273 0.11513345019 -1.23501673163e-22)
(-0.268459468273 0.11513345019 -1.23501673163e-22)
(-0.310587970799 0.120432978854 2.48466433885e-22)
(-0.35215324953 0.0683761657388 -2.48711709843e-21)
(-0.35215324953 0.0683761657388 -2.48711709843e-21)
)
;
    }
    procBoundary7to9
    {
        type            processor;
        value           nonuniform List<vector> 
16
(
(-0.135059657072 -0.00292725641846 2.87421924102e-23)
(-0.13963701008 -0.0053316992423 -1.20205838057e-22)
(-0.141354197291 -0.00982471660779 -3.2887249149e-22)
(-0.143098710177 -0.0144171471887 -1.36043326544e-22)
(-0.145329870575 -0.0192393393761 -1.32200628748e-23)
(-0.148043276687 -0.024561501602 6.95456954096e-24)
(-0.151180183778 -0.0304981982571 -2.82818718137e-24)
(-0.154660173486 -0.0371676617959 5.44900738329e-24)
(-0.158378049936 -0.0446904685662 -1.15446619762e-23)
(-0.16219987288 -0.0531835371943 1.70995633656e-24)
(-0.165958250731 -0.0627525479595 3.20345099382e-23)
(-0.169449082277 -0.0734834327101 -1.86272644652e-23)
(-0.172432233589 -0.0854321645466 5.48941911825e-23)
(-0.174632717288 -0.0986113209965 2.18889382652e-23)
(-0.175747738331 -0.112978227754 -1.90673724362e-23)
(-0.175458643924 -0.128413390567 -1.52356409971e-22)
)
;
    }
}


// ************************************************************************* //
