/*--------------------------------*- C++ -*----------------------------------*\
| =========                 |                                                 |
| \\      /  F ield         | OpenFOAM: The Open Source CFD Toolbox           |
|  \\    /   O peration     | Version:  v2012                                 |
|   \\  /    A nd           | Website:  www.openfoam.com                      |
|    \\/     M anipulation  |                                                 |
\*---------------------------------------------------------------------------*/
FoamFile
{
    version     2.0;
    format      ascii;
    class       volScalarField;
    location    "0.2";
    object      epsilon;
}
// * * * * * * * * * * * * * * * * * * * * * * * * * * * * * * * * * * * * * //

dimensions      [0 2 -3 0 0 0 0];


internalField   nonuniform List<scalar> 
164
(
0.150290553712
0.131543778369
0.133403347126
0.133596526621
0.133666182256
0.133742498303
0.133834437049
0.133942872683
0.150298671602
0.131531786224
0.133381693914
0.133567503117
0.133628104313
0.133692781779
0.133770244289
0.133861056285
0.133965181623
0.134082270836
0.134211834345
0.15028377905
0.13150559158
0.133348247243
0.133527835588
0.133580550825
0.133635134379
0.133700111231
0.133775852638
0.133862125471
0.133958471483
0.134064206331
0.13417827031
0.134299186364
0.15024923259
0.131468969543
0.133305663121
0.133479893084
0.13352579269
0.133571698368
0.133626008462
0.133688975897
0.133760276977
0.133839381169
0.133925525799
0.134017646758
0.134114330454
0.134213865379
0.150198607023
0.131424253419
0.133256135773
0.133425781957
0.133465838844
0.133504346996
0.133549617195
0.133601851291
0.133660681586
0.133725544943
0.133795680848
0.133870082189
0.13394745923
0.134026284051
0.150135238549
0.131373446452
0.133201557995
0.133367326682
0.133402417908
0.133434667601
0.133472342585
0.133515625787
0.133564128361
0.133617298798
0.133674418788
0.133734572224
0.133796620641
0.133859234133
0.150062181266
0.13131829248
0.133143546535
0.133306072183
0.133336978542
0.133363979192
0.133395324032
0.133431186753
0.133471188162
0.133514809632
0.133561395252
0.133610133293
0.133660038425
0.133709975968
0.149982120019
0.131260280761
0.133083459741
0.133243301274
0.133270713203
0.133293349496
0.133319452613
0.133349204029
0.133382248819
0.133418112322
0.133456208933
0.133495831058
0.133536132387
0.133576171537
0.14989735063
0.131200654102
0.133022415708
0.133180063222
0.133204585776
0.13322361999
0.133245412862
0.133270163902
0.133297549094
0.133327141737
0.13335842633
0.133390790344
0.133423514063
0.133455833382
0.14980978933
0.131140431258
0.132961325661
0.133117203023
0.133139355554
0.133155438794
0.133173713303
0.133194400482
0.133217209214
0.133241760151
0.133267602238
0.133294205046
0.133320968306
0.133347269415
0.133372888432
0.133403637231
0.149721035859
0.131080437793
0.132900914747
0.133055379623
0.133075604431
0.133089290523
0.133104715896
0.133122124557
0.13314125729
0.133161778199
0.133183291376
0.13320534219
0.13322743299
0.133249045592
0.133270004301
0.133295278822
0.149632367906
0.13102131913
0.132841737396
0.132995092383
0.133013765738
0.133025523436
0.13303866248
0.133053448342
0.133069650769
0.133086971066
0.133105062022
0.133123538062
0.133141978998
0.133159950408
0.13317731206
0.133198351298
)
;

boundaryField
{
    back
    {
        lowReCorrection 0;
        blending        stepwise;
        n               2;
        type            epsilonWallFunction;
        value           nonuniform List<scalar> 
164
(
0.150290553712
0.131543778369
0.133403347126
0.133596526621
0.133666182256
0.133742498303
0.133834437049
0.133942872683
0.150298671602
0.131531786224
0.133381693914
0.133567503117
0.133628104313
0.133692781779
0.133770244289
0.133861056285
0.133965181623
0.134082270836
0.134211834345
0.15028377905
0.13150559158
0.133348247243
0.133527835588
0.133580550825
0.133635134379
0.133700111231
0.133775852638
0.133862125471
0.133958471483
0.134064206331
0.13417827031
0.134299186364
0.15024923259
0.131468969543
0.133305663121
0.133479893084
0.13352579269
0.133571698368
0.133626008462
0.133688975897
0.133760276977
0.133839381169
0.133925525799
0.134017646758
0.134114330454
0.134213865379
0.150198607023
0.131424253419
0.133256135773
0.133425781957
0.133465838844
0.133504346996
0.133549617195
0.133601851291
0.133660681586
0.133725544943
0.133795680848
0.133870082189
0.13394745923
0.134026284051
0.150135238549
0.131373446452
0.133201557995
0.133367326682
0.133402417908
0.133434667601
0.133472342585
0.133515625787
0.133564128361
0.133617298798
0.133674418788
0.133734572224
0.133796620641
0.133859234133
0.150062181266
0.13131829248
0.133143546535
0.133306072183
0.133336978542
0.133363979192
0.133395324032
0.133431186753
0.133471188162
0.133514809632
0.133561395252
0.133610133293
0.133660038425
0.133709975968
0.149982120019
0.131260280761
0.133083459741
0.133243301274
0.133270713203
0.133293349496
0.133319452613
0.133349204029
0.133382248819
0.133418112322
0.133456208933
0.133495831058
0.133536132387
0.133576171537
0.14989735063
0.131200654102
0.133022415708
0.133180063222
0.133204585776
0.13322361999
0.133245412862
0.133270163902
0.133297549094
0.133327141737
0.13335842633
0.133390790344
0.133423514063
0.133455833382
0.14980978933
0.131140431258
0.132961325661
0.133117203023
0.133139355554
0.133155438794
0.133173713303
0.133194400482
0.133217209214
0.133241760151
0.133267602238
0.133294205046
0.133320968306
0.133347269415
0.133372888432
0.133403637231
0.149721035859
0.131080437793
0.132900914747
0.133055379623
0.133075604431
0.133089290523
0.133104715896
0.133122124557
0.13314125729
0.133161778199
0.133183291376
0.13320534219
0.13322743299
0.133249045592
0.133270004301
0.133295278822
0.149632367906
0.13102131913
0.132841737396
0.132995092383
0.133013765738
0.133025523436
0.13303866248
0.133053448342
0.133069650769
0.133086971066
0.133105062022
0.133123538062
0.133141978998
0.133159950408
0.13317731206
0.133198351298
)
;
    }
    sides
    {
        lowReCorrection 0;
        blending        stepwise;
        n               2;
        type            epsilonWallFunction;
        value           nonuniform List<scalar> 0();
    }
    bottom
    {
        lowReCorrection 0;
        blending        stepwise;
        n               2;
        type            epsilonWallFunction;
        value           nonuniform List<scalar> 
12
(
0.150290553712
0.150298671602
0.15028377905
0.15024923259
0.150198607023
0.150135238549
0.150062181266
0.149982120019
0.14989735063
0.14980978933
0.149721035859
0.149632367906
)
;
    }
    front
    {
        lowReCorrection 0;
        blending        stepwise;
        n               2;
        type            epsilonWallFunction;
        value           nonuniform List<scalar> 
164
(
0.150290553712
0.131543778369
0.133403347126
0.133596526621
0.133666182256
0.133742498303
0.133834437049
0.133942872683
0.150298671602
0.131531786224
0.133381693914
0.133567503117
0.133628104313
0.133692781779
0.133770244289
0.133861056285
0.133965181623
0.134082270836
0.134211834345
0.15028377905
0.13150559158
0.133348247243
0.133527835588
0.133580550825
0.133635134379
0.133700111231
0.133775852638
0.133862125471
0.133958471483
0.134064206331
0.13417827031
0.134299186364
0.15024923259
0.131468969543
0.133305663121
0.133479893084
0.13352579269
0.133571698368
0.133626008462
0.133688975897
0.133760276977
0.133839381169
0.133925525799
0.134017646758
0.134114330454
0.134213865379
0.150198607023
0.131424253419
0.133256135773
0.133425781957
0.133465838844
0.133504346996
0.133549617195
0.133601851291
0.133660681586
0.133725544943
0.133795680848
0.133870082189
0.13394745923
0.134026284051
0.150135238549
0.131373446452
0.133201557995
0.133367326682
0.133402417908
0.133434667601
0.133472342585
0.133515625787
0.133564128361
0.133617298798
0.133674418788
0.133734572224
0.133796620641
0.133859234133
0.150062181266
0.13131829248
0.133143546535
0.133306072183
0.133336978542
0.133363979192
0.133395324032
0.133431186753
0.133471188162
0.133514809632
0.133561395252
0.133610133293
0.133660038425
0.133709975968
0.149982120019
0.131260280761
0.133083459741
0.133243301274
0.133270713203
0.133293349496
0.133319452613
0.133349204029
0.133382248819
0.133418112322
0.133456208933
0.133495831058
0.133536132387
0.133576171537
0.14989735063
0.131200654102
0.133022415708
0.133180063222
0.133204585776
0.13322361999
0.133245412862
0.133270163902
0.133297549094
0.133327141737
0.13335842633
0.133390790344
0.133423514063
0.133455833382
0.14980978933
0.131140431258
0.132961325661
0.133117203023
0.133139355554
0.133155438794
0.133173713303
0.133194400482
0.133217209214
0.133241760151
0.133267602238
0.133294205046
0.133320968306
0.133347269415
0.133372888432
0.133403637231
0.149721035859
0.131080437793
0.132900914747
0.133055379623
0.133075604431
0.133089290523
0.133104715896
0.133122124557
0.13314125729
0.133161778199
0.133183291376
0.13320534219
0.13322743299
0.133249045592
0.133270004301
0.133295278822
0.149632367906
0.13102131913
0.132841737396
0.132995092383
0.133013765738
0.133025523436
0.13303866248
0.133053448342
0.133069650769
0.133086971066
0.133105062022
0.133123538062
0.133141978998
0.133159950408
0.13317731206
0.133198351298
)
;
    }
    atmosphere
    {
        type            inletOutlet;
        inletValue      nonuniform List<scalar> 0();
        value           nonuniform List<scalar> 0();
    }
    floatingObject
    {
        lowReCorrection 0;
        blending        stepwise;
        n               2;
        type            epsilonWallFunction;
        value           nonuniform List<scalar> 0();
    }
    procBoundary7to6
    {
        type            processor;
        value           nonuniform List<scalar> 
11
(
0.134315953451
0.134106092353
0.133921939877
0.133759540945
0.133615621637
0.133487480179
0.133487480179
0.133525328078
0.133513591692
0.133390275125
0.133281263798
)
;
    }
    procBoundary7to8
    {
        type            processor;
        value           nonuniform List<scalar> 
17
(
0.150274060263
0.131525895221
0.133407850358
0.133612154117
0.133692368669
0.133781827519
0.133890301563
0.134019204197
0.13406809035
0.13406809035
0.134209949516
0.13436831974
0.134352915053
0.134352915053
0.134504134606
0.134425151101
0.134425151101
)
;
    }
    procBoundary7to9
    {
        type            processor;
        value           nonuniform List<scalar> 
16
(
0.149544787225
0.130963565607
0.132784208703
0.132936708237
0.132954148036
0.132964371862
0.132975695843
0.132988404514
0.13300229211
0.133017091388
0.133032500478
0.133048187469
0.133063791442
0.133078946096
0.133093537689
0.133111295495
)
;
    }
}


// ************************************************************************* //
