/*--------------------------------*- C++ -*----------------------------------*\
| =========                 |                                                 |
| \\      /  F ield         | OpenFOAM: The Open Source CFD Toolbox           |
|  \\    /   O peration     | Version:  v2012                                 |
|   \\  /    A nd           | Website:  www.openfoam.com                      |
|    \\/     M anipulation  |                                                 |
\*---------------------------------------------------------------------------*/
FoamFile
{
    version     2.0;
    format      ascii;
    class       surfaceScalarField;
    location    "2.7";
    object      phi;
}
// * * * * * * * * * * * * * * * * * * * * * * * * * * * * * * * * * * * * * //

dimensions      [0 3 -1 0 0 0 0];
oriented        oriented;


internalField   nonuniform List<scalar> 
300
(
4.99608449393e-05
1.12308124088e-05
5.87663077577e-05
1.31502158152e-05
6.86596325013e-05
1.57578122993e-05
7.98634031378e-05
1.91706968038e-05
9.21900344944e-05
2.34808683455e-05
0.000105802565649
2.87033992119e-05
0.000119893424572
3.44370630148e-05
0.000133368788375
4.28496966182e-05
0.000144941696393
6.31713834217e-05
0.000163366498891
0.000115979046296
0.000316477744787
0.000466332657351
-0.000238852343594
5.19447708443e-05
6.13859423537e-05
7.21514626416e-05
4.96179466556e-06
8.4368581424e-05
6.90996750561e-06
9.79527107071e-05
9.83881957751e-06
0.000112565244167
1.402302072e-05
0.000126531806229
2.04036569897e-05
0.000137814718561
3.15187113455e-05
0.000142914345656
5.80540923254e-05
0.000163396269781
9.54922131622e-05
0.00017268506634
0.000457022549532
-0.000221968475089
7.42702184513e-05
-6.62077709152e-06
8.75920866049e-05
-6.44923524922e-06
0.000102749028304
-5.36399728657e-06
0.000119568908187
-2.84728320364e-06
0.00013649318681
3.43265846272e-06
0.000150301255125
1.76791375542e-05
0.000156732532799
5.16122393324e-05
0.000163554672543
8.8667507162e-05
0.000128165120165
0.000492400989877
5.02796805021e-06
7.46337562215e-05
-1.87964955638e-05
8.91030426274e-05
-2.09479264e-05
0.00010635050703
-2.26447609706e-05
0.000126482863225
-2.30135866886e-05
0.000148771181974
-1.88848190784e-05
0.000168127569752
-1.69527183653e-06
0.000178889579442
4.08449798743e-05
0.000166385436647
0.000101170566723
0.000145852284689
0.000512927356745
0.00027696447252
7.26728689887e-05
-3.10632897191e-05
8.77681858136e-05
-3.60623338381e-05
0.000106632440642
-4.1528644913e-05
0.000130303889528
-4.6703080798e-05
0.000158516611428
-4.71112779172e-05
0.000185472146471
-2.86579426301e-05
0.000201941820271
2.43738978549e-05
0.000193209167
0.000109903713575
0.00025157231628
0.000454557213983
0.000810276762756
6.77114684331e-05
-4.27747953781e-05
8.24560423329e-05
-5.08145306264e-05
0.000101557694334
-6.06364979569e-05
0.000126886345176
-7.20356418299e-05
0.000158627243525
-7.88533660389e-05
0.000191052558692
-6.10823120418e-05
0.000218021434664
-2.59384380308e-06
0.000240310286762
8.76159629845e-05
0.0004224865955
0.000272382693326
0.00215009213595
5.96000387588e-05
-5.29510270231e-05
7.23551201667e-05
-6.35666448191e-05
8.89831478929e-05
-7.72594863191e-05
0.000111387609627
-9.44332178935e-05
0.000139946472014
-0.000107404672786
0.000174355739382
-9.54855746388e-05
0.000218206081433
-4.64417108837e-05
0.000292739740698
1.30830008912e-05
0.000706833778109
-0.000141652211106
-0.0010429873791
4.87766620423e-05
-6.07032978507e-05
5.81779342081e-05
-7.29572518973e-05
6.95568264165e-05
-8.86259630236e-05
8.35440384681e-05
-0.000108407230616
0.000100987507652
-0.000124836147238
0.000128590931569
-0.000123080909817
0.000186904444101
-0.000104752331384
0.00029671312191
-9.67247756493e-05
0.000390234344273
-0.000235180281555
-0.000796498011386
3.62204465103e-05
-6.55917286626e-05
4.164009514e-05
-7.83628226334e-05
4.72756593436e-05
-9.42464772839e-05
5.18724279319e-05
-0.000112989285382
5.72591794405e-05
-0.000130210578615
7.5612562455e-05
-0.000141426728963
0.000124191425369
-0.000153328727477
0.000225221497722
-0.000197756826338
0.000138869711394
-0.000148820357133
-0.000670295229214
2.31249377895e-05
-6.77422771211e-05
2.44121093637e-05
-7.96371294088e-05
2.46534067197e-05
-9.44746635499e-05
2.34361455389e-05
-0.000111759969156
2.11859975975e-05
-0.000127951038792
2.77457953886e-05
-0.000147981356945
5.19698336791e-05
-0.000177551362745
8.86670603288e-05
-0.000234455796378
-8.45329770691e-05
2.43855614829e-05
-0.000422412600934
1.1237885238e-05
-6.76430450666e-05
9.79751475436e-06
-7.81889361001e-05
6.43721066513e-06
-9.11066365461e-05
7.66880382055e-07
-0.00010608309816
-2.89787521138e-06
-0.000124281821765
-4.55876573958e-06
-0.000146318672882
7.96300404006e-06
-0.000190073031934
-7.80282257973e-07
-0.000225711201313
-0.000238177962204
0.000261796530228
-0.000224167508327
1.34329293377e-06
-6.63725728055e-05
-7.94323452001e-07
-7.60507790197e-05
-4.79031245067e-06
-8.71101446127e-05
-1.11542374702e-05
-9.9719498187e-05
-1.8081919748e-05
-0.000117355317144
-2.72778060562e-05
-0.000137124520387
-2.59370267718e-05
-0.00019141465864
-3.97363415539e-05
-0.00021191148668
-3.88586678995e-05
0.000260902307582
-6.17212071669e-05
-8.73762172397e-06
-6.34860346723e-05
-1.28228767554e-05
-7.19726665532e-05
-1.85580957375e-05
-8.13820150005e-05
-2.66392738827e-05
-9.16455840876e-05
-3.70590653389e-05
-0.000106942225991
-4.27786260996e-05
-0.000131409933313
-4.85267985227e-05
-0.00018566825276
-6.07254840352e-05
-0.000199710290753
0.000290464439189
-9.02893481744e-05
-0.000128180983075
-1.77774542471e-05
-5.90449018769e-05
-2.41732088851e-05
-6.55939081679e-05
-3.34500639803e-05
-7.21225187208e-05
-4.57086028205e-05
-7.94052680712e-05
-5.7303174056e-05
-9.53629426971e-05
-5.65209947379e-05
-0.000132203458655
-6.56855415398e-05
-0.000176507532427
-0.000115600918689
-0.000149794529911
-8.4005205004e-05
-0.000121901703314
-0.0001135631634
-2.36375199649e-05
-5.44336510317e-05
-2.98270132354e-05
-5.94334752061e-05
-3.86813244818e-05
-6.33018359448e-05
-5.10237301541e-05
-6.70920734508e-05
-6.36727437162e-05
-8.27420106226e-05
-6.8118756033e-05
-0.00012777302224
-9.01465554487e-05
-0.000154484818623
-0.000172739711389
-6.72005319408e-05
-0.000225527638043
-6.91590400039e-05
-5.91016600628e-05
-2.66699102024e-05
-2.97395989014e-05
-3.28555463521e-05
-3.88604584134e-05
-5.11197775149e-05
-8.23266492033e-05
-0.000118795874313
-0.000179923665343
-0.000258743049599
)
;

boundaryField
{
    back
    {
        type            calculated;
        value           uniform 0;
    }
    sides
    {
        type            calculated;
        value           nonuniform List<scalar> 0();
    }
    bottom
    {
        type            calculated;
        value           nonuniform List<scalar> 0();
    }
    front
    {
        type            calculated;
        value           uniform 0;
    }
    atmosphere
    {
        type            calculated;
        value           nonuniform List<scalar> 
16
(
0.00152716875028
0.000155740238966
-9.8845102726e-05
-0.000126088280383
-0.000281737325601
-0.000917287030046
0.00389977530863
0.000143794056419
1.26668804681e-05
-0.000332417259028
-0.000436430209191
-0.000201297683376
0.000356915969193
-9.86383118216e-05
-0.000280020478856
-0.000279187010882
)
;
    }
    floatingObject
    {
        type            calculated;
        value           nonuniform List<scalar> 0();
    }
    procBoundary5to0
    {
        type            processor;
        value           nonuniform List<scalar> 
12
(
-1.8980876761e-05
-2.1976013005e-05
-2.56937682666e-05
-3.04463137655e-05
-3.59119253387e-05
-4.24480222738e-05
-4.86701653667e-05
-5.64431841745e-05
-7.48018416558e-05
-0.000134418861207
-0.000619567828883
-0.000971951141125
)
;
    }
    procBoundary5to3
    {
        type            processor;
        value           nonuniform List<scalar> 10(-5.08876389224e-05 -5.64023817374e-05 -6.0223452341e-05 -6.11279910763e-05 -7.05134983419e-05 -9.65864036454e-05 -0.000118021842501 -6.0822576282e-06 9.59889696865e-06 -3.86805590858e-05);
    }
    procBoundary5to4
    {
        type            processor;
        value           nonuniform List<scalar> 
18
(
-4.22087423728e-05
-4.36618810915e-05
2.94261233201e-06
3.69026773389e-06
-6.27246568702e-05
-6.24913908777e-05
-6.04309049283e-05
-5.60125791833e-05
-4.94231216931e-05
-4.10125297638e-05
-3.13139974812e-05
-2.09568091698e-05
-1.13262041861e-05
-2.61355471502e-06
5.83982620306e-06
1.331400832e-05
1.89827495195e-05
2.30847801524e-05
)
;
    }
}


// ************************************************************************* //
