/*--------------------------------*- C++ -*----------------------------------*\
| =========                 |                                                 |
| \\      /  F ield         | OpenFOAM: The Open Source CFD Toolbox           |
|  \\    /   O peration     | Version:  v2012                                 |
|   \\  /    A nd           | Website:  www.openfoam.com                      |
|    \\/     M anipulation  |                                                 |
\*---------------------------------------------------------------------------*/
FoamFile
{
    version     2.0;
    format      ascii;
    class       volVectorField;
    location    "2.7";
    object      U_0;
}
// * * * * * * * * * * * * * * * * * * * * * * * * * * * * * * * * * * * * * //

dimensions      [0 1 -1 0 0 0 0];


internalField   nonuniform List<vector> 
164
(
(-0.00358171842596 0.0104784180621 8.72787120889e-24)
(-0.00325764216185 0.0122806242363 -4.09829188551e-24)
(-0.00280756004369 0.0142908011945 -1.1499124965e-23)
(-0.00219783364442 0.0165347842206 1.40554654637e-23)
(-0.00141927288314 0.019021337055 1.2394277389e-22)
(-0.000522885755052 0.0217511648967 2.06194466836e-22)
(0.000372706304876 0.0248084048576 -1.93263318591e-22)
(0.0016127371429 0.0278188450379 -1.38402339157e-21)
(0.0052816799471 0.0310641240388 -3.94724341009e-21)
(0.0181795054904 0.0279474663384 -7.55315479595e-21)
(0.107607128195 0.0356197270567 -1.52735386509e-20)
(0.068179383996 0.297274499288 -1.64795270614e-20)
(-0.00532758926069 0.0106750688531 1.74861587348e-23)
(-0.00521718311586 0.0125773509365 1.75264888158e-23)
(-0.00499878301187 0.0147235627801 8.00521174403e-24)
(-0.00464241221566 0.0171398179834 5.03748181278e-23)
(-0.00410818615492 0.0198321259957 2.57956219068e-22)
(-0.00338586816629 0.0227537141522 5.90151957352e-22)
(-0.00246840681389 0.0258945541491 -3.81849633133e-22)
(-0.00091413751532 0.0286937053376 -2.02983311863e-21)
(0.00326002679812 0.0308793456367 -1.10480381122e-20)
(0.0118579145032 0.0258737526268 -7.6881825951e-21)
(0.076703148008 0.0344550025536 1.07493619089e-20)
(-0.162553743641 0.0418303597812 7.59825848468e-20)
(-0.00734142484768 0.014898518977 1.9264631552e-23)
(-0.00728656307734 0.0174879105827 8.77049741105e-23)
(-0.0070444905069 0.0204344398405 2.62496784353e-22)
(-0.00653587829544 0.0237032516064 4.52805332411e-22)
(-0.00551114049585 0.027221305362 -6.20316006787e-22)
(-0.00338009963133 0.0307579623202 -3.61207095686e-21)
(0.00192927068286 0.0324634395156 -1.27701073514e-20)
(0.00706971840002 0.0282712572844 -9.97332801601e-21)
(0.0717177592816 0.0349357707858 -3.2111527945e-20)
(-0.0736565808541 -0.00608427474785 -1.9788976698e-20)
(-0.0098184848909 0.0147481735026 1.67145676339e-23)
(-0.0101536696012 0.0174949575596 1.17978277812e-22)
(-0.0103356833043 0.0207133660921 3.44334036784e-22)
(-0.0102168899484 0.0244651046253 5.21517970939e-22)
(-0.00930548816672 0.0286335463233 -1.27128673803e-21)
(-0.00648524026722 0.0334945267522 -3.94586237703e-21)
(0.000561075399999 0.0345789294574 -1.1469477741e-20)
(0.00835717746836 0.03081883883 -1.19490799574e-20)
(0.0840697194015 0.0342977982093 -1.89593991767e-20)
(-0.00324487013228 -0.0128133262971 -9.19432684849e-20)
(-0.0123826321514 0.0141863478248 3.36088909143e-23)
(-0.0132182154683 0.0170156203051 1.49773398602e-22)
(-0.0140183090903 0.0204561130717 2.73846725507e-22)
(-0.0145954006907 0.0246780599622 -1.35434684112e-22)
(-0.0142034396597 0.0295951378771 -2.02326492888e-21)
(-0.0106256250878 0.0359635393122 -2.84758254817e-21)
(-0.00107941621309 0.0369660825058 -1.50614865101e-20)
(0.0129804767496 0.0326025768374 -3.03493816953e-20)
(0.0917035596413 0.0397941623349 -4.56058237368e-20)
(0.0478064938493 -0.000808119549081 -5.21143561335e-20)
(-0.0149302481695 0.0131333211501 5.69355112699e-23)
(-0.0163507792995 0.015888936632 1.81059998211e-22)
(-0.0179578162239 0.0193531510613 5.30471066364e-23)
(-0.0196206684355 0.0237945460264 -4.90226205123e-22)
(-0.0202179863544 0.0293099015959 -2.33884758067e-21)
(-0.0160915893244 0.0369543322113 -6.02556501582e-21)
(-0.00371557022827 0.0385140906004 -6.04649829348e-21)
(0.0158937631222 0.034330300664 3.41221727569e-21)
(0.070830617095 0.0505379892086 9.99034356898e-22)
(0.163387601346 0.0216006131075 2.99301774756e-20)
(-0.0172746563184 0.011545055244 5.70772044193e-23)
(-0.0192858971419 0.0140073425611 4.51673242486e-23)
(-0.0217633300746 0.017132070665 7.78160979977e-23)
(-0.0247137343266 0.0211897944747 -4.97823810882e-22)
(-0.0266869034459 0.0264904604704 4.70102199021e-23)
(-0.0230556637423 0.0344584510931 -6.5417453711e-21)
(-0.00958521005191 0.0375878083211 5.71686563695e-21)
(0.0110887097194 0.0374002385677 3.96269353339e-20)
(0.018153001666 0.0622809206991 5.97286842575e-20)
(0.129507941104 0.253198882528 6.75328793486e-20)
(-0.0192619791513 0.00948295773 -8.54310677883e-23)
(-0.0217555710671 0.0114399154228 -2.89301008562e-22)
(-0.0248969072473 0.0138543312461 -5.96969614269e-22)
(-0.0287182891329 0.0168130307499 -3.6388233928e-22)
(-0.0316146231152 0.0202646116044 5.3114343671e-21)
(-0.0294101631873 0.026877525556 2.55676417798e-20)
(-0.0196972081697 0.0321039637426 4.95058359424e-20)
(-0.00606709198111 0.0395415704126 5.90797641598e-20)
(-0.0299055851081 0.0577197345263 7.39420094939e-20)
(-0.0320819964635 0.198522394338 6.27299572866e-20)
(-0.0207726246557 0.00704729934577 -1.20660703858e-22)
(-0.0235735306224 0.00838389262652 -2.36783993137e-22)
(-0.0270134556708 0.00991346843059 -2.75092832812e-22)
(-0.0309941163651 0.0115392410692 3.8200209334e-21)
(-0.0341329729951 0.0126921713836 2.62915657434e-20)
(-0.0343238863998 0.0171316069828 7.43936717405e-20)
(-0.0325117920887 0.0227546245804 1.43839719615e-19)
(-0.0351267524207 0.0351521362138 1.83746523972e-19)
(-0.059830098484 0.0478841375624 2.09472223728e-19)
(-0.155309983015 0.123516796436 1.2202725131e-19)
(-0.0216652045382 0.00440744385004 -7.85942653592e-23)
(-0.024511648824 0.00505185246042 9.27371980181e-23)
(-0.0279551097281 0.00563668548858 1.56928842459e-21)
(-0.0319016377761 0.00603306199757 1.27580722171e-20)
(-0.0355117540728 0.00559422927388 5.5931245877e-20)
(-0.038834325118 0.00788212222821 1.54373100066e-19)
(-0.0444036680441 0.0119745523809 2.50448993015e-19)
(-0.0578036425646 0.0248736967021 3.378514036e-19)
(-0.0569991602861 0.0222484651949 3.33660744011e-19)
(-0.145063405951 -0.0258245952911 1.95192875543e-19)
(-0.0220272013442 0.00189423071468 1.81618815214e-22)
(-0.0247042705111 0.00199086062849 1.95104980778e-22)
(-0.0278629700352 0.00187990074357 2.15645414238e-21)
(-0.0315015926898 0.001487588741 1.30191123483e-20)
(-0.0353940284855 0.000187510473543 5.26425967927e-20)
(-0.0405011579936 0.00151158014401 1.34584739597e-19)
(-0.049384533593 0.00258179547149 2.34673971877e-19)
(-0.0630902670735 0.0124742798818 2.93451301078e-19)
(-0.019162298266 -0.00170689003883 2.93453054156e-19)
(-0.0685466223997 -0.0861622658785 1.37494961754e-19)
(-0.0220326104849 -0.000402276844908 6.17668929997e-22)
(-0.0245121615127 -0.000524990833555 3.38318491101e-22)
(-0.0273322363805 -0.000794134184565 6.0503376987e-22)
(-0.0305491863906 -0.00137369219904 6.74649892123e-22)
(-0.0348416263091 -0.00282289207762 8.2087342078e-21)
(-0.0404974568003 -0.00291880142001 2.36142015421e-20)
(-0.0514049279495 -0.00510125283227 5.99854773751e-20)
(-0.0609242176862 0.00101059504912 6.80973354438e-20)
(0.0315251837416 -0.00726362996911 6.94462523971e-20)
(-0.0333226296666 -0.0676176324135 2.50873119453e-20)
(-0.0218358333193 -0.0027831750276 -7.65287159066e-23)
(-0.0243172341993 -0.0033222141634 -5.78173430072e-22)
(-0.0271444821794 -0.00407184963833 -8.57466620092e-22)
(-0.0303459518387 -0.00511168785273 -2.39912186952e-21)
(-0.0343338680865 -0.00696960575232 6.99618259811e-22)
(-0.0389867027046 -0.00789679998179 -3.04589953739e-21)
(-0.0494543795862 -0.011073800222 -2.80718544982e-20)
(-0.0557850424662 -0.00701802751307 -7.25817533809e-20)
(0.0159095148284 -0.00575916750255 -6.60715339734e-20)
(-0.0261032394529 0.0746480199846 -8.2114515355e-20)
(-0.0211620907761 -0.00503745053517 4.32271119101e-22)
(-0.0233880522101 -0.00599942535749 1.94830915553e-22)
(-0.0258489345395 -0.00731916654994 1.93367614204e-21)
(-0.0286393862321 -0.00918899602396 3.32765048601e-21)
(-0.0326650910852 -0.0120510080554 5.38590706029e-21)
(-0.0392422137466 -0.0127183124604 2.99849995902e-22)
(-0.0485069884048 -0.0147805830274 -1.92523610281e-20)
(-0.0494187837391 -0.0127455783395 -2.98148240338e-20)
(-0.0364955855211 -0.0211027185023 -3.13997207816e-20)
(-0.0220189952266 -0.0244126911584 1.45381868266e-20)
(-0.020252872112 -0.00693703382351 2.13352982425e-22)
(-0.0221336998547 -0.00797383081188 -6.80501952081e-23)
(-0.0237892733358 -0.00924827622555 1.16897674683e-21)
(-0.0253488304288 -0.0108772324617 1.83209613883e-21)
(-0.0289745799185 -0.0136612442445 4.65659210364e-21)
(-0.0381609571297 -0.0145302828762 1.14314733306e-20)
(-0.0469457401501 -0.0172762128058 2.31905897512e-20)
(-0.0368149076598 -0.0176628892782 4.17532914777e-20)
(-0.0327481676583 -0.03377932657 4.11520572138e-20)
(-0.0138472715177 -0.0661185154108 1.6085138473e-20)
(-0.0193937154426 -0.00854552714805 7.41945091104e-22)
(-0.0212546980888 -0.00920743175947 9.07952218111e-22)
(-0.0227519230101 -0.00954092153945 2.3344627996e-21)
(-0.0238160965683 -0.00966270400326 8.69631394029e-22)
(-0.0268149242258 -0.0110542767758 3.91555513065e-21)
(-0.0349306663872 -0.0128814901554 9.09929331956e-21)
(-0.0405523795518 -0.0196127220644 2.66987671675e-20)
(-0.0205903464145 -0.0219620212072 4.86993567434e-20)
(-0.0212555862113 -0.033504523689 4.81317263322e-20)
(-0.013724621145 -0.0640167524779 8.05528680719e-21)
)
;

boundaryField
{
    back
    {
        type            noSlip;
    }
    sides
    {
        type            noSlip;
    }
    bottom
    {
        type            noSlip;
    }
    front
    {
        type            noSlip;
    }
    atmosphere
    {
        type            pressureInletOutletVelocity;
        value           nonuniform List<vector> 
16
(
(0.068179383996 0.297274499288 -1.64795270614e-20)
(0 0.0418303597812 0)
(0 -0.00608427474785 0)
(0 -0.0128133262971 0)
(0 -0.000808119549081 0)
(0 0.0216006131075 0)
(0.129507941104 0.253198882528 6.75328793486e-20)
(-0.0320819964635 0.198522394338 6.27299572866e-20)
(-0.155309983015 0.123516796436 1.2202725131e-19)
(0 -0.0258245952911 0)
(0 -0.0861622658785 0)
(0 -0.0676176324135 0)
(-0.0261032394529 0.0746480199846 -8.2114515355e-20)
(0 -0.0244126911584 0)
(0 -0.0661185154108 0)
(0 -0.0640167524779 0)
)
;
    }
    floatingObject
    {
        type            movingWallVelocity;
        value           nonuniform List<vector> 0();
    }
    procBoundary5to0
    {
        type            processor;
        value           nonuniform List<vector> 
12
(
(-0.00193658687538 0.0101003081768 -1.44596107298e-23)
(-0.00142627901274 0.0117773337065 -9.95098678286e-24)
(-0.000774512220968 0.0136310287033 -1.42361580534e-23)
(5.86337657069e-05 0.0156886250493 1.76218283264e-23)
(0.00108276812593 0.0179828854386 1.10905760217e-22)
(0.00222244378149 0.0205538295139 4.56798760709e-22)
(0.00335028737027 0.0235045769424 -2.01498471997e-22)
(0.00479938137829 0.02685054226 -1.78291319686e-21)
(0.00835817442433 0.0301491778624 -8.56074067965e-21)
(0.0207680447644 0.0293129554887 -1.05759715298e-20)
(0.12644524719 0.0341722351612 -4.68629822681e-21)
(0.273677277993 -0.00705189298371 -1.90856321314e-21)
)
;
    }
    procBoundary5to3
    {
        type            processor;
        value           nonuniform List<vector> 10((-0.0186438219446 -0.0105282484903 2.18714846434e-21) (-0.0210075728728 -0.0112551256823 1.86750378e-21) (-0.0230625115258 -0.0113413016939 1.21475189656e-21) (-0.0245042132237 -0.0110172034413 1.13518923106e-21) (-0.0273188604509 -0.010725925509 -2.40627281528e-22) (-0.03133284332 -0.0104885131454 -2.50255830048e-21) (-0.0331925229475 -0.0182364355475 2.96796196484e-21) (-0.00662240743364 -0.0193490355442 8.39766587781e-21) (-0.0104376653732 -0.0351033289508 8.19163793188e-21) (-0.0119328659668 -0.0634171013794 2.91040943494e-21));
    }
    procBoundary5to4
    {
        type            processor;
        value           nonuniform List<vector> 
18
(
(-0.00380825611508 0.00885887438983 -6.89993904096e-24)
(-0.00537335845302 0.00898236069801 -1.31061455293e-24)
(-0.00714386450877 0.0106597944934 3.16836239073e-23)
(-0.00727818334809 0.0126362176084 3.14594613803e-23)
(-0.00727818334809 0.0126362176084 3.14594613803e-23)
(-0.00941492691316 0.0124062783564 3.62043947092e-23)
(-0.0115821699813 0.0118382770811 3.36634552158e-23)
(-0.0136894980821 0.0108871978971 9.14518388967e-24)
(-0.0156131184113 0.00953784547339 2.26185738585e-23)
(-0.0172454211495 0.00784607130107 5.68796455946e-23)
(-0.0185115351316 0.00589149065238 8.86114098559e-23)
(-0.0193399440861 0.00377233890967 1.11553614437e-22)
(-0.0197436932375 0.00166627700491 5.72365155979e-23)
(-0.0198342913526 -0.000356525398276 1.38328312225e-22)
(-0.0196716018274 -0.00239400720669 1.56734817701e-22)
(-0.0191540951759 -0.00433750836764 1.38552219199e-22)
(-0.0184086429396 -0.00609216239175 2.08427667199e-22)
(-0.0175747542803 -0.00770693296007 3.61968313543e-22)
)
;
    }
}


// ************************************************************************* //
