/*--------------------------------*- C++ -*----------------------------------*\
| =========                 |                                                 |
| \\      /  F ield         | OpenFOAM: The Open Source CFD Toolbox           |
|  \\    /   O peration     | Version:  v2012                                 |
|   \\  /    A nd           | Website:  www.openfoam.com                      |
|    \\/     M anipulation  |                                                 |
\*---------------------------------------------------------------------------*/
FoamFile
{
    version     2.0;
    format      ascii;
    class       surfaceScalarField;
    location    "5.1";
    object      alphaPhi0.water;
}
// * * * * * * * * * * * * * * * * * * * * * * * * * * * * * * * * * * * * * //

dimensions      [0 3 -1 0 0 0 0];
oriented        oriented;


internalField   nonuniform List<scalar> 
3840
(
-1.88792429866e-05
1.88799135021e-05
-3.87646361402e-05
1.9886126595e-05
-5.9687805134e-05
2.09239812962e-05
-8.13900284986e-05
2.17030394571e-05
-0.000103909122669
2.25192281495e-05
-0.000127470788511
2.35610083962e-05
-0.000152490365166
2.50177051138e-05
-0.000179286727741
2.67934109284e-05
-0.000208300635778
2.90095156753e-05
-0.00024001439211
3.17094289403e-05
-0.000274877226589
3.48584756608e-05
-0.000313837129547
3.89564464848e-05
-0.000357661793013
4.38235303039e-05
-0.000407122007599
4.94557470831e-05
-0.000464175251213
5.70527463663e-05
-0.000531116697206
6.69466806392e-05
-0.00059144816851
6.03709001165e-05
-0.000217054578295
5.32498895833e-05
-6.12577469621e-06
8.64716535814e-06
5.72095719032e-07
-1.95570938957e-05
3.84377851001e-05
-3.97160293368e-05
4.00458448327e-05
-6.03982156427e-05
4.16069643846e-05
-8.18582258158e-05
4.31638757594e-05
-0.000104264487581
4.49255732161e-05
-0.000127794683332
4.70904977928e-05
-0.000152646630388
4.98675645301e-05
-0.000179261411824
5.3404897106e-05
-0.00020800190893
5.77446159773e-05
-0.000239310187112
6.30124186758e-05
-0.000273857757303
6.94017668315e-05
-0.000312242188032
7.73366422909e-05
-0.000355352093701
8.69320049194e-05
-0.000404450076594
9.85495419173e-05
-0.000461506740311
0.000114108824904
-0.000529576808895
0.000135023742488
-0.000611595887251
0.000142440799911
-0.00022603267509
0.000115477800735
-5.08315138355e-07
9.48595041309e-06
6.37730716732e-08
-1.98869736283e-05
5.83255717184e-05
-3.98333374336e-05
5.99931435542e-05
-6.02851694849e-05
6.20597511818e-05
-8.14387140648e-05
6.43181496271e-05
-0.000103450560087
6.69375626967e-05
-0.000126582314217
7.02215909583e-05
-0.00015097774909
7.42610905209e-05
-0.00017695665471
7.93803898781e-05
-0.000204916463756
8.56987127747e-05
-0.000235264296573
9.33535108568e-05
-0.00026854442104
0.000102676688935
-0.000305398723931
0.000114187009871
-0.000346868439832
0.000128399518767
-0.000394202915411
0.000145877428806
-0.000449811513401
0.000169717222554
-0.000516592683158
0.000201810909214
-0.000594743899196
0.000220638256935
-0.000217635290293
0.000169307620701
-6.32269739169e-08
1.14546095343e-05
1.24905334393e-09
-1.95127277866e-05
7.78390689256e-05
-3.90810980074e-05
7.95623389089e-05
-5.90795693149e-05
8.20590580636e-05
-7.96989591071e-05
8.49382647663e-05
-0.000101110262925
8.83490795954e-05
-0.000123447625779
9.25585923068e-05
-0.000146990127691
9.78017492314e-05
-0.000171913328134
0.000104300114057
-0.000198516550568
0.000112296344066
-0.000227243960689
0.000122072841189
-0.000258523511818
0.00013394775221
-0.000292816856891
0.000148473015502
-0.000330993439732
0.000166572847079
-0.000374545867377
0.000189435658398
-0.000424702041167
0.000219873480447
-0.000483839255773
0.000260950528829
-0.000550582542072
0.000287413210497
-0.000200254163401
0.000205970072399
-3.20898076741e-09
1.41554988804e-05
2.25490284565e-10
-1.87375948862e-05
9.65773739191e-05
-3.7636870082e-05
9.84623725151e-05
-5.69407183836e-05
0.000101363664296
-7.67924662828e-05
0.000104790685801
-9.73135266151e-05
0.000108870534863
-0.00011865322682
0.000113898000766
-0.000140987819262
0.000120135010231
-0.000164498108267
0.000127807434443
-0.000189392721154
0.000137186098103
-0.000215941100518
0.000148613611427
-0.000244460047759
0.000162457187998
-0.000275314007595
0.000179316099466
-0.000308931381665
0.000200186443466
-0.000345596088394
0.000226110908176
-0.000385943711174
0.000260221205799
-0.00042917245535
0.000304178988848
-0.000475768543879
0.000334026895403
-0.000177114447752
0.000231984910526
-2.51663366567e-09
1.98182625286e-05
-1.72538700231e-11
-1.77744482055e-05
0.000114352455952
-3.57867082067e-05
0.000116475309304
-5.41780401613e-05
0.000119755674062
-7.30431189841e-05
0.000123656376609
-9.24685277274e-05
0.000128296335783
-0.000112577228459
0.000134006531928
-0.000133478658921
0.000141035470556
-0.000155332947697
0.000149659246872
-0.000178244802791
0.000160094418556
-0.000202359763452
0.000172721668456
-0.000227785193637
0.000187874118185
-0.000254546518234
0.000206068598764
-0.000282194320276
0.000227830391925
-0.000310139210248
0.000254059588328
-0.000336348104794
0.000286430275673
-0.000358102372576
0.000325933362696
-0.000379310316356
0.000355243962274
-0.000150856196041
0.000268680722305
4.58415911248e-10
2.98431945966e-05
5.5163055623e-11
-1.66989775312e-05
0.000131051979292
-3.36598412035e-05
0.000133436760579
-5.0976237504e-05
0.000137072666137
-6.86986646457e-05
0.000141379326134
-8.68788539858e-05
0.000146476896006
-0.000105579431695
0.000152707025908
-0.000124906497915
0.000160361834406
-0.000144919640408
0.000169670300473
-0.000165721574179
0.000180891864233
-0.000187303629293
0.000194299860518
-0.000209657631421
0.000210224508653
-0.000232533748467
0.000228938003411
-0.000255370128324
0.000250658689097
-0.000276536750902
0.000275221771186
-0.000293253124748
0.000303145161992
-0.000303408624783
0.000336085399285
-0.000313786835576
0.000365624655604
-0.0001255082266
0.000304602372074
-9.02214608442e-09
3.63308358305e-05
8.61390038286e-10
-1.55423301095e-05
0.000146594762128
-3.13328678427e-05
0.000149227782536
-4.74593937363e-05
0.000153199672986
-6.39221310564e-05
0.000157842544886
-8.07371779995e-05
0.000163292249864
-9.79457787023e-05
0.000169915658247
-0.000115595919465
0.000178011400641
-0.000133731694516
0.000187804106323
-0.000152373126028
0.000199529932733
-0.000171506851253
0.000213431389702
-0.000191015338253
0.00022972917289
-0.000210679091534
0.000248599481724
-0.000230056062708
0.000270030498442
-0.000248501409587
0.000293661075893
-0.000265028347129
0.000319668367456
-0.000278596546704
0.00034964998252
-0.000289245516652
0.000376271889834
-0.00010038022604
0.000313963815445
-6.31841819328e-10
3.53336156426e-05
1.78340075198e-10
-1.43091598217e-05
0.000160904276192
-2.88551159351e-05
0.000163774119798
-4.37119643255e-05
0.000168056979329
-5.88385858156e-05
0.000172969558818
-7.42262582169e-05
0.000178680220695
-8.98745616846e-05
0.000185564034756
-0.000105800505573
0.000193936997631
-0.000122026051912
0.000204028369107
-0.000138519601189
0.000216021282182
-0.000155272107422
0.00023018494822
-0.000172215054402
0.000246668297978
-0.000189179281633
0.000265562680082
-0.000206002021459
0.000286851785142
-0.000222763872835
0.000310420787238
-0.000239495179647
0.000336397757132
-0.000256118642029
0.000366274965976
-0.000264510924804
0.000384664762529
-7.86492494637e-05
0.000300892551035
-6.82685701668e-10
3.08308300314e-05
3.22751761278e-11
-1.30192049523e-05
0.000173923732436
-2.63313561884e-05
0.000177086566151
-3.98261667247e-05
0.000181552110517
-5.35363443598e-05
0.000186680066622
-6.74362692924e-05
0.000192580408484
-8.15019648798e-05
0.000199629795081
-9.57164956237e-05
0.000208151341081
-0.000110060195018
0.000218371306334
-0.00012450667474
0.000230467485321
-0.000138991869408
0.000244672729693
-0.000153509509786
0.000261181871326
-0.000167898728897
0.000279951079269
-0.00018200965262
0.000300960863623
-0.000196109713117
0.000324519467537
-0.000210817982373
0.000351106004704
-0.000224827701323
0.000380284578614
-0.000232404257105
0.00039224109321
-6.3759464109e-05
0.00028221962587
-6.40863642313e-08
2.5196181872e-05
2.54502691318e-09
-1.17052329167e-05
0.000185629152748
-2.36404342517e-05
0.000189021978625
-3.57895929034e-05
0.000193701503101
-4.80961405877e-05
0.000198986885032
-6.05125385727e-05
0.000204997054916
-7.29984375455e-05
0.000212115735551
-8.55079743505e-05
0.0002206609925
-9.80584761002e-05
0.000230922510209
-0.000110570543217
0.000242980053569
-0.00012294269574
0.000257045907797
-0.000135025684614
0.000273267282625
-0.000146769985216
0.000291693992642
-0.000158109738022
0.000312300521944
-0.000169027633062
0.00033543760619
-0.000179794100666
0.000361872603168
-0.000189156656266
0.000389647255436
-0.000193656317326
0.000396741063979
-5.37575928298e-05
0.000271354842333
-2.43212023762e-09
2.19223711279e-05
6.8124133361e-11
-1.03711507303e-05
0.000196000406817
-2.09384439686e-05
0.000199589401597
-3.17080445043e-05
0.000204471261151
-4.26073448807e-05
0.000209886324491
-5.35314610357e-05
0.000215921369591
-6.44782756897e-05
0.000223062910892
-7.5394433959e-05
0.000231577596454
-8.61345563076e-05
0.000241662904393
-9.6716385694e-05
0.000253561948874
-0.000106988517723
0.000267317960176
-0.000116859504412
0.000283138851133
-0.00012611614924
0.000300950939815
-0.000134570810435
0.000320755562261
-0.000141937222371
0.000342805059769
-0.000147648505608
0.000367584008486
-0.00015094713012
0.000392946037994
-0.000153486557751
0.00039928094653
-4.64128981835e-05
0.000271797400083
-1.41135689669e-07
2.09815135565e-05
3.08859837308e-09
-9.04321239705e-06
0.000205043678946
-1.82393753508e-05
0.000208785655198
-2.76276636608e-05
0.000213859648935
-3.71200437824e-05
0.00021937877827
-4.6615777982e-05
0.000225417130501
-5.60012299392e-05
0.000232448949082
-6.52652444881e-05
0.000240842291077
-7.4344770833e-05
0.000250742619856
-8.31428346681e-05
0.000262360756445
-9.14919828766e-05
0.000275668204627
-9.92009932465e-05
0.000290849180147
-0.000106184387762
0.000307935500402
-0.000112107981902
0.000326680504877
-0.000116324867563
0.000347024131936
-0.000117760316984
0.000369017481603
-0.000115949603564
0.000391135323191
-0.000116137233738
0.000399470609847
-3.83207991526e-05
0.000277916073229
-8.55903721709e-09
2.28997833538e-05
2.52446503317e-08
-7.69264054853e-06
0.000212736302842
-1.5545885623e-05
0.000216638942956
-2.35817711775e-05
0.000221895568316
-3.16600147948e-05
0.000227457186172
-3.97116742649e-05
0.00023346895656
-4.76497936169e-05
0.00024038719664
-5.54145256199e-05
0.00024860715807
-6.29133095819e-05
0.000258241928494
-6.99612153262e-05
0.000269409784346
-7.65423746252e-05
0.0002822508647
-8.24410559504e-05
0.000296750269666
-8.73858534795e-05
0.000312882273732
-9.1111463832e-05
0.000330408253205
-9.29924575092e-05
0.000348907751052
-9.20258280755e-05
0.000368057845082
-8.73773780533e-05
0.000386486838324
-8.31874780442e-05
0.000395280759893
-2.90760762402e-05
0.000283522806545
-3.78720324716e-07
2.63915338052e-05
4.5970440758e-09
-6.3535702657e-06
0.000219090513009
-1.29122776589e-05
0.000223198189442
-1.95739681491e-05
0.000228557664918
-2.62916580503e-05
0.000234175059108
-3.29582004061e-05
0.000240135582759
-3.94762170891e-05
0.000246905025819
-4.57181023677e-05
0.000254849029927
-5.16812979927e-05
0.000264205671471
-5.72450327576e-05
0.000274974517068
-6.22811501945e-05
0.000287288450786
-6.64505955798e-05
0.00030092246976
-6.97382506623e-05
0.000316172038386
-7.17251335133e-05
0.000332397533098
-7.19166297385e-05
0.000349101652219
-6.95871957149e-05
0.000365733049219
-6.40060259134e-05
0.00038090567006
-5.7687934946e-05
0.000388962552946
-1.97359292985e-05
0.0002842028794
-1.36160392704e-07
2.95063025406e-05
1.17843178377e-08
-5.05616213623e-06
0.000224147052024
-1.02705888552e-05
0.000228413157609
-1.56162752899e-05
0.00023390387674
-2.09802350657e-05
0.000239538826624
-2.62518010349e-05
0.000245406464055
-3.13677078997e-05
0.000252019837243
-3.62513831992e-05
0.000259732144119
-4.08272260057e-05
0.000268781440804
-4.49141116004e-05
0.000279061844022
-4.85223536484e-05
0.000290897600746
-5.14191390674e-05
0.000303820906811
-5.33084180354e-05
0.000318062863837
-5.39269843211e-05
0.000333017711512
-5.28371027477e-05
0.000348013579601
-4.95208956887e-05
0.000362419783206
-4.29932256908e-05
0.000374379570695
-3.4692414493e-05
0.000380662115876
-1.06060475007e-05
0.000280754389818
-1.02413323486e-07
3.12675920874e-05
-2.34754634514e-10
-3.7894872231e-06
0.000227937079758
-7.70222330761e-06
0.000232326220815
-1.17101839258e-05
0.000237911863402
-1.57216648714e-05
0.000243550533779
-1.96427527605e-05
0.000249327845356
-2.34042209941e-05
0.000255781619056
-2.69735391101e-05
0.000263299938593
-3.01923982075e-05
0.000272000236031
-3.31260813499e-05
0.000281995848522
-3.53997409459e-05
0.000293171555173
-3.70302057251e-05
0.000305451747639
-3.77011588062e-05
0.000318734318309
-3.72945982868e-05
0.000332611905867
-3.50738406011e-05
0.000345793318289
-3.07740877092e-05
0.000358121644628
-2.27232109633e-05
0.000366325821155
-1.33486372604e-05
0.000371286980143
-3.29414456394e-06
0.000274990780462
-4.15151832774e-09
3.1213242472e-05
-6.79841070206e-09
-2.54684095817e-06
0.000230484495229
-5.19378254474e-06
0.000234973575454
-7.94749042783e-06
0.000240665564979
-1.06774148175e-05
0.000246281230771
-1.33089815779e-05
0.000251960093463
-1.57914827995e-05
0.000258264803623
-1.80828621239e-05
0.000265592759744
-2.0112402882e-05
0.000274029683101
-2.16857284016e-05
0.000283568622913
-2.27006022262e-05
0.000294185554966
-2.30924689306e-05
0.000305842303723
-2.26237198498e-05
0.000318264281209
-2.11861059894e-05
0.00033117299432
-1.84883628644e-05
0.000343094392109
-1.26821916083e-05
0.000352315012257
-4.80155433481e-06
0.000358445750229
3.94863588855e-06
0.000362536140279
1.86350447551e-06
0.000275726592321
2.81001378089e-08
2.93778063616e-05
2.39700485991e-08
-1.3060560789e-06
0.000231791180393
-2.7808807705e-06
0.000236449018386
-4.33377508519e-06
0.000242219552858
-5.8696936424e-06
0.000247817932192
-7.31150145965e-06
0.000253402337018
-8.62509099481e-06
0.000259580389486
-9.68335430371e-06
0.000266652526493
-1.03910618079e-05
0.000274737088543
-1.06613931704e-05
0.000283838439507
-1.05068778824e-05
0.000294030459965
-9.72819742188e-06
0.000305062994347
-8.39564694481e-06
0.000316931342661
-6.0669542421e-06
0.000328844207815
-2.97549038397e-06
0.000340003324264
1.80042551045e-06
0.00034753986246
9.03504355453e-06
0.000351213305944
1.49210135308e-05
0.000356650558756
3.00959098925e-06
0.000280090744036
-2.36730952194e-08
2.80847217549e-05
1.94193958587e-08
-1.77889936277e-07
0.000231969334591
-5.15827612072e-07
0.000236787329955
-9.27924466512e-07
0.000242632209707
-1.37992279962e-06
0.000248270459814
-1.68069597048e-06
0.000253705230102
-1.79460640344e-06
0.000259694482092
-1.66857466918e-06
0.000266526502893
-1.20582477316e-06
0.000274273627612
-3.82068937351e-07
0.000283014348897
8.90692788864e-07
0.000292757674176
2.5058053538e-06
0.000303448305558
4.7415110035e-06
0.000314696694445
7.46608246982e-06
0.000326121421455
1.09037091607e-05
0.000336568251576
1.49357340648e-05
0.000343510567129
1.93335767523e-05
0.000346818887589
2.12596452173e-05
0.000354725621983
3.74111510765e-06
0.000285883746243
-1.94834519736e-08
2.74722705805e-05
2.60517271331e-10
8.61790603185e-07
0.000231107312745
1.60857811673e-06
0.000236040268503
2.25933721784e-06
0.00024198130855
2.92688625385e-06
0.000247602710869
3.75147244203e-06
0.00025287977459
4.75296899754e-06
0.000258692036999
6.04828801466e-06
0.00026523040076
7.60305863507e-06
0.000272718492522
9.49012077785e-06
0.000281127299427
1.17105334108e-05
0.000290537917977
1.43605433953e-05
0.000300799899736
1.72006328749e-05
0.00031185933693
2.03478948742e-05
0.000322978047563
2.36249092723e-05
0.000333296094582
2.64302148409e-05
0.000340709847898
2.70003414602e-05
0.000346253716224
2.41644176808e-05
0.000357563089818
4.52583697223e-06
0.000290654643124
-9.70372780707e-08
2.71640125861e-05
-6.56245908878e-08
1.91068407194e-06
0.000229196258167
3.70756815596e-06
0.000234242796342
5.43346185924e-06
0.000240254649611
7.18535387674e-06
0.000245849744211
9.04312660789e-06
0.000251020585455
1.11522677826e-05
0.000256581866467
1.35197757887e-05
0.000262861898446
1.61796127241e-05
0.000270058677361
1.90396809743e-05
0.000278267546547
2.22003781286e-05
0.000287378702603
2.55869473287e-05
0.00029741622289
2.92294755984e-05
0.000308221347091
3.28053283987e-05
0.000319408336462
3.56786894262e-05
0.000330430001433
3.62923200872e-05
0.000340103032536
3.33403678999e-05
0.000349211797093
2.65947844176e-05
0.000364309360138
7.53086847874e-06
0.000287815828266
9.60321731003e-08
2.66511887855e-05
6.12759449577e-09
2.90386985503e-06
0.000226291724245
5.7088686848e-06
0.000231437001033
8.44587337646e-06
0.000237516510017
1.12489287687e-05
0.000243045254084
1.41676941255e-05
0.000248100359712
1.72784693581e-05
0.000253469269784
2.06345853813e-05
0.000259504395406
2.42779611514e-05
0.000266414673926
2.82467044897e-05
0.000274299350242
3.24541984715e-05
0.000283173848717
3.68005578182e-05
0.00029307462394
4.1282548212e-05
0.000303746704072
4.53671341686e-05
0.000315333663309
4.84442625055e-05
0.000327364672335
4.86485476219e-05
0.000339909859643
4.34205994874e-05
0.000354449645475
3.43849720988e-05
0.000373346782555
1.09197081002e-05
0.000280096951734
2.32219205617e-07
2.70632701381e-05
-1.51866263337e-08
3.86723840172e-06
0.000222423472644
7.62093661182e-06
0.000227682061619
1.13386732204e-05
0.000233797204458
1.51082604256e-05
0.000239273671803
1.90429162169e-05
0.00024416339275
2.31892648921e-05
0.000249321086225
2.76008103773e-05
0.00025509013971
3.22879565927e-05
0.000261724945232
3.72896404105e-05
0.000269297408116
4.25735785828e-05
0.00027789306366
4.80984966259e-05
0.000287556678035
5.34863941898e-05
0.000298369581978
5.86631231674e-05
0.000310171451464
6.28721332016e-05
0.00032317251602
6.44608256629e-05
0.0003383390776
6.12778499993e-05
0.000357647294138
5.51983846608e-05
0.000379428819405
1.53331003634e-05
0.000273016007712
-2.12792661374e-07
2.50331683302e-05
1.14328239417e-07
4.7650014455e-06
0.000217657250255
9.44416263524e-06
0.000223001401964
1.40909329139e-05
0.000229148533261
1.8815677532e-05
0.00023454666704
2.3718301081e-05
0.000239258267976
2.88941978148e-05
0.000244142267985
3.43567170181e-05
0.000249625769291
4.01017893173e-05
0.000255980473797
4.61417428905e-05
0.000263259880833
5.25047229578e-05
0.000271534310566
5.91487970489e-05
0.000280921270829
6.58553707833e-05
0.00029167687214
7.24692536174e-05
0.00030357560464
7.8460821702e-05
0.000317203651791
8.2788388541e-05
0.000334035450668
8.37725530252e-05
0.000356679608244
8.32805396217e-05
0.000379930023575
2.16780021026e-05
0.000266806506465
-8.24704954462e-07
2.17191568091e-05
2.62848110198e-07
5.62650528503e-06
0.000212028962158
1.11658338253e-05
0.000217459911643
1.6689625604e-05
0.000223622067662
2.23105907892e-05
0.000228922438369
2.80993081806e-05
0.000233465928236
3.42114492053e-05
0.000238026510916
4.06511429007e-05
0.000243183858905
4.74344752163e-05
0.00024919749011
5.45825991606e-05
0.000256113737674
6.21303419405e-05
0.000263993438754
7.00791869519e-05
0.000272985228618
7.84306865278e-05
0.000283344488646
8.66627879293e-05
0.000295370439011
9.46243168204e-05
0.000309272200765
0.000101430005902
0.000327262946552
0.000106523004871
0.000351610573785
0.000110743898918
0.00037571654984
2.81909439396e-05
0.000258997227168
-8.41933108106e-07
1.52039996064e-05
-4.64356184652e-08
6.43744369537e-06
0.000205590341991
1.27771338552e-05
0.000211118837776
1.91137444935e-05
0.000217283825853
2.5558264615e-05
0.00022247602403
3.22149777502e-05
0.000226807143457
3.91656913301e-05
0.000231073999561
4.65026496767e-05
0.000235845534146
5.43118922413e-05
0.000241388003406
6.25865314763e-05
0.000247841302934
7.13451436972e-05
0.000255239688109
8.06848408918e-05
0.000263652023639
9.06107404685e-05
0.000273432217113
0.000101087662873
0.000284909705679
0.000111515155623
0.000298860777037
0.000121254117335
0.000317538398153
0.000129590156994
0.000343284525381
0.000138173816556
0.000367142348487
3.28367080959e-05
0.000250521454988
1.94636622796e-07
1.24461487534e-05
-5.14929692809e-08
7.15997502e-06
0.000198429319616
1.42403306749e-05
0.000204037277891
2.13346687782e-05
0.000210188080394
2.8557917123e-05
0.000215251170762
3.60167211364e-05
0.000219346642598
4.38070805129e-05
0.000223282078681
5.20308361018e-05
0.000227620704034
6.07880240872e-05
0.000232630464934
7.01783897734e-05
0.000238453470768
8.02155576709e-05
0.000245211771399
9.09183600587e-05
0.000252962829836
0.000102463410847
0.000261896497503
0.000114897853614
0.000272483024995
0.000128057766035
0.000285709501812
0.000140921452052
0.000304683433781
0.000152994474975
0.000331216757001
0.000166847608877
0.000353278242794
3.7897757945e-05
0.000239328007991
-3.66557006855e-07
1.03110939222e-05
-1.35052104885e-08
7.81579406927e-06
0.000190612626064
1.55585505496e-05
0.000196293514694
2.33394060755e-05
0.000202406052835
3.12788007515e-05
0.000207310445282
3.94726753458e-05
0.00021115137599
4.80284250566e-05
0.000214725048835
5.7050791033e-05
0.000218597392839
6.6639682781e-05
0.000223041267863
7.69184359945e-05
0.000228175702833
8.80742556725e-05
0.000234062007996
0.000100181918958
0.000240859362024
0.00011343450287
0.000248649762579
0.000127966115156
0.00025795611948
0.000143518748949
0.000270162453924
0.000159044802803
0.000289162973083
0.000174203292681
0.00031606097121
0.000191920585599
0.000335539909599
4.14629720119e-05
0.000227177497206
9.90721427611e-08
1.01713194198e-05
8.87983388386e-08
8.3860446308e-06
0.000182225912151
1.67352717474e-05
0.000187943558643
2.51420709382e-05
0.000193998392755
3.36934646415e-05
0.000198758054289
4.25329167326e-05
0.000202310858231
5.17619810921e-05
0.000205494966936
6.14890126206e-05
0.000208869547806
7.18461808153e-05
0.000212683406522
8.29803196591e-05
0.000217040751149
9.50412071104e-05
0.000222001143913
0.000108320414646
0.000227584387108
0.000123043525076
0.000233933608483
0.000139462152052
0.000241539248309
0.000157428967145
0.000252202267074
0.000175739241152
0.000270854742389
0.000193132492279
0.000298667846827
0.000213307091489
0.000315498440782
4.40560269585e-05
0.000214632384805
1.76047313245e-07
9.67492551932e-06
2.14245606779e-07
8.86754223194e-06
0.000173358003031
1.77250289395e-05
0.000179085687403
2.66513179208e-05
0.000185071615578
3.57678610728e-05
0.000189640897021
4.51721603224e-05
0.000192905847713
5.49732111979e-05
0.000195693159622
6.52839453033e-05
0.000198558046649
7.62381924043e-05
0.00020172788342
8.79871994207e-05
0.000205289582507
0.000100753478863
0.000209235281046
0.000114833208827
0.000213502926472
0.000130591365256
0.000218175484398
0.000148376445162
0.000223752762947
0.000167930522342
0.000232644852625
0.000187867668109
0.000250920736775
0.000208483118417
0.000278050352597
0.000232186184612
0.000291857503364
4.66682932739e-05
0.000198718948
2.7808988482e-06
7.61232141663e-06
6.88989422541e-07
9.26257269704e-06
0.000164095400424
1.85640002806e-05
0.00016978424807
2.79595921696e-05
0.000175675933689
3.75454518447e-05
0.000180054827553
4.7415792028e-05
0.000183035165004
5.76701779996e-05
0.000185438283876
6.84148971381e-05
0.000187812641174
7.97630087246e-05
0.000190377948869
9.18833504917e-05
0.000193165988733
0.000104975552452
0.000196139482361
0.000119316778866
0.000199161319388
0.000135304632569
0.000202185069803
0.00015322665701
0.000205831161627
0.00017278324085
0.000213085194149
0.000193162195589
0.000230536439202
0.00021511522098
0.000256095368094
0.000240404683008
0.000266280984542
4.65842885333e-05
0.000180124831263
7.5615218698e-06
6.99183192693e-06
9.88958423061e-07
9.63098694237e-06
0.000154464718979
1.92808163004e-05
0.00016013477264
2.90561565971e-05
0.000165900894216
3.90305660602e-05
0.000170080608695
4.92742274849e-05
0.000172791533659
5.98729449657e-05
0.00017483936208
7.09109765318e-05
0.000176774048719
8.24864538205e-05
0.000178800282871
9.4703916493e-05
0.000180944357644
0.000107744116376
0.000183093602921
0.00012177284513
0.000185123535907
0.000137030323643
0.000186925126342
0.00015361697527
0.000189243610724
0.000171405696248
0.000195295207317
0.000191086006812
0.000210855393545
0.000213574486997
0.000233602049966
0.000238485190494
0.000241103460241
4.5056694189e-05
0.000157303990924
1.00407216616e-05
6.56643333936e-06
-4.16033736907e-08
9.92395081208e-06
0.00014454137994
1.98719670821e-05
0.000150187442063
2.99581765625e-05
0.000155815344546
4.0245834073e-05
0.000159793520398
5.07858061241e-05
0.000162251962181
6.16440338324e-05
0.000163981248723
7.28582553207e-05
0.000165559465702
8.45342293888e-05
0.000167121974833
9.67128047379e-05
0.000168760905485
0.00010944896542
0.000170350231219
0.000122822267761
0.00017173872777
0.000136834828868
0.000172909437386
0.000151404362496
0.000174669271704
0.000166986719947
0.000179705266407
0.000185678999627
0.000192154491577
0.000209530369145
0.000209743889991
0.000233953590494
0.000217063706008
4.28658647043e-05
0.000135120071429
5.6421425734e-06
5.5166776489e-06
-1.69825423218e-07
1.01391692938e-05
0.000134403079748
2.03381089068e-05
0.000139989466731
3.06815000328e-05
0.000145472922446
4.12169142371e-05
0.00014925901851
5.19919181055e-05
0.000151477721284
6.30226253603e-05
0.000152951003178
7.4410775191e-05
0.000154171224389
8.61248773158e-05
0.000155405582194
9.8205807731e-05
0.000156674664692
0.000110638927986
0.000157911075288
0.000123298472979
0.000159068612858
0.000136039176964
0.000160161200438
0.000148944524399
0.000161755639446
0.000163188313889
0.000165451455556
0.000182088572034
0.000173244222458
0.00020830391998
0.000183520915238
0.00023904682092
0.000187284756557
4.03446264632e-05
0.000110967069639
3.33128613569e-06
3.90343642072e-06
-2.75465807701e-07
1.02907365732e-05
0.000124113405085
2.06776593147e-05
0.000129603716773
3.12319031515e-05
0.00013491989282
4.19651109308e-05
0.000138527015137
5.29277095726e-05
0.000140516214984
6.41509437637e-05
0.000141728561997
7.5630415456e-05
0.000142691941791
8.73859853385e-05
0.000143647872119
9.94058881946e-05
0.000144649642688
0.00011160990912
0.000145701388253
0.000123856219009
0.000146812121839
0.000136061817906
0.000147947753475
0.000148343583383
0.000149462542493
0.000162251952506
0.000151531653045
0.0001813355268
0.000154149981235
0.000208117186259
0.000156731165898
0.000240271927028
0.000155783367891
3.63533731269e-05
9.14776030212e-05
5.85535527765e-07
3.45167652315e-06
-1.00604528331e-07
1.03881636544e-05
0.000113726420087
2.09015710404e-05
0.000119091605583
3.16112010188e-05
0.00012421164143
4.25340633979e-05
0.000127605567923
5.36583099678e-05
0.000129393305851
6.50118009626e-05
0.000130376125736
7.65993243478e-05
0.000131104628249
8.84200050116e-05
0.000131825377103
0.000100457421785
0.000132607523218
0.000112617643821
0.000133534563
0.000124962504233
0.000134458867175
0.000137352017805
0.000135548748844
0.000149981733999
0.000136820502438
0.000163935264192
0.000137565704744
0.000182199833257
0.000135874071395
0.000206850489617
0.00013207238586
0.000234140736773
0.000128570768808
3.20200540856e-05
7.59742283624e-05
-1.17947215686e-07
3.07056376205e-06
-2.02660351737e-07
1.04198802258e-05
0.000103307750234
2.1018816788e-05
0.000108493993239
3.18478501116e-05
0.000113384045658
4.29043164809e-05
0.000116550611792
5.41721019672e-05
0.000118126974347
6.5660555799e-05
0.000118888819291
7.73679899618e-05
0.000119397486635
8.92884043139e-05
0.000119903264959
0.000101388404735
0.000120502813313
0.000113678698617
0.000121236821461
0.000126139447523
0.000121987803566
0.000138845191099
0.0001228328054
0.000151981276831
0.000123671024765
0.000166468474301
0.000123064586391
0.00018367123031
0.000118659313043
0.000203943558874
0.000111791968056
0.000224608940905
0.000107754365846
2.77505384907e-05
6.31910100757e-05
-7.64263707642e-08
2.54294027054e-06
8.86540013911e-08
1.03943706042e-05
9.29145220526e-05
2.10204844244e-05
9.7869124444e-05
3.19261420632e-05
0.000102479764627
4.30927905015e-05
0.000105385440408
5.44959949288e-05
0.000106725205988
6.61298029666e-05
0.000107256130221
7.79934030844e-05
0.000107534124256
9.00666783098e-05
0.000107828179974
0.000102250911081
0.000108313537008
0.000114630837661
0.000108848822655
0.00012719518177
0.000109412619441
0.000140123699594
0.000109892250243
0.000153397693334
0.000110382490516
0.000167592546134
0.000108854353415
0.000183473429186
0.000102764972316
0.00020040357096
9.4851642605e-05
0.00021585902933
9.20249782865e-05
2.37761928894e-05
5.19381741074e-05
2.78584020869e-08
1.3033691931e-06
-1.24789266322e-07
1.03172000442e-05
8.25982599596e-05
2.09166826057e-05
8.72706877791e-05
3.18529297263e-05
9.15447226285e-05
4.31026709618e-05
9.41370001715e-05
5.46294345779e-05
9.51997011864e-05
6.64248466442e-05
9.54616458708e-05
7.8492080576e-05
9.54670260194e-05
9.07052171714e-05
9.56128524371e-05
0.00010310174141
9.59110299966e-05
0.000115652535071
9.62900253405e-05
0.000128538886259
9.65108892124e-05
0.000141858634566
9.65588309665e-05
0.000155720761869
9.65036724791e-05
0.000169851979237
9.47055833262e-05
0.00018423796798
8.83625776906e-05
0.000196829610226
8.22479906865e-05
0.000207420784124
8.08709612669e-05
2.02753157039e-05
4.46938082005e-05
1.0736859641e-07
7.00407969502e-07
-4.86990634973e-08
1.01834377771e-05
7.24154871488e-05
2.06957926214e-05
7.67591444287e-05
3.16200820773e-05
8.06213607233e-05
4.29142924039e-05
8.28442407451e-05
5.45476256994e-05
8.35674130364e-05
6.64992780763e-05
8.3511084935e-05
7.87979361168e-05
8.31683526252e-05
9.12682090193e-05
8.31402978757e-05
0.000103772464573
8.34029924974e-05
0.000116391266165
8.36623225637e-05
0.000129632329051
8.3255433488e-05
0.000143848216555
8.23303657275e-05
0.000158752223239
8.15819721527e-05
0.000172829209373
8.06109035468e-05
0.000184735899683
7.64396299601e-05
0.000192658912409
7.43123332307e-05
0.000198404676402
7.41529135947e-05
1.74980250576e-05
3.97884750821e-05
-2.64245615726e-07
6.72625682127e-07
-5.22344623836e-08
9.97446968528e-06
6.24414591385e-05
2.03436038665e-05
6.63905741908e-05
3.11804304684e-05