/*--------------------------------*- C++ -*----------------------------------*\
| =========                 |                                                 |
| \\      /  F ield         | OpenFOAM: The Open Source CFD Toolbox           |
|  \\    /   O peration     | Version:  v2012                                 |
|   \\  /    A nd           | Website:  www.openfoam.com                      |
|    \\/     M anipulation  |                                                 |
\*---------------------------------------------------------------------------*/
FoamFile
{
    version     2.0;
    format      ascii;
    class       volVectorField;
    location    "5.1";
    object      ddt0(rho,U);
}
// * * * * * * * * * * * * * * * * * * * * * * * * * * * * * * * * * * * * * //

dimensions      [1 -2 -2 0 0 0 0];


internalField   nonuniform List<vector> 
1984
(
(2.33913015934 -2.31497219594 -1.35038634726e-20)
(2.58491885637 -6.28880230355 -8.45493830891e-20)
(2.6394840644 -10.7715628444 -1.32988149754e-19)
(2.71763930112 -15.3219018741 -1.01776993267e-19)
(2.83979149264 -20.0026216728 4.13336896971e-21)
(3.00114775655 -24.9139407533 1.58650976148e-19)
(3.21050544176 -30.1375527972 2.90022601166e-19)
(3.48323952 -35.7508409362 1.82804529933e-19)
(3.81602007652 -41.8484365007 -4.88568998703e-20)
(4.21490986619 -48.4915077674 -5.41147303052e-19)
(4.65678310124 -55.7308753383 -2.58948209135e-19)
(5.13586775565 -63.6479119526 -3.51694386281e-19)
(5.50865210839 -71.9229904497 -9.43508674067e-19)
(5.24411718721 -77.4040234243 -1.00009966719e-18)
(3.03509471686 -83.3171836593 7.38761319854e-19)
(-9.25879975961 -94.7633621288 2.94242242456e-17)
(-28.046157606 -52.4734753697 1.00950791233e-16)
(-11.8938991414 135.141312974 -5.73259407511e-17)
(13.6776064989 140.909113754 -1.36698672341e-16)
(-0.098322853342 0.111052385247 -2.73978504047e-19)
(6.28692590859 -2.52283270342 -5.68572153807e-20)
(6.57017759743 -6.44141533195 -2.40816521358e-19)
(6.67333885113 -10.8433164322 -1.63781238507e-19)
(6.85507498995 -15.403962242 -7.45804702195e-20)
(7.14001972919 -20.0984521899 -1.78639023917e-19)
(7.5339502917 -25.0163905663 7.2532305123e-20)
(8.05146994081 -30.2376355419 1.0878754098e-19)
(8.69789300276 -35.8621243062 1.20769030517e-19)
(9.48032516405 -41.9898860552 2.48964850801e-19)
(10.3866494152 -48.7147787052 -2.33739320004e-19)
(11.377706412 -56.1114602553 -2.65965731791e-19)
(12.2833328806 -64.4080951949 -5.33698457804e-19)
(12.7550893373 -73.8182126867 -1.17811103216e-18)
(12.09878373 -81.9099947944 -2.29273293508e-18)
(10.2924879306 -93.514387584 -2.83430466191e-18)
(-0.883581943845 -128.243660433 -4.07680222617e-18)
(-31.2332246814 -123.519843284 -1.20707773809e-17)
(-79.1597147815 0.487292238838 -4.78917507695e-17)
(-27.7313397885 129.981208547 1.47236517791e-16)
(0.0843578233368 0.0513208702663 2.73896963423e-19)
(10.6207484658 -2.50782634829 -2.49378726643e-19)
(10.8977702585 -6.29858191706 -4.46110255009e-19)
(11.0970896194 -10.6067880261 -1.50039793656e-19)
(11.4234434756 -15.0647849345 -1.78563491908e-19)
(11.9028248464 -19.6346792047 -6.65018899293e-20)
(12.5535056633 -24.4105855275 -4.89096913993e-20)
(13.3965244525 -29.4661324927 9.49690306909e-20)
(14.4690079535 -34.8933523468 -1.22221835562e-19)
(15.8139073386 -40.8096519065 -1.79766718693e-20)
(17.4519349296 -47.3294362241 -4.83493098134e-21)
(19.3829912969 -54.6052675057 -5.58063080028e-20)
(21.5536958753 -63.0160547649 -5.43345087578e-19)
(23.7196954842 -73.1367977121 -1.05834306112e-18)
(25.5123605201 -83.5902082398 -8.18538778505e-19)
(27.8628724285 -99.3973248823 -1.02006244625e-17)
(22.91565884 -142.098685687 -4.44890235063e-18)
(0.861515200828 -143.290747496 -2.56434129692e-17)
(-49.2380975707 -35.4288307943 -7.07746362031e-17)
(-50.2101709684 116.170091337 2.88816666309e-16)
(0.0291627469784 0.102355883593 4.20620718506e-19)
(14.7977837668 -2.44624011539 7.07665088879e-21)
(15.1785975636 -6.10609994182 -2.80884571487e-19)
(15.4421920764 -10.2871641522 -2.05744539377e-19)
(15.8894520578 -14.5962056048 -1.94299026252e-19)
(16.5338298367 -18.9854027498 -1.36236045256e-19)
(17.407468647 -23.5544275236 -1.08250379437e-19)
(18.547937531 -28.3663439137 -8.4868893811e-20)
(20.0113064199 -33.4950862778 8.44715386316e-20)
(21.8583455825 -39.0553397324 4.60222597676e-21)
(24.1698046593 -45.1887240989 -1.76603905696e-19)
(27.0164877423 -52.0771548951 7.27962472687e-20)
(30.5219824321 -60.1375162847 -5.23039148336e-19)
(34.7700807782 -70.0156907903 -2.23145217196e-19)
(39.9321323252 -81.0559502191 -4.33784270379e-19)
(48.2833051588 -97.4752136 -3.11632819801e-18)
(53.1810267548 -138.435541904 -1.57653789448e-17)
(38.1970582067 -143.853400083 -2.91819507823e-17)
(-26.540936721 -51.7985615873 -4.98728668556e-17)
(-71.7179695137 85.2495296697 4.96748898575e-17)
(-0.0229443578702 -0.126474751281 -6.62802133202e-20)
(18.8290192537 -2.36081421024 -7.71421494438e-21)
(19.2805015688 -5.86950071793 -1.19600616766e-19)
(19.5859682212 -9.88283523266 -1.57648680885e-19)
(20.1240245618 -13.996453673 -1.34384900172e-19)
(20.903000155 -18.1624424803 -1.08039226095e-19)
(21.9530344276 -22.4616701869 -1.04357195478e-19)
(23.331448556 -26.9458293469 -3.76694374766e-20)
(25.1059046086 -31.671209731 -6.39489813795e-21)
(27.3752952174 -36.7256170948 -2.06523378281e-21)
(30.2616009148 -42.2320077984 -7.15236371901e-20)
(33.955859158 -48.3517027326 -8.42797213195e-20)
(38.7158134825 -55.3897249495 -4.4619151927e-19)
(45.0072529 -63.9151563182 -7.22849495606e-19)
(53.5074683805 -73.6952723323 1.23142486752e-19)
(66.8406632456 -87.069481447 4.3483797342e-21)
(78.7571931053 -118.852134598 4.56332924491e-18)
(70.1662700237 -127.01754583 -4.84630336723e-20)
(9.36361623529 -50.1775093218 -6.05508651001e-18)
(-61.96891312 56.6903884024 9.60819867749e-18)
(-0.0269606334637 -0.373281804259 -1.13821180105e-20)
(22.685619605 -2.25034437034 5.89625499614e-20)
(23.1984103048 -5.58601549061 -3.4195648334e-20)
(23.5308207157 -9.40261367625 -8.96398587357e-20)
(24.1305005532 -13.2858294144 -6.6574320716e-20)
(25.0019230755 -17.1882433945 -3.0123485533e-20)
(26.1781048554 -21.1733821387 -4.25975528453e-20)
(27.7157952357 -25.2726201193 -2.00862416063e-20)
(29.6999754447 -29.5146164844 -3.61635300544e-21)
(32.2466334696 -33.9398622042 -8.58893378331e-21)
(35.5194916491 -38.6134354912 -3.37731144783e-20)
(39.7654073835 -43.6240201675 -6.61779082934e-20)
(45.3578707465 -49.0702574059 -2.63210618546e-19)
(52.9288325736 -55.2832449231 -9.98557562779e-19)
(63.5719220587 -62.1571048115 -4.1509165491e-19)
(79.3718378691 -69.847948604 -1.20911895403e-18)
(96.8103422889 -88.0919742501 1.6784868951e-17)
(102.142795005 -100.952433184 5.08366917103e-17)
(50.889722135 -46.6697797641 -1.25959545912e-17)
(-57.822284872 42.2145678965 -5.43793443389e-17)
(-0.0272497002413 -0.282000419157 -2.20441342822e-19)
(26.3420237058 -2.12684906115 2.9528478135e-20)
(26.9102154972 -5.27166835737 -8.40938238813e-20)
(27.2522590245 -8.87035416479 -5.77789071771e-20)
(27.8831684626 -12.502678162 -4.46072909286e-20)
(28.8013975808 -16.1199143825 -6.97075435539e-20)
(30.0390838857 -19.7657283783 -2.410652292e-20)
(31.6511953226 -23.4457211586 -3.60921982335e-20)
(33.7214366609 -27.1647123949 -5.70269968676e-21)
(36.3694804082 -30.9156023453 2.43059190728e-21)
(39.766237233 -34.676698664 1.18447752837e-20)
(44.1656623738 -38.4394022599 -1.02430160751e-19)
(49.9575823565 -42.1262084181 -3.39093468084e-19)
(57.6746520581 -45.6177227913 -1.00735157772e-18)
(68.2619906831 -48.6801500274 -1.33173092355e-18)
(83.9723958394 -50.5438921225 -8.30989050587e-18)
(104.073969883 -54.7773038779 1.15483159755e-17)
(126.903903901 -57.7024916538 3.10038201416e-17)
(82.1874857353 -14.9199038281 3.73216886844e-17)
(-58.4246608326 33.6761059103 -3.50796706758e-17)
(-0.0143515463889 -0.170372002026 -1.50336696916e-19)
(29.7855557807 -1.9955856608 -8.28141455294e-20)
(30.4024778202 -4.94543859793 -1.02053680983e-19)
(30.7352754105 -8.31801319725 -1.79804130466e-19)
(31.367649998 -11.691180981 -7.45775708103e-20)
(32.2895566847 -15.0177705597 -3.72036425039e-20)
(33.5245439319 -18.3214982192 -4.00771681806e-20)
(35.1243440569 -21.5880747318 -1.67290797528e-20)
(37.1570351545 -24.7876298831 -3.02277360316e-21)
(39.7306473808 -27.8766780515 -2.98175844933e-20)
(42.9926747197 -30.7791654355 -7.33671161361e-21)
(47.1564713747 -33.370122129 -1.2046310509e-19)
(52.5271665594 -35.4474449056 -1.41492460493e-19)
(59.5025801821 -36.714647492 -6.68857759114e-19)
(68.5358681451 -36.2216005332 -4.67535059017e-19)
(81.8595682409 -33.4394504744 -7.91315498815e-18)
(100.642240179 -28.7175666861 -6.80186414147e-18)
(126.801598391 -11.8798558439 2.28760608228e-17)
(92.0338551343 23.9382912918 3.15648996177e-17)
(-52.7199689431 27.7879021643 3.82855923721e-18)
(0.025574689991 -0.0147956620004 5.70448839107e-20)
(33.0141541304 -1.86201661085 6.73402857822e-20)
(33.6705593203 -4.62276198499 -7.93696836538e-20)
(33.9771111403 -7.77155705254 -7.55916403096e-20)
(34.5852545292 -10.8894148664 -6.33575765085e-20)
(35.47123041 -13.93878342 -2.78419182291e-20)
(36.6499232354 -16.9198589268 -7.51862618365e-21)
(38.1578521285 -19.8022100496 -8.85318890641e-21)
(40.0484606518 -22.5368390604 -2.02889782333e-20)
(42.3997535113 -25.0446194054 3.66675489685e-21)
(45.3280271842 -27.2112922444 -1.36745495794e-20)
(48.9665275784 -28.8653419584 -1.55408503692e-19)
(53.4982390597 -29.7100477329 -2.1890898859e-19)
(59.1570914725 -29.3881715019 -4.83835204832e-19)
(66.1462521661 -26.9785450393 -6.87705705805e-19)
(75.7438631066 -21.3321093202 -1.13730202557e-18)
(88.9208544016 -14.9244510847 -1.19216311569e-17)
(103.447439416 11.4040497259 3.01487635541e-18)
(78.0000871717 36.8135805086 6.89741033924e-18)
(-40.2178489549 20.9840502426 6.40046814e-18)
(0.0328951482578 0.0750004902213 -7.99075883804e-21)
(36.0359308867 -1.7300888445 1.47336166254e-19)
(36.7112436753 -4.31649722698 1.15326129502e-19)
(36.9912912651 -7.25158250189 -2.11832590859e-20)
(37.552711572 -10.1296738473 1.50348935094e-21)
(38.3712504403 -12.9252169183 5.1597703676e-21)
(39.4500115721 -15.6218271442 9.36702752645e-21)
(40.8070866928 -18.1772838941 4.41855516897e-21)
(42.4745165504 -20.5246525805 1.9749876538e-21)
(44.5054947669 -22.5692803228 -1.66285129953e-20)
(46.963762851 -24.1817189751 -2.07588652996e-21)
(49.9095218294 -25.1704775937 -7.83019497854e-20)
(53.3976173398 -25.2244315696 -8.55765395524e-20)
(57.5106832923 -23.9284326291 -2.82480941424e-19)
(62.3055191814 -20.4740848213 -4.86645796107e-19)
(68.3434827614 -13.6247821699 -7.8410405849e-19)
(73.0110280763 -5.65283839939 -5.04824562872e-18)
(77.2388761629 20.925854638 5.38833019461e-18)
(52.7909524794 35.762081939 6.82408318911e-18)
(-30.1462984223 17.0869743008 1.04894912461e-17)
(-0.00682137246644 0.220979381587 7.15927327754e-20)
(38.860787534 -1.60732849383 2.28122904433e-19)
(39.5476059366 -4.0345880065 1.33941546721e-20)
(39.7930200966 -6.76477947801 1.01373233699e-19)
(40.2924266366 -9.43657822963 -4.5321397431e-21)
(41.0249117162 -12.0109099518 9.26414976689e-21)
(41.9736402426 -14.4695955747 6.22002131902e-21)
(43.1467083697 -16.7668941442 2.03495504928e-21)
(44.5446740016 -18.828432968 7.16238907868e-21)
(46.2021632822 -20.5643930497 5.5114144669e-20)
(48.1339922127 -21.8389672314 1.5641799696e-20)
(50.3259449578 -22.4499171951 -7.15636239835e-20)
(52.7128062176 -22.1141810548 -1.02568556013e-19)
(55.2288194889 -20.4412399506 -2.64805536702e-19)
(57.818618985 -16.8582775491 -6.60287023478e-19)
(60.4727255391 -9.70539974439 1.83921798671e-18)
(58.0844627819 -2.28675371728 -4.70485739147e-18)
(50.2851640481 23.680054641 -4.63335030587e-18)
(23.8983760275 24.224273467 3.61112082576e-18)
(-30.0439000137 14.4176465925 5.57278730244e-18)
(-0.0718877399202 0.338188184367 -5.57436073257e-21)
(41.5065402268 -1.49322773007 6.1271095104e-20)
(42.2080089395 -3.77999730376 6.98415931492e-20)
(42.4011543199 -6.32914854405 -2.90266172294e-20)
(42.8362518859 -8.8205334355 -1.88455767219e-20)
(43.4739444262 -11.2105258668 2.0767187549e-21)
(44.2806777751 -13.4815142402 5.77269971299e-21)
(45.254401773 -15.5979079338 6.03091177224e-21)
(46.3904889314 -17.4849884009 1.43573857441e-20)
(47.6677848534 -19.0423898619 8.53611387657e-20)
(49.0672454905 -20.1639281329 6.08250743144e-20)
(50.5157225556 -20.6745135829 -1.272721922e-19)
(51.8758823841 -20.349550403 -1.68470004226e-20)
(52.9665783824 -18.8966506087 -2.74893452325e-19)
(53.5763186539 -15.9736996682 -7.55053940113e-19)
(53.4544651843 -10.1083462579 -1.64171072666e-18)
(46.4364380641 -5.17600457546 4.37886356805e-18)
(30.5099354558 11.0021991212 2.31778526802e-18)
(2.01448215422 9.92861191113 5.71512426385e-18)
(-34.9517533596 11.2517065802 4.34866646449e-18)
(-0.125763437422 0.326468339665 2.98085688454e-20)
(43.9904005506 -1.38810088412 9.9862947326e-20)
(44.7049708898 -3.55577073967 8.56819938679e-23)
(44.847242845 -5.94555190126 -3.74008365843e-20)
(45.2181189535 -8.28446924624 -1.52785586373e-21)
(45.7579966983 -10.5327800219 2.38520282932e-20)
(46.4367330805 -12.6727144526 2.08500275199e-20)
(47.2241428154 -14.6613466153 1.17349483424e-20)
(48.1119699082 -16.4522669892 2.55301561975e-20)
(49.0359865314 -17.9602953201 1.14062166859e-19)
(49.9608939388 -19.0855893915 6.20816595882e-20)
(50.7778871131 -19.7140465781 -2.74733334782e-20)
(51.2886292669 -19.7005929772 1.06554626612e-19)
(51.2720530646 -18.8806161216 -1.17248696494e-19)
(50.4210775355 -17.1305350083 -2.98725368632e-19)
(48.4361313345 -13.491307321 -1.9901715588e-18)
(40.3415810199 -11.4446737156 -2.54048020502e-18)
(23.0423084451 -4.69772466042 -2.58779714291e-18)
(-6.52280316135 -3.77483452295 1.59037119408e-18)
(-37.5015314467 6.00212969788 1.74916040461e-18)
(-0.166751893221 0.147456205675 3.54115543007e-21)
(46.3310397183 -1.28885806995 2.46438580311e-19)
(47.0574074664 -3.35684351748 1.54232925434e-19)
(47.1536157978 -5.61364334623 1.5050736239e-19)
(47.4696955048 -7.82641580918 8.29291092048e-20)
(47.9280418804 -9.96059642901 4.31617389913e-20)
(48.493893736 -12.0107607844 4.09026984483e-20)
(49.1212360837 -13.9410046794 2.6364879178e-20)
(49.7859311048 -15.7116649385 1.85730425283e-21)
(50.4358648946 -17.2531640371 5.34993170774e-20)
(50.981939602 -18.4962553809 1.18187731205e-20)
(51.3135083517 -19.4074255875 -1.20635448977e-19)
(51.2350073071 -19.8945269735 -6.02949301178e-22)
(50.4809092783 -19.8842532733 -3.12695347703e-19)
(48.7765664084 -19.4588163524 -7.57476757388e-19)
(45.8593646233 -18.2367625593 1.90806336063e-19)
(38.4780307711 -18.7884502078 -7.2866381177e-18)
(25.1375970828 -15.5812003748 -3.68052211183e-18)
(0.700037846265 -11.6573408397 -5.29111824192e-18)
(-35.5231144406 1.73831697334 2.1046079707e-19)
(-0.195671115811 -0.024787237443 -7.54086795588e-21)
(48.5472920005 -1.19575270472 2.93452027672e-19)
(49.2777271395 -3.17832926521 2.66124257965e-19)
(49.3489842094 -5.32154599847 2.34189717833e-19)
(49.6226760298 -7.42973202733 1.22122634308e-19)
(50.0188411097 -9.48671658674 4.0738209386e-20)
(50.4879610379 -11.4847181478 1.54522932079e-20)
(51.0015510428 -13.3915034312 2.69299852971e-20)
(51.5036301939 -15.1782291892 -3.3415288714e-20)
(51.9519927732 -16.8271245595 -1.63576477484e-20)
(52.2380771712 -18.2943972737 -3.06158761499e-20)
(52.2439711559 -19.5525607605 -1.16743578306e-19)
(51.8303240619 -20.6101323737 3.32685215529e-20)
(50.7156511134 -21.4555303397 -1.88401071416e-19)
(48.6929048682 -22.2705053051 -1.26787920779e-19)
(45.6177284178 -22.9970361221 4.60982498142e-19)
(39.4864083426 -25.2764751122 -2.75188439345e-18)
(30.3340229864 -22.5016554773 -3.88886182292e-18)
(14.4105359306 -13.2437889543 3.35485296444e-19)
(-29.5429870517 -0.908580247745 -1.4019836884e-18)
(-0.208081639961 -0.114870272641 -2.60236457633e-20)
(50.6524637807 -1.11514021557 2.12075931162e-19)
(51.3914783135 -3.01911356228 1.16625431203e-19)
(51.4497304808 -5.05936537982 1.27372661821e-19)
(51.6941229163 -7.08390809246 6.64447243136e-20)
(52.0523687529 -9.07615243811 2.18163113964e-20)
(52.4644712196 -11.0304862789 1.40123359315e-20)
(52.9006511573 -12.9412951588 -1.52420604619e-20)
(53.3065400588 -14.7955280222 -1.31389820663e-20)
(53.6204268481 -16.5893271041 -2.18175440762e-20)
(53.7803215515 -18.3187562734 4.74021757493e-20)
(53.6562650233 -19.9398237513 -4.96128899114e-20)
(53.0986809156 -21.5334647878 -3.2588596557e-20)
(51.9147301189 -23.1619055711 -7.50386448761e-20)
(49.93148127 -25.0090188541 2.96916187333e-19)
(47.0749067201 -27.066123776 2.53653744586e-18)
(42.1000619564 -30.4540892706 2.52594882738e-18)
(34.947618888 -28.167020852 1.81592462085e-18)
(25.4526205541 -15.9026510355 3.53325531712e-18)
(-19.8788509464 -1.82879153313 -3.17086238622e-19)
(-0.151665459842 -0.162889612203 1.20963833826e-20)
(52.6569663369 -1.03402510746 -7.65692084936e-20)
(53.4082381391 -2.86578992131 -9.84809378028e-20)
(53.4523943545 -4.8050646208 -7.15029378339e-20)
(53.6940575891 -6.73637358691 -3.73565254419e-20)
(54.0393231037 -8.6604243569 -2.10108102268e-20)
(54.4319001327 -10.5919984127 2.30811122935e-20)
(54.8334590577 -12.5288420048 4.17969282069e-20)
(55.2126939006 -14.4663244523 -1.42515999504e-20)
(55.5097496134 -16.393587263 1.24264345335e-20)
(55.6488306699 -18.346101451 2.22799904084e-20)
(55.5312221451 -20.3590500985 -3.61926704731e-20)
(55.0113941806 -22.4746783853 2.64661733346e-20)
(53.9509325534 -24.7807902218 -1.05448562486e-19)
(52.2619020299 -27.5448365313 -1.366585491e-19)
(49.99151921 -30.7745195812 2.19608998251e-19)
(45.4694803857 -35.802426949 3.39637482459e-18)
(38.5906313554 -34.443934204 8.56964690198e-18)
(32.2724475379 -19.6727881375 6.31991313474e-18)
(-8.15764854395 -1.77256039963 -9.43266796466e-20)
(-0.244784896191 -0.212065865275 5.35969743617e-20)
(54.5529948412 -0.957333668769 -2.47145824468e-19)
(55.3162214172 -2.70825515242 -2.35826927582e-19)
(55.3604015107 -4.54051551172 -1.66134943486e-19)
(55.6164528057 -6.38244684539 -9.14736507967e-20)
(55.9767659438 -8.24674011991 -5.80077273668e-21)
(56.392947336 -10.136907662 3.38812792872e-20)
(56.8181841063 -12.0757347644 2.89173363768e-20)
(57.2327531597 -14.0765729736 2.8664207989e-20)
(57.5788152576 -16.150541429 9.2659272567e-21)
(57.7914175618 -18.3273700161 3.32674659541e-20)
(57.7935756702 -20.6526226561 -6.04412431521e-21)
(57.4915651679 -23.208331226 1.01594822274e-20)
(56.7057600304 -26.0462932942 4.92128721242e-20)
(55.3840961135 -29.4492274367 4.50432011848e-19)
(53.5548674249 -34.55914364 1.24122019243e-18)
(51.0086628263 -41.520430017 2.32176576725e-18)
(45.6680524399 -41.94744767 3.97194764066e-18)
(37.8419290077 -24.7252962239 5.75275382996e-18)
(-1.94426082747 -2.33974788462 -9.4715673845e-19)
(-0.243962893589 -0.155428081695 1.19777487559e-20)
(56.3666721197 -0.879587871719 -1.07709851647e-19)
(57.1164763619 -2.53469084055 -1.44139579112e-19)
(57.1706118554 -4.26057357377 -9.56446894758e-20)
(57.4481967745 -6.01194847703 -5.21359438586e-20)
(57.8504920416 -7.8017410782 -6.08019610172e-21)
(58.3209420647 -9.659554003 2.47893978607e-21)
(58.8224108636 -11.6063351354 -1.70131059541e-21)
(59.3166257717 -13.6475769885 2.68254272863e-21)
(59.7719424868 -15.7936186446 6.40643854901e-21)
(60.1361414696 -18.0941495385 3.15866775309e-20)
(60.3784483844 -20.6143809026 3.91040944513e-20)
(60.4111659581 -23.5015010599 -9.54113681845e-21)
(60.1494555229 -26.8463654365 -1.47688823008e-19)
(59.482863155 -30.9320877074 3.59363233963e-19)
(58.4253164512 -36.0903912775 1.8311456494e-18)
(58.4004841084 -43.9182755894 -4.92375989202e-18)
(56.2197647685 -46.6087798059 -4.60290831432e-18)
(42.6202523528 -27.1366964255 1.0024132748e-18)
(-0.760382547185 -2.24125899287 3.21210539732e-18)
(-0.0844651283935 -0.166309755315 7.19072830406e-20)
(57.9959335614 -0.74489242534 2.70252861661e-20)
(58.7956821849 -2.35837249005 4.39903079722e-20)
(58.8730036006 -3.96580617888 7.17830003113e-20)
(59.1845142752 -5.62528178151 2.13421703712e-20)
(59.6481581055 -7.3559746836 3.66755069379e-20)
(60.1998820578 -9.16657367628 7.45711244382e-21)
(60.8035941626 -11.0842699422 -8.42861813155e-22)
(61.4231599662 -13.1151423474 -5.82081836143e-22)
(62.0457007989 -15.2882374624 -2.38509895882e-20)
(62.6337353902 -17.6339285222 -1.45947937331e-20)
(63.1744445613 -20.2443714081 -1.28023928814e-20)
(63.6588957575 -23.2508210055 -6.16779688847e-20)
(64.0841420627 -26.7571937409 -2.67550537353e-19)
(64.3888907287 -31.0591676806 -1.02065870912e-18)
(64.7943822873 -36.1425184689 -4.66061029384e-19)
(65.7060431266 -44.1697477721 -9.23014669832e-18)
(66.5525612691 -48.2005753525 -3.75173443931e-18)
(46.7557385904 -27.7782271984 -3.20842477104e-18)
(-1.17576422562 -2.75060884356 -3.93713770119e-19)
(0.0459953180135 0.0687290907552 2.6180488368e-19)
(59.5257160627 -0.736819238312 3.69715483632e-19)
(60.317384922 -2.18517882011 1.58681629954e-19)
(60.4362634187 -3.673786268 9.35883137677e-20)
(60.8084356482 -5.22377575905 3.74319825879e-20)
(61.3512771932 -6.86205242733 -2.64982714985e-21)
(62.0045435637 -8.59934863808 -5.07686207714e-21)
(62.7273263314 -10.4416915801 1.65472675411e-21)
(63.5065696907 -12.4135511925 -1.20590758483e-20)
(64.3304856342 -14.5531733563 -2.64471494781e-20)
(65.1927588674 -16.9037164707 -1.9789534392e-20)
(66.0866572406 -19.4835666844 -4.22776900884e-20)
(67.0444853475 -22.4212224846 -2.39244415039e-20)
(68.1226732799 -25.8754326021 -1.97769188138e-19)
(69.3326107006 -29.8887948529 -2.33511162013e-19)
(70.9591216295 -34.6516244066 3.50825691882e-19)
(73.1580759802 -42.2984374818 -3.45071040155e-18)
(77.6588626034 -47.8871859168 -3.6582283895e-18)
(55.0540819861 -27.548059702 -4.6741402832e-18)
(-0.197514270388 -3.00075525137 2.5933033124e-19)
(-0.506660564324 0.113805837395 4.46746794151e-20)
(60.9121200613 -0.631779963835 2.0645113612e-19)
(61.7044702968 -1.98651345829 8.50109865937e-20)
(61.857638099 -3.33407502454 3.5840162785e-21)
(62.3054907013 -4.75179263728 -2.61003467626e-21)
(62.9406754711 -6.25852719427 -5.35951295566e-21)
(63.6990073199 -7.8766644148 -1.00801241316e-20)
(64.5659834281 -9.62615992053 -1.93409967135e-21)
(65.527451072 -11.5104416859 -3.53006738062e-21)
(66.5760790968 -13.5719846659 -1.4801992491e-20)
(67.7245278388 -15.8314635445 -2.4333509483e-20)
(68.9953971396 -18.3222985131 1.12408406932e-20)
(70.4077547523 -21.0841336494 -2.14858187611e-19)
(72.0600366106 -24.2263887868 -8.44463247277e-20)
(73.9989138871 -27.7342406771 -3.92552624614e-19)
(76.3548370929 -31.8985463297 -5.93706090131e-19)
(79.8655819508 -37.7968201152 -2.52739622527e-18)
(86.8503881323 -42.7790174149 -6.33760236861e-19)
(65.5095399182 -21.5982358582 -1.05766858235e-20)
(-0.319220428051 -1.84923772985 -5.47898568908e-19)
(-1.04224337918 0.640435561645 -2.9437100511e-19)
(62.0948175909 -0.513245153769 4.74386380985e-20)
(62.9197127501 -1.72548657667 -5.58286815147e-20)
(63.113220921 -2.91726639353 -7.70832078512e-20)
(63.6361648089 -4.17034648609 -3.99300059927e-20)
(64.3744829801 -5.52937667278 -5.23696097559e-21)
(65.258027322 -7.01426340468 7.81379181513e-21)
(66.2827040888 -8.6399538952 1.93376461321e-21)
(67.4433948606 -10.4171135853 -1.03284562061e-20)
(68.7340238452 -12.3488746951 4.3636305537e-21)
(70.1841435896 -14.4486025153 -4.15702495157e-20)
(71.8109706326 -16.7369929433 -1.59392781334e-20)
(73.7004045417 -19.2504359019 -1.95214625943e-19)
(75.8484686595 -22.0641624018 -1.36241771096e-19)
(78.3592849371 -25.1041622944 -8.47958917229e-19)
(81.1681481258 -28.4894483684 -1.92921466682e-18)
(84.7704017747 -33.2689194837 -2.36464508077e-18)
(91.808906623 -37.0788325055 5.21733000897e-18)
(85.0291047736 -16.600996315 -1.460168403e-18)
(6.66261187385 -0.115812874456 -8.78535583729e-18)
(-2.7295434025 1.83930737274 -1.51176276162e-19)
(63.0902404305 -0.393756436039 -5.47630141568e-20)
(63.9294295853 -1.42990151879 -7.49982449853e-20)
(64.1666977172 -2.43545272636 -5.03435943507e-20)
(64.7657245549 -3.50281698065 -2.77508209287e-20)
(65.6056326546 -4.68767775145 2.88472760198e-22)
(66.6362624568 -6.00825159803 5.44511774212e-21)
(67.8354019721 -7.47386097378 1.05243108484e-20)
(69.2065195664 -9.08766166833 1.75778342387e-20)
(70.7646135171 -10.8429196397 -4.78072309875e-21)
(72.5372616645 -12.7383871813 1.41402243194e-20)
(74.5693549237 -14.7460831892 -1.11615319304e-19)
(76.9078456456 -16.9486470896 -1.34064020232e-19)
(79.5928967655 -19.4004956305 -4.54360970525e-20)
(82.6733995019 -21.9992641058 -7.78507758907e-19)
(85.9056950523 -24.8533337517 1.58184870563e-18)
(88.9087886767 -28.5516419778 -5.61259127758e-18)
(92.559976044 -27.9447418194 -1.06622934908e-18)
(96.2028883214 -10.7869792533 2.1264045779e-18)
(10.9397096112 1.14606143122 -8.57782016859e-19)
(-2.12798183636 0.475138854286 -6.54386388732e-19)
(63.8675441508 -0.270033976425 -4.20316921084e-20)
(64.7143735042 -1.10452638224 -6.31130091061e-20)
(64.9964534225 -1.89747626433 2.04555774861e-20)
(65.6692266179 -2.75098513087 -4.419433515e-21)
(66.6157732348 -3.72442570281 1.98778106953e-20)
(67.7898958433 -4.82951955819 8.97578267321e-21)
(69.1732005608 -6.0735251688 1.83619373971e-20)
(70.7754013547 -7.45890141813 3.93337204286e-21)
(72.6176694818 -8.97945027894 5.58067369612e-21)
(74.7325321553 -10.6014590064 -1.77710398855e-20)
(77.1913242877 -12.3120739507 2.59598475268e-20)
(79.98680574 -14.1452931025 -5.10492545946e-20)
(83.2420778143 -16.1642348163 -6.77862966869e-20)
(86.928866124 -18.4105979352 -8.94674067084e-19)
(90.7884988708 -21.1781796907 1.67039988159e-20)
(93.9248706646 -25.643105182 -1.32107712749e-18)
(95.5566696892 -27.2335863394 2.84742477727e-18)
(96.6828380865 -12.3938812984 6.85978571089e-18)
(10.314144647 1.21168835387 -3.64141043243e-18)
(-0.258873145472 -0.0405449035269 -2.83770812051e-19)
(64.4041268923 -0.137566068563 -2.51338009812e-21)
(65.2486009808 -0.748538765517 -8.37578408907e-21)
(65.5685667622 -1.30521558661 1.95266118915e-20)
(66.3076964315 -1.91459704155 3.50755582741e-20)
(67.3520141957 -2.6427174209 1.51327516086e-20)
(68.6507263614 -3.49592464628 2.38261832407e-21)
(70.2149705744 -4.48045615877 1.76052057376e-21)
(72.0629928395 -5.58759589658 -5.22277761205e-21)
(74.2126514965 -6.80600232566 -8.12284868949e-21)
(76.7079391186 -8.08262542338 -1.40278451107e-20)
(79.6092547247 -9.41199366765 -6.77211043987e-21)
(82.9456814433 -10.8111949257 -3.54669574058e-20)
(86.7643959544 -12.3292129649 7.93180563045e-21)
(91.1406897348 -14.1108981134 -8.05297309143e-20)
(95.9110743832 -16.6228695915 -3.07439825329e-19)
(100.572256181 -21.4526517647 -1.38159761525e-18)
(105.837501594 -22.6210453794 5.61504810503e-18)
(105.686539005 -7.02179951464 3.53237374477e-18)
(15.3203997411 -0.722677595044 2.24460545934e-18)
(1.55559337759 -1.34319759833 3.47188941793e-19)
(64.6990481144 0.00411547538947 2.89332581848e-20)
(65.536435747 -0.364999641214 -3.25227707711e-20)
(65.8937267218 -0.663726410165 -1.67037244579e-21)
(66.6972764209 -1.0013876365 1.16592437049e-20)
(67.8340666679 -1.45375934723 1.09381262731e-20)
(69.257911438 -2.01656278486 5.3635644309e-22)
(70.9877120919 -2.6903481342 7.35015381082e-21)
(73.0462921843 -3.46662420435 -5.13950856599e-21)
(75.4589249364 -4.30400371317 -1.03682012512e-20)
(78.2663204166 -5.15309556198 -1.51480516347e-20)
(81.5134012375 -6.01060837386 -3.17893824502e-20)
(85.2872719179 -6.93142096764 -9.20147906209e-20)
(89.5684549588 -7.90687224012 -1.9746543892e-20)
(94.4602889167 -9.03115385149 5.84797705613e-20)
(100.000971175 -10.5764223756 -3.42952856478e-19)
(106.301419875 -13.7871872486 2.59316729207e-18)
(116.61506484 -10.2756013003 -2.0410484542e-18)
(116.004013985 6.38047701486 1.99414718653e-18)
(18.7535252486 3.5983282624 1.93667538255e-17)
(2.19336377058 0.645365163737 2.5090518804e-18)
(64.7413347902 0.155424711906 3.58965544375e-20)
(65.5736404291 0.0507434653131 -6.60618682246e-20)
(65.97246329 0.0326044094817 -6.65062236192e-20)
(66.8423563772 -0.0111770590714 -3.31783582092e-20)
(68.067397118 -0.158419907858 -1.22215856011e-20)
(69.610144861 -0.402399270527 7.53500151978e-21)
(71.4810786857 -0.743568063488 -2.35772230149e-21)
(73.7059623821 -1.15659215739 -4.31847238831e-21)
(76.3273345445 -1.57899167014 2.17484474222e-20)
(79.3612059998 -1.96133065794 2.17842266088e-20)
(82.7973188062 -2.31051280348 -1.60706878201e-20)
(86.7465775907 -2.70373161478 -2.6143597899e-20)
(91.2374769591 -3.11714628801 5.37951695544e-20)
(96.2663335615 -3.42902929069 4.22157174787e-19)
(101.886259949 -3.52348838956 2.04086008819e-18)
(108.109538998 -3.72168055042 4.73984178439e-18)
(119.091167063 6.87892327598 -1.98023604228e-17)
(119.624314388 27.0812162335 -8.41805864264e-18)
(19.3149241391 5.3599230867 -1.11976471285e-17)
(3.26946118008 1.16490491595 4.05683570986e-20)
(64.5006479305 0.309192226549 -1.13101269644e-20)
(65.3233418333 0.490988793274 -7.90951353217e-20)
(65.7618286578 0.776648349702 -6.74279754248e-20)
(66.6913657124 1.04920581179 -2.35114642159e-20)
(67.9926866891 1.23025674347 -1.94856250051e-20)
(69.6289748418 1.33442006481 -8.68901143476e-21)
(71.6141174232 1.36417826227 -2.51295872898e-21)
(73.9792088581 1.3503045171 -1.34046141538e-21)
(76.7585513706 1.34699815526 3.14269603035e-20)
(79.9617392347 1.37082787169 3.16450102006e-20)
(83.546374284 1.46702256996 -6.55761876791e-21)
(87.5646122267 1.59026333748 6.70623238054e-20)
(92.0436347414 1.7582818799 2.07424013936e-19)
(96.8726370369 2.15588373754 7.93643256364e-19)
(101.823107186 3.07637096314 3.71867749467e-19)
(106.606660501 4.51634021326 8.61868373039e-19)
(115.096844073 18.1485234741 2.29901921144e-18)
(116.827453538 41.0802856404 -2.90338019451e-18)
(14.5296515399 6.82731968418 -5.69616133986e-18)
(2.08445110873 1.54281932723 -6.08604395152e-19)
(63.9647477303 0.469802663256 -5.62311447931e-20)
(64.7755467845 0.953018048105 -1.28123754894e-19)
(65.2470924148 1.56209219896 -4.85279982824e-20)
(66.2210595679 2.16746818842 1.78739271714e-20)
(67.5851673696 2.694792886 4.96721651218e-22)
(69.29734165 3.16596734665 1.92649516411e-20)
(71.3714780538 3.58409933514 -4.66165247803e-21)
(73.8388552771 3.97666978918 -4.92365189612e-20)
(76.7195853834 4.38476584829 2.42789916908e-20)
(80.0094779572 4.8146259216 8.62525133696e-20)