/*--------------------------------*- C++ -*----------------------------------*\
| =========                 |                                                 |
| \\      /  F ield         | OpenFOAM: The Open Source CFD Toolbox           |
|  \\    /   O peration     | Version:  v2012                                 |
|   \\  /    A nd           | Website:  www.openfoam.com                      |
|    \\/     M anipulation  |                                                 |
\*---------------------------------------------------------------------------*/
FoamFile
{
    version     2.0;
    format      ascii;
    class       surfaceVectorField;
    location    "5.1";
    object      Uf;
}
// * * * * * * * * * * * * * * * * * * * * * * * * * * * * * * * * * * * * * //

dimensions      [0 1 -1 0 0 0 0];


internalField   nonuniform List<vector> 
3840
(
(0.00188114444979 -0.00377576332726 6.7077392458e-22)
(0.0037758111221 -0.00187327263744 7.87426215409e-22)
(0.00203955001928 -0.00775276917546 5.4489477501e-22)
(0.00397706260356 -0.00584895251239 8.65031485615e-22)
(0.00214730621872 -0.0119373541931 7.05659658114e-23)
(0.00418464395142 -0.00991101966773 4.57695010224e-22)
(0.00222107368591 -0.0162777732903 -4.65912739738e-22)
(0.00434047168189 -0.0141577858801 -1.89757893797e-22)
(0.00230330510185 -0.020781484026 -7.12258125755e-22)
(0.00450373454323 -0.0185642204087 -6.00340313337e-22)
(0.00241351084272 -0.0254937015486 -6.07766619996e-22)
(0.00471211592285 -0.0231656186614 -7.1406488628e-22)
(0.00256057099671 -0.0304974809763 -2.60937885186e-22)
(0.00500348088635 -0.028013727966 -4.65245231886e-22)
(0.0027564763553 -0.0358565794052 1.86347517862e-22)
(0.00535867357174 -0.0331747422324 -7.70574009712e-23)
(0.00300884264671 -0.0416592900862 3.55171182184e-22)
(0.00580189168705 -0.0387276897272 2.39359497482e-22)
(0.00332401985356 -0.0480018938933 2.41619261455e-22)
(0.00634194797917 -0.0447620804972 2.53022425001e-22)
(0.00370459957274 -0.0549744689789 3.9612348754e-23)
(0.00697181943232 -0.0513774369862 6.44977312036e-23)
(0.00416983134041 -0.0627668319137 -2.02878598983e-22)
(0.00779151659121 -0.0587149361486 -1.11834108906e-22)
(0.00473137413367 -0.0715327455666 -8.40632964352e-22)
(0.0087650488299 -0.0669479092341 -3.46263560223e-22)
(0.00551150271338 -0.0814252005424 -1.7036386963e-21)
(0.00989165887332 -0.0759965982555 -1.46181359314e-21)
(0.00653522612375 -0.0928354623417 -8.5400586932e-22)
(0.011409613083 -0.086272116986 -2.87491366597e-21)
(0.00664800461212 -0.106224995522 7.07821673514e-21)
(0.013389097087 -0.101581329095 -3.97665921012e-21)
(0.00767733507136 -0.118358810916 3.19575565801e-20)
(0.0121336361962 -0.114479144429 2.22740846853e-21)
(0.0205686530608 -0.132948285613 1.01843457432e-19)
(0.014589438923 -0.112000831606 1.51507939654e-20)
(0.0384176989246 -0.166835517567 1.04263322459e-19)
(0.0338850853562 -0.145563013198 2.1386745765e-20)
(0.0232522088546 -0.170170652267 -1.31953720253e-20)
(0.00587045006234 -0.00391133813818 9.81683776443e-22)
(0.0076872055786 -0.00196847462488 1.142723301e-21)
(0.00614742775352 -0.00794305667576 7.77831720828e-22)
(0.00800884493856 -0.00596598278398 1.14519276848e-21)
(0.00640190824018 -0.0120794386853 1.97371150615e-22)
(0.00832109082044 -0.0099972387816 6.87786963872e-22)
(0.00664901709618 -0.0163714166529 -3.24185467396e-22)
(0.008632500584 -0.0141887994581 3.702639625e-24)
(0.00693846179012 -0.0208525652968 -6.02147073862e-22)
(0.00898489258861 -0.0185409880608 -4.16615519901e-22)
(0.00730645744854 -0.0255584941383 -5.7154349817e-22)
(0.00941793147421 -0.0230959339349 -5.74428279449e-22)
(0.00777508129539 -0.0305287127778 -2.81364747671e-22)
(0.00997340955558 -0.0278925206962 -3.92148997892e-22)
(0.00836329455202 -0.0358515730685 -2.40454213513e-23)
(0.0106808820817 -0.0329822739313 -1.18352150223e-22)
(0.00908728996102 -0.0415995032797 1.37210740299e-22)
(0.011548970479 -0.0384416490599 2.86726168534e-23)
(0.00997154548629 -0.0478610158389 7.59008947502e-23)
(0.0126025592612 -0.0443597732128 1.02613635939e-22)
(0.0110449018655 -0.0547706492661 -8.69487264562e-23)
(0.0138805567949 -0.0508289732606 -9.40486405675e-23)
(0.0123355050428 -0.0624478460781 -2.55219070146e-22)
(0.0154677886429 -0.0579727119202 -1.6634174156e-22)
(0.0139107499896 -0.0710707876835 -9.67444189012e-22)
(0.0173870734019 -0.0659782990652 -4.72272299292e-22)
(0.0159944171541 -0.0808914186536 -2.63308856281e-21)
(0.0197114525646 -0.0748463511884 -1.63636208098e-21)
(0.0189465216882 -0.0923050644901 -5.99756700676e-21)
(0.0228225719548 -0.0849775633869 -3.02256983106e-21)
(0.0212329312436 -0.105924313415 -8.82746747672e-21)
(0.0270078854109 -0.100526289639 -8.47077936103e-21)
(0.0230766587254 -0.122417277796 -1.45793541462e-20)
(0.0286264028413 -0.114610493395 -9.14587313232e-21)
(0.0290291994656 -0.138274027786 -6.53059177013e-20)
(0.0304461320621 -0.108789166759 -3.99321194033e-20)
(0.024467520339 -0.146333521608 -9.60719487198e-20)
(0.0419473428701 -0.144384907084 -1.76195416194e-19)
(0.0274731348337 -0.149128343777 -1.30375399712e-19)
(0.00982694289715 -0.00397730443314 1.30623229303e-21)
(0.011664572754 -0.00197059227897 1.32886714315e-21)
(0.0101741969258 -0.007966504292 1.05514801152e-21)
(0.0119981171819 -0.0059355233066 1.32237870819e-21)
(0.0105493768054 -0.0120568161196 4.94118452882e-22)
(0.0124114767612 -0.00990756389363 9.17780525253e-22)
(0.0109572458118 -0.0162874673349 -8.87274128797e-23)
(0.0128632124775 -0.0140158338244 2.66355023425e-22)
(0.0114431918445 -0.0206897341178 -3.88896725488e-22)
(0.0133871731575 -0.0182742569806 -1.73341846015e-22)
(0.0120578630195 -0.0253159653685 -3.95033779172e-22)
(0.0140440604653 -0.0227196947263 -3.13867646129e-22)
(0.0128356408558 -0.0301949185865 -2.29136400443e-22)
(0.0148520221451 -0.0273889920907 -2.43274539628e-22)
(0.0138004463663 -0.0353905200024 -6.56341120182e-23)
(0.0158759814238 -0.0323282789855 -7.90871060933e-23)
(0.0149781337532 -0.0409825347256 -5.92448750648e-24)
(0.0171396417112 -0.0375987820592 -1.63501443571e-24)
(0.0164080028299 -0.0470517995673 -6.73358993786e-23)
(0.0186709004666 -0.0432809440007 -2.7504738537e-23)
(0.0181634339683 -0.0537078088942 -1.73441655671e-22)
(0.0205355636017 -0.0494560204814 -9.99413023572e-23)
(0.0203324781454 -0.0610789725154 -3.83394970706e-22)
(0.0228379562469 -0.056233211121 -1.93516431301e-22)
(0.0229884957778 -0.0693738551144 -1.14119019126e-21)
(0.025680989561 -0.0637964832909 -4.71877642883e-22)
(0.0264084729552 -0.0788410049214 -2.02584334923e-21)
(0.029177719484 -0.072176798214 -1.32891013959e-21)
(0.0310586883309 -0.0899651577499 -5.49578218533e-21)
(0.0339460004757 -0.0817169499579 -1.63589186939e-21)
(0.0351067971221 -0.103329157021 -8.78918501664e-21)
(0.0403713995247 -0.0962060883913 -5.49615735357e-21)
(0.0369083812457 -0.11903601384 -3.44986383894e-20)
(0.0443330578748 -0.109463909222 -9.13608915679e-21)
(0.0420076710496 -0.133363233681 -1.50821617896e-19)
(0.0447733049595 -0.101746758155 -4.18941447449e-20)
(0.0381448087143 -0.143130817951 -2.10498867187e-19)
(0.0517164191123 -0.134060420208 -1.56711317442e-19)
(0.0326840581647 -0.143009302643 -1.18370202433e-19)
(0.0137767258661 -0.0039024438175 1.34501355832e-21)
(0.0155670861633 -0.0019044565165 1.23067908218e-21)
(0.0141730998809 -0.00781602592459 1.18501122192e-21)
(0.0159117807972 -0.00576924610667 1.26797092132e-21)
(0.0146587861625 -0.0118156366067 6.90017095796e-22)
(0.0164111723176 -0.00963224521955 9.95165965541e-22)
(0.0152176912277 -0.0159394347415 1.81740590291e-22)
(0.0169870815379 -0.0136174103424 4.4687411298e-22)
(0.0158900859962 -0.0202215820126 -9.83127666547e-23)
(0.0176693397575 -0.0177356965039 6.11020726174e-23)
(0.0167288911488 -0.0246889460497 -1.62108406585e-22)
(0.0185113506563 -0.0220169056308 -8.6532568176e-23)
(0.0177777560221 -0.0293972652189 -9.32252452783e-23)
(0.019560068782 -0.0264935287644 -9.11250451409e-23)
(0.0190744888658 -0.0343817740573 -1.50880085107e-23)
(0.0208597970585 -0.0312064466944 -1.9472692505e-23)
(0.0206607174445 -0.039702440797 -2.32152654663e-23)
(0.022459178323 -0.0361996783974 3.99754144916e-24)
(0.0225885303856 -0.0454480220235 -6.01101415156e-23)
(0.0244147014086 -0.0415347965566 -2.80518593192e-23)
(0.0249428826655 -0.0517037197484 -1.20016077987e-22)
(0.0267901844559 -0.0472819023739 -6.07079612621e-23)
(0.0278566754413 -0.0585622421124 -2.81999103478e-22)
(0.0296954422992 -0.0535219927038 -1.65653464016e-22)
(0.0314831482066 -0.0661980471093 -6.59597591213e-22)
(0.0333158027319 -0.0603862679956 -5.01693317223e-22)
(0.0361778976285 -0.074910742929 -9.38958659752e-22)
(0.0378895154412 -0.0678890483565 -1.22327137074e-21)
(0.0425756685311 -0.0849432970439 -1.63626703763e-21)
(0.0439778191983 -0.0761604161789 -1.29916835104e-21)
(0.0486557557692 -0.0967698324904 -5.84306149372e-21)
(0.0521974505658 -0.0879300159466 -2.35986491647e-21)
(0.050466592435 -0.110157073271 -1.65315955123e-20)
(0.0577201121706 -0.0988359955173 -5.265527483e-21)
(0.0533322117288 -0.119846570644 -4.77838442909e-20)
(0.0544627210664 -0.0907686615907 -1.69652712478e-20)
(0.0473460464478 -0.126750172724 -6.45826526887e-20)
(0.0586188506552 -0.117110756061 -4.93919801543e-20)
(0.0432290278241 -0.136496405987 -3.77643771763e-20)
(0.0176183152049 -0.00374739953399 1.15363644519e-21)
(0.019314563539 -0.00180686081075 1.03484473698e-21)
(0.01806620658 -0.00752713932401 1.07812566494e-21)
(0.0196916127754 -0.00551684524247 1.10282657473e-21)
(0.0186511566603 -0.0113877957765 7.52022982725e-22)
(0.0202719255085 -0.00922003069993 9.45318120275e-22)
(0.019341856335 -0.0153580351954 3.26235595307e-22)
(0.0209574028654 -0.0130395557505 4.97628896702e-22)
(0.0201786977681 -0.0194621436872 7.28822710961e-23)
(0.0217734732977 -0.0169719487859 1.68956663073e-22)
(0.0212146974195 -0.0237299628052 -1.55492067319e-23)
(0.0227790896104 -0.0210418323655 2.62935350963e-23)
(0.0224974268206 -0.028196727281 -1.73724923677e-23)
(0.0240266040697 -0.0252743267796 -1.1646790844e-23)
(0.024075046318 -0.0328986277657 -3.87142545125e-25)
(0.025561170402 -0.0297024946328 -2.2352998605e-24)
(0.026003279845 -0.0378775353762 -8.39052403758e-25)
(0.0274370274907 -0.0343582549642 4.25493226801e-25)
(0.0283473533796 -0.0431872328311 -2.86496790657e-23)
(0.0297228332557 -0.0392780259393 -3.99380533953e-24)
(0.0311975598341 -0.0488910566298 -1.06345347291e-22)
(0.0324922096766 -0.0445057555922 -5.22776241553e-23)
(0.0347046878432 -0.055061189482 -3.85347677761e-22)
(0.0358645461062 -0.0500752297697 -1.60129873422e-22)
(0.0390987125623 -0.0617847284028 -1.06536709675e-21)
(0.0400383699066 -0.0560165620078 -7.12243928125e-22)
(0.0447894564107 -0.0691202011293 -1.58348106203e-21)
(0.0452241168969 -0.0623026138959 -1.80711671898e-21)
(0.0523551198132 -0.077189846867 -2.02276622989e-21)
(0.0520467657258 -0.0687213858864 -2.36009013736e-21)
(0.0594517226796 -0.0858330826014 -1.78233090574e-21)
(0.060840236949 -0.0762515246586 -3.62453623378e-21)
(0.0600573153862 -0.0951545811604 -5.69920321845e-21)
(0.06704144178 -0.0831460977822 5.92107489832e-22)
(0.0614568521193 -0.10308958908 -1.85734071112e-20)
(0.0623976554252 -0.0760213100672 1.68191234841e-21)
(0.0560137079656 -0.119077538015 -2.25737046419e-20)
(0.0746070465091 -0.101087237212 7.82984717421e-21)
(0.0563646217581 -0.138126935572 7.66056318756e-21)
(0.0212914202237 -0.00355475004662 9.84034866523e-22)
(0.0228694020455 -0.00169673501623 8.67261212216e-22)
(0.0217993947637 -0.00715706069443 9.70019030067e-22)
(0.0232940287819 -0.00521599067496 1.03874950587e-21)
(0.0224736435902 -0.0108351835109 6.90924034252e-22)
(0.0239501590981 -0.0087192903699 8.53286099573e-22)
(0.0232765231428 -0.0146080589316 3.40349964468e-22)
(0.0247303721533 -0.0123360881988 4.67978895833e-22)
(0.0242499162323 -0.0184930140685 1.22367927073e-22)
(0.0256584651069 -0.0160458852474 1.86038172123e-22)
(0.025450631985 -0.0225146320031 3.01959509842e-23)
(0.0268006301436 -0.0198665096438 5.80794712466e-23)
(0.0269279397469 -0.0266947915228 3.49040166317e-24)
(0.0282065386197 -0.0238167442998 7.21188902049e-24)
(0.0287329734414 -0.0310655257848 -1.42266408857e-24)
(0.0299314005228 -0.0279197037201 -2.79524923018e-24)
(0.0309273436844 -0.0356479474979 -2.72925970897e-24)
(0.0320185974136 -0.0321967035301 -8.55651461068e-24)
(0.0335809616467 -0.0404707276309 -2.76217504292e-23)
(0.0345445664668 -0.0366639938832 -9.14257530156e-24)
(0.036780869319 -0.0455559791252 -1.06062150286e-22)
(0.0375759077086 -0.0413373406287 -6.41972170252e-23)
(0.0406535623727 -0.0509072746525 -4.87026123786e-22)
(0.041214896606 -0.0462080741769 -2.13904737529e-22)
(0.0453997352916 -0.0564367135622 -1.45399355035e-21)
(0.0455669252509 -0.0512057136611 -8.48904919485e-22)
(0.0513866065787 -0.062026775153 -2.58372579431e-21)
(0.0508133996245 -0.0562047751451 -2.12931188801e-21)
(0.0589933002969 -0.0672687728632 -3.96186014126e-21)
(0.0572881529673 -0.0608272010756 -3.82430151876e-21)
(0.0662539061637 -0.0716170298027 -1.25009783821e-21)
(0.0651881120111 -0.0647332773721 -8.92324496255e-21)
(0.0682043996431 -0.0758368839461 7.97322305669e-21)
(0.0712611554989 -0.068101440526 -9.50755510712e-22)
(0.0788560876491 -0.0867535481628 2.80851666338e-20)
(0.0733142666036 -0.0625923341179 1.23008212152e-20)
(0.0759315080452 -0.121379275024 3.80641150037e-20)
(0.109233071923 -0.0870757462176 4.23687999851e-20)
(0.0686041978456 -0.133289905956 3.3906685292e-20)
(0.0247629351227 -0.00333963552102 9.21975851564e-22)
(0.0262091400915 -0.00157948612387 8.69181486983e-22)
(0.0253341245969 -0.00673164038503 9.22016575376e-22)
(0.0266861561005 -0.00488379208595 9.73966594167e-22)
(0.0260892218717 -0.0101947466326 6.30340961154e-22)
(0.0274133936575 -0.00815820788654 8.14019133458e-22)
(0.0269865704002 -0.0137390625323 3.13667103487e-22)
(0.028274797885 -0.0115437645918 4.55302980492e-22)
(0.0280708765759 -0.0173749527436 1.21749716296e-22)
(0.0292944048228 -0.0150034317733 1.88424053454e-22)
(0.029402597791 -0.021114939534 3.50954092829e-23)
(0.030540559685 -0.0185483380914 6.51619313479e-23)
(0.0310324013172 -0.024980249175 9.26238127143e-25)
(0.0320716410025 -0.0221910771668 1.42732930985e-23)
(0.0330104391478 -0.0289827594224 -9.92909975228e-24)
(0.0339334783723 -0.0259453417446 -3.00873103097e-24)
(0.0353961684459 -0.0331429689159 -1.49698302033e-23)
(0.0361780416923 -0.0298217035225 -8.53292514064e-24)
(0.0382537372521 -0.0374594281191 -4.57180418976e-23)
(0.0388601796784 -0.0338244515479 -1.97816604524e-23)
(0.0416533400034 -0.0419306237675 -1.72039804268e-22)
(0.0420457455969 -0.037952372136 -8.39230262487e-23)
(0.0456678650928 -0.0465050115299 -5.75783533227e-22)
(0.045788475833 -0.0421776529493 -2.85355117094e-22)
(0.0503582121339 -0.0510714087026 -1.52422325714e-21)
(0.050132579967 -0.0464136612795 -8.33387151774e-22)
(0.0558512990537 -0.0553040838931 -3.36988761246e-21)
(0.055045438021 -0.0505025898526 -1.81855576276e-21)
(0.0624592745381 -0.0586466911254 -8.78568634005e-21)
(0.0606302770577 -0.0541227195478 -3.22322332074e-21)
(0.0693529430532 -0.0606784406589 -8.62390263506e-21)
(0.0672195699811 -0.0571241371622 -1.13394543645e-20)
(0.0756302615648 -0.0627365648859 3.37684264781e-21)
(0.073319176324 -0.060272518691 -3.79018215434e-21)
(0.101574672981 -0.0734977625189 2.65844545666e-20)
(0.0840754384403 -0.0546608645488 7.75301887024e-22)
(0.100256962638 -0.107858962531 3.82113702734e-20)
(0.143595059135 -0.0733549599814 2.23889217595e-20)
(0.0804078810853 -0.105027982663 1.86916529762e-20)
(0.0280110455232 -0.00310828768552 9.21172229586e-22)
(0.0293175488498 -0.00145830506137 8.8382697412e-22)
(0.0286433401148 -0.0062662023705 8.65969152249e-22)
(0.0298442154706 -0.00452735144992 9.26146972077e-22)
(0.0294709565802 -0.00949130695661 6.38981152796e-22)
(0.0306386499227 -0.00755204533297 7.99925353688e-22)
(0.0304457100551 -0.012783659139 3.30059930458e-22)
(0.0315672815358 -0.0106869966565 4.59528456602e-22)
(0.0316166223158 -0.0161464946335 1.31836268505e-22)
(0.032657311901 -0.0138770713555 1.96305283096e-22)
(0.0330470780831 -0.0195880793181 4.43398151635e-23)
(0.0339821078031 -0.017129396291 7.46413297505e-23)
(0.0347893725953 -0.0231179943994 1.03383239404e-23)
(0.0356013902044 -0.0204497963345 2.41260231213e-23)
(0.0368911231744 -0.0267450130424 -1.61255641933e-24)
(0.0375601104873 -0.0238444228141 3.47899885467e-24)
(0.0394039334153 -0.0304731116832 -1.33447553898e-23)
(0.0399055873378 -0.0273156118272 -1.62052835004e-24)
(0.0423812047164 -0.0343000635502 -5.79866448035e-23)
(0.0426864183438 -0.0308612638515 -2.08344177863e-23)
(0.0458699732375 -0.0382017068227 -1.97238339075e-22)
(0.0459463678309 -0.0344752508977 -8.06714854191e-23)
(0.0499022490888 -0.0421341837996 -5.42958735641e-22)
(0.0497203380159 -0.038128376384 -2.7996685702e-22)
(0.054448638215 -0.0460086617424 -1.1277196574e-21)
(0.0540065066392 -0.0417683557366 -6.70036693211e-22)
(0.0594555306114 -0.0496966789622 -1.67189147105e-21)
(0.0587329988538 -0.0453225098577 -1.23018565811e-21)
(0.065204066536 -0.0530005811107 -5.77699134516e-21)
(0.063933850585 -0.0485650916567 -1.60898248863e-21)
(0.0713299441418 -0.0557128851961 -6.50573388375e-21)
(0.0699316904373 -0.0520820002971 -6.26801904782e-21)
(0.0806671146904 -0.0578217752143 -6.39172291513e-21)
(0.0754280115626 -0.0566200441713 -5.32672973634e-21)
(0.120340965474 -0.061154398513 -3.42023092007e-21)
(0.0874080648071 -0.049880433645 -1.06978608066e-20)
(0.121650854297 -0.0740781686001 2.86920446222e-21)
(0.156517521298 -0.0594471187202 -4.84054221466e-21)
(0.0909049363536 -0.0628719813438 -3.52140604229e-21)
(0.0310197420447 -0.0028616390751 8.8880171661e-22)
(0.0321793333479 -0.0013351234414 7.26604208522e-22)
(0.0317088684649 -0.00577061559908 8.60103173516e-22)
(0.0327533659171 -0.00415115116019 7.81404588311e-22)
(0.0325995348021 -0.00874176158384 6.20472657494e-22)
(0.0336099783758 -0.00691229974278 7.07192973288e-22)
(0.0336352404046 -0.0117668648929 3.2577380924e-22)
(0.0345925474636 -0.00978457194513 4.19301834086e-22)
(0.0348694409828 -0.0148442067231 1.39110344341e-22)
(0.0357347542454 -0.0126925738828 1.80556334096e-22)
(0.0363688839208 -0.0179737117174 5.44275377083e-23)
(0.0371116160755 -0.0156423743855 6.77248237147e-23)
(0.0381864069943 -0.0211587766846 1.72666980356e-23)
(0.0387863328271 -0.0186338681348 2.1923791332e-23)
(0.040367115486 -0.0244037339362 3.47102692395e-24)
(0.0408048038481 -0.0216666716048 5.27919419093e-24)
(0.042955854945 -0.0277022765711 -9.11019074657e-24)
(0.0432036810299 -0.0247385326641 -1.03447983526e-24)
(0.0459972445972 -0.0310529847384 -4.35192584019e-23)
(0.0460367013795 -0.0278426689638 -1.60353616344e-23)
(0.049522930488 -0.0344412122377 -1.63400003364e-22)
(0.049333843748 -0.0309718104294 -7.04938602877e-23)
(0.0535421998462 -0.0378336781904 -4.07044814589e-22)
(0.0531123946763 -0.0341033152788 -2.48036084374e-22)
(0.0580264754542 -0.0411976345988 -7.72502693922e-22)
(0.0573701127261 -0.0372029371547 -5.13733050604e-22)
(0.0629499980285 -0.0445489915799 -1.1672766757e-21)
(0.0620840863449 -0.0402667392807 -9.33788749171e-22)
(0.0684967965358 -0.0478948938981 -2.10001019129e-21)
(0.067279578461 -0.0431538420655 -1.3527203897e-21)
(0.0738177755543 -0.0512190513685 -5.0890149004e-21)
(0.073255765444 -0.046625714463 -2.87080608978e-21)
(0.081326799239 -0.0528773844989 -9.63286762785e-21)
(0.0770863279343 -0.0516323291272 -6.49194387883e-21)
(0.121221736619 -0.0496126954894 -1.21181721012e-20)
(0.0841433826157 -0.0449591878599 -1.42001304475e-20)
(0.125540370165 -0.0424828480008 -1.12311527192e-20)
(0.149386860696 -0.0480344310407 -1.87775962225e-20)
(0.0939848264164 -0.0272104077847 -1.47318336603e-20)
(0.033778937863 -0.00260363898735 6.19207080222e-22)
(0.0347831498113 -0.001208111185 4.24441487157e-22)
(0.0345192851808 -0.00526583859264 6.28494388083e-22)
(0.0354157776211 -0.00375976799986 5.80048462649e-22)
(0.0354595858926 -0.00796455605387 5.0602214988e-22)
(0.0363089194435 -0.0062527638915 5.47950330306e-22)
(0.036541984837 -0.0107063510263 2.74084358942e-22)
(0.0373345470201 -0.00885126647516 3.41094887543e-22)
(0.0378189598299 -0.013486123262 1.0917081347e-22)
(0.0385146731442 -0.0114707772852 1.46008533356e-22)
(0.0393607623673 -0.0162990935044 3.52210773385e-23)
(0.0399246336746 -0.0141139230911 4.64799767728e-23)
(0.0412213373139 -0.0191418613974 9.93628748739e-24)
(0.0416290481647 -0.0167757583167 1.20744568441e-23)
(0.0434421740053 -0.0220104652056 7.73687431717e-25)
(0.0436732191455 -0.0194534401712 3.05448602922e-25)
(0.0460654415611 -0.0248995315302 -7.95965072306e-24)
(0.0460925617432 -0.022138915437 -2.8154365981e-24)
(0.0491319063022 -0.0277967981809 -4.30099635202e-23)
(0.0489336942596 -0.0248211603114 -1.36565643026e-23)
(0.052662639488 -0.0306997261583 -1.55129941298e-22)
(0.0522364218183 -0.0274893108562 -7.50906703737e-23)
(0.0566589157807 -0.0335771004711 -3.54724320389e-22)
(0.0559895819166 -0.0301183663327 -2.41566312882e-22)
(0.0611271913485 -0.0363987634884 -6.75019105853e-22)
(0.0601916313203 -0.0326767174899 -4.7425164731e-22)
(0.0661265404502 -0.0392182098589 -1.11923246318e-21)
(0.0649034409728 -0.0351776059165 -8.43902971656e-22)
(0.0717236243352 -0.0421592057167 -2.12351628819e-21)
(0.0702205353499 -0.0375382509891 -1.56148806835e-21)
(0.0762660442413 -0.0449617537827 -4.27373506821e-21)
(0.0760583125746 -0.0401467356568 -1.27125263326e-21)
(0.0798595559922 -0.0464564642858 -1.10592066985e-20)
(0.0785810489163 -0.0447137829125 -5.6680727537e-21)
(0.111701791315 -0.0414503708287 -2.08595545688e-20)
(0.079137299304 -0.0388058718919 -1.40159412967e-20)
(0.116879953138 -0.0226181372703 -2.22782771636e-20)
(0.130554465485 -0.0404753943961 -2.22035524691e-20)
(0.0905182966189 -0.0126184220693 -1.74297261337e-20)
(0.0362782628444 -0.00234084202419 3.85282869584e-22)
(0.0371242115357 -0.00107570451638 2.01141411403e-22)
(0.0370642216443 -0.00472764131628 4.99504404872e-22)
(0.037802839022 -0.00335836857377 4.56976636448e-22)
(0.0380436381002 -0.00715721363601 3.83023067969e-22)
(0.0387387693672 -0.00558333494608 4.51435962536e-22)
(0.0391596339706 -0.00961826525577 2.13019061958e-22)
(0.0397958614048 -0.00790007476217 2.89377068022e-22)
(0.0404622098088 -0.0121013185056 8.33176966595e-23)
(0.0409979325599 -0.0102291949194 1.2053058198e-22)
(0.0420240858978 -0.0145983152151 2.33333562785e-23)
(0.0424217528082 -0.0125668362299 3.47902078394e-23)
(0.0439016830313 -0.0171000907854 2.44361795967e-24)
(0.0441308469598 -0.0149020671191 8.96187793144e-24)
(0.0461339836173 -0.0196100619255 -3.28367542689e-24)
(0.0461831693749 -0.0172349817073 -9.35735752136e-24)
(0.0487564157751 -0.0221123132179 -8.51235017765e-24)
(0.0485947316601 -0.0195525944626 -9.31284151042e-24)
(0.0518063459382 -0.0245865269394 -4.57372711561e-23)
(0.0514079556581 -0.0218316591995 -1.50568360214e-23)
(0.0553012621739 -0.0270026943297 -1.61527041957e-22)
(0.0546524989503 -0.0240560526571 -8.01075804785e-23)
(0.0592407457197 -0.0293510685848 -3.61093639802e-22)
(0.0583379620582 -0.0261960444461 -2.18288103365e-22)
(0.0636623999265 -0.0316187188556 -6.43135513113e-22)
(0.0624593089757 -0.0282148126142 -4.11198695957e-22)
(0.0686868033391 -0.0338021428803 -1.28615857683e-21)
(0.0670869162558 -0.0301072106039 -7.56410006053e-22)
(0.0742350795069 -0.0359553660983 -7.09224413415e-22)
(0.0723738215823 -0.0318218575702 -1.86335499492e-21)
(0.0780330230737 -0.0378270265603 -2.66559031875e-21)
(0.0779300306162 -0.0330965795544 -1.21625788498e-21)
(0.0781776996565 -0.0386985156778 -8.62480735187e-21)
(0.0794525673251 -0.0367288152889 -6.91702890188e-21)
(0.099765505555 -0.0355904567096 -1.5359939197e-20)
(0.0760292519498 -0.0314818135948 -1.19958028696e-20)
(0.104766093974 -0.0213217677907 -1.73550014391e-20)
(0.116285348096 -0.0353535150711 -1.80629462487e-20)
(0.0864199356168 -0.0170717893209 -1.33367388145e-20)
(0.0385074621514 -0.00207403015885 2.72835178267e-22)
(0.0391985159449 -0.000939980452407 1.46556748859e-22)
(0.0393354847864 -0.00418724431043 4.08908194112e-22)
(0.0399163787964 -0.00295129331957 3.21141815401e-22)
(0.0403494882032 -0.00634089671058 3.57789962589e-22)
(0.0408927701311 -0.00490833658377 4.10694917292e-22)
(0.0414872262883 -0.0085204851745 1.96888588044e-22)
(0.04197578943 -0.00694287715402 2.70575134852e-22)
(0.0428015288982 -0.0107050669714 7.20030931598e-23)
(0.0431828072761 -0.00898224860679 1.09282438721e-22)
(0.0443669941091 -0.0128942615287 2.04187294923e-23)
(0.0446111551721 -0.0110192475734 2.82729423169e-23)
(0.0462374540577 -0.0150773628349 -2.83909754959e-24)
(0.0463140856757 -0.013039482054 8.44823499949e-24)
(0.048453909174 -0.0172252239369 -1.53865236049e-23)
(0.0483311093471 -0.0150371462947 -1.29475245263e-23)
(0.0510451491641 -0.0193412803336 -1.58573273542e-23)
(0.0507110061008 -0.0169984794636 -1.18079902174e-23)
(0.0540384244026 -0.0213953802228 -4.94271453438e-23)
(0.0534622290419 -0.0188915094619 -1.90930060213e-23)
(0.0574508920437 -0.0233691224423 -1.36868641886e-22)
(0.0566265656643 -0.0206942254031 -7.62247302294e-23)
(0.0612846408526 -0.0252200921381 -2.6839315952e-22)
(0.0601891360825 -0.0223761963006 -1.64324017661e-22)
(0.0655760258212 -0.0269107844132 -5.24473188898e-22)
(0.0641501865715 -0.0238913560513 -3.25970751588e-22)
(0.0704321246776 -0.0283840668943 -1.33360642415e-21)
(0.068560367421 -0.0251995605972 -6.40473343832e-22)
(0.0757055095373 -0.0295264149528 -2.37038846649e-21)
(0.0735163058525 -0.0262268950927 -1.58878013816e-21)
(0.0790705256447 -0.0301859297155 -5.46769646811e-21)
(0.0785896437204 -0.0262010654414 -4.88766594264e-21)
(0.0777278168607 -0.0306712276987 -1.02880244196e-20)
(0.0799379029587 -0.0287124938858 -6.19868616252e-21)
(0.0940876724256 -0.0306667547885 -1.46988099213e-20)
(0.0760247893449 -0.0241965987494 -1.1346276688e-20)
(0.0979916386721 -0.026023027484 -1.40446836241e-20)
(0.111641506018 -0.0306665947367 -1.45447169809e-20)
(0.0851042405278 -0.0248830796257 -9.90953001074e-21)
(0.0404655172002 -0.00180845342184 1.94863385993e-22)
(0.0410073105741 -0.000804471812777 2.47740741967e-23)
(0.041331636613 -0.00364744451986 3.22928538581e-22)
(0.0417557730347 -0.00254300011118 1.94525556909e-22)
(0.0423765372713 -0.00552483287515 3.23480089555e-22)
(0.0427705939272 -0.00423192182338 2.97426404325e-22)
(0.0435276935114 -0.00742303139828 1.82968985529e-22)
(0.0438744252345 -0.00598774666828 2.12902284543e-22)
(0.0448402573408 -0.00932192915435 6.55522878778e-23)
(0.0450821009925 -0.00774374019247 8.50257533234e-23)
(0.0463940266933 -0.0111988359008 1.63024478241e-23)
(0.0464883913874 -0.00948753578165 2.13293256574e-23)
(0.0482391740569 -0.0130514825499 -1.66019197726e-24)
(0.0481669813145 -0.011204368201 5.76293907847e-24)
(0.0504145855406 -0.0148671558774 -9.36899113887e-24)
(0.0501470543264 -0.0128773803354 -1.26353958172e-23)
(0.052946016753 -0.0166264681623 -1.50436688845e-23)
(0.0524706137658 -0.0144961463674 -1.19966997466e-23)
(0.0558501304816 -0.0182958490293 -4.58905909069e-23)
(0.0551321381124 -0.0160325238805 -1.57940169332e-23)
(0.059144527501 -0.0198371051099 -1.03680106003e-22)
(0.0581683789402 -0.0174478693241 -7.56216575332e-23)
(0.0628201302187 -0.0212334139407 -2.21901609728e-22)
(0.0615858164319 -0.0187187082125 -1.34595279217e-22)
(0.0668768649736 -0.0224179136648 -4.41970906521e-22)
(0.0653349988917 -0.0197944939261 -3.24417191805e-22)
(0.0713589505725 -0.0232613914049 -8.95647057849e-22)
(0.0694040994318 -0.0205992274646 -5.32132417514e-22)
(0.0761143661181 -0.0235485985081 -4.10605761431e-21)
(0.0738036991407 -0.0210415832972 -1.54106504192e-21)
(0.0792919759422 -0.0231866123777 -5.61865563704e-21)
(0.078227776233 -0.0201451636091 -3.10100688287e-21)
(0.0783448663319 -0.0232059422971 -7.25693843094e-21)
(0.0799572676321 -0.0217422639217 -3.36076452823e-21)
(0.0943974901367 -0.0247447850457 -1.11921837475e-20)
(0.0775636363383 -0.017875033308 -7.03780845547e-21)
(0.0993954624977 -0.0272915107129 -1.04095633675e-20)
(0.11418871931 -0.0248667466769 -8.93977291546e-21)
(0.0866937189304 -0.030364093828 -6.2092200249e-21)
(0.0421551356862 -0.00153835418397 2.44362451127e-23)
(0.0425460816022 -0.000673182556022 -2.29472946388e-22)
(0.0430557779941 -0.00310877063475 1.69023422653e-22)
(0.0433266776668 -0.00213781639496 -4.36157980368e-23)
(0.0441269102025 -0.00471568183266 1.86848599313e-22)
(0.0443780368145 -0.00355996446188 8.0517596179e-23)
(0.0452843565873 -0.00633105535102 1.14959052338e-22)
(0.0454903421483 -0.00504389240149 8.44874507455e-23)
(0.0465852844927 -0.00794114023142 4.0802791103e-23)
(0.0466926942253 -0.0065229695742 3.09737659027e-23)
(0.0481132953425 -0.00952855481474 1.07898169118e-23)
(0.0480762251209 -0.00797919530077 5.83847431583e-24)
(0.0499203746304 -0.0110813032254 -5.21226476145e-24)
(0.0497200709022 -0.00939940636916 6.04214290217e-25)
(0.0520366657149 -0.0125808292532 -1.52631044249e-23)
(0.0516470136374 -0.0107671938618 -1.33580244049e-23)
(0.0544853601403 -0.0139899739264 -1.27470477953e-23)
(0.05388053725 -0.0120684866825 -9.64237536657e-24)
(0.0572779508648 -0.0153057167871 -4.55250835595e-23)
(0.0564486885154 -0.0132814580748 3.35635994301e-24)
(0.0604247592378 -0.0164847209521 -1.06536830747e-22)
(0.0593484779233 -0.0143522091853 -7.12316612699e-23)
(0.0639059568481 -0.0174732893679 -2.37110861294e-22)
(0.0625750531528 -0.0152604777449 -9.49750703925e-23)
(0.0676721316328 -0.0182181809814 -4.14578702797e-22)
(0.0660803865974 -0.0159671572584 -2.45388049797e-22)
(0.0716839008229 -0.0185943729684 -1.17755040158e-21)
(0.0697807079833 -0.0163734444427 -2.73358435308e-22)
(0.0757836326271 -0.0184020340219 -5.36014310472e-22)
(0.073611604459 -0.0164084684085 -8.09688044571e-22)
(0.0787146573177 -0.0174727910945 -8.43115774055e-22)
(0.0772987218164 -0.0150444876825 2.63354337023e-21)
(0.0789834397904 -0.0166133715063 -3.14163455275e-21)
(0.0790978902182 -0.0161103346641 -1.35160995322e-21)
(0.0985448195034 -0.0180834915274 -4.78539762339e-21)
(0.0790337546834 -0.0125678207135 -2.98947257895e-21)
(0.102524426372 -0.0275261435617 -4.73942957284e-21)