/*--------------------------------*- C++ -*----------------------------------*\
| =========                 |                                                 |
| \\      /  F ield         | OpenFOAM: The Open Source CFD Toolbox           |
|  \\    /   O peration     | Version:  v2012                                 |
|   \\  /    A nd           | Website:  www.openfoam.com                      |
|    \\/     M anipulation  |                                                 |
\*---------------------------------------------------------------------------*/
FoamFile
{
    version     2.0;
    format      ascii;
    class       surfaceVectorField;
    location    "5.1";
    object      Uf_0;
}
// * * * * * * * * * * * * * * * * * * * * * * * * * * * * * * * * * * * * * //

dimensions      [0 1 -1 0 0 0 0];


internalField   nonuniform List<vector> 
3840
(
(0.00182156771388 -0.00368184255831 6.72291372785e-22)
(0.0036821030714 -0.00181451984581 7.88628762582e-22)
(0.00197551399655 -0.00755631833611 5.48860557775e-22)
(0.00387476993175 -0.00570295800774 8.69741015318e-22)
(0.00208208037858 -0.0116380960614 7.51432256035e-23)
(0.00408207722049 -0.00966229463133 4.6321857938e-22)
(0.00215402304726 -0.0158745182975 -4.64337579773e-22)
(0.00423669255622 -0.0138045703709 -1.86696934151e-22)
(0.00223360544017 -0.0202714213441 -7.14734720098e-22)
(0.00439709120946 -0.018105121243 -5.98127187339e-22)
(0.00234041205421 -0.0248729176978 -6.14635285793e-22)
(0.00460122445908 -0.0225974292375 -7.18157949348e-22)
(0.00248311844633 -0.0297614813244 -2.6830179003e-22)
(0.00488768588988 -0.0273321968474 -4.71383874289e-22)
(0.0026737348912 -0.0349995211107 1.84958598236e-22)
(0.00523669890346 -0.0323743994341 -8.1351700409e-23)
(0.00292011547589 -0.0406751572899 3.63284287154e-22)
(0.0056733779545 -0.0378021325553 2.36137084827e-22)
(0.00322931877396 -0.0468841414727 2.52680343335e-22)
(0.006207026095 -0.0437043758887 2.64253394658e-22)
(0.00360526344911 -0.0537186475426 5.00966459913e-23)
(0.00683212843116 -0.0501813302962 7.10877484641e-23)
(0.00407158107618 -0.0613787773777 -1.80712748633e-22)
(0.00765742354907 -0.0573724357645 -9.53756466903e-23)
(0.00465389464011 -0.070038951769 -8.08398057041e-22)
(0.00865739340703 -0.0654628555678 -3.10488085686e-22)
(0.00551007731996 -0.079900324547 -1.71681219112e-21)
(0.00985874214361 -0.0744748098419 -1.40621874774e-21)
(0.00682550410986 -0.0914441007376 -1.41811307346e-21)
(0.011541573749 -0.084647146086 -2.81500304607e-21)
(0.00742463400619 -0.105485586142 5.63533100771e-21)
(0.0140399637788 -0.0995519184944 -4.44676090191e-21)
(0.00793787886541 -0.11911183941 2.96215659887e-20)
(0.0136255928317 -0.11345144741 1.60710241079e-21)
(0.012659994404 -0.134778305632 9.63478516327e-20)
(0.0156663211448 -0.109315140284 1.5350959593e-20)
(0.0357121219858 -0.158700839205 1.0591623578e-19)
(0.0239212703038 -0.14178955447 1.09981465105e-20)
(0.0293350311566 -0.171566194507 -1.49300878621e-20)
(0.00572343850041 -0.00381006467622 9.86078405114e-22)
(0.0074924595372 -0.00190589508812 1.14653234042e-21)
(0.00599564577988 -0.00774113408751 7.84099036922e-22)
(0.0078061545551 -0.00581802528431 1.15384145264e-21)
(0.0062483537653 -0.0117746665583 2.01378419625e-22)
(0.0081159186372 -0.00974819880653 6.93907291381e-22)
(0.00649208159935 -0.0159611293629 -3.20486541717e-22)
(0.00842341787563 -0.0138353837198 8.03262397258e-24)
(0.00677624852619 -0.0203337687288 -6.01550416589e-22)
(0.00876988301868 -0.018081861698 -4.13062648189e-22)
(0.00713711324219 -0.0249273067922 -5.74906537844e-22)
(0.00919447232483 -0.0225279150533 -5.74834098709e-22)
(0.00759698412492 -0.0297797111266 -2.84433784668e-22)
(0.00973913715049 -0.0272113289119 -3.95259122333e-22)
(0.008175248131 -0.0349783723115 -3.01732138182e-23)
(0.0104338451449 -0.0321820884985 -1.16697167521e-22)
(0.00888891470124 -0.0405945391249 1.3710619233e-22)
(0.0112867934529 -0.0375152102735 2.48450890998e-23)
(0.00976436321077 -0.0467146525968 8.26607997868e-23)
(0.0123246621808 -0.0432980897701 1.04950061093e-22)
(0.010835484551 -0.0534737862042 -7.43845442175e-23)
(0.0135885717585 -0.0496213573789 -9.07158429702e-23)
(0.0121408002071 -0.0609907747598 -2.25150983743e-22)
(0.0151715091681 -0.056601123677 -1.46661632697e-22)
(0.0137662281463 -0.0694475789042 -9.0830877639e-22)
(0.0171112618063 -0.0644208067727 -4.34603159642e-22)
(0.0159493964736 -0.0790961381328 -2.50440960269e-21)
(0.0195046157515 -0.0731560267802 -1.57897605934e-21)
(0.019191469439 -0.0902849953267 -5.84365087452e-21)
(0.0227282016819 -0.0830090566469 -2.72066514952e-21)
(0.0221911927679 -0.103597516102 -8.47498949883e-21)
(0.0273509884989 -0.0976308882991 -8.26038429329e-21)
(0.0246371267648 -0.119784744119 -1.26635039849e-20)
(0.0298121703037 -0.112088840468 -7.97480887818e-21)
(0.0287063195324 -0.135491816016 -6.99987455292e-20)
(0.0313732353488 -0.103237500014 -3.54675709615e-20)
(0.0239257717843 -0.152550803807 -1.09848177132e-19)
(0.0409813727554 -0.13907654669 -1.92602451353e-19)
(0.0287844086347 -0.15784991369 -1.5000402003e-19)
(0.00957918429075 -0.00387816080531 1.31429538794e-21)
(0.0113709174449 -0.00190835728501 1.33146579046e-21)
(0.00992124814407 -0.00776725213478 1.0636497071e-21)
(0.011695561633 -0.00579033863121 1.33240942544e-21)
(0.0102924634634 -0.0117564325626 5.00561495729e-22)
(0.0121054071236 -0.00966297480778 9.24739478074e-22)
(0.0106939581863 -0.0158836505942 -8.45434824995e-23)
(0.0125508947738 -0.0136688103181 2.72802549477e-22)
(0.0111707360746 -0.0201793259385 -3.86346330309e-22)
(0.013065703093 -0.0178239869649 -1.69867135102e-22)
(0.0117733703191 -0.024695531662 -3.95186683197e-22)
(0.0137103955787 -0.022163141636 -3.10809215596e-22)
(0.0125361091195 -0.0294589847988 -2.27522505186e-22)
(0.0145018553734 -0.0267220496449 -2.43430818408e-22)
(0.0134826473169 -0.0345326329326 -6.16788646031e-23)
(0.0155056587529 -0.0315454636951 -7.70160909354e-23)
(0.0146390825255 -0.0399940429109 -7.3110421381e-24)
(0.016745286725 -0.0366927289231 -1.71339208753e-24)
(0.0160459516102 -0.0459204362675 -6.84265816644e-23)
(0.0182480522572 -0.0422414397136 -2.56555518084e-23)
(0.0177802242352 -0.0524169727444 -1.6299293145e-22)
(0.0200821829028 -0.0482682772837 -1.00519486696e-22)
(0.0199391801704 -0.0596031953134 -3.56113808596e-22)
(0.0223547181469 -0.0548707755909 -1.77651930498e-22)
(0.0226105814251 -0.0676714598115 -1.1052704426e-21)
(0.0251765845673 -0.0622195776505 -4.46472747669e-22)
(0.0260677363265 -0.0768385347615 -1.79523160617e-21)
(0.0286690008121 -0.070390755878 -1.30229085497e-21)
(0.0309192391556 -0.08752806766 -5.13739856829e-21)
(0.0334155594305 -0.0795448570035 -1.37962639501e-21)
(0.0355901541802 -0.100287773985 -7.76020367264e-21)
(0.0401092316592 -0.0929409995501 -5.10125218907e-21)
(0.0377765227313 -0.115471396848 -3.07788758548e-20)
(0.044995173007 -0.106342647958 -7.69543330555e-21)
(0.0437132811917 -0.129797876934 -1.58071276786e-19)
(0.045699571267 -0.095890951255 -3.75497905996e-20)
(0.0399581572497 -0.148047887427 -2.32758294252e-19)
(0.0592319779788 -0.127485476089 -1.6490630705e-19)
(0.0335388535971 -0.147224635833 -1.30517408365e-19)
(0.0134296636945 -0.00380576769387 1.34957982796e-21)
(0.0151769699625 -0.00184345153887 1.23069233625e-21)
(0.0138189636305 -0.00762076115188 1.19349919642e-21)
(0.015510856546 -0.00562750718001 1.27463812158e-21)
(0.0142991541994 -0.0115213361707 6.96980531822e-22)
(0.0160062780284 -0.00939335605536 1.00132145677e-21)
(0.0148491922581 -0.0155443947964 1.87478896875e-22)
(0.0165742047649 -0.01327886543 4.52586499614e-22)
(0.0155090261213 -0.0197232591232 -9.43300203889e-23)
(0.017244711186 -0.0172972209989 6.52535778991e-23)
(0.0163311173822 -0.0240836031106 -1.59053350808e-22)
(0.0180706261284 -0.0214759718354 -8.33942020821e-23)
(0.0173585533219 -0.0286806555783 -9.29244041576e-23)
(0.0190981242365 -0.025846613118 -8.91099068373e-23)
(0.018628531917 -0.033547198525 -1.70506184198e-23)
(0.020370769786 -0.0304489088366 -2.04583153694e-23)
(0.0201821930184 -0.0387419179667 -2.00579017578e-23)
(0.02193607358 -0.0353249513311 2.57965203823e-24)
(0.0220711873521 -0.04434803598 -5.77484568396e-23)
(0.0238500660891 -0.0405330582438 -2.27713455256e-23)
(0.0243800848712 -0.0504429886571 -1.15178485744e-22)
(0.0261739016303 -0.0461378259768 -6.09012226244e-23)
(0.027243527726 -0.0571067817565 -2.68010869571e-22)
(0.0290154856299 -0.0522079862993 -1.51501648144e-22)
(0.0308167139491 -0.0644904619401 -6.43493160038e-22)
(0.0325573797274 -0.05885810574 -4.8227722316e-22)
(0.0354250244163 -0.0728526130861 -8.86685643802e-22)
(0.0370285830998 -0.0661246131212 -1.21720893038e-21)
(0.041823094451 -0.0823739590005 -1.34348001579e-21)
(0.0429348284365 -0.0740044466943 -1.25607578241e-21)
(0.0483805527031 -0.0934763737092 -5.03648182197e-21)
(0.0512102750113 -0.0847377708186 -2.16395256651e-21)
(0.0506633480601 -0.10603565922 -1.44663480503e-20)
(0.0575538881273 -0.0955127084156 -4.66629816462e-21)
(0.0578666155951 -0.114671478616 -4.43848208644e-20)
(0.0543352594128 -0.0854420377349 -1.50871709365e-20)
(0.052975392174 -0.123271764193 -6.26654211641e-20)
(0.0678314441329 -0.109336841835 -4.55971194065e-20)
(0.0453764097194 -0.130799303642 -3.72966357687e-20)
(0.0171748604376 -0.00365323722297 1.15575062988e-21)
(0.0188304674021 -0.00174765332208 1.03455249764e-21)
(0.0176145424699 -0.00733701578078 1.08246038194e-21)
(0.0191949102104 -0.00537931746005 1.10568710828e-21)
(0.0181930577474 -0.0111015157111 7.56927424564e-22)
(0.0197710501093 -0.00898824416915 9.49408166861e-22)
(0.0188729703539 -0.0149744646315 3.30361180638e-22)
(0.0204473873345 -0.0127116870088 5.01050158847e-22)
(0.019694517091 -0.0189793196396 7.61893962059e-23)
(0.0212497001502 -0.0165482338116 1.71628023741e-22)
(0.0207099922389 -0.0231451853104 -1.34507581118e-23)
(0.0222364268578 -0.0205206268326 2.89255435866e-23)
(0.0219659556665 -0.0275064838625 -1.6643818049e-23)
(0.0234589472114 -0.024653184202 -1.0671994143e-23)
(0.0235091675722 -0.0320980801469 -8.28044911378e-25)
(0.0249609904086 -0.0289783086894 -2.076154065e-24)
(0.0253937115792 -0.0369592685702 -1.33791729567e-25)
(0.026794733949 -0.0335265540416 1.76021344005e-25)
(0.0276823291088 -0.0421403229244 -2.59241113105e-23)
(0.0290263051069 -0.038331658449 -1.95153921615e-24)
(0.0304608473056 -0.0476963135992 -9.72243850247e-23)
(0.0317251716528 -0.0434332998241 -4.9637816016e-23)
(0.0338729747821 -0.0536868318939 -3.65768001733e-22)
(0.0350031042318 -0.0488566340613 -1.4721752686e-22)
(0.0381366054431 -0.0601794528049 -1.0559929935e-21)
(0.0390473085032 -0.0546164211279 -6.83493337126e-22)
(0.0436193734263 -0.0671935315215 -1.58659906898e-21)
(0.0440402842027 -0.0606934203426 -1.80038777417e-21)
(0.0510078936674 -0.0748200561012 -2.07654833313e-21)
(0.0505594640732 -0.0668159965587 -2.34826859958e-21)
(0.0583836674776 -0.082805258641 -1.79376890916e-21)
(0.059194244013 -0.0735634796514 -3.97117371995e-21)
(0.0591315570661 -0.0910904352734 -5.28712105077e-21)
(0.0658385586839 -0.0800629612726 -1.51052455886e-22)
(0.064274223221 -0.0970634191186 -1.62994694786e-20)
(0.0603081245106 -0.0715237941532 2.17703572004e-21)
(0.0610973775499 -0.107474776266 -2.02283340111e-20)
(0.0782424556107 -0.093601237588 1.32300333202e-20)
(0.0607345101029 -0.128394062022 1.16276872321e-20)
(0.0207545054412 -0.00346369574529 9.84488976043e-22)
(0.0222943895604 -0.00163977290903 8.66220889457e-22)
(0.0212533610056 -0.00697334065157 9.726348932e-22)
(0.0227047942929 -0.00508340485682 1.04127904289e-21)
(0.0219206487828 -0.0105587977875 6.93530901144e-22)
(0.023356746186 -0.00849579116079 8.55655270694e-22)
(0.0227115180711 -0.014238439162 3.4231700195e-22)
(0.0241272353327 -0.0120206115768 4.69888529018e-22)
(0.0236677234321 -0.0180290728674 1.24364171122e-22)
(0.0250404514767 -0.0156392734315 1.8803549929e-22)
(0.0248453141766 -0.0219548688091 3.17043075554e-23)
(0.026162166897 -0.0193681287045 5.95195880929e-23)
(0.0262922235369 -0.0260371198107 3.89566984096e-24)
(0.0275408413036 -0.0232256354606 7.93680048766e-24)
(0.0280576072503 -0.0303075766105 -1.07208780962e-24)
(0.0292302628713 -0.0272347590152 -2.6354535519e-24)
(0.0302002657343 -0.0347858378162 -1.64172614258e-24)
(0.0312708481444 -0.0314165727586 -8.30601638589e-24)
(0.0327859554661 -0.0394979254437 -2.56652439216e-23)
(0.0337355829784 -0.0357862098503 -8.50677588853e-24)
(0.0358945100357 -0.0444621390181 -9.96309578517e-23)
(0.0366851929723 -0.0403575122992 -6.12539246639e-23)
(0.0396396970846 -0.0496730916344 -4.64942862253e-22)
(0.040211460336 -0.0451187796564 -2.02765337742e-22)
(0.0441992192323 -0.0550320830167 -1.4278881178e-21)
(0.0444039043834 -0.0499928809546 -8.12540830875e-22)
(0.0498979270813 -0.0604095363654 -2.56205730477e-21)
(0.049415654797 -0.0548578296888 -2.09524334522e-21)
(0.0571712634428 -0.0653680971419 -4.2428939864e-21)
(0.0555163885153 -0.0593323727212 -3.66969767971e-21)
(0.0643430592694 -0.0692030675538 -2.32845726667e-21)
(0.0630281539722 -0.062838269852 -9.42434932049e-21)
(0.0658473898931 -0.0722454307957 7.31310431492e-21)
(0.0688804879737 -0.065815155405 -2.48706912929e-21)
(0.0784232761151 -0.0814159135178 3.17065385188e-20)
(0.069478511473 -0.0593108289351 1.14680436045e-20)
(0.0788254302306 -0.113281826361 4.50860545634e-20)
(0.110108453163 -0.0818541410589 4.7857330541e-20)
(0.0724788086657 -0.126409825267 4.02232600844e-20)
(0.0241358951063 -0.0032520393177 9.230109563e-22)
(0.0255466146893 -0.00152499296727 8.70281230767e-22)
(0.024697248372 -0.0065549787318 9.2429942038e-22)
(0.0260079297539 -0.00475648910678 9.76759757088e-22)
(0.0254453198958 -0.00992933673031 6.32012898568e-22)
(0.0267313025851 -0.00794358445216 8.17606769813e-22)
(0.0263302024568 -0.0133849268367 3.15607026358e-22)
(0.0275830006179 -0.0112415220355 4.57478847305e-22)
(0.0273965603036 -0.016931955836 1.23190916261e-22)
(0.0285875807159 -0.014615016237 1.90238801272e-22)
(0.0287040891654 -0.0205828341828 3.57520810252e-23)
(0.0298130015338 -0.018074187789 6.59267943827e-23)
(0.0303020747285 -0.0243589376084 1.4056770948e-24)
(0.0313166525395 -0.0216318258873 1.49423189583e-23)
(0.0322385288347 -0.0282723071883 -9.86938212817e-24)
(0.0331426848555 -0.0253021281869 -2.89436801791e-24)
(0.0345697312635 -0.0323438601442 -1.51710661318e-23)
(0.0353405958851 -0.0290964193571 -8.07010005838e-24)
(0.0373548553336 -0.036571827906 -4.40954566308e-23)
(0.0379612574439 -0.0330197747287 -1.95246230416e-23)
(0.0406559829123 -0.0409548502022 -1.64388304554e-22)
(0.0410646581082 -0.0370721528798 -8.06713245491e-23)
(0.0445336798897 -0.0454403459244 -5.50363306363e-22)
(0.0446947592123 -0.0412272876814 -2.77475930064e-22)
(0.0490275060057 -0.0499199398978 -1.4798960583e-21)
(0.0488814878123 -0.0454017244557 -8.02484630164e-22)
(0.054216931279 -0.0540762967627 -3.20288372016e-21)
(0.0535702821804 -0.0494526408951 -1.78356613684e-21)
(0.0604101847792 -0.057349236405 -8.8511530138e-21)
(0.0587879807513 -0.0530677193497 -2.9443748097e-21)
(0.0668090891336 -0.0591867163333 -9.58296118311e-21)
(0.0648647631527 -0.0560307169477 -1.14171453237e-20)
(0.0719856158725 -0.0605661004061 1.66787016025e-21)
(0.0702595212809 -0.059260111268 -4.94986085193e-21)
(0.0993997982896 -0.0701732311981 2.76188356267e-20)
(0.0790855715697 -0.0530994144779 -7.25591736741e-22)
(0.102066757347 -0.103895988385 4.2994536062e-20)
(0.143831152423 -0.0714134685476 2.35872985097e-20)
(0.0827129941853 -0.101620319415 2.07975255621e-20)
(0.0272973979946 -0.00302422695825 9.24030031555e-22)
(0.0285709821278 -0.0014063846667 8.84306347326e-22)
(0.0279193785104 -0.00609675136143 8.70067106522e-22)
(0.0290806019771 -0.00440528203815 9.28715595348e-22)
(0.0287403969663 -0.00923716453719 6.43072718551e-22)
(0.0298718689227 -0.00734623779874 8.03737549463e-22)
(0.0297029747915 -0.0124453970636 3.3211062222e-22)
(0.0307913733608 -0.0103979273164 4.61858756727e-22)
(0.0308563156462 -0.0157248362247 1.32974679394e-22)
(0.0318671084529 -0.0135066403271 1.97321744357e-22)
(0.0322631563181 -0.0190841135621 4.51170323158e-23)
(0.0331722532471 -0.016679052459 7.53078689371e-23)
(0.0339745914099 -0.0225334465256 1.06422738456e-23)
(0.0347657717553 -0.0199215980457 2.44932037342e-23)
(0.0360363501094 -0.0260827440259 -1.09508594812e-24)
(0.0366912409058 -0.0232415775035 3.7609515695e-24)
(0.0384971273497 -0.0297374133898 -1.24236569681e-23)
(0.0389939137571 -0.0266429688034 -1.17468071207e-24)
(0.0414058972525 -0.0334971850022 -5.61004909599e-23)
(0.0417192203671 -0.0301257724688 -2.05851580967e-23)
(0.0448028380975 -0.0373414580872 -1.93758950059e-22)
(0.0449061703523 -0.0336875577519 -7.6739089383e-23)
(0.0487101802385 -0.0412314860336 -5.29597253864e-22)
(0.0485830557093 -0.0373043100003 -2.74466230162e-22)
(0.0530855570369 -0.0450898103976 -1.10615470871e-21)
(0.0527382310459 -0.0409311720825 -6.4979998124e-22)
(0.0578315959967 -0.0488083751882 -1.52505722638e-21)
(0.0572874956033 -0.0445218661683 -1.20824373957e-21)
(0.0631882227787 -0.0522301851239 -5.51036711965e-21)
(0.0622087453423 -0.0478641225239 -1.44942561988e-21)
(0.0687129074206 -0.0551625667655 -6.78404499256e-21)
(0.0677964774449 -0.051522768648 -5.95606501166e-21)
(0.0765564848243 -0.0575996042264 -7.34332274892e-21)
(0.0726962975978 -0.0566225963029 -5.77817672019e-21)
(0.117340517393 -0.0609873504078 -4.75712885375e-21)
(0.0824732748143 -0.0496222367569 -1.12458489735e-20)
(0.122247714875 -0.0733420287392 1.39028800973e-21)
(0.156185403736 -0.0602077836228 -6.22250261058e-21)
(0.0923896870742 -0.0620601634783 -4.35553685695e-21)
(0.0302229913184 -0.002780931072 8.88991911119e-22)
(0.0313520060064 -0.00128577571494 7.23215006427e-22)
(0.0309015948002 -0.00560813308653 8.62386038289e-22)
(0.0319079014456 -0.00403396039963 7.80295584065e-22)
(0.0317865173465 -0.00849850507231 6.2252358764e-22)
(0.0327623461893 -0.00671475415601 7.08217767287e-22)
(0.0328110134606 -0.0114438623585 3.27069878864e-22)
(0.0337368346294 -0.00950785238558 4.20356455729e-22)
(0.034029014129 -0.0144429192501 1.396549339e-22)
(0.0348662405175 -0.0123388184293 1.80870553292e-22)
(0.0355069099748 -0.0174962746384 5.46840403555e-23)
(0.0362256143103 -0.0152138024065 6.77458801838e-23)
(0.0372966807147 -0.0206084259193 1.76118814581e-23)
(0.037877790079 -0.0181336377942 2.19351751376e-23)
(0.0394420599559 -0.0237855303412 3.68135680554e-24)
(0.039867850565 -0.0210995286925 5.51466869696e-24)
(0.04198566064 -0.0270235588691 -9.33618184067e-24)
(0.0422309629614 -0.0241115195198 -8.05267553233e-25)
(0.0449690398676 -0.0303243755913 -4.12237565198e-23)
(0.0450187966646 -0.0271657436656 -1.60044601505e-23)
(0.0484196440248 -0.0336790702342 -1.57446369486e-22)
(0.0482588424695 -0.030259708127 -6.66880070363e-23)
(0.0523405776891 -0.0370622617283 -3.94668957538e-22)
(0.0519649786656 -0.0333782397912 -2.43016734281e-22)
(0.0566958760229 -0.0404546161398 -7.51889012108e-22)
(0.0561294228345 -0.0364967993371 -4.9987441469e-22)
(0.0614332131112 -0.0438915308796 -1.13261213307e-21)
(0.0607234162489 -0.0396365408283 -9.13119959651e-22)
(0.0667071473378 -0.0474213064683 -1.89512351189e-21)
(0.0657377509043 -0.0426826439102 -1.31478346862e-21)
(0.0716478926359 -0.0511390923063 -4.95019673929e-21)
(0.0715137701036 -0.046346518195 -2.60559698399e-21)
(0.0777731401726 -0.0534798330415 -9.68070294479e-21)
(0.0750368460356 -0.0520887916527 -6.63424922528e-21)
(0.118442354539 -0.0509063917368 -1.27112227303e-20)
(0.0798998020885 -0.0452240169213 -1.4145180872e-20)
(0.125814237235 -0.0429788451304 -1.19683274773e-20)
(0.148257312562 -0.0503314081753 -2.05986829322e-20)
(0.0958546989569 -0.0294628021592 -1.60384517016e-20)
(0.0329024961464 -0.00252599722388 6.14518679373e-22)
(0.0338780486776 -0.00116118920286 4.18326625603e-22)
(0.0336323210025 -0.00511014330326 6.26127313063e-22)
(0.0344920952482 -0.00364689186346 5.77508806404e-22)
(0.0345678762139 -0.00773139828532 5.06050635375e-22)
(0.0353836592543 -0.00606270671865 5.4645951049e-22)
(0.0356405865325 -0.0103971473803 2.74157130156e-22)
(0.0364026506714 -0.00858546914624 3.41291664026e-22)
(0.036903532331 -0.0131028570319 1.08961499576e-22)
(0.0375720139195 -0.011131571658 1.457937609e-22)
(0.0384269988253 -0.0158447272386 3.49970149659e-23)
(0.0389675132897 -0.0137039336599 4.60808832759e-23)
(0.0402645798808 -0.0186207044916 9.83796237646e-24)
(0.0406537193623 -0.016298713432 1.19726524375e-23)
(0.0424569448031 -0.0214289974309 1.02804433818e-24)
(0.0426758425594 -0.0189149566888 1.52438143739e-25)
(0.0450449928425 -0.024267040463 -7.47354586306e-24)
(0.0450684417262 -0.0215469875712 -3.14287725315e-24)
(0.0480681034753 -0.0271263982752 -4.14687106669e-23)
(0.0478773518161 -0.0241871280893 -1.38259150443e-23)
(0.0515459428703 -0.0300109655937 -1.52258371831e-22)
(0.0511421307247 -0.0268298626681 -7.2552899469e-23)
(0.0554773639753 -0.0328986067986 -3.48222191432e-22)
(0.0548517727534 -0.0294581390961 -2.38527342255e-22)
(0.0598652777164 -0.0357737668889 -6.61105362232e-22)
(0.0590037870632 -0.032051331805 -4.63729538963e-22)
(0.0647557699062 -0.0387074476558 -1.09529129521e-21)
(0.0636563994398 -0.0346433018402 -8.24591154338e-22)
(0.0702427228743 -0.0418608599386 -2.02525694073e-21)
(0.0688906039851 -0.0371911161125 -1.5739310419e-21)
(0.0746769119634 -0.0450936293829 -4.28964946998e-21)
(0.0747461650207 -0.0400116377221 -1.14394249917e-21)
(0.0772240716722 -0.0473855833605 -1.10987271525e-20)
(0.0773286495616 -0.0453646450077 -5.69940180418e-21)
(0.109520992796 -0.0436521789161 -2.20326410739e-20)
(0.0761663714379 -0.0391301527616 -1.40095246457e-20)
(0.11759103945 -0.025876037625 -2.46688071565e-20)
(0.130481036863 -0.043604880418 -2.37616823757e-20)
(0.0940795027424 -0.0196895487431 -1.91338075333e-20)
(0.0353250961982 -0.00226598261737 3.81316752633e-22)
(0.0361440325332 -0.00103098143758 1.96607758862e-22)
(0.0361006801629 -0.00457732955218 4.97841003831e-22)
(0.0368034439349 -0.00324917143134 4.55665265768e-22)
(0.0370765468988 -0.00693262442924 3.8170053914e-22)
(0.037738967875 -0.00539977306369 4.50491671539e-22)
(0.0381846704087 -0.00932083471213 2.12928294769e-22)
(0.0387908928221 -0.00764345735997 2.89742044715e-22)
(0.0394758546241 -0.0117331831734 8.29131446e-23)
(0.0399844100763 -0.00990195164111 1.20273200714e-22)
(0.041023245713 -0.0141626753892 2.30565207474e-23)
(0.0413970576975 -0.0121716470911 3.44472598567e-23)
(0.0428834595025 -0.0166016570804 2.28712820473e-24)
(0.0430927190126 -0.0144425483358 8.39849723137e-24)
(0.0450953014484 -0.0190557624732 -4.01848344759e-24)
(0.0451298406761 -0.0167166961035 -9.72915598922e-24)
(0.0476938068537 -0.0215117383077 -9.49524643439e-24)
(0.047524128221 -0.0189835455054 -1.08980436896e-23)
(0.0507166542653 -0.0239535602629 -4.49101038464e-23)
(0.0503187885424 -0.021222949726 -1.641235684e-23)
(0.0541828457194 -0.0263573354572 -1.58821869893e-22)
(0.0535451804577 -0.0234240188966 -7.7076904545e-23)
(0.0580935364663 -0.0287227894764 -3.54034689785e-22)
(0.057216708138 -0.0255642090089 -2.16413018433e-22)
(0.0624864385201 -0.0310510832305 -6.27215331068e-22)
(0.0613315598732 -0.0276166668686 -4.00873217199e-22)
(0.067480254471 -0.0333583347449 -1.30323090103e-21)
(0.0659631608084 -0.0295908912358 -7.33264720139e-22)
(0.0730770010855 -0.0357373617942 -6.92616600343e-22)
(0.0712692065077 -0.0314842387613 -1.87258571498e-21)
(0.0770525740626 -0.0380401217429 -2.55369483337e-21)
(0.0770486191402 -0.0329363848589 -1.22604116394e-21)
(0.0766864692712 -0.0396713574489 -8.61019929745e-21)
(0.0789597567743 -0.0372436707576 -6.84983345833e-21)
(0.0999689864093 -0.0380877480247 -1.57385659475e-20)
(0.0745827369178 -0.0315748423924 -1.20656333488e-20)
(0.107991366269 -0.0288647108323 -1.82266827524e-20)
(0.121257929185 -0.0383995914739 -1.8626550183e-20)
(0.0912962335214 -0.0272183338061 -1.45094230716e-20)
(0.0374799532226 -0.00200154599415 2.70956271997e-22)
(0.0381455411846 -0.000897262126261 1.44103020528e-22)
(0.0382978998581 -0.00404163645653 4.08315933476e-22)
(0.0388434959627 -0.00284512790786 3.19342047662e-22)
(0.0393097366128 -0.00612345559513 3.58533177114e-22)
(0.0398207612563 -0.00473010763527 4.11450819232e-22)
(0.0404414085967 -0.00823265468044 1.9708695066e-22)
(0.0409000898811 -0.00669367000918 2.70791203746e-22)
(0.0417470512056 -0.0103488372985 7.18073159706e-23)
(0.0421006231426 -0.00866423949798 1.08722829115e-22)
(0.043302044249 -0.0124727451186 1.97892363406e-23)
(0.043521022196 -0.0106348118757 2.79807726884e-23)
(0.0451605565074 -0.014594969898 -3.61778696259e-24)
(0.045215008439 -0.0125918402943 7.57110692121e-24)
(0.0473642721657 -0.0166876269659 -1.66087162312e-23)
(0.0472225016484 -0.0145309738993 -1.39193746807e-23)
(0.0499428962632 -0.0187577288876 -1.78151540952e-23)
(0.0495941824618 -0.0164408241232 -1.4675743142e-23)
(0.0529253542948 -0.0207786975184 -4.85791575385e-23)
(0.0523396088119 -0.0182920260636 -2.08031854212e-23)
(0.0563323064744 -0.02273795377 -1.34668053084e-22)
(0.0555041468472 -0.0200665016997 -7.39143636118e-23)
(0.0601706151765 -0.0245995821144 -2.63251545846e-22)
(0.0590780410229 -0.0217391837055 -1.65673410874e-22)
(0.064481613941 -0.0263369113655 -5.06922606269e-22)
(0.0630685420471 -0.0232709923311 -3.19182411986e-22)
(0.0693781555009 -0.0279090257504 -1.30261953409e-21)
(0.067534901102 -0.0246298494364 -6.22885172386e-22)
(0.0748203517071 -0.0292256501611 -2.40601027858e-21)
(0.0725854722432 -0.0257831796795 -1.52542870637e-21)
(0.0785905064928 -0.0301659587168 -5.5221797889e-21)
(0.0779886488317 -0.0258482572388 -4.94017563153e-21)
(0.0772351177121 -0.0311562327125 -1.03052675097e-20)
(0.0799499098775 -0.028748265684 -6.2135013409e-21)
(0.0979303852969 -0.0323981114195 -1.49536175842e-20)
(0.075824590187 -0.0239081708269 -1.132833476e-20)
(0.105042259284 -0.034107411664 -1.49092905021e-20)
(0.122967355166 -0.0325144350041 -1.47409749784e-20)
(0.0912184259877 -0.032807353068 -1.06496995005e-20)
(0.0393657871762 -0.00173797267649 1.92488796192e-22)
(0.0398834453246 -0.00076363053399 1.89704513446e-23)
(0.0402220753307 -0.00350584440357 3.22476933418e-22)
(0.0406112964531 -0.00243931150833 1.91151530437e-22)
(0.0412660727217 -0.00531322767549 3.23708845865e-22)
(0.0416280845414 -0.00405795377165 2.95220309017e-22)
(0.0424128795874 -0.0071426607501 1.82427082201e-22)
(0.0427294889317 -0.00574430341003 2.11428957849e-22)
(0.0437191659151 -0.00897451924919 6.48962858323e-23)
(0.0439324870415 -0.00743254196407 8.38350764269e-23)
(0.0452658347275 -0.0107865530684 1.57626432689e-23)
(0.0453331073749 -0.00911027607324 2.04543746001e-23)
(0.0471038274294 -0.012577811717 -2.73048079693e-24)
(0.0470063457908 -0.0107635709803 4.84116676322e-24)
(0.0492733726228 -0.014337396808 -1.19864015915e-23)
(0.0489821690622 -0.0123764272586 -1.3116805357e-23)
(0.0518020079716 -0.0160479958678 -1.76637744681e-23)
(0.0513048256041 -0.0139402867955 -1.46564961496e-23)
(0.0547088622078 -0.0176787735366 -4.61383914944e-23)
(0.0539703984406 -0.0154290715605 -1.72885374662e-23)
(0.0580166394422 -0.0191949033401 -1.04919721402e-22)
(0.0570201953226 -0.0168057847659 -7.31342217173e-23)
(0.0617230255444 -0.0205843593348 -2.21604277014e-22)
(0.0604673101256 -0.0180502873499 -1.35060495755e-22)
(0.0658360827702 -0.0217864864625 -4.35144978102e-22)
(0.0642703968348 -0.019115586735 -3.17668608421e-22)
(0.070409917231 -0.0226800812747 -8.45694344665e-22)
(0.0684281609089 -0.0199265387253 -5.1432395904e-22)
(0.0753856954647 -0.0230581854752 -4.05959405931e-21)
(0.07296323064 -0.0204164414887 -1.48793268874e-21)
(0.0790377399016 -0.0227910579433 -5.63149718353e-21)
(0.0777212438388 -0.0195092767492 -2.97817054864e-21)
(0.0784072952831 -0.0228960276583 -7.23656859113e-21)
(0.080054759659 -0.0212605346731 -3.29370950436e-21)
(0.101031147112 -0.0249046573289 -1.11156921542e-20)
(0.0778331929777 -0.017197836996 -6.86056711718e-21)
(0.109492532217 -0.0310300158915 -1.04813839768e-20)
(0.12909289045 -0.0249490118121 -8.81240107849e-21)
(0.0939318119863 -0.0327118223235 -6.29611270391e-21)
(0.0409849552826 -0.00146946290373 1.76331855894e-23)
(0.0413528167325 -0.000634151927135 -2.3863716754e-22)
(0.0418759211812 -0.00297049371469 1.63894906036e-22)
(0.042112231141 -0.00203625461643 -5.08265739763e-23)
(0.0429471180301 -0.00450880623852 1.82940421001e-22)
(0.0431663089658 -0.00338945083972 7.38974932682e-23)
(0.0441014278676 -0.00605624473233 1.12836952075e-22)
(0.0442768628646 -0.00480495435883 8.10234124309e-23)
(0.0453978425369 -0.0075994791536 3.93931651947e-23)
(0.0454756992758 -0.00621665926151 2.95469048201e-23)
(0.0469213272948 -0.00912169035562 9.53289809442e-24)
(0.0468553468603 -0.00760636429829 4.89224969038e-24)
(0.0487250760423 -0.0106116989661 -5.54515779688e-24)
(0.0484964257676 -0.00896155118942 -4.16574189216e-25)
(0.0508405616037 -0.0120521588149 -1.57868999152e-23)
(0.05042269719 -0.0102663546701 -1.25584574753e-23)
(0.0532933385292 -0.0134066496185 -1.42812591478e-23)
(0.0526593784108 -0.0115074859298 -1.01405361518e-23)
(0.0560982355092 -0.0146741835737 -4.4284367689e-23)
(0.0552379031404 -0.0126642586634 3.38424108922e-24)
(0.059270722547 -0.0158133634824 -1.0327499607e-22)
(0.0581593545469 -0.0136829455125 -6.84509046701e-23)
(0.0627987162072 -0.0167709259094 -2.31124827162e-22)
(0.0614246618757 -0.0145440193052 -9.48011233072e-23)
(0.0666419525811 -0.0174961403372 -3.96847589359e-22)
(0.0649952972205 -0.0152091400936 -2.37729236551e-22)
(0.0707711053513 -0.0178642841584 -1.15656230311e-21)
(0.0687958813667 -0.0155745750059 -2.57928421587e-22)
(0.075092528428 -0.0176733128269 -4.06509178066e-22)
(0.0727718262033 -0.0155785533125 -8.09607565985e-22)
(0.0784311121314 -0.0166945887016 -6.40382869474e-22)
(0.0767421445114 -0.0141169761886 2.78597303019e-21)
(0.0790418918895 -0.0156169304761 -2.91770803041e-21)
(0.0789769295084 -0.0152350686075 -1.23025747164e-21)
(0.106218601521 -0.0168013784386 -4.55727604151e-21)
(0.0790176082787 -0.0116808402208 -2.83860891084e-21)
(0.114084892152 -0.0266296107557 -4.6271298056e-21)
(0.138921322601 -0.0167251416145 -3.27995354125e-21)