/*--------------------------------*- C++ -*----------------------------------*\
| =========                 |                                                 |
| \\      /  F ield         | OpenFOAM: The Open Source CFD Toolbox           |
|  \\    /   O peration     | Version:  v2012                                 |
|   \\  /    A nd           | Website:  www.openfoam.com                      |
|    \\/     M anipulation  |                                                 |
\*---------------------------------------------------------------------------*/
FoamFile
{
    version     2.0;
    format      ascii;
    class       volScalarField;
    location    "0.7";
    object      k;
}
// * * * * * * * * * * * * * * * * * * * * * * * * * * * * * * * * * * * * * //

dimensions      [0 2 -2 0 0 0 0];


internalField   nonuniform List<scalar> 
164
(
0.0230719694101
0.0276145586367
0.0286556782136
0.028902480593
0.0289779858701
0.0290280495685
0.0290813181712
0.0291426589385
0.0230928663134
0.0276526212215
0.0286788913488
0.0289141673069
0.0289828458093
0.0290275445269
0.0290751781371
0.0291300927025
0.0291928975284
0.02926367704
0.0293424903146
0.0231069543528
0.0276804223222
0.0286928508272
0.0289180209839
0.02898079883
0.0290207878175
0.029063410143
0.0291125798022
0.0291688151732
0.0292321781583
0.0293027304661
0.0293807524683
0.0294682582695
0.0231153126436
0.0276985889012
0.0286983845162
0.0289149259908
0.0289726799555
0.0290085581534
0.0290467398959
0.0290907887077
0.0291411575634
0.0291978905693
0.0292610395494
0.0293308940865
0.0294097991777
0.029513162782
0.0231189465115
0.0277077810553
0.0286963558796
0.0289057418181
0.0289592891051
0.0289915940858
0.029025846616
0.0290653482173
0.0291104949499
0.0291613195788
0.029217854093
0.0292804179374
0.0293517120295
0.0294492982064
0.0231187994988
0.0277086669381
0.0286875942682
0.0288912745105
0.0289413717335
0.0289705891087
0.0290013762515
0.0290368486654
0.0290773631293
0.029122940414
0.0291735940083
0.0292296803897
0.0292942309901
0.029386771425
0.0231157810678
0.027701973776
0.0286729631329
0.0288722787376
0.0289196133739
0.0289461810272
0.0289739241071
0.029005834267
0.0290422381573
0.0290831365489
0.0291285280023
0.0291788072057
0.029237318623
0.0293248932073
0.0231104203533
0.0276882558017
0.0286532610365
0.0288494644976
0.0288946358677
0.0289189249898
0.0289439827751
0.0289727437184
0.0290055154632
0.0290422871868
0.0290830502297
0.0291282189755
0.0291813136538
0.0292639150748
0.0231004048292
0.027670109077
0.0286300981593
0.0288237318421
0.0288670466394
0.0288893461509
0.0289120545099
0.0289380575237
0.0289676480051
0.0290008047587
0.0290375110472
0.0290781878673
0.0291264277297
0.0292040447844
0.0230857527178
0.0276486110151
0.0286042343786
0.0287956466324
0.0288373516568
0.0288579218619
0.0288785867776
0.0289021902317
0.0289290119278
0.0289590213539
0.0289921932602
0.0290289424051
0.0290728434624
0.0291455099726
0.0293515767596
0.0300938232514
0.0230670919627
0.0276243125841
0.028576169105
0.0287656715662
0.0288059913556
0.0288250704816
0.0288439718874
0.028865503202
0.028889932464
0.0289172207562
0.028947334091
0.0289806701138
0.0290207127113
0.0290885308137
0.0292863418941
0.0300100709271
0.0230450149026
0.0275977007086
0.0285463391602
0.0287342141058
0.0287733532596
0.0287911590349
0.0288085525224
0.0288283101169
0.0288506893521
0.0288756436555
0.028903130153
0.028933521067
0.0289701551847
0.0290333028949
0.0292218297246
0.0299221588928
)
;

boundaryField
{
    back
    {
        type            kqRWallFunction;
        value           nonuniform List<scalar> 
164
(
0.0230719694101
0.0276145586367
0.0286556782136
0.028902480593
0.0289779858701
0.0290280495685
0.0290813181712
0.0291426589385
0.0230928663134
0.0276526212215
0.0286788913488
0.0289141673069
0.0289828458093
0.0290275445269
0.0290751781371
0.0291300927025
0.0291928975284
0.02926367704
0.0293424903146
0.0231069543528
0.0276804223222
0.0286928508272
0.0289180209839
0.02898079883
0.0290207878175
0.029063410143
0.0291125798022
0.0291688151732
0.0292321781583
0.0293027304661
0.0293807524683
0.0294682582695
0.0231153126436
0.0276985889012
0.0286983845162
0.0289149259908
0.0289726799555
0.0290085581534
0.0290467398959
0.0290907887077
0.0291411575634
0.0291978905693
0.0292610395494
0.0293308940865
0.0294097991777
0.029513162782
0.0231189465115
0.0277077810553
0.0286963558796
0.0289057418181
0.0289592891051
0.0289915940858
0.029025846616
0.0290653482173
0.0291104949499
0.0291613195788
0.029217854093
0.0292804179374
0.0293517120295
0.0294492982064
0.0231187994988
0.0277086669381
0.0286875942682
0.0288912745105
0.0289413717335
0.0289705891087
0.0290013762515
0.0290368486654
0.0290773631293
0.029122940414
0.0291735940083
0.0292296803897
0.0292942309901
0.029386771425
0.0231157810678
0.027701973776
0.0286729631329
0.0288722787376
0.0289196133739
0.0289461810272
0.0289739241071
0.029005834267
0.0290422381573
0.0290831365489
0.0291285280023
0.0291788072057
0.029237318623
0.0293248932073
0.0231104203533
0.0276882558017
0.0286532610365
0.0288494644976
0.0288946358677
0.0289189249898
0.0289439827751
0.0289727437184
0.0290055154632
0.0290422871868
0.0290830502297
0.0291282189755
0.0291813136538
0.0292639150748
0.0231004048292
0.027670109077
0.0286300981593
0.0288237318421
0.0288670466394
0.0288893461509
0.0289120545099
0.0289380575237
0.0289676480051
0.0290008047587
0.0290375110472
0.0290781878673
0.0291264277297
0.0292040447844
0.0230857527178
0.0276486110151
0.0286042343786
0.0287956466324
0.0288373516568
0.0288579218619
0.0288785867776
0.0289021902317
0.0289290119278
0.0289590213539
0.0289921932602
0.0290289424051
0.0290728434624
0.0291455099726
0.0293515767596
0.0300938232514
0.0230670919627
0.0276243125841
0.028576169105
0.0287656715662
0.0288059913556
0.0288250704816
0.0288439718874
0.028865503202
0.028889932464
0.0289172207562
0.028947334091
0.0289806701138
0.0290207127113
0.0290885308137
0.0292863418941
0.0300100709271
0.0230450149026
0.0275977007086
0.0285463391602
0.0287342141058
0.0287733532596
0.0287911590349
0.0288085525224
0.0288283101169
0.0288506893521
0.0288756436555
0.028903130153
0.028933521067
0.0289701551847
0.0290333028949
0.0292218297246
0.0299221588928
)
;
    }
    sides
    {
        type            kqRWallFunction;
        value           nonuniform List<scalar> 0();
    }
    bottom
    {
        type            kqRWallFunction;
        value           nonuniform List<scalar> 
12
(
0.0230719694101
0.0230928663134
0.0231069543528
0.0231153126436
0.0231189465115
0.0231187994988
0.0231157810678
0.0231104203533
0.0231004048292
0.0230857527178
0.0230670919627
0.0230450149026
)
;
    }
    front
    {
        type            kqRWallFunction;
        value           nonuniform List<scalar> 
164
(
0.0230719694101
0.0276145586367
0.0286556782136
0.028902480593
0.0289779858701
0.0290280495685
0.0290813181712
0.0291426589385
0.0230928663134
0.0276526212215
0.0286788913488
0.0289141673069
0.0289828458093
0.0290275445269
0.0290751781371
0.0291300927025
0.0291928975284
0.02926367704
0.0293424903146
0.0231069543528
0.0276804223222
0.0286928508272
0.0289180209839
0.02898079883
0.0290207878175
0.029063410143
0.0291125798022
0.0291688151732
0.0292321781583
0.0293027304661
0.0293807524683
0.0294682582695
0.0231153126436
0.0276985889012
0.0286983845162
0.0289149259908
0.0289726799555
0.0290085581534
0.0290467398959
0.0290907887077
0.0291411575634
0.0291978905693
0.0292610395494
0.0293308940865
0.0294097991777
0.029513162782
0.0231189465115
0.0277077810553
0.0286963558796
0.0289057418181
0.0289592891051
0.0289915940858
0.029025846616
0.0290653482173
0.0291104949499
0.0291613195788
0.029217854093
0.0292804179374
0.0293517120295
0.0294492982064
0.0231187994988
0.0277086669381
0.0286875942682
0.0288912745105
0.0289413717335
0.0289705891087
0.0290013762515
0.0290368486654
0.0290773631293
0.029122940414
0.0291735940083
0.0292296803897
0.0292942309901
0.029386771425
0.0231157810678
0.027701973776
0.0286729631329
0.0288722787376
0.0289196133739
0.0289461810272
0.0289739241071
0.029005834267
0.0290422381573
0.0290831365489
0.0291285280023
0.0291788072057
0.029237318623
0.0293248932073
0.0231104203533
0.0276882558017
0.0286532610365
0.0288494644976
0.0288946358677
0.0289189249898
0.0289439827751
0.0289727437184
0.0290055154632
0.0290422871868
0.0290830502297
0.0291282189755
0.0291813136538
0.0292639150748
0.0231004048292
0.027670109077
0.0286300981593
0.0288237318421
0.0288670466394
0.0288893461509
0.0289120545099
0.0289380575237
0.0289676480051
0.0290008047587
0.0290375110472
0.0290781878673
0.0291264277297
0.0292040447844
0.0230857527178
0.0276486110151
0.0286042343786
0.0287956466324
0.0288373516568
0.0288579218619
0.0288785867776
0.0289021902317
0.0289290119278
0.0289590213539
0.0289921932602
0.0290289424051
0.0290728434624
0.0291455099726
0.0293515767596
0.0300938232514
0.0230670919627
0.0276243125841
0.028576169105
0.0287656715662
0.0288059913556
0.0288250704816
0.0288439718874
0.028865503202
0.028889932464
0.0289172207562
0.028947334091
0.0289806701138
0.0290207127113
0.0290885308137
0.0292863418941
0.0300100709271
0.0230450149026
0.0275977007086
0.0285463391602
0.0287342141058
0.0287733532596
0.0287911590349
0.0288085525224
0.0288283101169
0.0288506893521
0.0288756436555
0.028903130153
0.028933521067
0.0289701551847
0.0290333028949
0.0292218297246
0.0299221588928
)
;
    }
    atmosphere
    {
        type            inletOutlet;
        inletValue      nonuniform List<scalar> 0();
        value           nonuniform List<scalar> 0();
    }
    floatingObject
    {
        type            kqRWallFunction;
        value           nonuniform List<scalar> 0();
    }
    procBoundary7to6
    {
        type            processor;
        value           nonuniform List<scalar> 
11
(
0.0297227846677
0.0296646507585
0.0296057602222
0.0295445550037
0.0294813979249
0.0294168376679
0.0294168376679
0.030171041235
0.0325608914358
0.0324415704228
0.0323038474316
)
;
    }
    procBoundary7to8
    {
        type            processor;
        value           nonuniform List<scalar> 
17
(
0.023043174199
0.0275658362772
0.0286225063715
0.0288821106378
0.0289653651771
0.02902148429
0.0290810603586
0.0291495921019
0.0292128075216
0.0292128075216
0.0292918541628
0.029379854472
0.0294296000592
0.0294296000592
0.0295267304422
0.029578672363
0.029578672363
)
;
    }
    procBoundary7to9
    {
        type            processor;
        value           nonuniform List<scalar> 
16
(
0.023020064767
0.0275692105992
0.0285151274844
0.0287016303471
0.0287397755257
0.0287565070899
0.0287726260664
0.0287908818234
0.0288115222526
0.0288344936162
0.0288597438722
0.0288876136651
0.0289212588841
0.0289799769283
0.0291586360568
0.0298322794915
)
;
    }
}


// ************************************************************************* //
