/*--------------------------------*- C++ -*----------------------------------*\
| =========                 |                                                 |
| \\      /  F ield         | OpenFOAM: The Open Source CFD Toolbox           |
|  \\    /   O peration     | Version:  v2012                                 |
|   \\  /    A nd           | Website:  www.openfoam.com                      |
|    \\/     M anipulation  |                                                 |
\*---------------------------------------------------------------------------*/
FoamFile
{
    version     2.0;
    format      ascii;
    class       volVectorField;
    location    "0.7";
    object      U;
}
// * * * * * * * * * * * * * * * * * * * * * * * * * * * * * * * * * * * * * //

dimensions      [0 1 -1 0 0 0 0];


internalField   nonuniform List<vector> 
164
(
(-0.133870243104 0.00334521581459 -9.62167609394e-23)
(-0.138479596245 0.00880978566461 -5.86640581154e-22)
(-0.141024542336 0.0147627225309 -9.36030690498e-23)
(-0.144230661068 0.0207888223525 2.81628284633e-23)
(-0.148497162183 0.0267059518632 2.6238285829e-23)
(-0.153937490421 0.0325300242499 2.93718235826e-23)
(-0.160621901261 0.0382183347508 4.41166460677e-23)
(-0.16860963262 0.0436950532328 7.29856135911e-23)
(-0.13921997332 0.00270520091792 -4.55213319022e-23)
(-0.143872961921 0.00733855345646 2.19203644694e-23)
(-0.14641079376 0.0122119821937 4.30129417222e-23)
(-0.149559024471 0.017126795414 8.24127528184e-23)
(-0.153728138966 0.021906345434 5.50815211954e-23)
(-0.159020875517 0.0265436356236 1.67327591505e-23)
(-0.165493053653 0.0309910128736 1.33360999554e-23)
(-0.173194036497 0.0351770981859 -9.91085955751e-23)
(-0.18216453652 0.0390174528281 5.14770045168e-23)
(-0.192446104602 0.0424323179 -2.36463306684e-23)
(-0.204071616341 0.0453469582969 -1.11775027163e-22)
(-0.143585211785 0.00208806301799 2.88333319127e-23)
(-0.148238989578 0.0058966701081 3.2684292518e-22)
(-0.150741018456 0.00971727629767 1.21192287856e-22)
(-0.153796597945 0.0135641155201 8.12389707475e-23)
(-0.157827916941 0.0172532995111 -1.04235680714e-23)
(-0.162928466118 0.020761833089 -4.53361447551e-23)
(-0.169143540553 0.0240367903379 -3.00272381953e-23)
(-0.176514348486 0.0270089140937 -5.92573713704e-23)
(-0.185076923175 0.0295975704118 -5.22938272904e-23)
(-0.194864410402 0.0317231839627 -9.00553592616e-23)
(-0.205918449878 0.0333084802634 -1.18037264748e-22)
(-0.21828082336 0.0342731768198 -7.8989989653e-23)
(-0.232014477861 0.0345407603636 -1.54414782265e-22)
(-0.146992811839 0.00150023385131 9.19422078639e-24)
(-0.1516104753 0.00449923927801 6.23642259291e-22)
(-0.154052661804 0.00730317742179 2.34867798978e-22)
(-0.156988546458 0.0101322891674 4.37929882554e-23)
(-0.16085041088 0.0127820964472 -1.8249096216e-23)
(-0.165724883968 0.015221892123 -1.87627633479e-23)
(-0.171648736528 0.0173941598971 -3.52345058918e-24)
(-0.17865324351 0.0192286721616 -2.1660089082e-23)
(-0.186770280412 0.0206471530439 -8.60326672917e-23)
(-0.196028530837 0.021565133992 -9.90308302074e-23)
(-0.20647119836 0.0219009058043 -6.65681199293e-23)
(-0.21813369157 0.0215621580758 -1.14996140363e-22)
(-0.231082720156 0.0204442593978 -1.49639663261e-22)
(-0.245412315727 0.0184413080623 -1.09580119365e-22)
(-0.149478212158 0.000949399930469 -1.10859376176e-22)
(-0.154029504234 0.00316043216966 5.85124638039e-22)
(-0.15638951866 0.00498813039605 1.32230655441e-22)
(-0.159184988404 0.00685481719815 1.02403315871e-23)
(-0.162853313343 0.00852031576226 -2.32604296145e-24)
(-0.167475050037 0.00995363839402 -2.31122434315e-23)
(-0.173079228049 0.0110937995994 -2.44550773846e-23)
(-0.179689614346 0.0118692735213 -4.21332499932e-23)
(-0.187330420193 0.0122008742798 -6.43459187037e-23)
(-0.196027988674 0.0119978461753 -8.57438013634e-23)
(-0.205812205024 0.0111763250522 -1.99453292579e-24)
(-0.216719661559 0.00963162913907 -5.65149824561e-23)
(-0.2287988406 0.00723429711465 2.28841162586e-22)
(-0.242119308543 0.00384618397034 -6.40081844697e-23)
(-0.151081396407 0.000444397137958 -3.33245520486e-22)
(-0.155548176293 0.001892356795 3.5004045888e-22)
(-0.157799013958 0.00278526954801 2.88406965014e-23)
(-0.160437461252 0.00374684958478 -5.82084634367e-23)
(-0.163896992048 0.00448754427272 -3.55847001333e-23)
(-0.16824716991 0.00498048499219 -2.05851904882e-23)
(-0.173510246554 0.00516152274402 -3.09437103162e-23)
(-0.179703377775 0.00495732190504 -2.62605037549e-23)
(-0.186844323043 0.00428670365137 -6.18709704832e-23)
(-0.194952227682 0.00305968941781 -1.20561792259e-22)
(-0.204042970003 0.00118375152946 -7.39465334997e-23)
(-0.214150772501 -0.00145259883499 -2.08565482242e-22)
(-0.225298045063 -0.00498191092869 -2.33606547279e-22)
(-0.237521519009 -0.00954316225643 -2.02961386947e-22)
(-0.151846099293 -2.13967099482e-05 -6.99639836557e-22)
(-0.156240411407 0.000692247231399 -4.70416786249e-22)
(-0.158320925115 0.000707930849485 -4.45351927585e-22)
(-0.160804994613 0.000820271609859 -1.47917584414e-22)
(-0.164046033946 0.000698105596675 -3.41709806874e-23)
(-0.168111184243 0.000320429032788 -1.8223602968e-23)
(-0.173018021154 -0.000382812700214 -1.36111399851e-23)
(-0.178777563105 -0.0014855027172 1.12641368293e-23)
(-0.185400376901 -0.0030692755605 -4.32429761102e-23)
(-0.192896939792 -0.00522362071479 -3.35720059389e-23)
(-0.201276917878 -0.0080461095563 5.50983216377e-23)
(-0.210555493891 -0.0116491229543 -1.45633392762e-22)
(-0.220740604095 -0.0161622163416 2.42309009765e-22)
(-0.231842397127 -0.0217155650138 2.38144617136e-22)
(-0.15180326227 -0.000527953260425 -5.0607217318e-22)
(-0.156102557909 -0.000437579873446 -4.19967957884e-22)
(-0.158035153494 -0.00120958708634 -2.35013902243e-22)
(-0.160354931959 -0.00192505714813 -1.06436899614e-22)
(-0.163368105335 -0.00283418960089 -2.92514377835e-23)
(-0.167138943375 -0.00401234886095 -1.76627837761e-23)
(-0.171679922753 -0.00552500004919 6.79959164725e-25)
(-0.176996114556 -0.00744473515719 -4.13330353469e-24)
(-0.183091172735 -0.00985257104066 -4.41650447119e-23)
(-0.189967439618 -0.0128371204766 2.53391162241e-23)
(-0.197625739702 -0.0164958359557 5.36600575658e-23)
(-0.206065811805 -0.0209394952163 -4.91558798112e-23)
(-0.215281188845 -0.0262930682054 1.48980016097e-22)
(-0.225262424358 -0.0326759276945 -1.33377185823e-22)
(-0.151008716537 -0.000959467075351 -7.29107719842e-22)
(-0.155176503126 -0.00148612815258 8.8364339713e-22)
(-0.157011040287 -0.00298625696172 -7.7324402419e-23)
(-0.159150313792 -0.00445745744844 -6.32948034168e-23)
(-0.161929928714 -0.00609790026704 -3.0225336926e-23)
(-0.165401973991 -0.0080089818357 -4.23650769237e-23)
(-0.169573160018 -0.010257179533 -5.36214663017e-24)
(-0.174443040541 -0.0129136210051 1.49996045512e-23)
(-0.180008706423 -0.0160576189244 -3.66986692907e-23)
(-0.186264756357 -0.0197756389702 1.79507060837e-23)
(-0.193202765072 -0.0241623632798 1.00625910257e-23)
(-0.200810359408 -0.0293246409046 -9.98740639963e-23)
(-0.209067393981 -0.0353812891357 4.06279703956e-23)
(-0.217947687432 -0.0424392697249 -5.54129620939e-23)
(-0.149549001317 -0.00134833062543 -5.88496651648e-22)
(-0.153566162221 -0.00245518148796 3.91443961522e-22)
(-0.155286097991 -0.00462371029368 2.2662550616e-22)
(-0.157250754082 -0.00677970706929 -4.82639704185e-23)
(-0.159796635002 -0.00908985404649 -2.53053925918e-23)
(-0.162970200883 -0.0116672266378 -1.96832020298e-23)
(-0.166773324332 -0.014578620379 -7.93599390393e-24)
(-0.17120047433 -0.017893257126 -2.6096890415e-24)
(-0.176242783703 -0.0216878219157 1.02101949206e-23)
(-0.181887795339 -0.0260453578 2.7963723489e-23)
(-0.188118652669 -0.0310560448222 -3.42499004865e-23)
(-0.194912921617 -0.0368209743412 -1.22411470212e-22)
(-0.20223863924 -0.0434512716603 1.05285121987e-23)
(-0.210055113611 -0.0510398827768 -2.91637116108e-23)
(-0.218311787939 -0.0597257470325 8.53277609069e-23)
(-0.226850511438 -0.0697449567681 -1.56638544164e-22)
(-0.147466514477 -0.00169973502031 -3.74874500065e-22)
(-0.151326932091 -0.00334736857907 -1.01372219364e-23)
(-0.152924146907 -0.00612418266117 -1.88679205477e-22)
(-0.154717069562 -0.00889804833489 -2.46740673659e-22)
(-0.157032632817 -0.0118142019222 -6.10056936001e-23)
(-0.159912395403 -0.0149914317717 -2.33636920215e-23)
(-0.163354199845 -0.0184952550767 -1.98257628375e-23)
(-0.167348095852 -0.0223920726155 -1.21268931746e-23)
(-0.171880026655 -0.026754980644 -9.52250707863e-23)
(-0.176931416245 -0.0316624858984 -3.71031651017e-23)
(-0.182478225324 -0.0371989843621 -4.6738485856e-23)
(-0.188489719875 -0.0434583669318 -1.10285349238e-22)
(-0.19492433448 -0.0505428086354 8.12353935972e-23)
(-0.201729412666 -0.0585303146487 4.01321733082e-23)
(-0.208843639392 -0.0675434491171 4.6679566827e-22)
(-0.216092320926 -0.077876713705 4.23912633481e-22)
(-0.144815039403 -0.00201510186746 -4.68896082256e-22)
(-0.148513331622 -0.00416201081914 2.83802289614e-22)
(-0.149985890014 -0.00748903927341 -3.54010966491e-22)
(-0.15161058989 -0.0108183647975 -2.785576124e-22)
(-0.153701519826 -0.0142782246471 -6.05004771226e-23)
(-0.156295535221 -0.0179905258379 -4.3439572295e-23)
(-0.159386991698 -0.0220184656568 -4.35449107188e-23)
(-0.162962185058 -0.0264248044856 9.7635505849e-24)
(-0.167002704361 -0.03127820717 -6.75452706382e-23)
(-0.171484919002 -0.0366517616805 -5.15036347065e-23)
(-0.176378988437 -0.0426231508333 4.38345380818e-23)
(-0.181647634535 -0.0492779985127 -4.77301087957e-23)
(-0.187242016495 -0.0567086763679 5.22569824034e-23)
(-0.193100370037 -0.0649782623566 -5.32947216255e-24)
(-0.199152837911 -0.074187419006 2.4962876659e-22)
(-0.20521699752 -0.0846775068757 2.51976665129e-22)
)
;

boundaryField
{
    back
    {
        type            noSlip;
    }
    sides
    {
        type            noSlip;
    }
    bottom
    {
        type            noSlip;
    }
    front
    {
        type            noSlip;
    }
    atmosphere
    {
        type            pressureInletOutletVelocity;
        value           nonuniform List<vector> 0();
    }
    floatingObject
    {
        type            movingWallVelocity;
        value           nonuniform List<vector> 0();
    }
    procBoundary7to6
    {
        type            processor;
        value           nonuniform List<vector> 
11
(
(-0.261269452907 0.0152950523516 -3.27878589697e-23)
(-0.256769513523 -0.000741710666868 1.66236312142e-22)
(-0.250840665356 -0.0152970330266 -9.18345887881e-23)
(-0.243854269931 -0.0284592872009 5.81043415336e-22)
(-0.235986928077 -0.0402397034599 -1.06111059629e-22)
(-0.227413774909 -0.0506473732435 1.15145643812e-22)
(-0.227413774909 -0.0506473732435 1.15145643812e-22)
(-0.237334092351 -0.0601717206393 -1.70086308828e-22)
(-0.235553909063 -0.0813394298096 -1.53062464526e-21)
(-0.223273617105 -0.0896411726158 -1.16500095773e-21)
(-0.211013889094 -0.0964613428317 -2.32602187184e-21)
)
;
    }
    procBoundary7to8
    {
        type            processor;
        value           nonuniform List<vector> 
17
(
(-0.127518222529 0.00399724643526 2.08501870483e-22)
(-0.132035680447 0.0102894860641 2.09651380021e-22)
(-0.134553869442 0.01733759269 8.40728723396e-23)
(-0.137773876984 0.0245081164581 3.19820685898e-22)
(-0.142083614908 0.0316037012743 1.23088809854e-22)
(-0.147611235579 0.0386705367302 1.20110138698e-22)
(-0.154449309978 0.0456709951408 1.44457841454e-22)
(-0.162676241477 0.0525233309679 -1.00921363219e-22)
(-0.177952575245 0.0488708012634 1.65578547695e-23)
(-0.177952575245 0.0488708012634 1.65578547695e-23)
(-0.188695222519 0.0536566243301 9.89135019863e-23)
(-0.200861151276 0.0579707124494 1.28795913136e-22)
(-0.217076994393 0.0476904305917 -6.73968641793e-23)
(-0.217076994393 0.0476904305917 -6.73968641793e-23)
(-0.23150783828 0.0494132803661 7.63406664425e-23)
(-0.247219409181 0.0340412710202 -5.2011719327e-22)
(-0.247219409181 0.0340412710202 -5.2011719327e-22)
)
;
    }
    procBoundary7to9
    {
        type            processor;
        value           nonuniform List<vector> 
16
(
(-0.141647221523 -0.00229622017085 -6.62436844484e-22)
(-0.145179179051 -0.0048999562111 2.50387422184e-23)
(-0.146528829767 -0.00872101387002 -1.5704976815e-22)
(-0.147990574031 -0.0125470218802 -1.31450061185e-22)
(-0.149864750467 -0.016491114089 -2.22235191933e-23)
(-0.152183927252 -0.0206766377842 6.47398509079e-24)
(-0.154939527706 -0.0251638415521 -7.93487514223e-24)
(-0.158114771452 -0.0300112798575 -5.58451504994e-24)
(-0.161687757341 -0.03528258348 -3.89955400046e-23)
(-0.165630911984 -0.0410448233971 -3.06426407177e-24)
(-0.169909995386 -0.0473683727345 4.14437032254e-23)
(-0.174482920934 -0.054329915364 -7.74856822567e-24)
(-0.179295869102 -0.0620115651965 9.38985836809e-23)
(-0.184280938731 -0.0704624782387 4.34354110119e-23)
(-0.189361627892 -0.0797579060964 2.27997251603e-22)
(-0.194352938966 -0.0902708888264 5.15980119544e-22)
)
;
    }
}


// ************************************************************************* //
