/*--------------------------------*- C++ -*----------------------------------*\
| =========                 |                                                 |
| \\      /  F ield         | OpenFOAM: The Open Source CFD Toolbox           |
|  \\    /   O peration     | Version:  v2012                                 |
|   \\  /    A nd           | Website:  www.openfoam.com                      |
|    \\/     M anipulation  |                                                 |
\*---------------------------------------------------------------------------*/
FoamFile
{
    version     2.0;
    format      ascii;
    class       volScalarField;
    location    "1.1";
    object      p_rgh;
}
// * * * * * * * * * * * * * * * * * * * * * * * * * * * * * * * * * * * * * //

dimensions      [1 -1 -2 0 0 0 0];


internalField   nonuniform List<scalar> 
164
(
8920.58181852
8920.30561392
8919.95733215
8919.33876205
8918.50922254
8917.45547197
8916.14176256
8914.54963608
8927.46213946
8927.28407062
8926.99210836
8926.50011234
8925.84888196
8925.04638501
8924.01433569
8922.77279108
8934.51286057
8934.39915662
8934.19106684
8933.84595099
8933.38452104
8932.80138122
8932.07491612
8931.20135489
8930.17251187
8928.97938563
8941.67899581
8941.62460901
8941.5044815
8941.30142387
8941.02940479
8940.68494155
8940.26237002
8939.76117069
8939.18338661
8938.53372548
8948.90744258
8948.91222226
8948.88340977
8948.81886925
8948.73409723
8948.62965518
8948.50675993
8948.37130937
8948.23401229
8948.11268026
8956.14833428
8956.21493915
8956.2771296
8956.34719858
8956.4443905
8956.5732527
8956.73938576
8956.95383185
8957.23413911
8957.60744515
8963.35311728
8963.48378407
8963.63470241
8963.83393941
8964.10534019
8964.45640772
8964.89543776
8965.4369197
8966.10237135
8966.92337164
8970.47495539
8970.67014747
8970.9060429
8971.22763013
8971.66349875
8972.2225999
8972.91522207
8973.75709184
8974.7702072
8975.98575079
8977.46770735
8977.72679447
8978.04245675
8978.47855778
8979.06752434
8979.81954946
8980.74509525
8981.859109
8983.18236246
8984.74181374
8984.28562632
8984.60764294
8984.99707583
8985.53894355
8986.26968759
8987.19884995
8988.33612368
8989.6952491
8991.29473302
8993.15591935
8990.88397438
8991.26779148
8991.72465347
8992.36359361
8993.22413058
8994.31466219
8995.64325546
8997.22265412
8999.0692252
9001.20010073
8997.21916849
8997.6635052
8998.18160218
8998.90873871
8999.88700385
9001.12327398
9002.6236256
9004.40002761
9006.46781781
9008.84307828
9003.24890183
9003.75233928
9004.32555541
9005.13189874
9006.21603993
9007.58242594
9009.23510483
9011.18510682
9013.44806942
9016.04237376
9008.93231125
9009.49295932
9010.11509514
9010.99178184
9012.17010269
9013.65080946
9015.43542038
9017.53366016
9019.96184059
9022.74270262
9014.22981754
9014.84505269
9015.51001347
9016.4483459
9017.70845479
9019.28731163
9021.1820984
9023.40008494
9025.95666557
9028.87828189
9019.10391863
9019.76986772
9020.47088148
9021.46193321
9022.79154165
9024.45202253
9026.43371374
9028.73869873
9031.37719678
9034.37825273
9023.51963482
9024.23083599
9024.96065829
9025.99426898
9027.38180382
9029.10599313
9031.14968072
9031.44120523
)
;

boundaryField
{
    back
    {
        type            fixedFluxPressure;
        gradient        uniform 0;
        value           nonuniform List<scalar> 
164
(
8920.58181852
8920.30561392
8919.95733215
8919.33876205
8918.50922254
8917.45547197
8916.14176256
8914.54963608
8927.46213946
8927.28407062
8926.99210836
8926.50011234
8925.84888196
8925.04638501
8924.01433569
8922.77279108
8934.51286057
8934.39915662
8934.19106684
8933.84595099
8933.38452104
8932.80138122
8932.07491612
8931.20135489
8930.17251187
8928.97938563
8941.67899581
8941.62460901
8941.5044815
8941.30142387
8941.02940479
8940.68494155
8940.26237002
8939.76117069
8939.18338661
8938.53372548
8948.90744258
8948.91222226
8948.88340977
8948.81886925
8948.73409723
8948.62965518
8948.50675993
8948.37130937
8948.23401229
8948.11268026
8956.14833428
8956.21493915
8956.2771296
8956.34719858
8956.4443905
8956.5732527
8956.73938576
8956.95383185
8957.23413911
8957.60744515
8963.35311728
8963.48378407
8963.63470241
8963.83393941
8964.10534019
8964.45640772
8964.89543776
8965.4369197
8966.10237135
8966.92337164
8970.47495539
8970.67014747
8970.9060429
8971.22763013
8971.66349875
8972.2225999
8972.91522207
8973.75709184
8974.7702072
8975.98575079
8977.46770735
8977.72679447
8978.04245675
8978.47855778
8979.06752434
8979.81954946
8980.74509525
8981.859109
8983.18236246
8984.74181374
8984.28562632
8984.60764294
8984.99707583
8985.53894355
8986.26968759
8987.19884995
8988.33612368
8989.6952491
8991.29473302
8993.15591935
8990.88397438
8991.26779148
8991.72465347
8992.36359361
8993.22413058
8994.31466219
8995.64325546
8997.22265412
8999.0692252
9001.20010073
8997.21916849
8997.6635052
8998.18160218
8998.90873871
8999.88700385
9001.12327398
9002.6236256
9004.40002761
9006.46781781
9008.84307828
9003.24890183
9003.75233928
9004.32555541
9005.13189874
9006.21603993
9007.58242594
9009.23510483
9011.18510682
9013.44806942
9016.04237376
9008.93231125
9009.49295932
9010.11509514
9010.99178184
9012.17010269
9013.65080946
9015.43542038
9017.53366016
9019.96184059
9022.74270262
9014.22981754
9014.84505269
9015.51001347
9016.4483459
9017.70845479
9019.28731163
9021.1820984
9023.40008494
9025.95666557
9028.87828189
9019.10391863
9019.76986772
9020.47088148
9021.46193321
9022.79154165
9024.45202253
9026.43371374
9028.73869873
9031.37719678
9034.37825273
9023.51963482
9024.23083599
9024.96065829
9025.99426898
9027.38180382
9029.10599313
9031.14968072
9031.44120523
)
;
    }
    sides
    {
        type            fixedFluxPressure;
        gradient        nonuniform List<scalar> 0();
        value           nonuniform List<scalar> 0();
    }
    bottom
    {
        type            fixedFluxPressure;
        gradient        uniform 0;
        value           nonuniform List<scalar> 
17
(
8920.58181852
8927.46213946
8934.51286057
8941.67899581
8948.90744258
8956.14833428
8963.35311728
8970.47495539
8977.46770735
8984.28562632
8990.88397438
8997.21916849
9003.24890183
9008.93231125
9014.22981754
9019.10391863
9023.51963482
)
;
    }
    front
    {
        type            fixedFluxPressure;
        gradient        uniform 0;
        value           nonuniform List<scalar> 
164
(
8920.58181852
8920.30561392
8919.95733215
8919.33876205
8918.50922254
8917.45547197
8916.14176256
8914.54963608
8927.46213946
8927.28407062
8926.99210836
8926.50011234
8925.84888196
8925.04638501
8924.01433569
8922.77279108
8934.51286057
8934.39915662
8934.19106684
8933.84595099
8933.38452104
8932.80138122
8932.07491612
8931.20135489
8930.17251187
8928.97938563
8941.67899581
8941.62460901
8941.5044815
8941.30142387
8941.02940479
8940.68494155
8940.26237002
8939.76117069
8939.18338661
8938.53372548
8948.90744258
8948.91222226
8948.88340977
8948.81886925
8948.73409723
8948.62965518
8948.50675993
8948.37130937
8948.23401229
8948.11268026
8956.14833428
8956.21493915
8956.2771296
8956.34719858
8956.4443905
8956.5732527
8956.73938576
8956.95383185
8957.23413911
8957.60744515
8963.35311728
8963.48378407
8963.63470241
8963.83393941
8964.10534019
8964.45640772
8964.89543776
8965.4369197
8966.10237135
8966.92337164
8970.47495539
8970.67014747
8970.9060429
8971.22763013
8971.66349875
8972.2225999
8972.91522207
8973.75709184
8974.7702072
8975.98575079
8977.46770735
8977.72679447
8978.04245675
8978.47855778
8979.06752434
8979.81954946
8980.74509525
8981.859109
8983.18236246
8984.74181374
8984.28562632
8984.60764294
8984.99707583
8985.53894355
8986.26968759
8987.19884995
8988.33612368
8989.6952491
8991.29473302
8993.15591935
8990.88397438
8991.26779148
8991.72465347
8992.36359361
8993.22413058
8994.31466219
8995.64325546
8997.22265412
8999.0692252
9001.20010073
8997.21916849
8997.6635052
8998.18160218
8998.90873871
8999.88700385
9001.12327398
9002.6236256
9004.40002761
9006.46781781
9008.84307828
9003.24890183
9003.75233928
9004.32555541
9005.13189874
9006.21603993
9007.58242594
9009.23510483
9011.18510682
9013.44806942
9016.04237376
9008.93231125
9009.49295932
9010.11509514
9010.99178184
9012.17010269
9013.65080946
9015.43542038
9017.53366016
9019.96184059
9022.74270262
9014.22981754
9014.84505269
9015.51001347
9016.4483459
9017.70845479
9019.28731163
9021.1820984
9023.40008494
9025.95666557
9028.87828189
9019.10391863
9019.76986772
9020.47088148
9021.46193321
9022.79154165
9024.45202253
9026.43371374
9028.73869873
9031.37719678
9034.37825273
9023.51963482
9024.23083599
9024.96065829
9025.99426898
9027.38180382
9029.10599313
9031.14968072
9031.44120523
)
;
    }
    atmosphere
    {
        type            totalPressure;
        rho             rho;
        psi             none;
        gamma           1;
        p0              nonuniform List<scalar> 0();
        value           nonuniform List<scalar> 0();
    }
    floatingObject
    {
        type            fixedFluxPressure;
        gradient        nonuniform List<scalar> 0();
        value           nonuniform List<scalar> 0();
    }
    procBoundary4to0
    {
        type            processor;
        value           nonuniform List<scalar> 8(8913.88508415 8913.55025794 8913.11613909 8912.3824466 8911.38527839 8910.11007631 8908.52817848 8906.60929339);
    }
    procBoundary4to3
    {
        type            processor;
        value           nonuniform List<scalar> 
13
(
9033.5051998
9036.17187362
9039.1718338
9027.44527475
9028.19417018
9028.9440421
9030.01083466
9033.21143497
9033.5051998
9035.29110092
9030.01083466
9033.21143497
9034.93871964
)
;
    }
    procBoundary4to5
    {
        type            processor;
        value           nonuniform List<scalar> 
18
(
8912.64955891
8921.29581791
8921.29581791
8919.56486101
8927.61028417
8937.82314584
8948.03737676
8958.11690894
8967.94763683
8977.44816604
8986.57265368
8995.30323428
9003.63252916
9011.54264753
9018.99126251
9025.91071362
9032.21411601
9037.80007869
)
;
    }
}


// ************************************************************************* //
