/*--------------------------------*- C++ -*----------------------------------*\
| =========                 |                                                 |
| \\      /  F ield         | OpenFOAM: The Open Source CFD Toolbox           |
|  \\    /   O peration     | Version:  v2012                                 |
|   \\  /    A nd           | Website:  www.openfoam.com                      |
|    \\/     M anipulation  |                                                 |
\*---------------------------------------------------------------------------*/
FoamFile
{
    version     2.0;
    format      ascii;
    class       volScalarField;
    location    "0.7";
    object      epsilon;
}
// * * * * * * * * * * * * * * * * * * * * * * * * * * * * * * * * * * * * * //

dimensions      [0 2 -3 0 0 0 0];


internalField   nonuniform List<scalar> 
167
(
0.0366987044013
0.03676636495
0.0368327994581
0.036897869532
0.0369620721933
0.0370313002059
0.0371506403126
0.0376018320074
0.0398303540058
0.0499201502727
0.0892642610042
0.21847817993
0.0362676800305
0.0363228299499
0.0363775305139
0.0364317649088
0.0364865436856
0.0365504215331
0.036680051629
0.0371892688338
0.0395146255175
0.0490053014884
0.0815473878323
0.173458735172
0.038354211238
0.0384082652534
0.0384618251411
0.0385148047718
0.0385682544276
0.0386313833914
0.0387644415227
0.039295242184
0.0416929570161
0.0513090222719
0.0838061087448
0.174597373776
0.0388818419703
0.0389331039618
0.0389838277105
0.0390350404463
0.0390961579097
0.039228674993
0.0397649806377
0.0421841591926
0.0518404080432
0.0843489151897
0.174849903073
0.039040464462
0.0390893595726
0.0391389415879
0.0391988265937
0.0393317354977
0.0398749326683
0.0423207940271
0.0520420887279
0.0846325781764
0.175009088466
0.0390811599548
0.0391284623114
0.0391767314816
0.0392358574572
0.0393701207023
0.0399230732392
0.0424049543393
0.0522164589044
0.084928052115
0.175180358884
0.0391142143121
0.039159965439
0.0392069992964
0.0392655625212
0.0394018825749
0.039967310176
0.0424941887467
0.0524174931208
0.0852756132426
0.175376135461
0.0391496327951
0.0391938513824
0.0392396826412
0.0392978190815
0.0394368382392
0.0400173948104
0.0425978829431
0.0526526476955
0.0856803069057
0.175603315397
0.0391887572863
0.0392314986672
0.0392761883677
0.0393340591021
0.0394764573006
0.0400748611658
0.0427175490129
0.0529229590044
0.0861416733504
0.175862189703
0.0392315902312
0.039272955173
0.0393166073613
0.0393744193834
0.0395209444433
0.0401400265824
0.0428535460211
0.0532281724257
0.0866588066894
0.176155167775
0.0392779717862
0.0393181018587
0.0393608625535
0.0394188720778
0.0395703520268
0.0402130996127
0.0430063011562
0.0535687390501
0.087230930378
0.176480690806
0.0393277505856
0.0393668223411
0.0394088760258
0.0394673878844
0.0396247339553
0.0402942837353
0.0431761070423
0.0539442913811
0.087856307761
0.176839236057
0.0393808042768
0.0394190249537
0.0394605918705
0.039519959092
0.0396841689525
0.0403838158096
0.0433633247126
0.0543547807851
0.0885334083846
0.177230880025
0.0394370391497
0.039474644624
0.039515979656
0.0395766038872
0.0397487640327
0.0404819638493
0.0435683399289
0.0548000921645
0.0892604837003
0.177654736321
0.0394963853497
0.0395336380763
0.0395750301875
0.039637361341
0.0398186466405
0.0405890012239
0.0437914919079
0.0552801017714
0.0900359988322
0.178111934748
0.0395587857117
0.0395959780907
0.0396377507497
0.039702290346
0.0398939588773
0.0407051838245
0.0440329384081
0.0557938918938
0.0908576359606
0.178603444722
)
;

boundaryField
{
    back
    {
        lowReCorrection 0;
        blending        stepwise;
        n               2;
        type            epsilonWallFunction;
        value           nonuniform List<scalar> 
167
(
0.0366987044013
0.03676636495
0.0368327994581
0.036897869532
0.0369620721933
0.0370313002059
0.0371506403126
0.0376018320074
0.0398303540058
0.0499201502727
0.0892642610042
0.21847817993
0.0362676800305
0.0363228299499
0.0363775305139
0.0364317649088
0.0364865436856
0.0365504215331
0.036680051629
0.0371892688338
0.0395146255175
0.0490053014884
0.0815473878323
0.173458735172
0.038354211238
0.0384082652534
0.0384618251411
0.0385148047718
0.0385682544276
0.0386313833914
0.0387644415227
0.039295242184
0.0416929570161
0.0513090222719
0.0838061087448
0.174597373776
0.0388818419703
0.0389331039618
0.0389838277105
0.0390350404463
0.0390961579097
0.039228674993
0.0397649806377
0.0421841591926
0.0518404080432
0.0843489151897
0.174849903073
0.039040464462
0.0390893595726
0.0391389415879
0.0391988265937
0.0393317354977
0.0398749326683
0.0423207940271
0.0520420887279
0.0846325781764
0.175009088466
0.0390811599548
0.0391284623114
0.0391767314816
0.0392358574572
0.0393701207023
0.0399230732392
0.0424049543393
0.0522164589044
0.084928052115
0.175180358884
0.0391142143121
0.039159965439
0.0392069992964
0.0392655625212
0.0394018825749
0.039967310176
0.0424941887467
0.0524174931208
0.0852756132426
0.175376135461
0.0391496327951
0.0391938513824
0.0392396826412
0.0392978190815
0.0394368382392
0.0400173948104
0.0425978829431
0.0526526476955
0.0856803069057
0.175603315397
0.0391887572863
0.0392314986672
0.0392761883677
0.0393340591021
0.0394764573006
0.0400748611658
0.0427175490129
0.0529229590044
0.0861416733504
0.175862189703
0.0392315902312
0.039272955173
0.0393166073613
0.0393744193834
0.0395209444433
0.0401400265824
0.0428535460211
0.0532281724257
0.0866588066894
0.176155167775
0.0392779717862
0.0393181018587
0.0393608625535
0.0394188720778
0.0395703520268
0.0402130996127
0.0430063011562
0.0535687390501
0.087230930378
0.176480690806
0.0393277505856
0.0393668223411
0.0394088760258
0.0394673878844
0.0396247339553
0.0402942837353
0.0431761070423
0.0539442913811
0.087856307761
0.176839236057
0.0393808042768
0.0394190249537
0.0394605918705
0.039519959092
0.0396841689525
0.0403838158096
0.0433633247126
0.0543547807851
0.0885334083846
0.177230880025
0.0394370391497
0.039474644624
0.039515979656
0.0395766038872
0.0397487640327
0.0404819638493
0.0435683399289
0.0548000921645
0.0892604837003
0.177654736321
0.0394963853497
0.0395336380763
0.0395750301875
0.039637361341
0.0398186466405
0.0405890012239
0.0437914919079
0.0552801017714
0.0900359988322
0.178111934748
0.0395587857117
0.0395959780907
0.0396377507497
0.039702290346
0.0398939588773
0.0407051838245
0.0440329384081
0.0557938918938
0.0908576359606
0.178603444722
)
;
    }
    sides
    {
        lowReCorrection 0;
        blending        stepwise;
        n               2;
        type            epsilonWallFunction;
        value           nonuniform List<scalar> 
12
(
0.0366987044013
0.03676636495
0.0368327994581
0.036897869532
0.0369620721933
0.0370313002059
0.0371506403126
0.0376018320074
0.0398303540058
0.0499201502727
0.0892642610042
0.21847817993
)
;
    }
    bottom
    {
        lowReCorrection 0;
        blending        stepwise;
        n               2;
        type            epsilonWallFunction;
        value           nonuniform List<scalar> 0();
    }
    front
    {
        lowReCorrection 0;
        blending        stepwise;
        n               2;
        type            epsilonWallFunction;
        value           nonuniform List<scalar> 
167
(
0.0366987044013
0.03676636495
0.0368327994581
0.036897869532
0.0369620721933
0.0370313002059
0.0371506403126
0.0376018320074
0.0398303540058
0.0499201502727
0.0892642610042
0.21847817993
0.0362676800305
0.0363228299499
0.0363775305139
0.0364317649088
0.0364865436856
0.0365504215331
0.036680051629
0.0371892688338
0.0395146255175
0.0490053014884
0.0815473878323
0.173458735172
0.038354211238
0.0384082652534
0.0384618251411
0.0385148047718
0.0385682544276
0.0386313833914
0.0387644415227
0.039295242184
0.0416929570161
0.0513090222719
0.0838061087448
0.174597373776
0.0388818419703
0.0389331039618
0.0389838277105
0.0390350404463
0.0390961579097
0.039228674993
0.0397649806377
0.0421841591926
0.0518404080432
0.0843489151897
0.174849903073
0.039040464462
0.0390893595726
0.0391389415879
0.0391988265937
0.0393317354977
0.0398749326683
0.0423207940271
0.0520420887279
0.0846325781764
0.175009088466
0.0390811599548
0.0391284623114
0.0391767314816
0.0392358574572
0.0393701207023
0.0399230732392
0.0424049543393
0.0522164589044
0.084928052115
0.175180358884
0.0391142143121
0.039159965439
0.0392069992964
0.0392655625212
0.0394018825749
0.039967310176
0.0424941887467
0.0524174931208
0.0852756132426
0.175376135461
0.0391496327951
0.0391938513824
0.0392396826412
0.0392978190815
0.0394368382392
0.0400173948104
0.0425978829431
0.0526526476955
0.0856803069057
0.175603315397
0.0391887572863
0.0392314986672
0.0392761883677
0.0393340591021
0.0394764573006
0.0400748611658
0.0427175490129
0.0529229590044
0.0861416733504
0.175862189703
0.0392315902312
0.039272955173
0.0393166073613
0.0393744193834
0.0395209444433
0.0401400265824
0.0428535460211
0.0532281724257
0.0866588066894
0.176155167775
0.0392779717862
0.0393181018587
0.0393608625535
0.0394188720778
0.0395703520268
0.0402130996127
0.0430063011562
0.0535687390501
0.087230930378
0.176480690806
0.0393277505856
0.0393668223411
0.0394088760258
0.0394673878844
0.0396247339553
0.0402942837353
0.0431761070423
0.0539442913811
0.087856307761
0.176839236057
0.0393808042768
0.0394190249537
0.0394605918705
0.039519959092
0.0396841689525
0.0403838158096
0.0433633247126
0.0543547807851
0.0885334083846
0.177230880025
0.0394370391497
0.039474644624
0.039515979656
0.0395766038872
0.0397487640327
0.0404819638493
0.0435683399289
0.0548000921645
0.0892604837003
0.177654736321
0.0394963853497
0.0395336380763
0.0395750301875
0.039637361341
0.0398186466405
0.0405890012239
0.0437914919079
0.0552801017714
0.0900359988322
0.178111934748
0.0395587857117
0.0395959780907
0.0396377507497
0.039702290346
0.0398939588773
0.0407051838245
0.0440329384081
0.0557938918938
0.0908576359606
0.178603444722
)
;
    }
    atmosphere
    {
        type            inletOutlet;
        inletValue      uniform 0.1;
        value           uniform 0.1;
    }
    floatingObject
    {
        lowReCorrection 0;
        blending        stepwise;
        n               2;
        type            epsilonWallFunction;
        value           nonuniform List<scalar> 0();
    }
    procBoundary1to0
    {
        type            processor;
        value           nonuniform List<scalar> 10(0.0396241985212 0.0396616537009 0.0397041706862 0.0397714691727 0.0399748560449 0.0408307354009 0.0442927183446 0.0563404985351 0.0917222200086 0.179129538853);
    }
    procBoundary1to2
    {
        type            processor;
        value           nonuniform List<scalar> 
18
(
0.03663000807
0.0362122206176
0.0382999178816
0.038830200271
0.038830200271
0.0389912329731
0.0389912329731
0.0390337944006
0.0390686907576
0.0391059219573
0.0391467832515
0.0391912298565
0.0392390627823
0.0392900995766
0.0393441923127
0.03940122419
0.0394611023534
0.0395237521682
)
;
    }
}


// ************************************************************************* //
