/*--------------------------------*- C++ -*----------------------------------*\
| =========                 |                                                 |
| \\      /  F ield         | OpenFOAM: The Open Source CFD Toolbox           |
|  \\    /   O peration     | Version:  v2012                                 |
|   \\  /    A nd           | Website:  www.openfoam.com                      |
|    \\/     M anipulation  |                                                 |
\*---------------------------------------------------------------------------*/
FoamFile
{
    version     2.0;
    format      ascii;
    class       volScalarField;
    location    "0.7";
    object      rAU;
}
// * * * * * * * * * * * * * * * * * * * * * * * * * * * * * * * * * * * * * //

dimensions      [-1 3 1 0 0 0 0];


internalField   nonuniform List<scalar> 
167
(
8.23231493311e-06
8.23237644824e-06
8.23239285819e-06
8.23231076886e-06
8.2320579084e-06
8.23231285064e-06
8.23219373184e-06
8.21687365577e-06
8.16308844318e-06
8.20471549946e-06
8.28774607437e-06
2.69153569618e-05
8.15622796931e-06
8.15627149796e-06
8.15627752146e-06
8.15620586695e-06
8.15592049645e-06
8.15632538849e-06
8.15931270766e-06
8.15048187574e-06
8.08022260736e-06
8.09084992409e-06
8.18078449477e-06
2.66575858173e-05
8.14287675333e-06
8.14273830005e-06
8.14259496255e-06
8.14240122571e-06
8.14199191735e-06
8.14219632397e-06
8.14449299931e-06
8.13356780365e-06
8.063721511e-06
8.11775526006e-06
8.21014697627e-06
2.6933118183e-05
8.14223400571e-06
8.14207036306e-06
8.14185276062e-06
8.14140441077e-06
8.14153560332e-06
8.14381944305e-06
8.13250611866e-06
8.05576303036e-06
7.97304347889e-06
8.08454180609e-06
2.74659332506e-05
8.14185781612e-06
8.14164206797e-06
8.14117963082e-06
8.14127009797e-06
8.14370485011e-06
8.1325150456e-06
8.05149464148e-06
7.96785744037e-06
8.10318187383e-06
2.82367974112e-05
8.14166103203e-06
8.1414476189e-06
8.14097788313e-06
8.1410523441e-06
8.14364440376e-06
8.13264493888e-06
8.0510190004e-06
7.96675770239e-06
8.12534552461e-06
2.91838558104e-05
8.14159903586e-06
8.14138637416e-06
8.14091128694e-06
8.14098382071e-06
8.14371427272e-06
8.13281560005e-06
8.05045580886e-06
7.96550863468e-06
8.14496271088e-06
3.0282401656e-05
8.14156241381e-06
8.1413503126e-06
8.14087134539e-06
8.14094983235e-06
8.14378516787e-06
8.13287096237e-06
8.04973942397e-06
7.96412002226e-06
8.16101874439e-06
3.15132770949e-05
8.14152315834e-06
8.14131137315e-06
8.14082876308e-06
8.14091981293e-06
8.14383135989e-06
8.13286478808e-06
8.05121558888e-06
7.96484218508e-06
8.1885807322e-06
3.31247187152e-05
8.14148759342e-06
8.14127444956e-06
8.14078634951e-06
8.14089832892e-06
8.1438124702e-06
8.13281975923e-06
8.05507632356e-06
7.96779176787e-06
8.22877060661e-06
3.51897317342e-05
8.14145949799e-06
8.14124287128e-06
8.14074766928e-06
8.1408834538e-06
8.14377894665e-06
8.13273006624e-06
8.05897481701e-06
7.97075875195e-06
8.27800369699e-06
3.77418641948e-05
8.14144062571e-06
8.14121750628e-06
8.14071259619e-06
8.14087371932e-06
8.143704962e-06
8.13260079663e-06
8.06356601971e-06
7.97437056418e-06
8.33857757667e-06
4.09031739658e-05
8.14143250498e-06
8.14119921591e-06
8.14068190758e-06
8.14086889213e-06
8.14358373429e-06
8.13244250729e-06
8.06831260889e-06
7.97811498611e-06
8.41279933309e-06
4.48496652527e-05
8.14143636741e-06
8.14118853547e-06
8.14065606028e-06
8.14086591527e-06
8.14342317905e-06
8.13228653498e-06
8.07283481608e-06
7.98159943582e-06
8.50303903536e-06
4.98416756738e-05
8.14145226872e-06
8.14118506142e-06
8.1406346517e-06
8.14086143525e-06
8.14322176951e-06
8.13212935026e-06
8.07707258595e-06
7.98481552315e-06
8.61248076455e-06
5.62582967823e-05
8.14147991926e-06
8.14118738986e-06
8.14061635627e-06
8.14084954689e-06
8.14297201541e-06
8.13198491076e-06
8.08110757777e-06
7.98789123372e-06
8.74486951715e-06
6.4675794038e-05
)
;

boundaryField
{
    back
    {
        type            calculated;
        value           nonuniform List<scalar> 
167
(
8.23231493311e-06
8.23237644824e-06
8.23239285819e-06
8.23231076886e-06
8.2320579084e-06
8.23231285064e-06
8.23219373184e-06
8.21687365577e-06
8.16308844318e-06
8.20471549946e-06
8.28774607437e-06
2.69153569618e-05
8.15622796931e-06
8.15627149796e-06
8.15627752146e-06
8.15620586695e-06
8.15592049645e-06
8.15632538849e-06
8.15931270766e-06
8.15048187574e-06
8.08022260736e-06
8.09084992409e-06
8.18078449477e-06
2.66575858173e-05
8.14287675333e-06
8.14273830005e-06
8.14259496255e-06
8.14240122571e-06
8.14199191735e-06
8.14219632397e-06
8.14449299931e-06
8.13356780365e-06
8.063721511e-06
8.11775526006e-06
8.21014697627e-06
2.6933118183e-05
8.14223400571e-06
8.14207036306e-06
8.14185276062e-06
8.14140441077e-06
8.14153560332e-06
8.14381944305e-06
8.13250611866e-06
8.05576303036e-06
7.97304347889e-06
8.08454180609e-06
2.74659332506e-05
8.14185781612e-06
8.14164206797e-06
8.14117963082e-06
8.14127009797e-06
8.14370485011e-06
8.1325150456e-06
8.05149464148e-06
7.96785744037e-06
8.10318187383e-06
2.82367974112e-05
8.14166103203e-06
8.1414476189e-06
8.14097788313e-06
8.1410523441e-06
8.14364440376e-06
8.13264493888e-06
8.0510190004e-06
7.96675770239e-06
8.12534552461e-06
2.91838558104e-05
8.14159903586e-06
8.14138637416e-06
8.14091128694e-06
8.14098382071e-06
8.14371427272e-06
8.13281560005e-06
8.05045580886e-06
7.96550863468e-06
8.14496271088e-06
3.0282401656e-05
8.14156241381e-06
8.1413503126e-06
8.14087134539e-06
8.14094983235e-06
8.14378516787e-06
8.13287096237e-06
8.04973942397e-06
7.96412002226e-06
8.16101874439e-06
3.15132770949e-05
8.14152315834e-06
8.14131137315e-06
8.14082876308e-06
8.14091981293e-06
8.14383135989e-06
8.13286478808e-06
8.05121558888e-06
7.96484218508e-06
8.1885807322e-06
3.31247187152e-05
8.14148759342e-06
8.14127444956e-06
8.14078634951e-06
8.14089832892e-06
8.1438124702e-06
8.13281975923e-06
8.05507632356e-06
7.96779176787e-06
8.22877060661e-06
3.51897317342e-05
8.14145949799e-06
8.14124287128e-06
8.14074766928e-06
8.1408834538e-06
8.14377894665e-06
8.13273006624e-06
8.05897481701e-06
7.97075875195e-06
8.27800369699e-06
3.77418641948e-05
8.14144062571e-06
8.14121750628e-06
8.14071259619e-06
8.14087371932e-06
8.143704962e-06
8.13260079663e-06
8.06356601971e-06
7.97437056418e-06
8.33857757667e-06
4.09031739658e-05
8.14143250498e-06
8.14119921591e-06
8.14068190758e-06
8.14086889213e-06
8.14358373429e-06
8.13244250729e-06
8.06831260889e-06
7.97811498611e-06
8.41279933309e-06
4.48496652527e-05
8.14143636741e-06
8.14118853547e-06
8.14065606028e-06
8.14086591527e-06
8.14342317905e-06
8.13228653498e-06
8.07283481608e-06
7.98159943582e-06
8.50303903536e-06
4.98416756738e-05
8.14145226872e-06
8.14118506142e-06
8.1406346517e-06
8.14086143525e-06
8.14322176951e-06
8.13212935026e-06
8.07707258595e-06
7.98481552315e-06
8.61248076455e-06
5.62582967823e-05
8.14147991926e-06
8.14118738986e-06
8.14061635627e-06
8.14084954689e-06
8.14297201541e-06
8.13198491076e-06
8.08110757777e-06
7.98789123372e-06
8.74486951715e-06
6.4675794038e-05
)
;
    }
    sides
    {
        type            calculated;
        value           nonuniform List<scalar> 
12
(
8.23231493311e-06
8.23237644824e-06
8.23239285819e-06
8.23231076886e-06
8.2320579084e-06
8.23231285064e-06
8.23219373184e-06
8.21687365577e-06
8.16308844318e-06
8.20471549946e-06
8.28774607437e-06
2.69153569618e-05
)
;
    }
    bottom
    {
        type            calculated;
        value           nonuniform List<scalar> 0();
    }
    front
    {
        type            calculated;
        value           nonuniform List<scalar> 
167
(
8.23231493311e-06
8.23237644824e-06
8.23239285819e-06
8.23231076886e-06
8.2320579084e-06
8.23231285064e-06
8.23219373184e-06
8.21687365577e-06
8.16308844318e-06
8.20471549946e-06
8.28774607437e-06
2.69153569618e-05
8.15622796931e-06
8.15627149796e-06
8.15627752146e-06
8.15620586695e-06
8.15592049645e-06
8.15632538849e-06
8.15931270766e-06
8.15048187574e-06
8.08022260736e-06
8.09084992409e-06
8.18078449477e-06
2.66575858173e-05
8.14287675333e-06
8.14273830005e-06
8.14259496255e-06
8.14240122571e-06
8.14199191735e-06
8.14219632397e-06
8.14449299931e-06
8.13356780365e-06
8.063721511e-06
8.11775526006e-06
8.21014697627e-06
2.6933118183e-05
8.14223400571e-06
8.14207036306e-06
8.14185276062e-06
8.14140441077e-06
8.14153560332e-06
8.14381944305e-06
8.13250611866e-06
8.05576303036e-06
7.97304347889e-06
8.08454180609e-06
2.74659332506e-05
8.14185781612e-06
8.14164206797e-06
8.14117963082e-06
8.14127009797e-06
8.14370485011e-06
8.1325150456e-06
8.05149464148e-06
7.96785744037e-06
8.10318187383e-06
2.82367974112e-05
8.14166103203e-06
8.1414476189e-06
8.14097788313e-06
8.1410523441e-06
8.14364440376e-06
8.13264493888e-06
8.0510190004e-06
7.96675770239e-06
8.12534552461e-06
2.91838558104e-05
8.14159903586e-06
8.14138637416e-06
8.14091128694e-06
8.14098382071e-06
8.14371427272e-06
8.13281560005e-06
8.05045580886e-06
7.96550863468e-06
8.14496271088e-06
3.0282401656e-05
8.14156241381e-06
8.1413503126e-06
8.14087134539e-06
8.14094983235e-06
8.14378516787e-06
8.13287096237e-06
8.04973942397e-06
7.96412002226e-06
8.16101874439e-06
3.15132770949e-05
8.14152315834e-06
8.14131137315e-06
8.14082876308e-06
8.14091981293e-06
8.14383135989e-06
8.13286478808e-06
8.05121558888e-06
7.96484218508e-06
8.1885807322e-06
3.31247187152e-05
8.14148759342e-06
8.14127444956e-06
8.14078634951e-06
8.14089832892e-06
8.1438124702e-06
8.13281975923e-06
8.05507632356e-06
7.96779176787e-06
8.22877060661e-06
3.51897317342e-05
8.14145949799e-06
8.14124287128e-06
8.14074766928e-06
8.1408834538e-06
8.14377894665e-06
8.13273006624e-06
8.05897481701e-06
7.97075875195e-06
8.27800369699e-06
3.77418641948e-05
8.14144062571e-06
8.14121750628e-06
8.14071259619e-06
8.14087371932e-06
8.143704962e-06
8.13260079663e-06
8.06356601971e-06
7.97437056418e-06
8.33857757667e-06
4.09031739658e-05
8.14143250498e-06
8.14119921591e-06
8.14068190758e-06
8.14086889213e-06
8.14358373429e-06
8.13244250729e-06
8.06831260889e-06
7.97811498611e-06
8.41279933309e-06
4.48496652527e-05
8.14143636741e-06
8.14118853547e-06
8.14065606028e-06
8.14086591527e-06
8.14342317905e-06
8.13228653498e-06
8.07283481608e-06
7.98159943582e-06
8.50303903536e-06
4.98416756738e-05
8.14145226872e-06
8.14118506142e-06
8.1406346517e-06
8.14086143525e-06
8.14322176951e-06
8.13212935026e-06
8.07707258595e-06
7.98481552315e-06
8.61248076455e-06
5.62582967823e-05
8.14147991926e-06
8.14118738986e-06
8.14061635627e-06
8.14084954689e-06
8.14297201541e-06
8.13198491076e-06
8.08110757777e-06
7.98789123372e-06
8.74486951715e-06
6.4675794038e-05
)
;
    }
    atmosphere
    {
        type            calculated;
        value           nonuniform List<scalar> 
16
(
2.69153569618e-05
2.66575858173e-05
2.6933118183e-05
2.74659332506e-05
2.82367974112e-05
2.91838558104e-05
3.0282401656e-05
3.15132770949e-05
3.31247187152e-05
3.51897317342e-05
3.77418641948e-05
4.09031739658e-05
4.48496652527e-05
4.98416756738e-05
5.62582967823e-05
6.4675794038e-05
)
;
    }
    floatingObject
    {
        type            calculated;
        value           nonuniform List<scalar> 0();
    }
    procBoundary1to0
    {
        type            processor;
        value           nonuniform List<scalar> 10(8.14151592174e-06 8.14119178141e-06 8.14059732941e-06 8.14082294617e-06 8.14266356983e-06 8.13186099327e-06 8.08506088373e-06 7.99097411441e-06 8.90469893691e-06 7.6013108171e-05);
    }
    procBoundary1to2
    {
        type            processor;
        value           nonuniform List<scalar> 
18
(
8.23220584089e-06
8.15614012561e-06
8.14300351164e-06
8.14238989824e-06
8.14238989824e-06
8.14201701357e-06
8.14201701357e-06
8.14181748501e-06
8.14175373339e-06
8.14171539777e-06
8.14167477417e-06
8.1416388622e-06
8.1416121415e-06
8.14159685673e-06
8.14159535434e-06
8.14160953362e-06
8.14164072959e-06
8.14168893454e-06
)
;
    }
}


// ************************************************************************* //
