/*--------------------------------*- C++ -*----------------------------------*\
| =========                 |                                                 |
| \\      /  F ield         | OpenFOAM: The Open Source CFD Toolbox           |
|  \\    /   O peration     | Version:  v2012                                 |
|   \\  /    A nd           | Website:  www.openfoam.com                      |
|    \\/     M anipulation  |                                                 |
\*---------------------------------------------------------------------------*/
FoamFile
{
    version     2.0;
    format      ascii;
    class       volVectorField;
    location    "0.7";
    object      U;
}
// * * * * * * * * * * * * * * * * * * * * * * * * * * * * * * * * * * * * * //

dimensions      [0 1 -1 0 0 0 0];


internalField   nonuniform List<vector> 
167
(
(0.00378325276409 -0.0544887742536 4.58402088691e-22)
(0.00376619307096 -0.0609120608243 9.05232310604e-22)
(0.00374522697253 -0.0673212396788 1.96241677705e-23)
(0.00371918958666 -0.0737099140205 1.42918843777e-22)
(0.00368657947672 -0.0800709545913 -5.0023170874e-24)
(0.00364188998869 -0.0863828030155 1.84734466979e-22)
(0.0035590256735 -0.092609354016 2.5264206603e-23)
(0.00336734194292 -0.0988496354796 6.22415197425e-23)
(0.00294337127728 -0.105020768419 3.48231268946e-22)
(0.00240226129178 -0.109043911733 -6.10202939393e-22)
(0.00791550128226 -0.110509971467 -6.88739581895e-21)
(0.0213901696518 -0.131406998188 -1.49015532735e-21)
(0.00954912896838 -0.0555014931553 4.59834020047e-22)
(0.00953762482784 -0.0620412233786 -6.77520025719e-22)
(0.00951708107793 -0.0685656849493 -2.40125877308e-22)
(0.00948504585869 -0.0750680718429 -3.85405725213e-22)
(0.00943898329372 -0.0815424111629 -3.73538537053e-22)
(0.00937430924951 -0.0879712136653 7.61105240445e-23)
(0.00927843690331 -0.0943087546438 1.84276390749e-22)
(0.00913798959656 -0.100702871809 -2.01791892021e-22)
(0.00893512637523 -0.107693881647 5.88421051844e-22)
(0.00847662774499 -0.113370557861 2.22151685782e-21)
(0.00700377285491 -0.113715426359 -2.21784938591e-21)
(0.00667090821425 -0.124390893447 -2.80280285113e-21)
(0.0161560000472 -0.0556467393839 8.68094226391e-23)
(0.0161287208096 -0.062209152064 -1.43502060288e-22)
(0.0160862719162 -0.0687586530618 -1.72271311801e-23)
(0.0160248387021 -0.0752883770169 5.43841414987e-23)
(0.0159406418289 -0.0817925563642 4.73680648387e-24)
(0.0158297926629 -0.0882533746682 2.58626462976e-22)
(0.0156874050099 -0.0946189759951 1.58253161101e-22)
(0.015508217917 -0.101017164336 -9.31972565673e-23)
(0.015305119327 -0.107869871067 2.54636386665e-22)
(0.0151363057819 -0.113088435108 -2.02687710493e-21)
(0.014622821362 -0.11347925719 2.55649407908e-22)
(0.0160793200462 -0.126529597229 -3.57184248069e-22)
(0.02277986981 -0.0622708939597 8.89367352152e-23)
(0.022721912606 -0.06884272979 -2.03204582161e-23)
(0.0226368634778 -0.0753991571192 4.4979660979e-23)
(0.0225194437483 -0.0819343885068 -2.72372854606e-23)
(0.0223646834542 -0.0884301964293 4.48447247525e-23)
(0.0221657803002 -0.094831514977 4.58313122895e-23)
(0.0219054612572 -0.101259038619 7.6967710301e-23)
(0.0215712389919 -0.108147451588 9.77973488918e-23)
(0.0211106604551 -0.113338222341 -9.43770037902e-25)
(0.0194182909843 -0.113326779989 2.37877115508e-22)
(0.0194977093277 -0.127584659487 1.96887341403e-22)
(0.0293026076313 -0.0689240806599 -8.20820457707e-26)
(0.0292009336417 -0.0755145600141 9.28184516373e-24)
(0.0290573832623 -0.0820897968272 1.74606749894e-24)
(0.0288651772566 -0.0886310876473 3.09671562733e-23)
(0.0286145927574 -0.0950797099658 1.70510370367e-23)
(0.0282789146155 -0.101550992468 5.87089956319e-23)
(0.0278195628195 -0.108522799446 1.91239677353e-22)
(0.0271219719038 -0.113794211588 -1.62344143391e-22)
(0.0249411410978 -0.113486925187 -1.49739022839e-21)
(0.0245597077313 -0.128733623869 4.32864474654e-23)
(0.0359109510553 -0.0690126404024 2.07391551153e-24)
(0.0357995991808 -0.0756457616292 3.76142449238e-24)
(0.035636739161 -0.0822716200434 5.90870958736e-24)
(0.0354131743086 -0.0888713502807 3.10522638552e-23)
(0.0351157071426 -0.0953835737145 1.10067784131e-23)
(0.0347077370331 -0.10192245404 4.84702407565e-23)
(0.0341249803033 -0.109005369078 2.12468347352e-22)
(0.0332362236966 -0.114394138954 -1.60444716146e-22)
(0.0306916968598 -0.11388746407 -2.12410017943e-21)
(0.0301265486407 -0.129993593555 1.50921654852e-22)
(0.0425648178812 -0.0691031866053 3.28473271532e-24)
(0.0424526101699 -0.0757874924425 5.58064748609e-24)
(0.0422794101497 -0.0824749575556 7.44173838745e-24)
(0.0420333462764 -0.0891469562169 3.44495267665e-23)
(0.0416976375228 -0.09574056915 -2.2823293969e-23)
(0.0412264141736 -0.102372264446 -3.08965983908e-22)
(0.04053334159 -0.109596222655 7.65761617919e-22)
(0.0394807051026 -0.11512296851 2.36692612651e-21)
(0.0366023621189 -0.114476912144 -1.4268684926e-21)
(0.0361101952551 -0.131349422748 5.31606531145e-22)
(0.0492684981807 -0.0691860270688 4.66693721686e-24)
(0.0491667241035 -0.075929637541 7.24035255325e-24)
(0.0489950084527 -0.0826893837106 9.78074320943e-24)
(0.048738755221 -0.0894471312058 5.13972791716e-23)
(0.048377789845 -0.0961389454265 -1.37697280319e-23)
(0.0478582295996 -0.102885562822 -3.15272969015e-22)
(0.0470738480491 -0.110271958581 -3.27717575061e-22)
(0.045876699878 -0.115941441578 -3.04062383295e-21)
(0.0426841112224 -0.115237366932 -4.223034797e-21)
(0.0425482769305 -0.132854891166 3.94898995085e-22)
(0.0560280601702 -0.069249042784 2.06015280737e-24)
(0.0559504492186 -0.0760593204634 3.96087492644e-24)
(0.0557947825092 -0.0829013189727 1.88409247539e-24)
(0.0555436942658 -0.0897575017004 1.16575738085e-23)
(0.0551737475005 -0.0965630362821 3.10141200884e-23)
(0.054623812863 -0.103444888336 1.97028314222e-22)
(0.0537675915207 -0.111011801303 -3.75763369166e-24)
(0.0524381104166 -0.116839059555 -2.66942381812e-22)
(0.0489599784513 -0.116139695492 -4.25187365829e-22)
(0.0495104779559 -0.134554768385 4.86475453785e-23)
(0.0628492811748 -0.0692778154135 1.95285363049e-24)
(0.0628120514374 -0.0761611177882 2.91239834724e-24)
(0.0626897091019 -0.0830944160116 4.20590723445e-24)
(0.0624619886908 -0.0900607605148 3.18877567881e-23)
(0.0621020667 -0.0969944874538 1.38680666537e-23)
(0.0615417826068 -0.104030889182 5.61206155223e-23)
(0.0606356401844 -0.111790159565 4.26504218435e-23)
(0.0591836765579 -0.117786826377 -4.97992248056e-22)
(0.0554429039175 -0.117198388218 -2.79006947569e-21)
(0.0570698413876 -0.136369887269 2.51516542016e-22)
(0.0697366401018 -0.069255509526 1.58936019302e-24)
(0.0697586152543 -0.0762169744751 9.21200373636e-25)
(0.0696896894789 -0.0832495470779 -1.26670479262e-24)
(0.0695064971809 -0.0903369159358 7.75143406997e-24)
(0.069178574983 -0.0974127442783 2.62600116986e-23)
(0.0686306549745 -0.104622780825 3.56468758165e-22)
(0.0676976967896 -0.112594111174 -6.08836985396e-22)
(0.0661374022371 -0.118782416561 -2.61329403626e-21)
(0.0621653368234 -0.118348247601 -1.94532962543e-22)
(0.0653129272094 -0.138432546189 4.28946000289e-22)
(0.0766931717196 -0.0691627354989 3.45937495684e-24)
(0.0767959234122 -0.0762060417522 3.6069734514e-25)
(0.0768034952967 -0.083344579198 1.86557630731e-24)
(0.0766891746252 -0.0905627124686 2.15437252365e-23)
(0.076418597493 -0.0977936421448 2.76002440986e-23)
(0.075909266471 -0.105195728571 2.08758896207e-22)
(0.0749751998623 -0.113393326969 -9.20059375435e-23)
(0.0733181915015 -0.1197929323 -7.13094575542e-22)
(0.0691772786737 -0.119611648593 -1.998946217e-21)
(0.0743439199132 -0.140619886756 -1.52256334586e-21)
(0.0837202443586 -0.0689774274901 3.05006630965e-24)
(0.0839282576062 -0.0761045267734 -1.15868784013e-25)
(0.0840386081898 -0.0833542015752 1.00859220193e-23)
(0.0840209358706 -0.0907115783892 5.63476668011e-23)
(0.083836592667 -0.098109837267 -1.35098838735e-23)
(0.0833955457627 -0.105722045701 -3.36110578299e-22)
(0.0824911716295 -0.1141592412 5.50383290099e-23)
(0.0807605338057 -0.120793428751 -9.67556450932e-22)
(0.0765013994144 -0.120951968641 -4.66379942403e-21)
(0.0842746064661 -0.142984255147 -4.00746361875e-22)
(0.0908172566867 -0.0686746899542 3.79964200175e-24)
(0.0911581161504 -0.075885486639 -5.76488627616e-25)
(0.0914009854403 -0.0832496602637 3.93573502058e-24)
(0.0915115338 -0.0907532819087 2.05172202708e-23)
(0.0914463998576 -0.0983301872086 1.76369817114e-23)
(0.0911075629912 -0.106169797778 2.55375971874e-22)
(0.0902663571912 -0.114862789827 -7.60876736041e-22)
(0.0884853634436 -0.121763448757 -2.78942861799e-21)
(0.0841972302279 -0.122342037332 1.68474871963e-21)
(0.0952500681356 -0.145509994083 -1.33774699915e-22)
(0.0979812778144 -0.0682266513696 3.12068234425e-24)
(0.0984858481536 -0.0755185920486 -6.95423566074e-24)
(0.0988947158357 -0.0829983828064 4.49956949725e-24)
(0.0991692666419 -0.0906533490093 3.94470765002e-23)
(0.0992610586781 -0.0984189024142 4.30304349147e-23)
(0.0990637963633 -0.106502109126 2.93638657046e-22)
(0.0983266456433 -0.115467373531 -1.15873089919e-21)
(0.0965379821548 -0.122669180439 -5.26613338068e-21)
(0.0923035934648 -0.123750431063 -4.8370204686e-21)
(0.107426222558 -0.148183449148 -1.42990121436e-21)
(0.10520660413 -0.0676022143454 1.23009326878e-23)
(0.105909201894 -0.0749697917277 -3.07334531803e-24)
(0.106521552665 -0.0825635713305 2.63579386606e-24)
(0.107000486424 -0.0903725475878 -5.48913891238e-24)
(0.107292178536 -0.09833488044 3.95076884092e-23)
(0.107281690452 -0.106675822177 3.48875518481e-22)
(0.106694556318 -0.115927862167 -1.19110542417e-21)
(0.104946747927 -0.123468852069 -3.92019394418e-21)
(0.100885289017 -0.125144536172 -1.47558994717e-21)
(0.120990957271 -0.150978832568 -7.99751479201e-22)
)
;

boundaryField
{
    back
    {
        type            noSlip;
    }
    sides
    {
        type            noSlip;
    }
    bottom
    {
        type            noSlip;
    }
    front
    {
        type            noSlip;
    }
    atmosphere
    {
        type            pressureInletOutletVelocity;
        value           nonuniform List<vector> 
16
(
(0 -0.131406998188 0)
(0 -0.124390893447 0)
(0 -0.126529597229 0)
(0 -0.127584659487 0)
(0 -0.128733623869 0)
(0 -0.129993593555 0)
(0 -0.131349422748 0)
(0 -0.132854891166 0)
(0 -0.134554768385 0)
(0 -0.136369887269 0)
(0 -0.138432546189 0)
(0 -0.140619886756 0)
(0 -0.142984255147 0)
(0 -0.145509994083 0)
(0 -0.148183449148 0)
(0 -0.150978832568 0)
)
;
    }
    floatingObject
    {
        type            movingWallVelocity;
        value           nonuniform List<vector> 0();
    }
    procBoundary1to0
    {
        type            processor;
        value           nonuniform List<vector> 10((0.112484262069 -0.0667671537144 6.92446222013e-25) (0.113422778361 -0.0742013576779 -1.57378753591e-23) (0.114280316083 -0.0819041004964 9.23051482485e-26) (0.115008947051 -0.0898666278796 1.79866601023e-23) (0.115549245781 -0.0980313436031 5.42869091444e-23) (0.115777185094 -0.106641609495 4.09795784198e-22) (0.115393640467 -0.116192243133 -2.55654757124e-22) (0.113752782024 -0.124114503122 4.621746082e-23) (0.109994401949 -0.12648623376 2.90437476033e-21) (0.13615587537 -0.15384961445 8.84709486464e-23));
    }
    procBoundary1to2
    {
        type            processor;
        value           nonuniform List<vector> 
18
(
(0.00379752560122 -0.0480566145565 5.24057683033e-22)
(0.00955404208982 -0.0489523033225 -4.20411242678e-22)
(0.0161718545857 -0.0490772974526 1.0758374419e-22)
(0.0228160501751 -0.0556903875588 -5.73405478345e-23)
(0.0228160501751 -0.0556903875588 -5.73405478345e-23)
(0.0293694566739 -0.0623241263167 1.28891409514e-23)
(0.0293694566739 -0.0623241263167 1.28891409514e-23)
(0.0359799439056 -0.0623778778018 2.68583102057e-24)
(0.0426274594298 -0.0624271607762 3.9203161042e-24)
(0.0493141608976 -0.0624628525479 3.37260433592e-24)
(0.056043950458 -0.0624736980733 1.46231956018e-24)
(0.0628203534228 -0.0624463867872 7.476147708e-25)
(0.0696454844102 -0.0623654249377 5.67099292511e-25)
(0.0765198965679 -0.0622130237723 -1.19284313914e-24)
(0.0834423529162 -0.0619690013442 -1.65002429021e-26)
(0.0904095176341 -0.0616106745372 -1.68087239878e-24)
(0.0974156093755 -0.0611127634535 -4.18679268452e-24)
(0.104451982674 -0.0604472576526 -9.08849414061e-24)
)
;
    }
}


// ************************************************************************* //
