/*--------------------------------*- C++ -*----------------------------------*\
| =========                 |                                                 |
| \\      /  F ield         | OpenFOAM: The Open Source CFD Toolbox           |
|  \\    /   O peration     | Version:  v2012                                 |
|   \\  /    A nd           | Website:  www.openfoam.com                      |
|    \\/     M anipulation  |                                                 |
\*---------------------------------------------------------------------------*/
FoamFile
{
    version     2.0;
    format      ascii;
    class       surfaceScalarField;
    location    "0.6";
    object      alphaPhi0.water;
}
// * * * * * * * * * * * * * * * * * * * * * * * * * * * * * * * * * * * * * //

dimensions      [0 3 -1 0 0 0 0];
oriented        oriented;


internalField   nonuniform List<scalar> 
305
(
-2.52400561615e-05
2.52400599134e-05
-5.24505551027e-05
2.72105017741e-05
-7.97026675406e-05
2.72521127979e-05
-0.00010669999335
2.69973229429e-05
-0.000133509821701
2.68098193666e-05
-0.000160164366506
2.66545398856e-05
-0.000186658298547
2.64939351292e-05
2.63101732632e-05
-2.72265970696e-05
5.2466660271e-05
-5.4337189967e-05
5.43210963438e-05
-8.15578146509e-05
5.44727362572e-05
-0.000108834007027
5.42735101741e-05
-0.000136058688465
5.40344893899e-05
-0.000163175913407
5.37717556216e-05
-0.000190147564855
5.34655911405e-05
5.31001110721e-05
-2.7362565117e-05
7.98292276058e-05
-5.46540394241e-05
8.16125706905e-05
-8.1963121443e-05
8.17818143321e-05
-0.000109304044793
8.16144246052e-05
-0.000136607557902
8.13379865326e-05
-0.000163819641832
8.0983827954e-05
-0.00019089907176
8.05449977988e-05
8.0008227291e-05
-2.72278576177e-05
0.000107057085913
-5.47006280925e-05
0.000109085338764
-8.21639210059e-05
0.000109245099404
-0.000109606108436
0.000109056597516
-0.000136997040884
0.00010872889692
-0.000164301763595
0.000108288523396
-0.000191485489425
0.000107728710275
-0.00021851221655
0.000107034912959
0.000106189001932
-2.71928013632e-05
0.000134249886104
-5.4782000364e-05
0.000136674532348
-8.23772590811e-05
0.00013684034547
-0.00010993658292
0.00013661590002
-0.000137441071994
0.000136233356281
-0.000164866960432
0.000135714375599
-0.000192185903859
0.000135047618926
-0.000219365263571
0.000134214258401
-0.000246367912913
0.000133191639468
0.000131954485283
-2.72313085396e-05
0.000161481191419
-5.49212477013e-05
0.000164364462736
-8.26368554732e-05
0.000164555935252
-0.000110322387477
0.000164301403159
-0.00013796132042
0.000163872251146
-0.000165535498546
0.000163288509784
-0.000193021416192
0.00016253349204
-0.000220390085095
0.000161582909751
-0.000247606807447
0.00016040838127
0.000158978458942
-2.73042806535e-05
0.000188785466758
-5.50986684545e-05
0.000192158838332
-8.29361011475e-05
0.000192393344506
-0.000110757261885
0.000192122527404
-0.000138547692533
0.000191662634756
-0.000166293399174
0.000191034164954
-0.000193975185255
0.000190215228347
-0.00022156785699
0.00018917556085
-0.000249039756987
0.000187880306248
0.000186290961015
-2.73929995074e-05
0.000216178458942
-5.52969671645e-05
0.000220062790475
-8.32602161299e-05
0.000220356564871
-0.000111224954792
0.000220087222456
-0.00013918026583
0.000219617890403
-0.000167116645362
0.000218970484967
-0.000195019493254
0.000218118021852
-0.000222867849376
0.000217023892999
-0.000250633661504
0.000215646148331
0.000213938415746
-2.74861107152e-05
0.000243664560436
-5.55008137537e-05
0.000248077474915
-8.35912630649e-05
0.000248446980942
-0.000111703980287
0.000248199889971
-0.000139833217977
0.000247747065409
-0.000167974919936
0.000247112121849
-0.000196119835844
0.000246262879189
-0.000224251970147
0.000245156002695
-0.000252347610837
0.00024374181896
0.00024196532751
-2.75744065812e-05
0.000271238955946
-5.56948015879e-05
0.000276197848442
-8.39086030027e-05
0.00027666074509
-0.000112168452053
0.000276459684389
-0.000140475289488
0.000276053835254
-0.000168831694518
0.000275468453615
-0.000197234784809
0.000274665906131
-0.00022567446962
0.000273595661796
-0.000254132309818
0.000272199693301
0.000270413541353
-2.76490688947e-05
0.000298888011842
-5.58624400621e-05
0.000304411195397
-8.41887058164e-05
0.000304986970195
-0.000112588070072
0.000304858990426
-0.000141069589494
0.000304535283702
-0.000169643769872
0.000304042560723
-0.000198315285503
0.000303337358444
-0.00022708108197
0.000302361434747
-0.000255929062604
0.000301047708601
0.000299321425453
-2.77007833718e-05
0.000326588780092
-5.59854924184e-05
0.000332695877621
-8.4404821854e-05
0.000333406256337
-0.000112927895793
0.000333382003996
-0.000141573298995
0.000333180613518
-0.000170360829986
0.000332830019606
-0.000199304042734
0.000332280510439
-0.000228408197062
0.000331465567833
-0.000257668803207
0.000330308353808
0.000328722902084
-2.77192938568e-05
0.000354308056503
-5.60435364234e-05
0.000361020091013
-8.45266361445e-05
0.000361889311129
-0.000113148026908
0.000362003334207
-0.000141937270177
0.000361969785337
-0.000170924911952
0.000361817593442
-0.000200134827088
0.000361490372901
-0.000229582054101
0.000360912771618
-0.000259271114763
0.000359997453099
0.000358646330948
-2.76931746974e-05
0.000382001211459
-5.60136682815e-05
0.000389340553708
-8.45199556663e-05
0.000390395553467
-0.000113203246513
0.000390686566576
-0.000142105595488
0.000390872066605
-0.000171269848915
0.000390981782267
-0.00020073178677
0.000390952259021
-0.000230517818067
0.000390698779209
-0.000260643154503
0.000390122825331
0.00038911319345
-2.76096958814e-05
0.000409610885813
-5.58702897095e-05
0.000417601116055
-8.43464397506e-05
0.000418871660098
-0.000113042684435
0.000419382756625
-0.000142015172109
0.000419844489765
-0.000171320697646
0.000420287246002
-0.000201008680733
0.000420640182505
-0.000231118740383
0.000420808800352
-0.000261678500322
0.00042068262952
0.000420136546276
-2.74547714483e-05
0.00043706563567
-5.55849866958e-05
0.000445731302054
-8.39634027906e-05
0.000447250036484
-0.000112609564815
0.000448028867988
-0.000141595328951
0.000448830191846
-0.00017099321158
0.000449685052058
-0.000200868234729
0.000450515168716
-0.000231275058755
-0.000262256000457
-2.72128473698e-05
0.000464278463615
-5.51263750425e-05
0.000473644799846
-8.33236780062e-05
0.000475447302308
-0.000111840902358
0.000476546044838
-0.000140767479531
0.000477756678702
-0.00017019350802
-2.68669258836e-05
-5.44601044092e-05
-8.23753795296e-05
0.000503362542809
-0.000110667485836
0.00050483807411
-8.10623401816e-05
)
;

boundaryField
{
    back
    {
        type            calculated;
        value           uniform 0;
    }
    sides
    {
        type            calculated;
        value           uniform 0;
    }
    bottom
    {
        type            calculated;
        value           uniform 0;
    }
    front
    {
        type            calculated;
        value           uniform 0;
    }
    atmosphere
    {
        type            calculated;
        value           nonuniform List<scalar> 0();
    }
    floatingObject
    {
        type            calculated;
        value           nonuniform List<scalar> 0();
    }
    procBoundary2to0
    {
        type            processor;
        value           nonuniform List<scalar> 
14
(
0.000451215599505
0.000451663553302
0.000451719064229
0.000479111027712
-0.000200201420462
0.000480522988641
0.000491145364186
0.000501237953167
-0.000139444980818
0.000506534127055
5.3548943692e-05
0.000530875891785
-0.000109013785122
0.000532789481972
)
;
    }
    procBoundary2to1
    {
        type            processor;
        value           nonuniform List<scalar> 
18
(
-0.000212968464751
-0.00021693751721
-0.000217807166591
-7.93589337147e-05
-0.000245342198052
-0.000105171335457
-0.000273150950935
-0.000274630742838
-0.000276352203318
-0.000278281055834
-0.000280374455483
-0.000282580454913
-0.000284836873142
-0.000287070206771
-0.000289194470566
-0.000291109941628
-0.000292701811242
-0.000293838445633
)
;
    }
}


// ************************************************************************* //
