/*--------------------------------*- C++ -*----------------------------------*\
| =========                 |                                                 |
| \\      /  F ield         | OpenFOAM: The Open Source CFD Toolbox           |
|  \\    /   O peration     | Version:  v2012                                 |
|   \\  /    A nd           | Website:  www.openfoam.com                      |
|    \\/     M anipulation  |                                                 |
\*---------------------------------------------------------------------------*/
FoamFile
{
    version     2.0;
    format      ascii;
    class       volScalarField;
    location    "0.6";
    object      nut;
}
// * * * * * * * * * * * * * * * * * * * * * * * * * * * * * * * * * * * * * //

dimensions      [0 2 -1 0 0 0 0];


internalField   nonuniform List<scalar> 
167
(
0.00109150102712
0.00129887709042
0.00131141663033
0.00131385994094
0.001314787124
0.00131552621905
0.00131623994256
0.00131694293307
0.00129973672777
0.00188520543471
0.00191297897543
0.00191839473035
0.00191986130169
0.00192076817375
0.00192161159579
0.00192244804705
0.00131386368829
0.00191607562316
0.00194677632619
0.00195274303708
0.00195422859424
0.00195507625466
0.00195585853588
0.0019566384685
0.00131691678737
0.0019228018555
0.00195416533394
0.00196020792408
0.0019616381836
0.00196241866027
0.00196314116259
0.00196386875577
0.00196459964028
0.00131800317574
0.00192462185424
0.00195606105781
0.00196205991974
0.00196342246877
0.00196413921913
0.00196480672545
0.00196548736846
0.00196617800697
0.00196687048614
0.00131879905603
0.00192559864762
0.00195700024433
0.00196294062726
0.00196424103899
0.00196489997846
0.00196551641307
0.00196615293839
0.00196680578884
0.00196746611645
0.00131956857492
0.00192646406955
0.00195781625932
0.00196370507978
0.00196495222089
0.0019655598397
0.00196612918857
0.00196672382426
0.0019673401251
0.00196796894871
0.00132034807421
0.00192733160366
0.00195863844769
0.00196448446812
0.0019656867805
0.00196624961839
0.00196677638619
0.00196733198162
0.00196791337347
0.00196851158198
0.00132114200059
0.00192821629243
0.00195948252507
0.00196529303954
0.00196645780591
0.00196698205044
0.00196747102962
0.0019679910556
0.00196853996045
0.00196910913847
0.00132195083396
0.00192911967176
0.00196034894113
0.00196612971364
0.00196726306799
0.00196775436051
0.00196821032378
0.0019686986195
0.00196921799828
0.00196976044458
0.00132277454044
0.00193004178649
0.00196123687616
0.00196699251704
0.00196809963273
0.00196856302982
0.00196899056385
0.0019694510881
0.00196994429337
0.00197046275764
0.0013236128689
0.00193098256352
0.00196214575496
0.00196788006667
0.00196896536361
0.00196940539938
0.00196980883824
0.00197024557037
0.00197071613294
0.00197121377037
0.00132446529829
0.00193194183351
0.00196307519566
0.00196879143937
0.00196985877485
0.0019702795499
0.00197066299356
0.00197107986038
0.0019715314803
0.00197201167151
0.00132533096219
0.00193291922616
0.00196402483896
0.00196972593871
0.00197077876635
0.00197118405793
0.00197155141171
0.00197195230932
0.00197238875696
0.0019728551607
0.00132620857674
0.00193391407131
0.001964994208
0.00197068291006
0.00197172441503
0.00197211775892
0.0019724727876
0.00197286162513
0.00197328681009
0.0019737433139
0.00132709636348
0.00193492529851
0.00196598259116
0.00197166159352
0.00197269475345
0.00197307960479
0.00197342609952
0.00197380674808
0.00197422474639
0.00197467539006
0.00132799198554
0.00193595138721
0.00196698893732
0.00197266091793
0.00197368886787
0.00197406853613
0.00197441012769
0.00132889246996
0.00193699021242
0.00196801174249
0.00197367979759
0.00197470525465
0.00196904910826
0.00197471615992
)
;

boundaryField
{
    back
    {
        type            nutkWallFunction;
        blending        stepwise;
        Cmu             0.09;
        kappa           0.41;
        E               9.8;
        value           nonuniform List<scalar> 
167
(
0.000158366519814
0.000166482172319
0.000167866686286
0.000168125701225
0.000168221566639
0.000168297827734
0.000168371427568
0.000168443816946
0.000166571439606
0.000179639895581
0.000181950277493
0.000182384652582
0.000182498303125
0.000182567981438
0.000182632814141
0.000182697083673
0.000168117399056
0.000182185818902
0.000184733107119
0.000185210708298
0.00018532547298
0.000185390258604
0.000185450055104
0.000185509628109
0.000168436812816
0.000182717068797
0.000185315780787
0.000185798896283
0.000185909220434
0.00018596872536
0.000186023822661
0.000186079258239
0.000186134863461
0.000168548565511
0.000182856153732
0.000185460119816
0.00018593966474
0.000186044722321
0.00018609930352
0.000186150154458
0.000186201966989
0.000186254456755
0.000186306987409
0.000168631302587
0.000182931004466
0.000185531734494
0.000186006699755
0.000186106964247
0.000186157096852
0.000186204018628
0.000186252437823
0.000186302022163
0.000186352075441
0.00016871179114
0.000182997944535
0.000185594637033
0.000186065592574
0.000186161756457
0.000186207942733
0.000186251242848
0.000186296438992
0.000186343210617
0.00018639083904
0.000168793548313
0.000183065298916
0.000185658278341
0.0001861259028
0.000186218616659
0.000186261359828
0.000186301384571
0.000186343575715
0.000186387659386
0.000186432928312
0.000168877003404
0.000183134127543
0.000185723743673
0.000186188594474
0.000186278417489
0.00018631819315
0.000186355310785
0.000186394763633
0.000186436344133
0.00018647937481
0.000168962222167
0.000183204546456
0.000185791059462
0.000186253574514
0.000186340976934
0.000186378218293
0.000186412795505
0.000186449804676
0.000186489109604
0.000186530076802
0.00016904922493
0.000183276575894
0.00018586017757
0.000186320705562
0.000186406083592
0.000186441178867
0.000186473567815
0.000186508437502
0.000186545723259
0.000186584838309
0.000169138010681
0.000183350230291
0.000185931072636
0.000186389899884
0.000186473591886
0.000186506889113
0.000186537422759
0.0001865704583
0.000186605996545
0.000186643500054
0.000169228550621
0.000183425517387
0.000186003735002
0.000186461106017
0.000186543407255
0.000186575221522
0.000186604214931
0.000186635718405
0.000186669792601
0.000186705945032
0.000169320780027
0.000183502429727
0.000186078157095
0.000186534290287
0.000186615465281
0.000186646087083
0.000186673840975
0.000186704112244
0.000186737013655
0.000186772095836
0.000169414590414
0.000183580936844
0.000186154322449
0.000186609422383
0.000186689715352
0.000186719417798
0.000186746223256
0.000186775563686
0.000186807594274
0.000186841904186
0.000169509821795
0.00018366097796
0.000186232196737
0.000186686464064
0.000186766105706
0.000186795154862
0.000186821302997
0.000186850014867
0.000186881485778
0.000186915343537
0.000169606253314
0.000183742455323
0.000186311719533
0.000186765356591
0.000186844582327
0.000186873236812
0.000186899013805
0.000169703595026
0.000183825225941
0.000186392796128
0.000186846026362
0.000186925056125
0.000186475294778
0.000186928343431
)
;
    }
    sides
    {
        type            nutkWallFunction;
        blending        stepwise;
        Cmu             0.09;
        kappa           0.41;
        E               9.8;
        value           nonuniform List<scalar> 8(8.42546623597e-05 8.85640060606e-05 8.92990534533e-05 8.94365624255e-05 8.94874563153e-05 8.95279423738e-05 8.95670155062e-05 8.96054459327e-05);
    }
    bottom
    {
        type            nutkWallFunction;
        blending        stepwise;
        Cmu             0.09;
        kappa           0.41;
        E               9.8;
        value           nonuniform List<scalar> 
18
(
8.42546623597e-05
8.86113996554e-05
8.94321548881e-05
8.96017275498e-05
8.96610552002e-05
8.97049788002e-05
8.97477085869e-05
8.97911117428e-05
8.98354161686e-05
8.98806567629e-05
8.99268443104e-05
8.99739782652e-05
9.00220433311e-05
9.00710051406e-05
9.01208060943e-05
9.01713612525e-05
9.02225533645e-05
9.0274228503e-05
)
;
    }
    front
    {
        type            nutkWallFunction;
        blending        stepwise;
        Cmu             0.09;
        kappa           0.41;
        E               9.8;
        value           nonuniform List<scalar> 
167
(
0.000158366519814
0.000166482172319
0.000167866686286
0.000168125701225
0.000168221566639
0.000168297827734
0.000168371427568
0.000168443816946
0.000166571439606
0.000179639895581
0.000181950277493
0.000182384652582
0.000182498303125
0.000182567981438
0.000182632814141
0.000182697083673
0.000168117399056
0.000182185818902
0.000184733107119
0.000185210708298
0.00018532547298
0.000185390258604
0.000185450055104
0.000185509628109
0.000168436812816
0.000182717068797
0.000185315780787
0.000185798896283
0.000185909220434
0.00018596872536
0.000186023822661
0.000186079258239
0.000186134863461
0.000168548565511
0.000182856153732
0.000185460119816
0.00018593966474
0.000186044722321
0.00018609930352
0.000186150154458
0.000186201966989
0.000186254456755
0.000186306987409
0.000168631302587
0.000182931004466
0.000185531734494
0.000186006699755
0.000186106964247
0.000186157096852
0.000186204018628
0.000186252437823
0.000186302022163
0.000186352075441
0.00016871179114
0.000182997944535
0.000185594637033
0.000186065592574
0.000186161756457
0.000186207942733
0.000186251242848
0.000186296438992
0.000186343210617
0.00018639083904
0.000168793548313
0.000183065298916
0.000185658278341
0.0001861259028
0.000186218616659
0.000186261359828
0.000186301384571
0.000186343575715
0.000186387659386
0.000186432928312
0.000168877003404
0.000183134127543
0.000185723743673
0.000186188594474
0.000186278417489
0.00018631819315
0.000186355310785
0.000186394763633
0.000186436344133
0.00018647937481
0.000168962222167
0.000183204546456
0.000185791059462
0.000186253574514
0.000186340976934
0.000186378218293
0.000186412795505
0.000186449804676
0.000186489109604
0.000186530076802
0.00016904922493
0.000183276575894
0.00018586017757
0.000186320705562
0.000186406083592
0.000186441178867
0.000186473567815
0.000186508437502
0.000186545723259
0.000186584838309
0.000169138010681
0.000183350230291
0.000185931072636
0.000186389899884
0.000186473591886
0.000186506889113
0.000186537422759
0.0001865704583
0.000186605996545
0.000186643500054
0.000169228550621
0.000183425517387
0.000186003735002
0.000186461106017
0.000186543407255
0.000186575221522
0.000186604214931
0.000186635718405
0.000186669792601
0.000186705945032
0.000169320780027
0.000183502429727
0.000186078157095
0.000186534290287
0.000186615465281
0.000186646087083
0.000186673840975
0.000186704112244
0.000186737013655
0.000186772095836
0.000169414590414
0.000183580936844
0.000186154322449
0.000186609422383
0.000186689715352
0.000186719417798
0.000186746223256
0.000186775563686
0.000186807594274
0.000186841904186
0.000169509821795
0.00018366097796
0.000186232196737
0.000186686464064
0.000186766105706
0.000186795154862
0.000186821302997
0.000186850014867
0.000186881485778
0.000186915343537
0.000169606253314
0.000183742455323
0.000186311719533
0.000186765356591
0.000186844582327
0.000186873236812
0.000186899013805
0.000169703595026
0.000183825225941
0.000186392796128
0.000186846026362
0.000186925056125
0.000186475294778
0.000186928343431
)
;
    }
    atmosphere
    {
        type            calculated;
        value           nonuniform List<scalar> 0();
    }
    floatingObject
    {
        type            nutkWallFunction;
        blending        stepwise;
        Cmu             0.09;
        kappa           0.41;
        E               9.8;
        value           nonuniform List<scalar> 0();
    }
    procBoundary2to0
    {
        type            processor;
        value           nonuniform List<scalar> 
14
(
0.00197478668052
0.00197520164972
0.00197565088951
0.00197508311726
0.00197478668052
0.00197542357505
0.00132979407119
0.00193803900123
0.00197508311726
0.0019757422382
0.00193803900123
0.0019700982666
0.0019757422382
0.00197576776301
)
;
    }
    procBoundary2to1
    {
        type            processor;
        value           nonuniform List<scalar> 
18
(
0.00131763442019
0.00192328000609
0.00195741674108
0.00195741674108
0.00196532727183
0.00196532727183
0.00196755796483
0.00196812618973
0.00196860215449
0.00196911828628
0.0019696904172
0.0019703180234
0.00197099897122
0.00197173136124
0.00197251380162
0.00197334530202
0.00197422523655
0.00197515333474
)
;
    }
}


// ************************************************************************* //
