/*--------------------------------*- C++ -*----------------------------------*\
| =========                 |                                                 |
| \\      /  F ield         | OpenFOAM: The Open Source CFD Toolbox           |
|  \\    /   O peration     | Version:  v2012                                 |
|   \\  /    A nd           | Website:  www.openfoam.com                      |
|    \\/     M anipulation  |                                                 |
\*---------------------------------------------------------------------------*/
FoamFile
{
    version     2.0;
    format      ascii;
    class       surfaceVectorField;
    location    "0.6";
    object      Uf;
}
// * * * * * * * * * * * * * * * * * * * * * * * * * * * * * * * * * * * * * //

dimensions      [0 1 -1 0 0 0 0];


internalField   nonuniform List<vector> 
305
(
(0.00303378784696 -0.00504936041228 2.58383294738e-22)
(0.00504936215802 -0.00303443715971 4.26568364797e-23)
(0.00323377061643 -0.0104928171757 1.89098306231e-22)
(0.00544345786716 -0.00782843766813 3.27182008127e-22)
(0.00322514785827 -0.0159445825951 -5.64815891205e-23)
(0.00545176406633 -0.0133792124518 -3.70340365994e-23)
(0.00319128364596 -0.0213453608721 -6.21310683993e-23)
(0.00540077361151 -0.018869817497 -7.08952549625e-23)
(0.00316355779804 -0.0267085987262 -8.50302693902e-23)
(0.00536322987099 -0.0242934338255 -4.60638711e-22)
(0.00313791281682 -0.032040722292 -1.48218834741e-22)
(0.00533212099966 -0.0296906744539 -2.24574150571e-22)
(0.00311066648314 -0.0373406546691 1.04707917316e-22)
(0.00529993735204 -0.0350602448209 -4.84600046458e-22)
(0.00526311515996 -0.0403961690672 6.12502758044e-23)
(0.00783160347883 -0.00544670063065 1.11455549868e-22)
(0.010496065027 -0.00324740261039 6.06603017503e-23)
(0.00804144836304 -0.0108702044544 1.01049665296e-22)
(0.0108669630877 -0.00805131160789 7.58652727602e-22)
(0.0080259841497 -0.0163157041737 -5.14477024414e-23)
(0.0108972623574 -0.0135809788463 8.0762596278e-23)
(0.00797989173472 -0.021772289979 -4.69402897563e-22)
(0.0108573539656 -0.0191046173196 -6.25035432418e-23)
(0.00793882757967 -0.0272185338852 -6.00182592181e-22)
(0.0108094644564 -0.0245700356102 -4.61128877564e-22)
(0.00789749788951 -0.0326432298496 -5.60955362288e-22)
(0.010756812263 -0.0300183467938 -1.76693599108e-22)
(0.00785034134334 -0.0380387414802 -5.28057687969e-22)
(0.0106954553378 -0.0354436489407 -4.03763127088e-22)
(0.0106222111523 -0.0408373183027 -1.11167143025e-22)
(0.0133717644119 -0.00547392406961 7.07857479484e-22)
(0.0159699929471 -0.00325828755278 1.63657834967e-22)
(0.0135490748615 -0.0109336363269 7.38365658584e-22)
(0.0163266783776 -0.00806411833835 1.01185232397e-21)
(0.0135445596734 -0.0163968583624 6.97067554776e-23)
(0.0163604838699 -0.0136273326548 1.27155263409e-22)
(0.0135004297406 -0.0218664204972 -5.42295232422e-23)
(0.0163269105581 -0.0191733669952 6.98890748358e-25)
(0.0134436700053 -0.0273284605896 -3.76398844912e-23)
(0.016271493733 -0.0246550838014 -5.02340506349e-23)
(0.0133753925774 -0.0327721577453 -1.95013639084e-23)
(0.0162005021535 -0.0301208817723 4.00724758723e-23)
(0.0132929904533 -0.0381892583934 1.31274178564e-23)
(0.0161125446165 -0.0355661020225 1.02412962482e-23)
(0.0160049773685 -0.0409821681174 3.69689191249e-23)
(0.0188985995932 -0.00544701634333 4.67652679453e-22)
(0.0214170157489 -0.0032476901407 -6.04175043011e-24)
(0.0190963628321 -0.0109430224613 4.00641928795e-22)
(0.021822689982 -0.00805536132915 9.64500611273e-22)
(0.0190944320236 -0.0164371202465 5.81473986796e-23)
(0.0218545825697 -0.013654757886 1.67104790771e-22)
(0.0190465048065 -0.0219269678506 4.69436335567e-24)
(0.0218167524064 -0.019226541846 1.85795945582e-23)
(0.0189761442316 -0.0274065236425 2.74783097286e-23)
(0.0217510364293 -0.0247288378169 5.55760298539e-25)
(0.0188856986807 -0.0328687812663 6.98151360289e-23)
(0.0216627443345 -0.030215218889 3.35837506268e-23)
(0.0187732594212 -0.0383067646073 3.40827975168e-23)
(0.0215505236077 -0.0356831101355 4.71486494477e-23)
(0.0186358799928 -0.0437132645858 -2.54068287411e-23)
(0.0214114664421 -0.0411247741934 -7.96390177935e-24)
(0.021241964648 -0.0465327506086 -1.99772071076e-23)
(0.0243778475266 -0.00544005042849 4.90806181389e-22)
(0.0268570760252 -0.00324875980646 -2.0404122877e-22)
(0.0246076385321 -0.0109593870005 7.30963473248e-22)
(0.0273420351231 -0.00806206454958 1.02699655166e-21)
(0.0246022748235 -0.0164799219621 1.27536986649e-22)
(0.0273751202535 -0.0136894132287 2.19390337795e-22)
(0.0245457313974 -0.0219932398128 1.44409915011e-23)
(0.0273300643704 -0.0192866082316 2.40796147673e-23)
(0.0244615926408 -0.0274955483793 6.66120119677e-24)
(0.0272533295371 -0.0248133224241 3.29445229972e-24)
(0.0243513637133 -0.0329820799562 1.09172640457e-23)
(0.0271492537136 -0.0303255141862 5.91040921721e-24)
(0.0242125368225 -0.0384471461263 5.10195015165e-24)
(0.0270155714681 -0.035822017885 6.9641017626e-24)
(0.0240414593662 -0.0438841957719 -2.53428014586e-24)
(0.0268485198234 -0.0412959574321 -5.38161613708e-25)
(0.023833888989 -0.049285785148 2.97752496728e-24)
(0.026643577383 -0.0467404640369 -1.39518899108e-24)
(0.0263957013355 -0.0521477461548 6.38280768975e-24)
(0.0298663680943 -0.00544781029427 3.32149141496e-22)
(0.0323049001671 -0.00325812344327 -8.05887472506e-23)
(0.0301384481331 -0.0109873520873 5.15423416202e-22)
(0.032881589066 -0.00808007287007 5.16761285778e-22)
(0.0301308838895 -0.0165320132067 1.15932965913e-22)
(0.0329197862403 -0.0137327955759 9.78583600917e-23)
(0.0300655854958 -0.0220706279769 1.29330755659e-23)
(0.0328686732869 -0.0193559859672 1.23055862105e-23)
(0.0299689269359 -0.0275998786749 2.54366032016e-24)
(0.0327825629497 -0.0249101026382 2.89227269799e-24)
(0.0298415379028 -0.0331161192726 1.95724693412e-24)
(0.0326654677312 -0.030452604229 1.52626749726e-24)
(0.0296798851542 -0.0386146283409 1.32398999724e-24)
(0.0325140536231 -0.0359833117259 1.67887685602e-24)
(0.0294792969633 -0.0440895794036 6.0092954107e-25)
(0.0323234665865 -0.0414961550945 9.2273327281e-25)
(0.0292344262115 -0.0495340127203 2.01009373139e-24)
(0.0320880385564 -0.0469849047182 7.14913794399e-25)
(0.0318014891166 -0.0524422587703 4.99320408545e-24)
(0.0353729688723 -0.00546247699573 1.04023397032e-22)
(0.0377673954873 -0.00327177709052 -7.53141673582e-23)
(0.0356940395993 -0.0110229792049 9.91962296676e-23)
(0.0384421074615 -0.00810372134398 6.84552126329e-22)
(0.0356873093464 -0.0165920749923 -5.76901961115e-24)
(0.0384888894335 -0.0137822001815 9.36894608103e-23)
(0.0356155603035 -0.0221578840341 2.2647833426e-24)
(0.0384344768583 -0.019432615425 1.048624972e-23)
(0.0355092736562 -0.0277175009113 1.87487987509e-24)
(0.0383421607068 -0.0250165770022 2.70641349525e-24)
(0.035368499921 -0.0332681105006 1.24789741916e-24)
(0.0382160479074 -0.0305930739019 1.15218596669e-24)
(0.035188597641 -0.0388058524237 1.27762013158e-24)
(0.0380517638204 -0.0361628412472 1.38865528719e-24)
(0.0349637083031 -0.0443256559314 1.03671752614e-24)
(0.0378432603333 -0.0417206397565 1.36934401134e-24)
(0.0346872108795 -0.0498211684878 3.69802414847e-24)
(0.0375835719641 -0.0472609712068 7.2174153337e-25)
(0.0372650106451 -0.0527771152661 5.27049673301e-24)
(0.0408987646012 -0.00548030780996 5.05214561939e-22)
(0.0432477264969 -0.00328761296818 -4.65455314091e-23)
(0.0412730266932 -0.0110628111952 6.79045357472e-22)
(0.0440246315201 -0.0081295194171 8.72966258763e-22)
(0.0412704080575 -0.0166571542731 1.09944730141e-22)
(0.0440832430235 -0.0138344446063 1.53638132194e-22)
(0.0411956878252 -0.0222517616853 1.09278798726e-23)
(0.0440290798228 -0.0195130356926 6.71404117998e-25)
(0.0410839341123 -0.0278444353795 1.98371958685e-24)
(0.0439348142305 -0.0251285863673 8.50676684757e-25)
(0.040934788662 -0.0334332570733 1.29294383473e-24)
(0.0438048373037 -0.0307419094839 1.01870965948e-24)
(0.0407424822413 -0.0390152835384 1.48037916694e-24)
(0.0436337556826 -0.0363547602608 4.47834886059e-25)
(0.0404998622664 -0.0445862914244 1.05436801857e-24)
(0.0434142516882 -0.0419628362891 1.26636343065e-24)
(0.0401988850674 -0.0501406420872 2.29421411791e-24)
(0.0431379431491 -0.0475614973092 7.99658651323e-25)
(0.0427955631693 -0.0531447397329 3.02501216197e-24)
(0.0464449876694 -0.00549903281809 3.21206165415e-22)
(0.0487467877632 -0.00330429231188 -2.7940588384e-24)
(0.0468758641839 -0.0111037839843 3.47559033485e-22)
(0.0496294083553 -0.00815477281273 9.16949446779e-22)
(0.0468808913443 -0.0167236665457 4.43648061702e-23)
(0.0497031399423 -0.0138860829326 1.62368645215e-22)
(0.046807489601 -0.0223479676951 -9.40579906989e-24)
(0.0496533786773 -0.0195929650213 -1.6416226442e-24)
(0.0466954857947 -0.0279755227655 -1.14333242618e-25)
(0.0495623492298 -0.0252409096028 -9.76300476288e-26)
(0.0465441686281 -0.033605501657 1.73600710809e-25)
(0.0494347829442 -0.0308929043655 5.1693261663e-25)
(0.0463466061827 -0.0392360298487 2.33819149768e-25)
(0.0492642472142 -0.0365519126577 8.65505146342e-26)
(0.0460942547719 -0.0448638745166 1.01165406341e-24)
(0.0490420788892 -0.0422147358504 7.23468135918e-25)
(0.0457775085509 -0.0504842657178 1.53045669538e-24)
(0.0487583487611 -0.047877758777 8.63443946441e-25)
(0.0484020690889 -0.0535358609237 2.1094460667e-24)
(0.0520115631696 -0.00551681136641 5.92949222525e-22)
(0.0542636332066 -0.0033207150535 -1.70444502445e-22)
(0.0525024210384 -0.0111428180587 7.31759058509e-22)
(0.0552554462439 -0.00817693993521 4.85267957926e-22)
(0.0525190032515 -0.0167874867813 1.16362216401e-22)
(0.0553478277594 -0.0139333156372 6.090916395e-23)
(0.0524519542195 -0.0224413286008 7.66654637806e-24)
(0.0553072217039 -0.0196673811096 -3.24599245227e-23)
(0.0523459283526 -0.0281045158799 5.33635811619e-25)
(0.0552255187039 -0.0253473198149 -2.30230409551e-24)
(0.0521998502834 -0.0337775447817 4.29882420455e-25)
(0.0551077792869 -0.0310386483066 -3.12174797102e-25)
(0.0520055645251 -0.0394598122126 5.76199500784e-25)
(0.054946478967 -0.036745766349 8.23299073033e-25)
(0.0517530321381 -0.045149267018 5.75258018948e-25)
(0.0547315145473 -0.0424667887497 6.90616957891e-25)
(0.0514309436962 -0.0508421870228 1.44243331776e-24)
(0.0544512885318 -0.0481993293629 1.01754210249e-24)
(0.05409291481 -0.0539393478275 2.24992086897e-24)
(0.0575967498544 -0.00553188057509 -2.78125767045e-22)
(0.0597955538178 -0.00333580843621 -3.85261467135e-22)
(0.0581511544324 -0.0111766168743 -1.85581936633e-22)
(0.0609002197646 -0.00819336982639 1.5803650488e-22)
(0.0581836675173 -0.0168439113949 -8.79129769736e-23)
(0.0610151470256 -0.0139718941267 -2.15585313133e-23)
(0.0581287746231 -0.0225257876707 -4.24287749963e-23)
(0.060989104312 -0.0197304938997 -5.89127686297e-23)
(0.0580359945723 -0.0282240408649 -3.14811470423e-24)
(0.060923758425 -0.0254405506098 -4.25855895657e-24)
(0.0579038416824 -0.0339407514556 8.12418554765e-26)
(0.0608244616521 -0.0311704564115 4.17150159512e-27)
(0.0577228553113 -0.0396768271119 9.37716530141e-25)
(0.0606825224595 -0.0369262998638 -6.63391302348e-25)
(0.057481385769 -0.0454316208692 1.13290104144e-24)
(0.0604862953563 -0.0427077522209 8.66824768689e-25)
(0.0571662709621 -0.0512026808712 1.82502965371e-24)
(0.0602223686954 -0.0485138940812 1.24288519187e-24)
(0.0598758019821 -0.0543419955101 2.28084190149e-24)
(0.0631970686508 -0.00554237817321 5.09008047894e-23)
(0.0653379781131 -0.00334842585132 -4.71467992757e-22)
(0.0638188990272 -0.0112015343333 3.22059910199e-22)
(0.0665594194381 -0.0082011619593 9.3786055797e-22)
(0.063872265678 -0.0168875923888 7.44167703063e-24)
(0.066701236312 -0.0139970350824 1.51489502828e-22)
(0.0638361584448 -0.0225943598841 -2.074255259e-23)
(0.0666958848674 -0.019775688198 -1.092589468e-23)
(0.0637649920934 -0.0283255370294 -1.10627275075e-24)
(0.0666549293028 -0.0255122355744 -2.18824435852e-24)
(0.0636568088988 -0.0340850630085 -7.40461656229e-25)
(0.0665839663921 -0.031278285514 8.40828455855e-26)
(0.0635007488961 -0.0398756199238 -7.342830638e-25)
(0.0664730552201 -0.0370818874505 -1.17110474251e-24)
(0.0632834270063 -0.0456982242864 9.76808919121e-25)
(0.0663088926063 -0.0429245419462 -5.1032001893e-26)
(0.0629896706129 -0.0515519389356 1.69869743965e-24)
(0.0660761168634 -0.0488070681956 4.98546265283e-25)
(0.0657575372159 -0.0547283128842 2.22386850488e-24)
(0.0688071177659 -0.00554625329218 4.15491760423e-22)
(0.0708842833205 -0.0033572968979 -5.57395711034e-22)
(0.0695006227243 -0.01121348678 7.67290150599e-22)
(0.0722267026275 -0.00819708868061 7.639296356e-22)
(0.0695803781176 -0.0169124680531 1.33121931117e-22)
(0.0724002558631 -0.0140033513458 1.5294833923e-22)
(0.0695705773348 -0.0226390664985 7.62841355142e-24)
(0.0724225047362 -0.0197954581488 -2.69111725282e-23)
(0.0695305667569 -0.0283991774674 -9.97888762186e-25)
(0.0724150434936 -0.0255528335338 -3.83088194102e-24)
(0.0694578507494 -0.0341988895956 -3.46560240692e-25)
(0.0723836681936 -0.0313506380021 -2.40781035271e-24)
(0.0693400710957 -0.0400429507687 -4.87853680599e-25)
(0.0723171024643 -0.0371991739985 -2.07962157835e-24)
(0.0691619783403 -0.0459343275446 -5.29294655731e-25)
(0.072200274753 -0.0431020746286 1.9350663227e-24)
(0.0689062258534 -0.0518738902446 1.02371733051e-24)
(0.072015718908 -0.0490622060318 -6.72824339698e-25)
(0.0717438248028 -0.0550802966662 1.41964686735e-24)
(0.0744193357183 -0.00554122084552 -2.08957835858e-22)
(0.0764255610281 -0.00336100028052 -4.5873790385e-22)
(0.0751891579326 -0.0112078936406 1.49587824231e-22)
(0.0778934306732 -0.00817754969331 4.62062584782e-22)
(0.0753015011309 -0.0169117002309 -7.0847644159e-24)
(0.0781041079088 -0.0139847973494 -3.52776864817e-23)
(0.0753264813768 -0.0226508649768 -3.83704680207e-23)
(0.078161700178 -0.0197813440519 -6.88834313187e-23)
(0.0753284197772 -0.0284337815363 -5.24080353154e-24)
(0.0781979742894 -0.0255515513536 -4.29176516204e-24)
(0.0753042202856 -0.0342689997615 -4.14087169036e-24)
(0.0782188867417 -0.0313744620882 -2.25169998338e-24)
(0.0752399312304 -0.0401636491757 3.43298424957e-25)
(0.0782117479857 -0.037262945004 -3.21498268502e-24)
(0.075118311885 -0.0461229711636 1.79153663874e-24)
(0.0781596132205 -0.0432231042867 4.7359069647e-24)
(0.0749196746452 -0.0521499673377 -2.76894802862e-25)
(0.078042775438 -0.0492601975867 2.66499032853e-25)
(0.0778389953127 -0.0553771884171 3.55705332115e-26)
(0.0800237418886 -0.00552473446841 2.1228251679e-22)
(0.0819503558605 -0.00335794923117 -4.94804227017e-22)
(0.0808749237184 -0.0111796346446 2.7719707407e-22)
(0.0835483903145 -0.0081385464548 1.76447839347e-23)
(0.0810267570743 -0.0168776205305 -9.70763533844e-23)
(0.0838021454269 -0.0139346295384 -1.53459306734e-22)
(0.0810960018931 -0.0226195817255 -3.480472846e-23)
(0.0839037000601 -0.0197238802203 -7.67761201472e-23)
(0.0811520077392 -0.0284167298693 -1.30266161388e-24)
(0.0839951445097 -0.0254962724019 -6.17915423685e-24)
(0.081191027737 -0.0342804058507 -1.32581097803e-24)
(0.0840825797323 -0.0313350514729 -2.26276510956e-24)
(0.0811974264 -0.0402204659728 1.17762585472e-24)
(0.0841518353351 -0.0372559999114 -2.99929986708e-24)
(0.0811518521246 -0.0462448007636 3.21086935881e-24)
(0.0841839823613 -0.0432680570187 2.98822941549e-24)
(0.0810321142941 -0.0523588893756 5.78964368927e-25)
(0.0841569477885 -0.0493792592745 4.29571627156e-25)
(0.0840456859044 -0.0555951979506 -2.10017631678e-24)
(0.0856076668604 -0.00549397618807 -6.89441959872e-22)
(0.08744440678 -0.00334637749301 -7.41444353445e-22)
(0.0865456389136 -0.0111230253767 -4.13011596869e-22)
(0.0891775130264 -0.00807566378088 -4.30479300642e-22)
(0.0867445945986 -0.0168016915246 -1.33159073497e-22)
(0.0894808698825 -0.0138453782845 -1.24262795138e-22)
(0.0868686457982 -0.0225338634328 -4.81505459241e-23)
(0.0896359142201 -0.0196125437781 -7.30685643352e-23)
(0.0869922271415 -0.0283338805929 -7.13925773253e-24)
(0.0897952275984 -0.0253734894305 -5.4543359498e-24)
(0.0871109027029 -0.0342162449795 -3.9362539986e-24)
(0.0899649953829 -0.0312159770329 -7.54469455934e-24)
(0.087207290297 -0.0401939514573 -1.18869630631e-24)
(0.0901295608096 -0.0371590452415 -7.55161620932e-24)
(0.087259817526 -0.0462778634914 2.06931683837e-25)
(0.0872436452556 -0.0524764327042 -2.24956905856e-24)
(0.0911554608265 -0.00544583531399 -4.82481694215e-22)
(0.0928903354057 -0.00332433090599 -5.65250610035e-22)
(0.0921860216533 -0.0110317938203 -1.41730498911e-22)
(0.0947635521746 -0.00798405890191 3.74344709171e-23)
(0.0924404847248 -0.0166744826731 -6.4172285976e-23)
(0.0951236304795 -0.0137088118015 -2.09727372507e-23)
(0.0926309637496 -0.0223810863691 -3.03723543609e-23)
(0.0953426359168 -0.0194357286508 -3.52449078611e-23)
(0.0928370527895 -0.0281695199534 -5.85977277661e-24)
(0.0955837185963 -0.0251682812189 -5.99077014197e-24)
(0.0930536278614 -0.0340577616246 -1.11600567701e-23)
(0.0966481915227 -0.00537691776952 -4.53344449027e-23)
(0.0977774771538 -0.0108990649127 1.58192232577e-22)
(0.0980965731354 -0.0164855815328 7.95464086421e-24)
(0.100710278161 -0.0135159651128 6.34498184577e-23)
(0.0983661941068 -0.0221474520307 -1.08633236421e-23)
(0.101004577315 -0.0191807519078 -4.48063637637e-23)
(0.103691352751 -0.0162237969065 1.06888138298e-23)
)
;

boundaryField
{
    back
    {
        type            calculated;
        value           uniform (0 0 0);
    }
    sides
    {
        type            calculated;
        value           uniform (0 0 0);
    }
    bottom
    {
        type            calculated;
        value           uniform (0 0 0);
    }
    front
    {
        type            calculated;
        value           uniform (0 0 0);
    }
    atmosphere
    {
        type            calculated;
        value           nonuniform List<vector> 0();
    }
    floatingObject
    {
        type            calculated;
        value           nonuniform List<vector> 0();
    }
    procBoundary2to0
    {
        type            processor;
        value           nonuniform List<vector> 
14
(
(0.0902679494666 -0.0432148795558 -1.88527942081e-24)
(0.0903555776965 -0.0493947307274 8.34418458999e-26)
(0.090364464308 -0.0557072629622 -3.31435217468e-24)
(0.0958532891855 -0.0309990139129 -8.71831621896e-24)
(0.0932615195169 -0.0400622882438 -8.24819932383e-24)
(0.0961341393135 -0.0369506041012 -1.11438041997e-23)
(0.0982673521351 -0.00328967035118 -1.5602717924e-22)
(0.100285803381 -0.00785847041636 5.71740199037e-22)
(0.0986711950413 -0.0279063230097 -8.84931358432e-24)
(0.101342693531 -0.0248642688365 -1.27551155536e-23)
(0.103297781021 -0.0107173806514 4.76997784918e-22)
(0.106216839937 -0.0132571357727 -3.40967733506e-24)
(0.104053919546 -0.0218178104493 -4.66981556751e-23)
(0.106598703436 -0.0188338390371 -1.02533975387e-22)
)
;
    }
    procBoundary2to1
    {
        type            processor;
        value           nonuniform List<vector> 
18
(
(0.00307999408481 -0.0426037557927 3.66072999659e-22)
(0.00779413505531 -0.0433978391124 -6.43574824604e-25)
(0.0131936986565 -0.0435719966677 7.76136849789e-23)
(0.0158748671211 -0.0463612051905 1.52379371129e-23)
(0.0184702139776 -0.0490802858395 1.16211754617e-23)
(0.0210380739249 -0.0518988730143 3.45759075367e-23)
(0.0235852493896 -0.054643309475 4.79126482542e-24)
(0.0289394688395 -0.0549397433623 2.62201860099e-24)
(0.0343519056274 -0.055284634892 4.89811496456e-24)
(0.039830787653 -0.0556711476568 4.38063027831e-24)
(0.0453858759145 -0.0560907228497 1.39054531579e-24)
(0.0510269077035 -0.056532987306 1.87219286848e-24)
(0.0567630373148 -0.0569855133119 1.96098133793e-24)
(0.0626027305005 -0.0574336162279 1.71220006142e-24)
(0.0685535849486 -0.0578601051893 2.65889636695e-24)
(0.0746220982011 -0.0582450484342 7.4471123095e-25)
(0.0808133902276 -0.0585654903547 2.92943272651e-25)
(0.0871308430251 -0.0587950860573 -8.52312811829e-25)
)
;
    }
}


// ************************************************************************* //
