/*--------------------------------*- C++ -*----------------------------------*\
| =========                 |                                                 |
| \\      /  F ield         | OpenFOAM: The Open Source CFD Toolbox           |
|  \\    /   O peration     | Version:  v2012                                 |
|   \\  /    A nd           | Website:  www.openfoam.com                      |
|    \\/     M anipulation  |                                                 |
\*---------------------------------------------------------------------------*/
FoamFile
{
    version     2.0;
    format      ascii;
    class       volVectorField;
    location    "2.9";
    object      U;
}
// * * * * * * * * * * * * * * * * * * * * * * * * * * * * * * * * * * * * * //

dimensions      [0 1 -1 0 0 0 0];


internalField   nonuniform List<vector> 
164
(
(-0.00464280531505 0.000895653862646 2.14000108725e-21)
(-0.00522229513835 0.0031538436551 2.70611808707e-21)
(-0.00545474004072 0.0053976110636 1.29097926023e-20)
(-0.00523180209137 0.00770223013112 6.9288967436e-20)
(-0.00474437617972 0.0102273437783 3.35404324574e-19)
(-0.00400766217094 0.0129832938545 1.4844825805e-18)
(0.000398004143122 0.0167940266267 5.04020979021e-18)
(0.0120598792578 0.0273568605617 1.26605193805e-17)
(-0.00286945447257 0.0403253156476 2.19391780946e-17)
(-0.0103773263374 0.0497429456561 2.2305059321e-17)
(-0.00610040878413 0.0754695458407 1.15455702444e-17)
(0.0155540159777 0.0783111025969 1.36523146871e-17)
(-0.0186785474062 0.0770199648333 8.37827227939e-18)
(-0.0373868969073 0.0725885348596 4.90601041381e-18)
(-0.00677835440198 0.000990689432567 1.880905851e-21)
(-0.00750896925019 0.00347552104941 6.93629142532e-22)
(-0.00782845839878 0.00609627295865 3.97397305517e-21)
(-0.00756778761291 0.00888286362473 2.51979665546e-20)
(-0.0069102054357 0.0120015552442 1.2553923593e-19)
(-0.00606060573215 0.0152038082153 5.71533959515e-19)
(-0.00488369971177 0.0178037072498 2.05137761796e-18)
(-0.00338360032122 0.0243765030129 5.11933453462e-18)
(-0.0110390730934 0.0328388476939 8.47026261487e-18)
(-0.0213784127264 0.0364574690678 8.28266030882e-18)
(-0.0263105901371 0.041648125673 6.09800949462e-18)
(-0.0219843342404 0.0519318120027 7.90153320708e-18)
(-0.0140943835721 0.068234277742 6.24586727712e-18)
(-0.034200155245 0.073751073788 3.91067096341e-18)
(-0.00911073471976 0.00104674808214 2.41096534936e-21)
(-0.0100041051173 0.00363800213716 2.75813871705e-22)
(-0.0106174220593 0.00636571728371 9.20516230629e-22)
(-0.0107780570112 0.00924440828783 6.87838933203e-21)
(-0.0106442276052 0.0125390418663 3.48374763617e-20)
(-0.010350752435 0.0163715690342 1.53284648771e-19)
(-0.0100705281592 0.0207765504817 5.52525692068e-19)
(-0.00986385546563 0.026588799568 1.4369838813e-18)
(-0.0144426037185 0.0330213604883 2.5465981115e-18)
(-0.0212805315005 0.0371284451843 2.80641325847e-18)
(-0.0244317042087 0.0391776683886 2.53124084732e-18)
(-0.0219526258021 0.0432349886151 3.31460470176e-18)
(-0.0253683120778 0.0556954250273 2.79124353741e-18)
(-0.0428031401232 0.0678190691043 1.69973297224e-18)
(-0.0115130216191 0.00105919799119 2.50333152114e-21)
(-0.0125694661143 0.00367106817333 2.39856775031e-22)
(-0.013429175038 0.00640868265328 2.45928556455e-22)
(-0.0138728935421 0.00929136077381 1.85436082695e-21)
(-0.0141001737058 0.0125932104048 8.36423832403e-21)
(-0.0143022881364 0.0163934505853 3.51138288397e-20)
(-0.0148587563226 0.020776196827 1.22203984589e-19)
(-0.0161951812338 0.0259023056899 3.12375444423e-19)
(-0.0198862875822 0.0313586008247 5.56671611113e-19)
(-0.0253542166592 0.0355016293381 6.44722890172e-19)
(-0.0300317512212 0.0381096547558 6.24850049089e-19)
(-0.0325840624761 0.0421496443225 8.13501859232e-19)
(-0.0370139414386 0.0511285090537 6.76102488552e-19)
(-0.049812756104 0.0596242743785 3.83000593122e-19)
(-0.0138949142894 0.0010375089727 2.07047958238e-21)
(-0.0151146817981 0.00359372221707 -3.75097550364e-23)
(-0.016195077744 0.00625567433734 -6.4540182984e-25)
(-0.0168963462164 0.00903477865804 4.3597262925e-22)
(-0.0174733952424 0.0121668166622 2.00992539878e-21)
(-0.0181699123346 0.0156436945024 7.06273040069e-21)
(-0.0193003582293 0.0194996968888 2.34512373191e-20)
(-0.0211476074453 0.0237735331837 5.7771423572e-20)
(-0.0243466171628 0.0282383582724 1.00499310905e-19)
(-0.0288081059624 0.0320284111028 1.18158030232e-19)
(-0.033366173131 0.0350138094248 1.10364177601e-19)
(-0.0376026960591 0.0386885735151 1.31116942545e-19)
(-0.0434606591487 0.0443625574842 1.09662352301e-19)
(-0.0534630744654 0.0494678144716 6.44476030346e-20)
(-0.0161895643218 0.000989900212385 1.85561757359e-21)
(-0.0175631960107 0.00342162971477 -1.36464062403e-22)
(-0.0188350097263 0.00593080087256 -1.31171013064e-22)
(-0.019746985972 0.00852243322998 1.09828058237e-22)
(-0.0205826457221 0.0113796268919 6.90438813634e-22)
(-0.0216156737988 0.0144394650454 1.46788858167e-21)
(-0.0230852044013 0.0177138634453 4.16278517981e-21)
(-0.0251625156918 0.0212044443225 9.69710424571e-21)
(-0.0281628240617 0.0247431184582 1.67002623073e-20)
(-0.03213706606 0.0279169496421 2.01258352416e-20)
(-0.0365820362511 0.0306430866639 1.79988203766e-20)
(-0.0414458757899 0.0335248733382 1.86341274798e-20)
(-0.0476875341445 0.0370250384332 1.49233842082e-20)
(-0.0562622158688 0.0398771867432 8.19654565367e-21)
(-0.0183479168913 0.000928660125438 2.20639662403e-21)
(-0.0198579992704 0.00318532337895 1.86635068706e-22)
(-0.0212869270722 0.0054860311 2.69654187758e-22)
(-0.0223501877977 0.00784151881156 3.60854136201e-22)
(-0.0233492673331 0.0103834480024 4.82190344994e-22)
(-0.0245647168449 0.0130220064328 5.19536378009e-22)
(-0.0261878069056 0.0157612885769 9.83264944353e-22)
(-0.0283464505485 0.0185735353736 1.75136764203e-21)
(-0.0312170322894 0.0213331412374 2.77204470517e-21)
(-0.0348449819978 0.0238262110718 3.35249103377e-21)
(-0.0390633228055 0.0259878656031 2.85264038016e-21)
(-0.0438971125175 0.0279813210994 2.20104102908e-21)
(-0.0498178318399 0.0298658620753 5.37598260337e-22)
(-0.0570474962282 0.0311534355361 -2.85686174692e-21)
(-0.0203250068598 0.000863740795596 1.85847110729e-21)
(-0.0219635469658 0.00291545449855 9.98944553485e-23)
(-0.0235147781312 0.0049776541015 1.83907988324e-22)
(-0.0246650180804 0.00707604202964 1.58801620239e-22)
(-0.0257529412868 0.00929792837853 3.59934911958e-22)
(-0.0270438466886 0.0115394860572 3.56789454388e-22)
(-0.0287032838412 0.0137927560037 4.19679151611e-22)
(-0.0308410146831 0.0160177750467 5.19000043857e-22)
(-0.0335645649487 0.0181225342523 8.62734279658e-22)
(-0.0369210057378 0.0199801408009 1.0712818102e-21)
(-0.040891246624 0.0215324562996 7.36998358461e-22)
(-0.045562652086 0.0227848479933 4.67126489153e-22)
(-0.0511323812355 0.0236774569354 -6.67193844995e-22)
(-0.0573773821474 0.0238571074381 -7.05376645335e-21)
(-0.0221216233131 0.000773770394727 5.41495803509e-22)
(-0.0238676115782 0.00261286180503 -6.20077675292e-22)
(-0.0254947622729 0.00444333796449 -3.4671942148e-22)
(-0.0266932344792 0.00628183320845 -1.28194496375e-23)
(-0.0278080471145 0.00818256476824 2.69374538359e-22)
(-0.0291010035574 0.010057652655 2.48937124528e-22)
(-0.0307223465146 0.0118793909654 2.28816047575e-22)
(-0.0327559840594 0.0136001550125 2.31681233535e-22)
(-0.0352727164161 0.015139181932 3.19808888735e-22)
(-0.0383073080986 0.0163881369318 3.12374709606e-22)
(-0.0418759521098 0.0172456867019 9.13457690136e-23)
(-0.0460566433069 0.0176045125543 -4.73260671783e-22)
(-0.050924866818 0.0173094819832 -1.58611964785e-21)
(-0.0560814274941 0.0162105002968 -9.70295208555e-21)
(-0.0237447024359 0.000685185429341 -2.03100994512e-22)
(-0.0255556080425 0.00231729449194 -8.26581570481e-22)
(-0.0272272185085 0.00391330315891 -4.96052778208e-22)
(-0.0284442427268 0.0054891542091 -3.49253679285e-24)
(-0.0295362338655 0.00709324929193 2.53422908512e-22)
(-0.0307766671498 0.00863436093184 2.22396172284e-22)
(-0.0322998470238 0.0100824748403 2.09442794372e-22)
(-0.0341708767998 0.0113844272519 2.0375814865e-22)
(-0.0364292912372 0.0124662666498 1.93210437914e-22)
(-0.0390949701247 0.0132381590748 1.19582758981e-22)
(-0.0421731939185 0.0135960973539 1.5547977455e-22)
(-0.045669856771 0.0134356121051 2.49459651972e-22)
(-0.0495737034908 0.0126093749124 2.50150026147e-22)
(-0.0536522584042 0.0110589071131 -7.64518487132e-21)
(-0.0251701736944 0.000602113852454 -1.17456604703e-22)
(-0.0270156744579 0.00202698360869 -7.46461638705e-22)
(-0.0287202790956 0.00339763595711 -2.28841698107e-22)
(-0.0299242020714 0.00473141842531 2.27806065808e-23)
(-0.0309666341418 0.00606556985451 2.6949856241e-22)
(-0.032123418712 0.00731486135342 2.14463749285e-22)
(-0.0335141381132 0.00844543807594 1.63273064659e-22)
(-0.0351926779238 0.00940808855359 1.33150715724e-22)
(-0.0371743775896 0.0101360159658 1.57079283244e-22)
(-0.0394725941606 0.0105547690449 6.57617084681e-23)
(-0.0420835663443 0.0105936049713 -1.68609004809e-22)
(-0.0450192484421 0.0101690053034 -5.04518558811e-22)
(-0.0483188431604 0.00920134549399 -1.56875987826e-21)
(-0.0519550845509 0.00772575098373 -8.595292144e-21)
(-0.0376219269731 0.00813229057025 1.56337970347e-22)
(-0.0395863567297 0.00827411529244 2.32890456755e-22)
(-0.0417994833549 0.0080347189129 2.03879911505e-22)
(-0.0443223179457 0.00732625933871 -1.30375416261e-22)
(-0.0471826549735 0.0060213460582 -1.5369770384e-21)
(-0.0504317487792 0.00404475666894 -7.02059712194e-21)
(-0.0430075318867 0.00476829171166 -1.58675768885e-22)
(-0.0450530864592 0.0029492897125 -7.34726060353e-22)
(-0.047417625902 0.000432449695363 -4.00439340562e-21)
(-0.0438700977183 -0.00115143939178 -1.17390210236e-21)
)
;

boundaryField
{
    back
    {
        type            noSlip;
    }
    sides
    {
        type            noSlip;
    }
    bottom
    {
        type            noSlip;
    }
    front
    {
        type            noSlip;
    }
    atmosphere
    {
        type            pressureInletOutletVelocity;
        value           nonuniform List<vector> 0();
    }
    floatingObject
    {
        type            movingWallVelocity;
        value           nonuniform List<vector> 4((0 -1.11022302463e-15 1.38777878078e-16) (0 -1.11022302463e-15 1.38777878078e-16) (0 0 0) (0 -2.22044604925e-15 1.38777878078e-16));
    }
    procBoundary8to3
    {
        type            processor;
        value           nonuniform List<vector> 8((-0.00266967188873 0.000808179457372 3.43552763292e-21) (-0.00302560809909 0.00300853195206 5.94238205464e-21) (-0.00310941666975 0.0052339734551 2.82907611546e-20) (-0.00285958287341 0.00750827364975 1.38349448758e-19) (-0.0022836070321 0.00965528804353 5.70010563295e-19) (-0.00140717765527 0.0104817407168 2.09825718771e-18) (0.00250050285611 0.0134190872998 5.65215354582e-18) (0.0145232562075 0.00445152450199 1.13558056391e-17));
    }
    procBoundary8to6
    {
        type            processor;
        value           nonuniform List<vector> 
16
(
(-0.00954216595061 0.00271632163076 6.13246512001e-18)
(-0.0251884886851 0.0391126421395 5.01926352375e-18)
(-0.0514007922571 0.0711656349373 2.48983011851e-18)
(-0.0560103659466 0.076518199652 1.60684338165e-18)
(-0.0622507490889 0.0736835361461 5.93441544092e-19)
(-0.065941494857 0.0635570022214 1.32569973736e-19)
(-0.0658271622247 0.0517460907645 1.88490754529e-20)
(-0.0656479678242 0.0409490680836 -5.56434672008e-21)
(-0.0635104735068 0.0307400645391 -1.42098372516e-20)
(-0.0616461251264 0.0219899991156 -2.53312621708e-20)
(-0.0591013623815 0.0140046735064 -4.23237552138e-20)
(-0.05685802191 0.00885616385345 -3.75749194155e-20)
(-0.0556014747963 0.00548911237644 -2.85143541464e-20)
(-0.053595158169 0.00093830314574 -2.14222687225e-20)
(-0.0502791852056 -0.00359106971517 -1.36004838829e-20)
(-0.0463631260144 -0.00556939861483 -2.48014439808e-21)
)
;
    }
    procBoundary8to7
    {
        type            processor;
        value           nonuniform List<vector> 
17
(
(-0.0264003939555 0.000527978410465 -3.53136741608e-22)
(-0.0282672167415 0.0017479507295 -4.39073654621e-22)
(-0.0299823354321 0.00290263301471 -2.08919975493e-22)
(-0.0311561385987 0.00401894450263 6.92888793844e-23)
(-0.0321319298664 0.00511437269685 2.07276915577e-22)
(-0.0331921752525 0.00611515110199 1.65171733817e-22)
(-0.0344382289655 0.00698666796211 1.27274748633e-22)
(-0.0359093446245 0.00768101430438 1.34225442865e-22)
(-0.0359093446245 0.00768101430438 1.34225442865e-22)
(-0.0378171360301 0.00642994658719 2.87112610893e-23)
(-0.039406885263 0.00635067569088 7.23204914488e-23)
(-0.0411329216516 0.00584506958088 6.6960272198e-23)
(-0.0411329216516 0.00584506958088 6.6960272198e-23)
(-0.0414604107536 0.0032215925835 -1.9476138373e-22)
(-0.0425769837937 0.00139918384066 -1.20100742684e-21)
(-0.0425769837937 0.00139918384066 -1.20100742684e-21)
(-0.0406346859327 -0.000834387982785 -2.38032027386e-21)
)
;
    }
}


// ************************************************************************* //
