/*--------------------------------*- C++ -*----------------------------------*\
| =========                 |                                                 |
| \\      /  F ield         | OpenFOAM: The Open Source CFD Toolbox           |
|  \\    /   O peration     | Version:  v2012                                 |
|   \\  /    A nd           | Website:  www.openfoam.com                      |
|    \\/     M anipulation  |                                                 |
\*---------------------------------------------------------------------------*/
FoamFile
{
    version     2.0;
    format      ascii;
    class       volScalarField;
    location    "2";
    object      epsilon_0;
}
// * * * * * * * * * * * * * * * * * * * * * * * * * * * * * * * * * * * * * //

dimensions      [0 2 -3 0 0 0 0];


internalField   nonuniform List<scalar> 
166
(
0.00634850832453
0.00636787797758
0.00639103732827
0.00642275322547
0.00647985858282
0.00661341618972
0.00695498737782
0.00778463245421
0.00957485973262
0.0129818710696
0.0191864400096
0.0307066320002
0.0504172547947
0.00633234829396
0.00634770217681
0.00636415780483
0.00638295355508
0.00640538391153
0.00643598041086
0.0064908513105
0.0066195748847
0.00695159469299
0.00776915897906
0.00958994742932
0.0133691059259
0.0215794441983
0.0414019938596
0.104736741054
0.00550078839418
0.00567671362409
0.00632932677215
0.0063481904533
0.00636317062054
0.00637920011217
0.0063974975365
0.00641927001132
0.00644877682311
0.00650130106752
0.00662421312235
0.00694193046943
0.00773067250214
0.0095531665427
0.0138054666368
0.0251760984716
0.0578390380764
0.159287102121
0.0055140373093
0.00569059604853
0.00615843081176
0.00630116632451
0.00634458200198
0.00636325242254
0.00637795424912
0.00639364676614
0.00641153063048
0.00643273275109
0.00646120613937
0.00651134241027
0.00662802273789
0.00693020131316
0.00768787084128
0.00949947724364
0.0140660407928
0.0271616262457
0.063872108627
0.166421182544
0.00552606788946
0.00570321245892
0.00617227972557
0.00631549619865
0.00635897630934
0.00637753380528
0.00639205066981
0.00640750909033
0.00642509385563
0.00644581716602
0.0064733600073
0.00652113891101
0.00663151491567
0.00691822415516
0.00764816873097
0.00945317935108
0.0142415647142
0.0282437430446
0.0661660233175
0.167365127784
0.00553675494613
0.00571454246694
0.00618497458087
0.00632879947375
0.00637247673485
0.00639103363426
0.00640546777447
0.00642078073187
0.00643815563068
0.00645853227437
0.0064852812739
0.00653079929657
0.00663488836063
0.00690637193041
0.0076095246834
0.00940481214724
0.0143364458254
0.0288107371566
0.0669410005076
0.167198583525
0.00554590346375
0.00572449232513
0.00619647756147
0.00634108072438
0.00638507486837
0.00640372437355
0.00641815680591
0.00643343046801
0.00645073325386
0.00647092906072
0.00649702231923
0.0065404223323
0.00663824512265
0.00689447353933
0.00757028232889
0.00934602709269
0.0143437404109
0.0289670183935
0.0667594566892
0.166638651186
0.00555340349245
0.00573316793281
0.00620684441074
0.00635236047571
0.00639675087091
0.00641557291054
0.00643011241597
0.0064455025905
0.00646287479413
0.00648301053678
0.00650861144486
0.00655004719807
0.00664172471614
0.00688233355889
0.00752855449803
0.00927224188236
0.0142546006887
0.028720541301
0.0657372960627
0.165825157544
0.00555912705917
0.00574037897113
0.00621595283915
0.00636254171255
0.00640744791706
0.00642655422072
0.00644132388529
0.00645693136803
0.00647452004809
0.00649478443538
0.00652010972699
0.00655980103933
0.00664545455074
0.00687014305789
0.00748400772037
0.00917790663391
0.0140556385296
0.028015836394
0.0636505768278
0.164484695057
)
;

boundaryField
{
    back
    {
        lowReCorrection 0;
        blending        stepwise;
        n               2;
        type            epsilonWallFunction;
        value           nonuniform List<scalar> 
166
(
0.00634850832453
0.00636787797758
0.00639103732827
0.00642275322547
0.00647985858282
0.00661341618972
0.00695498737782
0.00778463245421
0.00957485973262
0.0129818710696
0.0191864400096
0.0307066320002
0.0504172547947
0.00633234829396
0.00634770217681
0.00636415780483
0.00638295355508
0.00640538391153
0.00643598041086
0.0064908513105
0.0066195748847
0.00695159469299
0.00776915897906
0.00958994742932
0.0133691059259
0.0215794441983
0.0414019938596
0.104736741054
0.00550078839418
0.00567671362409
0.00632932677215
0.0063481904533
0.00636317062054
0.00637920011217
0.0063974975365
0.00641927001132
0.00644877682311
0.00650130106752
0.00662421312235
0.00694193046943
0.00773067250214
0.0095531665427
0.0138054666368
0.0251760984716
0.0578390380764
0.159287102121
0.0055140373093
0.00569059604853
0.00615843081176
0.00630116632451
0.00634458200198
0.00636325242254
0.00637795424912
0.00639364676614
0.00641153063048
0.00643273275109
0.00646120613937
0.00651134241027
0.00662802273789
0.00693020131316
0.00768787084128
0.00949947724364
0.0140660407928
0.0271616262457
0.063872108627
0.166421182544
0.00552606788946
0.00570321245892
0.00617227972557
0.00631549619865
0.00635897630934
0.00637753380528
0.00639205066981
0.00640750909033
0.00642509385563
0.00644581716602
0.0064733600073
0.00652113891101
0.00663151491567
0.00691822415516
0.00764816873097
0.00945317935108
0.0142415647142
0.0282437430446
0.0661660233175
0.167365127784
0.00553675494613
0.00571454246694
0.00618497458087
0.00632879947375
0.00637247673485
0.00639103363426
0.00640546777447
0.00642078073187
0.00643815563068
0.00645853227437
0.0064852812739
0.00653079929657
0.00663488836063
0.00690637193041
0.0076095246834
0.00940481214724
0.0143364458254
0.0288107371566
0.0669410005076
0.167198583525
0.00554590346375
0.00572449232513
0.00619647756147
0.00634108072438
0.00638507486837
0.00640372437355
0.00641815680591
0.00643343046801
0.00645073325386
0.00647092906072
0.00649702231923
0.0065404223323
0.00663824512265
0.00689447353933
0.00757028232889
0.00934602709269
0.0143437404109
0.0289670183935
0.0667594566892
0.166638651186
0.00555340349245
0.00573316793281
0.00620684441074
0.00635236047571
0.00639675087091
0.00641557291054
0.00643011241597
0.0064455025905
0.00646287479413
0.00648301053678
0.00650861144486
0.00655004719807
0.00664172471614
0.00688233355889
0.00752855449803
0.00927224188236
0.0142546006887
0.028720541301
0.0657372960627
0.165825157544
0.00555912705917
0.00574037897113
0.00621595283915
0.00636254171255
0.00640744791706
0.00642655422072
0.00644132388529
0.00645693136803
0.00647452004809
0.00649478443538
0.00652010972699
0.00655980103933
0.00664545455074
0.00687014305789
0.00748400772037
0.00917790663391
0.0140556385296
0.028015836394
0.0636505768278
0.164484695057
)
;
    }
    sides
    {
        lowReCorrection 0;
        blending        stepwise;
        n               2;
        type            epsilonWallFunction;
        value           nonuniform List<scalar> 0();
    }
    bottom
    {
        lowReCorrection 0;
        blending        stepwise;
        n               2;
        type            epsilonWallFunction;
        value           nonuniform List<scalar> 7(0.00550078839418 0.0055140373093 0.00552606788946 0.00553675494613 0.00554590346375 0.00555340349245 0.00555912705917);
    }
    front
    {
        lowReCorrection 0;
        blending        stepwise;
        n               2;
        type            epsilonWallFunction;
        value           nonuniform List<scalar> 
166
(
0.00634850832453
0.00636787797758
0.00639103732827
0.00642275322547
0.00647985858282
0.00661341618972
0.00695498737782
0.00778463245421
0.00957485973262
0.0129818710696
0.0191864400096
0.0307066320002
0.0504172547947
0.00633234829396
0.00634770217681
0.00636415780483
0.00638295355508
0.00640538391153
0.00643598041086
0.0064908513105
0.0066195748847
0.00695159469299
0.00776915897906
0.00958994742932
0.0133691059259
0.0215794441983
0.0414019938596
0.104736741054
0.00550078839418
0.00567671362409
0.00632932677215
0.0063481904533
0.00636317062054
0.00637920011217
0.0063974975365
0.00641927001132
0.00644877682311
0.00650130106752
0.00662421312235
0.00694193046943
0.00773067250214
0.0095531665427
0.0138054666368
0.0251760984716
0.0578390380764
0.159287102121
0.0055140373093
0.00569059604853
0.00615843081176
0.00630116632451
0.00634458200198
0.00636325242254
0.00637795424912
0.00639364676614
0.00641153063048
0.00643273275109
0.00646120613937
0.00651134241027
0.00662802273789
0.00693020131316
0.00768787084128
0.00949947724364
0.0140660407928
0.0271616262457
0.063872108627
0.166421182544
0.00552606788946
0.00570321245892
0.00617227972557
0.00631549619865
0.00635897630934
0.00637753380528
0.00639205066981
0.00640750909033
0.00642509385563
0.00644581716602
0.0064733600073
0.00652113891101
0.00663151491567
0.00691822415516
0.00764816873097
0.00945317935108
0.0142415647142
0.0282437430446
0.0661660233175
0.167365127784
0.00553675494613
0.00571454246694
0.00618497458087
0.00632879947375
0.00637247673485
0.00639103363426
0.00640546777447
0.00642078073187
0.00643815563068
0.00645853227437
0.0064852812739
0.00653079929657
0.00663488836063
0.00690637193041
0.0076095246834
0.00940481214724
0.0143364458254
0.0288107371566
0.0669410005076
0.167198583525
0.00554590346375
0.00572449232513
0.00619647756147
0.00634108072438
0.00638507486837
0.00640372437355
0.00641815680591
0.00643343046801
0.00645073325386
0.00647092906072
0.00649702231923
0.0065404223323
0.00663824512265
0.00689447353933
0.00757028232889
0.00934602709269
0.0143437404109
0.0289670183935
0.0667594566892
0.166638651186
0.00555340349245
0.00573316793281
0.00620684441074
0.00635236047571
0.00639675087091
0.00641557291054
0.00643011241597
0.0064455025905
0.00646287479413
0.00648301053678
0.00650861144486
0.00655004719807
0.00664172471614
0.00688233355889
0.00752855449803
0.00927224188236
0.0142546006887
0.028720541301
0.0657372960627
0.165825157544
0.00555912705917
0.00574037897113
0.00621595283915
0.00636254171255
0.00640744791706
0.00642655422072
0.00644132388529
0.00645693136803
0.00647452004809
0.00649478443538
0.00652010972699
0.00655980103933
0.00664545455074
0.00687014305789
0.00748400772037
0.00917790663391
0.0140556385296
0.028015836394
0.0636505768278
0.164484695057
)
;
    }
    atmosphere
    {
        type            inletOutlet;
        inletValue      uniform 0.1;
        value           nonuniform List<scalar> 9(0.0504172547947 0.104736741054 0.1 0.1 0.1 0.1 0.1 0.1 0.1);
    }
    floatingObject
    {
        lowReCorrection 0;
        blending        stepwise;
        n               2;
        type            epsilonWallFunction;
        value           nonuniform List<scalar> 0();
    }
    procBoundary0to1
    {
        type            processor;
        value           nonuniform List<scalar> 10(0.00640916646803 0.00646858153491 0.00660667408144 0.00695530202466 0.00778794753438 0.00954459412465 0.0128165871626 0.0190388759549 0.035939466536 0.112163578994);
    }
    procBoundary0to2
    {
        type            processor;
        value           nonuniform List<scalar> 
14
(
0.00633224234791
0.00635227903566
0.00637622949812
0.00631571931916
0.00633153362091
0.00633153362091
0.0054864557477
0.00566159130964
0.00631317646875
0.00631317646875
0.00614349110524
0.00614349110524
0.00628587366209
0.00628587366209
)
;
    }
    procBoundary0to4
    {
        type            processor;
        value           nonuniform List<scalar> 8(0.00556280907565 0.0057460613419 0.00622369174383 0.00637152735977 0.00641708096467 0.00643658226825 0.00645169487708 0.00646766398604);
    }
    procBoundary0to5
    {
        type            processor;
        value           nonuniform List<scalar> 
12
(
0.00648564825296
0.00650623384254
0.00653149981065
0.00656970168307
0.00664959930114
0.00685821919429
0.00743707892139
0.00906415217286
0.0137591131785
0.0268245169709
0.0592971371765
0.158092724731
)
;
    }
}


// ************************************************************************* //
