/*--------------------------------*- C++ -*----------------------------------*\
| =========                 |                                                 |
| \\      /  F ield         | OpenFOAM: The Open Source CFD Toolbox           |
|  \\    /   O peration     | Version:  v2012                                 |
|   \\  /    A nd           | Website:  www.openfoam.com                      |
|    \\/     M anipulation  |                                                 |
\*---------------------------------------------------------------------------*/
FoamFile
{
    version     2.0;
    format      ascii;
    class       volScalarField;
    location    "2";
    object      p;
}
// * * * * * * * * * * * * * * * * * * * * * * * * * * * * * * * * * * * * * //

dimensions      [1 -1 -2 0 0 0 0];


internalField   nonuniform List<scalar> 
166
(
4911.37715909
4418.78044273
3925.69052963
3432.05789653
2937.82254806
2442.91197248
1947.23918744
1450.70469121
953.242953198
455.485474917
97.3353821667
-9.06199582414
-9.55822238139
5897.14996182
5405.30072437
4912.99926108
4420.2047743
3926.86654148
3432.92284517
2938.29947798
2442.90541598
1946.6310937
1449.33397823
950.675964014
451.622463785
94.501710998
-9.0578856551
-9.56050801059
8353.04598767
7863.07869489
6390.96686198
5899.46679701
5407.52628419
4915.10816196
4422.16567824
3928.64017019
3434.45925567
2939.5366416
2443.76771276
1947.02534806
1449.14632011
949.890631685
449.168116116
92.2669610551
-9.04373188078
-9.56126201397
8355.92031869
7865.9400358
7375.60600368
6884.88190473
6393.76336712
5902.22141164
5410.22571856
4917.73685985
4424.704524
3931.06416708
3436.73245462
2941.61475817
2445.59681337
1948.54681271
1450.31137621
950.957203612
448.913702825
91.337280785
-9.04020375881
-9.55616803253
8359.15894769
7869.16749142
7378.83539071
6888.10531943
6396.98096967
5905.42819501
5413.41609371
4920.90583646
4427.84783804
3934.17672801
3439.78958696
2944.5915988
2448.45659528
1951.25600148
1452.82022251
953.881329759
451.398159901
91.779504355
-9.03923591881
-9.55451256326
8362.76924926
7872.75940889
7382.44921414
6891.72988515
6400.62320731
5909.09277173
5417.10289762
4924.62043461
4431.60613526
3938.00371112
3443.65803092
2948.50761456
2452.40924599
1955.23617058
1456.77787942
958.461907321
456.377484818
93.708872273
-9.04131335552
-9.55466543782
8366.76270337
7876.67809058
7386.45874704
6895.75544166
6404.68803128
5913.2141818
5421.30225805
4928.9120876
4436.00165283
3942.50304906
3448.32119738
2953.35652238
2457.48108309
1960.5320017
1462.29894672
964.261100576
462.234065422
97.1832638036
-9.0407236876
-9.55549490336
8371.05579971
7881.03958828
7390.79944127
6900.16148499
6409.16167329
5917.77666739
5425.97726355
4933.72700201
4440.98481577
3947.6908078
3453.76933377
2959.1288561
2463.64829874
1967.17741099
1469.53528339
971.448715817
470.805933666
102.223149864
-9.04028024473
-9.55700170169
8375.69307298
7885.72250202
7395.49968104
6904.93133338
6414.02240119
5922.75446476
5431.1026969
4939.03727365
4446.52064094
3953.50776119
3459.94042626
2965.74741852
2470.83579973
1975.08918083
1478.3954364
980.762725636
482.46486802
108.89383827
-9.04068225207
-9.55956012439
)
;

boundaryField
{
    back
    {
        type            calculated;
        value           nonuniform List<scalar> 
166
(
4911.37715909
4418.78044273
3925.69052963
3432.05789653
2937.82254806
2442.91197248
1947.23918744
1450.70469121
953.242953198
455.485474917
97.3353821667
-9.06199582414
-9.55822238139
5897.14996182
5405.30072437
4912.99926108
4420.2047743
3926.86654148
3432.92284517
2938.29947798
2442.90541598
1946.6310937
1449.33397823
950.675964014
451.622463785
94.501710998
-9.0578856551
-9.56050801059
8353.04598767
7863.07869489
6390.96686198
5899.46679701
5407.52628419
4915.10816196
4422.16567824
3928.64017019
3434.45925567
2939.5366416
2443.76771276
1947.02534806
1449.14632011
949.890631685
449.168116116
92.2669610551
-9.04373188078
-9.56126201397
8355.92031869
7865.9400358
7375.60600368
6884.88190473
6393.76336712
5902.22141164
5410.22571856
4917.73685985
4424.704524
3931.06416708
3436.73245462
2941.61475817
2445.59681337
1948.54681271
1450.31137621
950.957203612
448.913702825
91.337280785
-9.04020375881
-9.55616803253
8359.15894769
7869.16749142
7378.83539071
6888.10531943
6396.98096967
5905.42819501
5413.41609371
4920.90583646
4427.84783804
3934.17672801
3439.78958696
2944.5915988
2448.45659528
1951.25600148
1452.82022251
953.881329759
451.398159901
91.779504355
-9.03923591881
-9.55451256326
8362.76924926
7872.75940889
7382.44921414
6891.72988515
6400.62320731
5909.09277173
5417.10289762
4924.62043461
4431.60613526
3938.00371112
3443.65803092
2948.50761456
2452.40924599
1955.23617058
1456.77787942
958.461907321
456.377484818
93.708872273
-9.04131335552
-9.55466543782
8366.76270337
7876.67809058
7386.45874704
6895.75544166
6404.68803128
5913.2141818
5421.30225805
4928.9120876
4436.00165283
3942.50304906
3448.32119738
2953.35652238
2457.48108309
1960.5320017
1462.29894672
964.261100576
462.234065422
97.1832638036
-9.0407236876
-9.55549490336
8371.05579971
7881.03958828
7390.79944127
6900.16148499
6409.16167329
5917.77666739
5425.97726355
4933.72700201
4440.98481577
3947.6908078
3453.76933377
2959.1288561
2463.64829874
1967.17741099
1469.53528339
971.448715817
470.805933666
102.223149864
-9.04028024473
-9.55700170169
8375.69307298
7885.72250202
7395.49968104
6904.93133338
6414.02240119
5922.75446476
5431.1026969
4939.03727365
4446.52064094
3953.50776119
3459.94042626
2965.74741852
2470.83579973
1975.08918083
1478.3954364
980.762725636
482.46486802
108.89383827
-9.04068225207
-9.55956012439
)
;
    }
    sides
    {
        type            calculated;
        value           nonuniform List<scalar> 0();
    }
    bottom
    {
        type            calculated;
        value           nonuniform List<scalar> 7(8597.85471524 8600.72900419 8603.96761284 8607.57789913 8611.5713459 8615.86444143 8620.50171878);
    }
    front
    {
        type            calculated;
        value           nonuniform List<scalar> 
166
(
4911.37715909
4418.78044273
3925.69052963
3432.05789653
2937.82254806
2442.91197248
1947.23918744
1450.70469121
953.242953198
455.485474917
97.3353821667
-9.06199582414
-9.55822238139
5897.14996182
5405.30072437
4912.99926108
4420.2047743
3926.86654148
3432.92284517
2938.29947798
2442.90541598
1946.6310937
1449.33397823
950.675964014
451.622463785
94.501710998
-9.0578856551
-9.56050801059
8353.04598767
7863.07869489
6390.96686198
5899.46679701
5407.52628419
4915.10816196
4422.16567824
3928.64017019
3434.45925567
2939.5366416
2443.76771276
1947.02534806
1449.14632011
949.890631685
449.168116116
92.2669610551
-9.04373188078
-9.56126201397
8355.92031869
7865.9400358
7375.60600368
6884.88190473
6393.76336712
5902.22141164
5410.22571856
4917.73685985
4424.704524
3931.06416708
3436.73245462
2941.61475817
2445.59681337
1948.54681271
1450.31137621
950.957203612
448.913702825
91.337280785
-9.04020375881
-9.55616803253
8359.15894769
7869.16749142
7378.83539071
6888.10531943
6396.98096967
5905.42819501
5413.41609371
4920.90583646
4427.84783804
3934.17672801
3439.78958696
2944.5915988
2448.45659528
1951.25600148
1452.82022251
953.881329759
451.398159901
91.7795043549
-9.03923591881
-9.55451256326
8362.76924926
7872.75940889
7382.44921414
6891.72988515
6400.62320731
5909.09277173
5417.10289762
4924.62043461
4431.60613526
3938.00371112
3443.65803092
2948.50761456
2452.40924599
1955.23617058
1456.77787942
958.461907321
456.377484818
93.708872273
-9.04131335552
-9.55466543782
8366.76270337
7876.67809058
7386.45874704
6895.75544166
6404.68803128
5913.2141818
5421.30225805
4928.9120876
4436.00165283
3942.50304906
3448.32119738
2953.35652238
2457.48108309
1960.5320017
1462.29894672
964.261100576
462.234065422
97.1832638036
-9.0407236876
-9.55549490336
8371.05579971
7881.03958828
7390.79944127
6900.16148499
6409.16167329
5917.77666739
5425.97726355
4933.72700201
4440.98481577
3947.6908078
3453.76933377
2959.1288561
2463.64829874
1967.17741099
1469.53528339
971.448715817
470.805933666
102.223149864
-9.04028024473
-9.55700170169
8375.69307298
7885.72250202
7395.49968104
6904.93133338
6414.02240119
5922.75446476
5431.1026969
4939.03727365
4446.52064094
3953.50776119
3459.94042626
2965.74741852
2470.83579973
1975.08918083
1478.3954364
980.762725636
482.46486802
108.89383827
-9.04068225207
-9.55956012439
)
;
    }
    atmosphere
    {
        type            calculated;
        value           nonuniform List<scalar> 9(-9.81 -9.81 -9.81011353097 -9.81023843859 -9.81016249435 -9.8100736517 -9.81001658896 -9.81000003538 -9.81006791158);
    }
    floatingObject
    {
        type            calculated;
        value           nonuniform List<scalar> 0();
    }
    procBoundary0to1
    {
        type            processor;
        value           nonuniform List<scalar> 10(3431.78180733 2938.00465514 2443.66087469 1948.67764144 1452.94186617 956.180995019 459.637992224 100.273479759 -9.04136237451 -9.55777546302);
    }
    procBoundary0to2
    {
        type            processor;
        value           nonuniform List<scalar> 
14
(
4910.19737118
4417.83832225
3925.04503753
5895.24692392
5403.52118515
5403.52118515
8350.52867003
7860.57819312
6388.57944064
6388.57944064
7372.75715345
7372.75715345
6882.05533485
6882.05533485
)
;
    }
    procBoundary0to4
    {
        type            processor;
        value           nonuniform List<scalar> 8(8380.65034625 7890.7137693 7400.53186011 6910.04296928 6419.24303496 5928.11621553 5436.6424148 4944.797788);
    }
    procBoundary0to5
    {
        type            processor;
        value           nonuniform List<scalar> 
12
(
4452.55405971
3959.88023475
3466.73900869
2973.0883887
2478.87801791
1984.0561449
1488.59261864
992.368809148
496.820302336
116.897847013
-9.04668154516
-9.56318404958
)
;
    }
}


// ************************************************************************* //
