/*--------------------------------*- C++ -*----------------------------------*\
| =========                 |                                                 |
| \\      /  F ield         | OpenFOAM: The Open Source CFD Toolbox           |
|  \\    /   O peration     | Version:  v2012                                 |
|   \\  /    A nd           | Website:  www.openfoam.com                      |
|    \\/     M anipulation  |                                                 |
\*---------------------------------------------------------------------------*/
FoamFile
{
    version     2.0;
    format      ascii;
    class       volScalarField;
    location    "2";
    object      p_rgh;
}
// * * * * * * * * * * * * * * * * * * * * * * * * * * * * * * * * * * * * * //

dimensions      [1 -1 -2 0 0 0 0];


internalField   nonuniform List<scalar> 
166
(
8583.5080257
8580.52693874
8577.05326879
8573.03603459
8568.41519253
8563.11829951
8557.06200668
8550.14867829
8542.30539704
8440.00247929
3809.86396174
0.0122541758589
0.00652761861047
8590.0466691
8587.81386648
8585.12916573
8581.95127616
8578.22957179
8573.90194969
8568.89464744
8563.1163693
8556.4559003
8548.7783338
8539.73839629
8432.17368793
3706.1495037
0.0163643448969
0.00424198941387
8597.85471524
8597.50493249
8594.24601107
8592.3624739
8590.03876127
8587.23754028
8583.91184885
8580.00295775
8575.43841067
8570.13185337
8563.97890724
8556.85256637
8548.59098428
8538.95318626
8432.68097282
3626.56280714
0.0305181192181
0.00348798602826
8600.72900419
8600.36614248
8599.64983895
8598.54310829
8597.04168625
8595.11668188
8592.73790028
8589.86596754
8586.45045349
8582.42676405
8577.71153606
8572.2100739
8565.80805815
8558.37412687
8549.75616218
8540.020281
8431.94963143
3594.32312717
0.0340462411922
0.00858196746765
8603.96761284
8603.59352533
8602.87890463
8601.76612638
8600.2589957
8598.32325666
8595.92815502
8593.03484954
8589.5936909
8585.53929436
8580.76874204
8575.1871634
8568.66823731
8561.08366164
8552.26521769
8542.94483235
8435.50879503
3610.09101854
0.0350140811919
0.010237436739
8607.57789913
8607.18538667
8606.4925845
8605.390532
8603.90107088
8601.98775495
8599.61494834
8596.74947765
8593.35205355
8589.36639916
8584.63740779
8579.10351879
8572.62129711
8565.0640025
8556.22318914
8547.52586489
8447.63653009
3679.81075434
0.0329366445554
0.0100845621774
8611.5713459
8611.10403885
8610.50203866
8609.41602573
8607.96587685
8606.10923228
8603.81445308
8601.04133258
8597.74780042
8593.86596362
8589.30076585
8583.95260861
8577.69327157
8570.35934287
8561.74463795
8553.32525517
8467.14042024
3804.3426229
0.0335263501498
0.0092550966361
8615.86444143
8615.46553506
8614.84272581
8613.82210139
8612.43961307
8610.67189085
8608.4897093
8605.85657376
8602.73126136
8599.0539062
8594.74898922
8589.72497609
8583.86056889
8577.00475193
8568.98104946
8560.51301586
8493.24926754
3985.27456009
0.0340325734738
0.00774829831368
8620.50171878
8620.14846158
8619.5429854
8618.59199638
8617.30042602
8615.64983004
8613.61540952
8611.16717163
8608.26757741
8604.87115571
8600.9203597
8596.34388638
8591.04851609
8584.91674397
8577.84159987
8569.82733114
8523.28297836
4223.82654221
0.127485488649
0.00525608939911
)
;

boundaryField
{
    back
    {
        type            fixedFluxPressure;
        gradient        uniform 0;
        value           nonuniform List<scalar> 
166
(
8583.5080257
8580.52693874
8577.05326879
8573.03603459
8568.41519253
8563.11829951
8557.06200668
8550.14867829
8542.30539704
8440.00247929
3809.86396174
0.0122541758589
0.00652761861047
8590.0466691
8587.81386648
8585.12916573
8581.95127616
8578.22957179
8573.90194969
8568.89464744
8563.1163693
8556.4559003
8548.7783338
8539.73839629
8432.17368793
3706.1495037
0.0163643448969
0.00424198941387
8597.85471524
8597.50493249
8594.24601107
8592.3624739
8590.03876127
8587.23754028
8583.91184885
8580.00295775
8575.43841067
8570.13185337
8563.97890724
8556.85256637
8548.59098428
8538.95318626
8432.68097282
3626.56280714
0.0305181192181
0.00348798602826
8600.72900419
8600.36614248
8599.64983895
8598.54310829
8597.04168625
8595.11668188
8592.73790028
8589.86596754
8586.45045349
8582.42676405
8577.71153606
8572.2100739
8565.80805815
8558.37412687
8549.75616218
8540.020281
8431.94963143
3594.32312717
0.0340462411922
0.00858196746765
8603.96761284
8603.59352533
8602.87890463
8601.76612638
8600.2589957
8598.32325666
8595.92815502
8593.03484954
8589.5936909
8585.53929436
8580.76874204
8575.1871634
8568.66823731
8561.08366164
8552.26521769
8542.94483235
8435.50879503
3610.09101854
0.0350140811919
0.010237436739
8607.57789913
8607.18538667
8606.4925845
8605.390532
8603.90107088
8601.98775495
8599.61494834
8596.74947765
8593.35205355
8589.36639916
8584.63740779
8579.10351879
8572.62129711
8565.0640025
8556.22318914
8547.52586489
8447.63653009
3679.81075434
0.0329366445554
0.0100845621774
8611.5713459
8611.10403885
8610.50203866
8609.41602573
8607.96587685
8606.10923228
8603.81445308
8601.04133258
8597.74780042
8593.86596362
8589.30076585
8583.95260861
8577.69327157
8570.35934287
8561.74463795
8553.32525517
8467.14042024
3804.3426229
0.0335263501498
0.0092550966361
8615.86444143
8615.46553506
8614.84272581
8613.82210139
8612.43961307
8610.67189085
8608.4897093
8605.85657376
8602.73126136
8599.0539062
8594.74898922
8589.72497609
8583.86056889
8577.00475193
8568.98104946
8560.51301586
8493.24926754
3985.27456009
0.0340325734738
0.00774829831368
8620.50171878
8620.14846158
8619.5429854
8618.59199638
8617.30042602
8615.64983004
8613.61540952
8611.16717163
8608.26757741
8604.87115571
8600.9203597
8596.34388638
8591.04851609
8584.91674397
8577.84159987
8569.82733114
8523.28297836
4223.82654221
0.127485488649
0.00525608939911
)
;
    }
    sides
    {
        type            fixedFluxPressure;
        gradient        nonuniform List<scalar> 0();
        value           nonuniform List<scalar> 0();
    }
    bottom
    {
        type            fixedFluxPressure;
        gradient        uniform 0;
        value           nonuniform List<scalar> 7(8597.85471524 8600.72900419 8603.96761284 8607.57789913 8611.5713459 8615.86444143 8620.50171878);
    }
    front
    {
        type            fixedFluxPressure;
        gradient        uniform 0;
        value           nonuniform List<scalar> 
166
(
8583.5080257
8580.52693874
8577.05326879
8573.03603459
8568.41519253
8563.11829951
8557.06200668
8550.14867829
8542.30539704
8440.00247929
3809.86396174
0.0122541758589
0.00652761861047
8590.0466691
8587.81386648
8585.12916573
8581.95127616
8578.22957179
8573.90194969
8568.89464744
8563.1163693
8556.4559003
8548.7783338
8539.73839629
8432.17368793
3706.1495037
0.0163643448969
0.00424198941387
8597.85471524
8597.50493249
8594.24601107
8592.3624739
8590.03876127
8587.23754028
8583.91184885
8580.00295775
8575.43841067
8570.13185337
8563.97890724
8556.85256637
8548.59098428
8538.95318626
8432.68097282
3626.56280714
0.0305181192181
0.00348798602826
8600.72900419
8600.36614248
8599.64983895
8598.54310829
8597.04168625
8595.11668188
8592.73790028
8589.86596754
8586.45045349
8582.42676405
8577.71153606
8572.2100739
8565.80805815
8558.37412687
8549.75616218
8540.020281
8431.94963143
3594.32312717
0.0340462411922
0.00858196746765
8603.96761284
8603.59352533
8602.87890463
8601.76612638
8600.2589957
8598.32325666
8595.92815502
8593.03484954
8589.5936909
8585.53929436
8580.76874204
8575.1871634
8568.66823731
8561.08366164
8552.26521769
8542.94483235
8435.50879503
3610.09101854
0.0350140811919
0.010237436739
8607.57789913
8607.18538667
8606.4925845
8605.390532
8603.90107088
8601.98775495
8599.61494834
8596.74947765
8593.35205355
8589.36639916
8584.63740779
8579.10351879
8572.62129711
8565.0640025
8556.22318914
8547.52586489
8447.63653009
3679.81075434
0.0329366445554
0.0100845621774
8611.5713459
8611.10403885
8610.50203866
8609.41602573
8607.96587685
8606.10923228
8603.81445308
8601.04133258
8597.74780042
8593.86596362
8589.30076585
8583.95260861
8577.69327157
8570.35934287
8561.74463795
8553.32525517
8467.14042024
3804.3426229
0.0335263501498
0.0092550966361
8615.86444143
8615.46553506
8614.84272581
8613.82210139
8612.43961307
8610.67189085
8608.4897093
8605.85657376
8602.73126136
8599.0539062
8594.74898922
8589.72497609
8583.86056889
8577.00475193
8568.98104946
8560.51301586
8493.24926754
3985.27456009
0.0340325734738
0.00774829831368
8620.50171878
8620.14846158
8619.5429854
8618.59199638
8617.30042602
8615.64983004
8613.61540952
8611.16717163
8608.26757741
8604.87115571
8600.9203597
8596.34388638
8591.04851609
8584.91674397
8577.84159987
8569.82733114
8523.28297836
4223.82654221
0.127485488649
0.00525608939911
)
;
    }
    atmosphere
    {
        type            totalPressure;
        rho             rho;
        psi             none;
        gamma           1;
        p0              uniform 0;
        value           nonuniform List<scalar> 9(0 0 -0.000113530968898 -0.000238438592315 -0.000162494353032 -7.36517001598e-05 -1.65889629565e-05 -3.53822935539e-08 0);
    }
    floatingObject
    {
        type            fixedFluxPressure;
        gradient        nonuniform List<scalar> 0();
        value           nonuniform List<scalar> 0();
    }
    procBoundary0to1
    {
        type            processor;
        value           nonuniform List<scalar> 10(8572.75990917 8568.59712934 8563.86718853 8558.50046073 8552.38550725 8545.24344509 8464.27509437 3918.85422528 0.0328876251827 0.00697453696751);
    }
    procBoundary0to2
    {
        type            processor;
        value           nonuniform List<scalar> 
14
(
8582.32737457
8579.58488385
8576.40738591
8588.14296082
8586.0343248
8586.0343248
8595.33737181
8595.00433057
8591.8582724
8591.8582724
8596.80099563
8596.80099563
8595.71653805
8595.71653805
)
;
    }
    procBoundary0to4
    {
        type            processor;
        value           nonuniform List<scalar> 8(8625.45900387 8625.13976962 8624.5752408 8623.70376109 8622.52124628 8621.01185976 8619.1554913 8616.92819791);
    }
    procBoundary0to5
    {
        type            processor;
        value           nonuniform List<scalar> 
12
(
8614.3018732
8611.24378577
8607.71888372
8603.68467936
8599.0904889
8593.8837073
8588.03973824
8581.43358976
8552.92673524
4511.05385776
0.752883848847
0.00178186128067
)
;
    }
}


// ************************************************************************* //
