/*--------------------------------*- C++ -*----------------------------------*\
| =========                 |                                                 |
| \\      /  F ield         | OpenFOAM: The Open Source CFD Toolbox           |
|  \\    /   O peration     | Version:  v2012                                 |
|   \\  /    A nd           | Website:  www.openfoam.com                      |
|    \\/     M anipulation  |                                                 |
\*---------------------------------------------------------------------------*/
FoamFile
{
    version     2.0;
    format      ascii;
    class       volScalarField;
    location    "2";
    object      rAU;
}
// * * * * * * * * * * * * * * * * * * * * * * * * * * * * * * * * * * * * * //

dimensions      [-1 3 1 0 0 0 0];


internalField   nonuniform List<scalar> 
166
(
9.38517481704e-06
9.38465170201e-06
9.38372227169e-06
9.38190352575e-06
9.37904913383e-06
9.37442274943e-06
9.36643068213e-06
9.35606016304e-06
9.33320551414e-06
9.42445878152e-06
2.12269447272e-05
0.00423297887806
0.00924991920315
9.38521222775e-06
9.38559548933e-06
9.38565995747e-06
9.38524411926e-06
9.38429918907e-06
9.38258181858e-06
9.37936375814e-06
9.37389861608e-06
9.36455946444e-06
9.35066579616e-06
9.33318909854e-06
9.44036091165e-06
2.20078678311e-05
0.00417823709268
0.00920655888352
9.44284217096e-06
9.38928324313e-06
9.38497807019e-06
9.38582149371e-06
9.38646413279e-06
9.38657613712e-06
9.38638029793e-06
9.38557929675e-06
9.38414920101e-06
9.38112743665e-06
9.37511616326e-06
9.36380648667e-06
9.34798564433e-06
9.3408906507e-06
9.46228690232e-06
2.26682894172e-05
0.00411515177552
0.00824745487273
9.43853449283e-06
9.38708916143e-06
9.38220125968e-06
9.38287941396e-06
9.38529158655e-06
9.38685712483e-06
9.38774365524e-06
9.38810997997e-06
9.38784231225e-06
9.38721845201e-06
9.38640626232e-06
9.3842723772e-06
9.37866110872e-06
9.36416302465e-06
9.33061963102e-06
9.33516400374e-06
9.46190890404e-06
2.27159166113e-05
0.00409144209643
0.00823792728724
9.42668130263e-06
9.38306992476e-06
9.38233643267e-06
9.38527105634e-06
9.38749574688e-06
9.38872636738e-06
9.38897774148e-06
9.38906473813e-06
9.38937315701e-06
9.38961025755e-06
9.38950662508e-06
9.38908125722e-06
9.38665501132e-06
9.37758730738e-06
9.32420790576e-06
9.29117254118e-06
9.45819204058e-06
2.26071401824e-05
0.00405754873652
0.00825096372127
9.40396290903e-06
9.38917457383e-06
9.38812513901e-06
9.38939475149e-06
9.39037572315e-06
9.39045971285e-06
9.39062854161e-06
9.3908230975e-06
9.39131448886e-06
9.3918623988e-06
9.39230409991e-06
9.39335610764e-06
9.39556187232e-06
9.3990438973e-06
9.37727129333e-06
9.31991876043e-06
9.44284266093e-06
2.21634895477e-05
0.00400485788494
0.00826158592273
9.43201318702e-06
9.40488695332e-06
9.3954438317e-06
9.39295764102e-06
9.39274711117e-06
9.39231204555e-06
9.39263207228e-06
9.39284934643e-06
9.39282090476e-06
9.39339505957e-06
9.39461122463e-06
9.39657578421e-06
9.40046962671e-06
9.40748712285e-06
9.4150774327e-06
9.39709573944e-06
9.42912321914e-06
2.13702028402e-05
0.00392502857894
0.00827384114832
9.47966261887e-06
9.41355726795e-06
9.40053388971e-06
9.39633218761e-06
9.39490253668e-06
9.39420991035e-06
9.39381804453e-06
9.39381993313e-06
9.39415673912e-06
9.39488499944e-06
9.39616079097e-06
9.39821185538e-06
9.40128217147e-06
9.40463134201e-06
9.40427266536e-06
9.40037813159e-06
9.41905266308e-06
2.03160287549e-05
0.00383038320108
0.00828246844786
9.47824764482e-06
9.41331566652e-06
9.4021181925e-06
9.39818276622e-06
9.39625923813e-06
9.39526299555e-06
9.39470957312e-06
9.39482162205e-06
9.3952575227e-06
9.39569607078e-06
9.39661598899e-06
9.39806522464e-06
9.39977918628e-06
9.40030512813e-06
9.39728453887e-06
9.38483679499e-06
9.41172441562e-06
1.93518912509e-05
0.00370969869775
0.00919856929342
)
;

boundaryField
{
    back
    {
        type            calculated;
        value           nonuniform List<scalar> 
166
(
9.38517481704e-06
9.38465170201e-06
9.38372227169e-06
9.38190352575e-06
9.37904913383e-06
9.37442274943e-06
9.36643068213e-06
9.35606016304e-06
9.33320551414e-06
9.42445878152e-06
2.12269447272e-05
0.00423297887806
0.00924991920315
9.38521222775e-06
9.38559548933e-06
9.38565995747e-06
9.38524411926e-06
9.38429918907e-06
9.38258181858e-06
9.37936375814e-06
9.37389861608e-06
9.36455946444e-06
9.35066579616e-06
9.33318909854e-06
9.44036091165e-06
2.20078678311e-05
0.00417823709268
0.00920655888352
9.44284217096e-06
9.38928324313e-06
9.38497807019e-06
9.38582149371e-06
9.38646413279e-06
9.38657613712e-06
9.38638029793e-06
9.38557929675e-06
9.38414920101e-06
9.38112743665e-06
9.37511616326e-06
9.36380648667e-06
9.34798564433e-06
9.3408906507e-06
9.46228690232e-06
2.26682894172e-05
0.00411515177552
0.00824745487273
9.43853449283e-06
9.38708916143e-06
9.38220125968e-06
9.38287941396e-06
9.38529158655e-06
9.38685712483e-06
9.38774365524e-06
9.38810997997e-06
9.38784231225e-06
9.38721845201e-06
9.38640626232e-06
9.3842723772e-06
9.37866110872e-06
9.36416302465e-06
9.33061963102e-06
9.33516400374e-06
9.46190890404e-06
2.27159166113e-05
0.00409144209643
0.00823792728724
9.42668130263e-06
9.38306992476e-06
9.38233643267e-06
9.38527105634e-06
9.38749574688e-06
9.38872636738e-06
9.38897774148e-06
9.38906473813e-06
9.38937315701e-06
9.38961025755e-06
9.38950662508e-06
9.38908125722e-06
9.38665501132e-06
9.37758730738e-06
9.32420790576e-06
9.29117254118e-06
9.45819204058e-06
2.26071401824e-05
0.00405754873652
0.00825096372127
9.40396290903e-06
9.38917457383e-06
9.38812513901e-06
9.38939475149e-06
9.39037572315e-06
9.39045971285e-06
9.39062854161e-06
9.3908230975e-06
9.39131448886e-06
9.3918623988e-06
9.39230409991e-06
9.39335610764e-06
9.39556187232e-06
9.3990438973e-06
9.37727129333e-06
9.31991876043e-06
9.44284266093e-06
2.21634895477e-05
0.00400485788494
0.00826158592273
9.43201318702e-06
9.40488695332e-06
9.3954438317e-06
9.39295764102e-06
9.39274711117e-06
9.39231204555e-06
9.39263207228e-06
9.39284934643e-06
9.39282090476e-06
9.39339505957e-06
9.39461122463e-06
9.39657578421e-06
9.40046962671e-06
9.40748712285e-06
9.4150774327e-06
9.39709573944e-06
9.42912321914e-06
2.13702028402e-05
0.00392502857894
0.00827384114832
9.47966261887e-06
9.41355726795e-06
9.40053388971e-06
9.39633218761e-06
9.39490253668e-06
9.39420991035e-06
9.39381804453e-06
9.39381993313e-06
9.39415673912e-06
9.39488499944e-06
9.39616079097e-06
9.39821185538e-06
9.40128217147e-06
9.40463134201e-06
9.40427266536e-06
9.40037813159e-06
9.41905266308e-06
2.03160287549e-05
0.00383038320108
0.00828246844786
9.47824764482e-06
9.41331566652e-06
9.4021181925e-06
9.39818276622e-06
9.39625923813e-06
9.39526299555e-06
9.39470957312e-06
9.39482162205e-06
9.3952575227e-06
9.39569607078e-06
9.39661598899e-06
9.39806522464e-06
9.39977918628e-06
9.40030512813e-06
9.39728453887e-06
9.38483679499e-06
9.41172441562e-06
1.93518912509e-05
0.00370969869775
0.00919856929342
)
;
    }
    sides
    {
        type            calculated;
        value           nonuniform List<scalar> 0();
    }
    bottom
    {
        type            calculated;
        value           nonuniform List<scalar> 7(9.44284217096e-06 9.43853449283e-06 9.42668130263e-06 9.40396290903e-06 9.43201318702e-06 9.47966261887e-06 9.47824764482e-06);
    }
    front
    {
        type            calculated;
        value           nonuniform List<scalar> 
166
(
9.38517481704e-06
9.38465170201e-06
9.38372227169e-06
9.38190352575e-06
9.37904913383e-06
9.37442274943e-06
9.36643068213e-06
9.35606016304e-06
9.33320551414e-06
9.42445878152e-06
2.12269447272e-05
0.00423297887806
0.00924991920315
9.38521222775e-06
9.38559548933e-06
9.38565995747e-06
9.38524411926e-06
9.38429918907e-06
9.38258181858e-06
9.37936375814e-06
9.37389861608e-06
9.36455946444e-06
9.35066579616e-06
9.33318909854e-06
9.44036091165e-06
2.20078678311e-05
0.00417823709268
0.00920655888352
9.44284217096e-06
9.38928324313e-06
9.38497807019e-06
9.38582149371e-06
9.38646413279e-06
9.38657613712e-06
9.38638029793e-06
9.38557929675e-06
9.38414920101e-06
9.38112743665e-06
9.37511616326e-06
9.36380648667e-06
9.34798564433e-06
9.3408906507e-06
9.46228690232e-06
2.26682894172e-05
0.00411515177552
0.00824745487273
9.43853449283e-06
9.38708916143e-06
9.38220125968e-06
9.38287941396e-06
9.38529158655e-06
9.38685712483e-06
9.38774365524e-06
9.38810997997e-06
9.38784231225e-06
9.38721845201e-06
9.38640626232e-06
9.3842723772e-06
9.37866110872e-06
9.36416302465e-06
9.33061963102e-06
9.33516400374e-06
9.46190890404e-06
2.27159166113e-05
0.00409144209643
0.00823792728724
9.42668130263e-06
9.38306992476e-06
9.38233643267e-06
9.38527105634e-06
9.38749574688e-06
9.38872636738e-06
9.38897774148e-06
9.38906473813e-06
9.38937315701e-06
9.38961025755e-06
9.38950662508e-06
9.38908125722e-06
9.38665501132e-06
9.37758730738e-06
9.32420790576e-06
9.29117254118e-06
9.45819204058e-06
2.26071401824e-05
0.00405754873652
0.00825096372127
9.40396290903e-06
9.38917457383e-06
9.38812513901e-06
9.38939475149e-06
9.39037572315e-06
9.39045971285e-06
9.39062854161e-06
9.3908230975e-06
9.39131448886e-06
9.3918623988e-06
9.39230409991e-06
9.39335610764e-06
9.39556187232e-06
9.3990438973e-06
9.37727129333e-06
9.31991876043e-06
9.44284266093e-06
2.21634895477e-05
0.00400485788494
0.00826158592273
9.43201318702e-06
9.40488695332e-06
9.3954438317e-06
9.39295764102e-06
9.39274711117e-06
9.39231204555e-06
9.39263207228e-06
9.39284934643e-06
9.39282090476e-06
9.39339505957e-06
9.39461122463e-06
9.39657578421e-06
9.40046962671e-06
9.40748712285e-06
9.4150774327e-06
9.39709573944e-06
9.42912321914e-06
2.13702028402e-05
0.00392502857894
0.00827384114832
9.47966261887e-06
9.41355726795e-06
9.40053388971e-06
9.39633218761e-06
9.39490253668e-06
9.39420991035e-06
9.39381804453e-06
9.39381993313e-06
9.39415673912e-06
9.39488499944e-06
9.39616079097e-06
9.39821185538e-06
9.40128217147e-06
9.40463134201e-06
9.40427266536e-06
9.40037813159e-06
9.41905266308e-06
2.03160287549e-05
0.00383038320108
0.00828246844786
9.47824764482e-06
9.41331566652e-06
9.4021181925e-06
9.39818276622e-06
9.39625923813e-06
9.39526299555e-06
9.39470957312e-06
9.39482162205e-06
9.3952575227e-06
9.39569607078e-06
9.39661598899e-06
9.39806522464e-06
9.39977918628e-06
9.40030512813e-06
9.39728453887e-06
9.38483679499e-06
9.41172441562e-06
1.93518912509e-05
0.00370969869775
0.00919856929342
)
;
    }
    atmosphere
    {
        type            calculated;
        value           nonuniform List<scalar> 9(0.00924991920315 0.00920655888352 0.00824745487273 0.00823792728724 0.00825096372127 0.00826158592273 0.00827384114832 0.00828246844786 0.00919856929342);
    }
    floatingObject
    {
        type            calculated;
        value           nonuniform List<scalar> 0();
    }
    procBoundary0to1
    {
        type            processor;
        value           nonuniform List<scalar> 10(9.38212902914e-06 9.38007991976e-06 9.37690492936e-06 9.37199166264e-06 9.36872940303e-06 9.35808757271e-06 9.44579526478e-06 2.08202199491e-05 0.00418660400694 0.0092283701179);
    }
    procBoundary0to2
    {
        type            processor;
        value           nonuniform List<scalar> 
14
(
9.38502974196e-06
9.38450025315e-06
9.38363714898e-06
9.38513713495e-06
9.38533679387e-06
9.38533679387e-06
9.44392227315e-06
9.39099977821e-06
9.38465306758e-06
9.38465306758e-06
9.38300817539e-06
9.38300817539e-06
9.3833280524e-06
9.3833280524e-06
)
;
    }
    procBoundary0to4
    {
        type            processor;
        value           nonuniform List<scalar> 8(9.47184557503e-06 9.41128119145e-06 9.40122997852e-06 9.39885339329e-06 9.39719494024e-06 9.39630207742e-06 9.39579661592e-06 9.3954308066e-06);
    }
    procBoundary0to5
    {
        type            processor;
        value           nonuniform List<scalar> 
12
(
9.39552077115e-06
9.39602360435e-06
9.39674139092e-06
9.39760482344e-06
9.39803377188e-06
9.39747947909e-06
9.3929335106e-06
9.37647010151e-06
9.39623566551e-06
1.82412733934e-05
0.00351520043887
0.00920692757975
)
;
    }
}


// ************************************************************************* //
