/*--------------------------------*- C++ -*----------------------------------*\
| =========                 |                                                 |
| \\      /  F ield         | OpenFOAM: The Open Source CFD Toolbox           |
|  \\    /   O peration     | Version:  v2012                                 |
|   \\  /    A nd           | Website:  www.openfoam.com                      |
|    \\/     M anipulation  |                                                 |
\*---------------------------------------------------------------------------*/
FoamFile
{
    version     2.0;
    format      ascii;
    class       volVectorField;
    location    "0.4";
    object      ddtCorrDdt0(U);
}
// * * * * * * * * * * * * * * * * * * * * * * * * * * * * * * * * * * * * * //

dimensions      [0 1 -2 0 0 0 0];


internalField   nonuniform List<vector> 
164
(
(0.204838290013 -0.00152393425157 -4.0284139992e-22)
(0.210800003022 -0.00200096330228 -5.32982605578e-22)
(0.213936902327 -0.00406881824499 -6.13143243701e-22)
(0.217663713926 -0.00631942028143 -3.35327754772e-22)
(0.222540630902 -0.00882038482413 -3.79915517578e-23)
(0.228673293814 -0.0118319138417 -3.14615141693e-23)
(0.236092142518 -0.0155227564599 -5.50366404401e-24)
(0.244813889288 -0.0200720916839 -1.36447134571e-24)
(0.205731897634 -0.000819550796522 -1.36660605053e-21)
(0.211931972987 -0.000143418033661 -4.13252629098e-22)
(0.215293411682 -0.000939711614972 -1.39552896771e-21)
(0.219330808554 -0.00188665143162 -2.88177463928e-22)
(0.22463990343 -0.00306338832683 -8.11561362185e-23)
(0.231350123796 -0.0047190570387 -2.1057647049e-22)
(0.23951858025 -0.00702182691224 -1.27289254375e-22)
(0.24919387016 -0.0101576582896 -2.72725936668e-23)
(0.205343677427 -5.55958729905e-05 -8.90894042683e-22)
(0.211755132505 0.00184685824863 9.25172248413e-22)
(0.21531681582 0.00242530291534 4.20725169909e-22)
(0.219630984691 0.00289936888572 -2.87088410031e-23)
(0.225330385373 0.00318158033548 -3.1445099594e-23)
(0.232571881217 0.00304194478259 3.46217159818e-24)
(0.241444314621 0.00231944759961 -4.74571537934e-23)
(0.252035124287 0.000827801527293 -2.30126383419e-23)
(0.264432136559 -0.00167135014359 -8.63587544444e-23)
(0.278714959808 -0.00547376368157 -1.87325266907e-22)
(0.203591873989 0.000761660457118 -3.02514191888e-21)
(0.21018011508 0.00394704477767 -8.00811944002e-23)
(0.213905437586 0.00598979878421 9.71479427559e-23)
(0.21844471166 0.00799099469095 -1.75662952395e-23)
(0.224468455111 0.00985836365419 2.23400600739e-23)
(0.232164126718 0.0113904591336 -2.03102948355e-23)
(0.241656801523 0.0124416517245 -1.42134248689e-23)
(0.253079286576 0.0128341344429 -5.11043084058e-23)
(0.266575441126 0.0123307757992 -8.79496809406e-24)
(0.282292665045 0.0106259341483 4.46814528643e-23)
(0.200413395087 0.00162248952857 -1.00516626249e-21)
(0.207135482655 0.00612400063642 3.82481189171e-21)
(0.210973239521 0.00970104249633 9.84733306951e-22)
(0.215665357252 0.0133191867235 -1.13199035738e-22)
(0.221920553796 0.0168827758114 6.59619186736e-24)
(0.229958340651 0.0202298004853 -2.22589312576e-22)
(0.239942981931 0.0232403028032 2.95736503506e-23)
(0.252058161499 0.0257565971356 1.52335719204e-22)
(0.266512236703 0.0275558901814 -6.56946790222e-22)
(0.283532506259 0.0283377154403 -2.12062078492e-23)
(0.195771081257 0.00251313106695 -1.24295901549e-21)
(0.202573182482 0.0083333813188 1.12446386046e-21)
(0.20645365916 0.0134895361254 -8.57116860463e-22)
(0.211205068727 0.0187930632976 -3.39445345432e-22)
(0.217571621521 0.0241413014865 -1.3635506391e-22)
(0.225801840994 0.0294232728384 -7.27975238103e-23)
(0.236100061497 0.0345584907751 -4.12570919703e-23)
(0.248705066157 0.0394245280147 8.16478476484e-23)
(0.263896814363 0.0438293950585 -1.84093885633e-22)
(0.281990354204 0.0474987694982 -8.6113747731e-23)
(0.189666253809 0.00341105439816 -2.8518009715e-22)
(0.19647068765 0.0105157448172 2.40071425922e-21)
(0.200301731133 0.0172729531159 2.87796059201e-22)
(0.205001856442 0.0243064721719 -4.11352343941e-22)
(0.211337554667 0.0314925590526 -6.46257907092e-23)
(0.219571498362 0.038790297479 -9.15879002908e-23)
(0.229949666665 0.0461791857691 -7.93123116419e-23)
(0.242769814926 0.0535905301992 -1.41161890198e-23)
(0.258391722278 0.0608796073582 8.26196290175e-23)
(0.277210497679 0.067825207525 -5.08540149721e-23)
(0.182097092401 0.00427078547077 -1.43354431806e-22)
(0.188819376866 0.0126070337528 2.56397126923e-21)
(0.192501983195 0.0209775723982 3.38271607112e-22)
(0.197031626546 0.0297487022938 -7.07311073427e-23)
(0.203184204042 0.0387669206444 -4.08078443085e-24)
(0.211191065957 0.0480985360697 -4.28419890765e-23)
(0.221353578931 0.0578153980723 -3.00716600924e-22)
(0.234033229226 0.0679218487796 -1.2716235409e-22)
(0.249697768543 0.0783238666774 -1.73750839181e-23)
(0.268754399175 0.0888851681907 -3.08843405292e-22)
(0.173359274683 0.00523321533561 1.47032640955e-22)
(0.179598336052 0.0147013388231 2.06393462848e-21)
(0.183114115246 0.0245607858491 6.22326774277e-22)
(0.187315734668 0.0349893984254 1.01450961072e-22)
(0.193159046477 0.0457517817275 -2.19184498632e-23)
(0.200649371893 0.0570469856796 3.13854207244e-24)
(0.210235727395 0.0690960254792 -9.67878380166e-23)
(0.222302518375 0.0820030170105 -1.0988785284e-22)
(0.23760897225 0.095666018797 -3.19914386335e-22)
(0.256239531857 0.110070703761 -4.44904027346e-22)
(0.162084829039 0.00607571205145 2.09949003462e-22)
(0.168827895801 0.0164923982269 8.61192526836e-22)
(0.172298081646 0.0278465093762 4.42303888671e-22)
(0.176101533265 0.0397886566757 2.60100061166e-23)
(0.181228628282 0.0521889868113 -1.43719827015e-23)
(0.187976789016 0.0652528727722 3.55112605932e-23)
(0.196618395552 0.0795396245587 1.42708325397e-22)
(0.207305202133 0.0953631010584 -3.10724656325e-22)
(0.222183534978 0.112324281454 -3.86670416351e-22)
(0.239370736304 0.130557542555 1.70491421654e-23)
(0.150927001162 0.00645589332606 1.66271076843e-22)
(0.157181785672 0.0179247187969 5.52214926017e-22)
(0.160162119924 0.0305331766421 -9.03502295576e-24)
(0.163429817986 0.0437502466845 9.99966693479e-23)
(0.167627112407 0.0576326115748 2.37609097045e-23)
(0.173376015548 0.0724706785742 -9.93175061312e-23)
(0.180802729664 0.0884550659095 -1.68063178658e-22)
(0.190297103462 0.107599412164 -7.71919956603e-23)
(0.202407489894 0.127792326134 -4.24777867246e-22)
(0.217788271581 0.149169964581 -6.91765988687e-23)
(0.138631712104 0.00728462411201 3.50660006713e-22)
(0.144518338005 0.0192324829107 -4.89005673112e-22)
(0.146896879158 0.0326883440159 -1.19864775624e-22)
(0.149386549329 0.0469558653331 5.85808451134e-23)
(0.152652574309 0.0620505222129 1.04272032549e-22)
(0.157058619148 0.0783935069458 4.22932023172e-22)
(0.162862609297 0.0964634774894 3.6330603559e-22)
(0.170631768051 0.117002680922 3.45518616412e-22)
(0.179199991745 0.139849490988 5.36832290331e-23)
(0.191848645364 0.165671595447 -3.35683418795e-22)
(0.125704414279 0.00779579979156 7.96547685772e-22)
(0.131092124663 0.0200885222062 -2.85629658086e-22)
(0.132817421091 0.0341983457168 -1.08766803411e-22)
(0.134404070858 0.0492422693027 8.46668904065e-22)
(0.136493178856 0.0652044147316 4.04434090689e-22)
(0.139301632177 0.0826211840878 8.91207742018e-23)
(0.143015756676 0.102004748844 1.3769499295e-22)
(0.147838519826 0.123950308336 -4.27224256858e-22)
(0.153826515031 0.149038991922 5.86254227392e-22)
(0.162190823927 0.178128286143 6.16871529691e-22)
(0.112129502646 0.00811354093949 2.75288517999e-21)
(0.117074903327 0.0204999325974 -9.11859842344e-22)
(0.118162759395 0.0349744542547 -5.28558748021e-22)
(0.118808463839 0.0504723529401 7.44470049514e-22)
(0.119581102758 0.066898370273 4.29437291848e-22)
(0.120613743705 0.0848799318399 2.59407347282e-22)
(0.12197536351 0.104969774855 8.59771214168e-22)
(0.123752366223 0.12779635051 5.40250057343e-22)
(0.126074642735 0.154221059192 1.6457717371e-21)
(0.129405039996 0.1853350219 -5.25052249137e-22)
(0.0983523358312 0.0082432494652 2.23688004193e-21)
(0.102815477047 0.020448690291 -3.05310145153e-21)
(0.10326817826 0.0349571393253 -4.78033881906e-22)
(0.102958068076 0.050553247317 8.58083671497e-22)
(0.102372085935 0.0670111708483 4.23134478424e-22)
(0.101553087424 0.0850145605218 1.08135550864e-22)
(0.100460802999 0.105145210779 5.38122981522e-22)
(0.0990204232839 0.128060770814 -5.76584531738e-22)
(0.0971610381527 0.154714149015 8.77821102646e-22)
(0.0948812224358 0.186299740869 3.68527581836e-22)
(0.08476613824 0.00822366544171 2.40224985479e-21)
(0.0886641149777 0.0199576515633 9.05223821979e-22)
(0.0884915770109 0.0341575738897 9.56925102144e-22)
(0.0872545549271 0.0494769047479 2.14086323616e-22)
(0.0853484252745 0.0655257348582 -1.01736177581e-23)
(0.0827248905353 0.0830052575644 4.99007098231e-22)
(0.0792401740733 0.102477421108 -1.63834548711e-22)
(0.0746262372944 0.124551188228 1.05181679927e-21)
(0.0685167880099 0.150144184277 8.40117505555e-22)
(0.0604915254043 0.180431885326 -1.53248371561e-22)
(0.0716335335954 0.0080559251475 4.66381297584e-21)
(0.0749342950297 0.0190534590871 -1.09545264843e-21)
(0.0741923813674 0.0326346443995 1.0321893466e-21)
(0.0721097426358 0.0473153395355 4.67725051322e-22)
(0.0690017286057 0.0625349454278 1.51958821336e-22)
(0.0647386071143 0.0789765961092 5.64755708831e-22)
(0.0590875086763 0.0971262091383 4.07923241161e-22)
(0.053777922097 0.058235088778 -1.12670940706e-22)
)
;

boundaryField
{
    back
    {
        type            calculated;
        value           uniform (0 0 0);
    }
    sides
    {
        type            calculated;
        value           nonuniform List<vector> 0();
    }
    bottom
    {
        type            calculated;
        value           uniform (0 0 0);
    }
    front
    {
        type            calculated;
        value           uniform (0 0 0);
    }
    atmosphere
    {
        type            calculated;
        value           nonuniform List<vector> 0();
    }
    floatingObject
    {
        type            calculated;
        value           nonuniform List<vector> 0();
    }
    procBoundary4to0
    {
        type            processor;
        value           nonuniform List<vector> 8((0.202757317607 -0.00216506196811 -2.41183591498e-23) (0.208460425339 -0.00371095071827 3.11698505809e-21) (0.211358508371 -0.00693926514351 1.31235094429e-22) (0.214756067517 -0.0103704933812 -1.58383685237e-22) (0.219179478873 -0.0140582063197 -1.73647089698e-22) (0.22471424184 -0.0182670929506 -1.45061835019e-23) (0.231369231842 -0.023161388316 -6.60618500289e-23) (0.239136050797 -0.0289089333035 1.82727389539e-23));
    }
    procBoundary4to3
    {
        type            processor;
        value           nonuniform List<vector> 
13
(
(0.0516100542313 0.117450045314 6.57237659727e-22)
(0.0416532634576 0.140712543914 8.15018926807e-23)
(0.0284972427084 0.167857139796 -1.14963202289e-21)
(0.0591962769407 0.0077540068998 1.3304919469e-21)
(0.0619054160951 0.0177834249544 -5.50740342579e-21)
(0.0606945874874 0.0304806099947 -2.33904543819e-22)
(0.057898961123 0.044203891452 1.61600350348e-22)
(0.0481501715859 0.0732087468907 5.7793090163e-22)
(0.0516100542313 0.117450045314 6.57237659727e-22)
(0.0407400599305 0.0894968947804 1.20403053188e-21)
(0.057898961123 0.044203891452 1.61600350348e-22)
(0.0481501715859 0.0732087468907 5.7793090163e-22)
(0.0400440150001 0.0529000046092 6.17504882539e-22)
)
;
    }
    procBoundary4to5
    {
        type            processor;
        value           nonuniform List<vector> 
18
(
(0.254842297375 -0.0256947673078 -5.45798420313e-23)
(0.260417115631 -0.0143564852517 -8.85024126627e-23)
(0.260417115631 -0.0143564852517 -8.85024126627e-23)
(0.27321306173 -0.0198942292873 -4.14327580772e-23)
(0.294941587984 -0.0109418640606 -1.66507686074e-23)
(0.300369725447 0.00733111646774 5.60228144132e-23)
(0.303357967293 0.027703359445 3.05675419948e-22)
(0.303344224445 0.0500487888416 -2.96441782759e-23)
(0.299724114337 0.0740969542279 8.10738375406e-23)
(0.291878401379 0.099392951278 2.06803161534e-22)
(0.279213726025 0.125258430483 -2.0265451719e-22)
(0.261211298903 0.150761710202 -1.70198594379e-22)
(0.23747844668 0.174721507805 7.18250590117e-23)
(0.208117154127 0.19593613516 3.36392810211e-22)
(0.173445736967 0.212486506016 -6.75951756107e-22)
(0.134192155076 0.222677441265 1.80121146362e-21)
(0.0921966955582 0.224668780346 5.163281657e-22)
(0.0499700908569 0.217206550772 1.70976842531e-21)
)
;
    }
}


// ************************************************************************* //
