/*--------------------------------*- C++ -*----------------------------------*\
| =========                 |                                                 |
| \\      /  F ield         | OpenFOAM: The Open Source CFD Toolbox           |
|  \\    /   O peration     | Version:  v2012                                 |
|   \\  /    A nd           | Website:  www.openfoam.com                      |
|    \\/     M anipulation  |                                                 |
\*---------------------------------------------------------------------------*/
FoamFile
{
    version     2.0;
    format      ascii;
    class       volScalarField;
    location    "2.2";
    object      epsilon_0;
}
// * * * * * * * * * * * * * * * * * * * * * * * * * * * * * * * * * * * * * //

dimensions      [0 2 -3 0 0 0 0];


internalField   nonuniform List<scalar> 
164
(
0.00521356141824
0.00525627441113
0.00530344195871
0.00535494088875
0.0054110434256
0.00547645072178
0.00558391643268
0.00593968419666
0.00758233050339
0.0150906780915
0.0414851189885
0.0948424608815
0.183187390618
0.00425451581508
0.00440564121964
0.0048175013709
0.00498366146174
0.00510885122062
0.00514991555467
0.00519224977333
0.00523859418661
0.00528963847276
0.00534503832564
0.00540423564228
0.00546906282563
0.00555765519595
0.00579596745127
0.00691346008893
0.0127178244616
0.0370792086491
0.0998149917175
0.188790548976
0.00421568537222
0.00436845630912
0.00477971409997
0.00494784356028
0.00502764842728
0.00507829891189
0.00512231375268
0.00516788568748
0.00521805602446
0.00527365398793
0.00533399985474
0.00539771150253
0.0054645225529
0.00554714018907
0.00573045854147
0.00654863750165
0.0111712834527
0.0336122444458
0.101943719705
0.191533233755
0.00417602707331
0.0043314399251
0.00474179046683
0.00491105257298
0.00499244758052
0.0050446752969
0.00508992789426
0.00513618885335
0.00518780005812
0.00524783877702
0.00531431024696
0.00538420996184
0.00545396532459
0.00553818698806
0.0056951864167
0.00634671643611
0.0102515765795
0.0299323393351
0.0925428251325
0.189264313121
0.00413710744053
0.00429637168732
0.00470550906883
0.00487463675144
0.00495569882974
0.00500572884461
0.00504411770917
0.00507670109506
0.00511304735569
0.00517422904551
0.00524874946184
0.00532704566183
0.00539790581868
0.00550601560563
0.00565846084167
0.00617151033308
0.00940059873019
0.0287469457543
0.095540957903
0.196090302498
0.00410073538935
0.00426520319364
0.00467283686742
0.00484018369162
0.00491707772155
0.00495417380442
0.0049574560113
0.00491407806235
0.00484213352567
0.00489129244531
0.00498491596483
0.00508049132598
0.0051589700565
0.00539204841031
0.00567302221503
0.00701849254978
0.0158224519406
0.0515098160744
0.129174134211
0.210400962774
0.00406855179434
0.00423967911893
0.00464562103243
0.00480895283645
0.00487498278938
0.00487564815316
0.00475685286277
0.00439652135042
0.00509916830664
0.00503463826359
0.00517732069165
0.00552523624681
0.00457236255881
0.00511160001186
0.00549619173262
0.00651999455808
0.012329261877
0.0371744344681
0.110100744288
0.221688247981
0.00404316827822
0.00422151767282
0.00462577530194
0.0047829224005
0.00483238809584
0.00478386624691
0.00452802028335
0.00479204975585
0.00402605400212
0.00421116056519
0.00461545061292
0.00476986608344
0.00480986523317
0.00473138051527
0.00438854842
0.00436985942369
0.00402605829143
0.00421116461196
0.00461545439225
0.00476986913933
0.00480986719886
0.00473138182413
0.00438855109299
0.00436987333793
0.00404317861941
0.00422152861538
0.00462578575407
0.00478293105963
0.0048323943846
0.0047838715832
0.00452803051406
0.00479207383403
)
;

boundaryField
{
    back
    {
        lowReCorrection 0;
        blending        stepwise;
        n               2;
        type            epsilonWallFunction;
        value           nonuniform List<scalar> 
164
(
0.00521356141824
0.00525627441113
0.00530344195871
0.00535494088875
0.0054110434256
0.00547645072178
0.00558391643268
0.00593968419666
0.00758233050339
0.0150906780915
0.0414851189885
0.0948424608815
0.183187390618
0.00425451581508
0.00440564121964
0.0048175013709
0.00498366146174
0.00510885122062
0.00514991555467
0.00519224977333
0.00523859418661
0.00528963847276
0.00534503832564
0.00540423564228
0.00546906282563
0.00555765519595
0.00579596745127
0.00691346008893
0.0127178244616
0.0370792086491
0.0998149917175
0.188790548976
0.00421568537222
0.00436845630912
0.00477971409997
0.00494784356028
0.00502764842728
0.00507829891189
0.00512231375268
0.00516788568748
0.00521805602446
0.00527365398793
0.00533399985474
0.00539771150253
0.0054645225529
0.00554714018907
0.00573045854147
0.00654863750165
0.0111712834527
0.0336122444458
0.101943719705
0.191533233755
0.00417602707331
0.0043314399251
0.00474179046683
0.00491105257298
0.00499244758052
0.0050446752969
0.00508992789426
0.00513618885335
0.00518780005812
0.00524783877702
0.00531431024696
0.00538420996184
0.00545396532459
0.00553818698806
0.0056951864167
0.00634671643611
0.0102515765795
0.0299323393351
0.0925428251325
0.189264313121
0.00413710744053
0.00429637168732
0.00470550906883
0.00487463675144
0.00495569882974
0.00500572884461
0.00504411770917
0.00507670109506
0.00511304735569
0.00517422904551
0.00524874946184
0.00532704566183
0.00539790581868
0.00550601560563
0.00565846084167
0.00617151033308
0.00940059873019
0.0287469457543
0.095540957903
0.196090302498
0.00410073538935
0.00426520319364
0.00467283686742
0.00484018369162
0.00491707772155
0.00495417380442
0.0049574560113
0.00491407806235
0.00484213352567
0.00489129244531
0.00498491596483
0.00508049132598
0.0051589700565
0.00539204841031
0.00567302221503
0.00701849254978
0.0158224519406
0.0515098160744
0.129174134211
0.210400962774
0.00406855179434
0.00423967911893
0.00464562103243
0.00480895283645
0.00487498278938
0.00487564815316
0.00475685286277
0.00439652135042
0.00509916830664
0.00503463826359
0.00517732069165
0.00552523624681
0.00457236255881
0.00511160001186
0.00549619173262
0.00651999455808
0.012329261877
0.0371744344681
0.110100744288
0.221688247981
0.00404316827822
0.00422151767282
0.00462577530194
0.0047829224005
0.00483238809584
0.00478386624691
0.00452802028335
0.00479204975585
0.00402605400212
0.00421116056519
0.00461545061292
0.00476986608344
0.00480986523317
0.00473138051527
0.00438854842
0.00436985942369
0.00402605829143
0.00421116461196
0.00461545439225
0.00476986913933
0.00480986719886
0.00473138182413
0.00438855109299
0.00436987333793
0.00404317861941
0.00422152861538
0.00462578575407
0.00478293105963
0.0048323943846
0.0047838715832
0.00452803051406
0.00479207383403
)
;
    }
    sides
    {
        lowReCorrection 0;
        blending        stepwise;
        n               2;
        type            epsilonWallFunction;
        value           nonuniform List<scalar> 0();
    }
    bottom
    {
        lowReCorrection 0;
        blending        stepwise;
        n               2;
        type            epsilonWallFunction;
        value           nonuniform List<scalar> 10(0.00425451581508 0.00421568537222 0.00417602707331 0.00413710744053 0.00410073538935 0.00406855179434 0.00404316827822 0.00402605400212 0.00402605829143 0.00404317861941);
    }
    front
    {
        lowReCorrection 0;
        blending        stepwise;
        n               2;
        type            epsilonWallFunction;
        value           nonuniform List<scalar> 
164
(
0.00521356141824
0.00525627441113
0.00530344195871
0.00535494088875
0.0054110434256
0.00547645072178
0.00558391643268
0.00593968419666
0.00758233050339
0.0150906780915
0.0414851189885
0.0948424608815
0.183187390618
0.00425451581508
0.00440564121964
0.0048175013709
0.00498366146174
0.00510885122062
0.00514991555467
0.00519224977333
0.00523859418661
0.00528963847276
0.00534503832564
0.00540423564228
0.00546906282563
0.00555765519595
0.00579596745127
0.00691346008893
0.0127178244616
0.0370792086491
0.0998149917175
0.188790548976
0.00421568537222
0.00436845630912
0.00477971409997
0.00494784356028
0.00502764842728
0.00507829891189
0.00512231375268
0.00516788568748
0.00521805602446
0.00527365398793
0.00533399985474
0.00539771150253
0.0054645225529
0.00554714018907
0.00573045854147
0.00654863750165
0.0111712834527
0.0336122444458
0.101943719705
0.191533233755
0.00417602707331
0.0043314399251
0.00474179046683
0.00491105257298
0.00499244758052
0.0050446752969
0.00508992789426
0.00513618885335
0.00518780005812
0.00524783877702
0.00531431024696
0.00538420996184
0.00545396532459
0.00553818698806
0.0056951864167
0.00634671643611
0.0102515765795
0.0299323393351
0.0925428251325
0.189264313121
0.00413710744053
0.00429637168732
0.00470550906883
0.00487463675144
0.00495569882974
0.00500572884461
0.00504411770917
0.00507670109506
0.00511304735569
0.00517422904551
0.00524874946184
0.00532704566183
0.00539790581868
0.00550601560563
0.00565846084167
0.00617151033308
0.00940059873019
0.0287469457543
0.095540957903
0.196090302498
0.00410073538935
0.00426520319364
0.00467283686742
0.00484018369162
0.00491707772155
0.00495417380442
0.0049574560113
0.00491407806235
0.00484213352567
0.00489129244531
0.00498491596483
0.00508049132598
0.0051589700565
0.00539204841031
0.00567302221503
0.00701849254978
0.0158224519406
0.0515098160744
0.129174134211
0.210400962774
0.00406855179434
0.00423967911893
0.00464562103243
0.00480895283645
0.00487498278938
0.00487564815316
0.00475685286277
0.00439652135042
0.00509916830664
0.00503463826359
0.00517732069165
0.00552523624681
0.00457236255881
0.00511160001186
0.00549619173262
0.00651999455808
0.012329261877
0.0371744344681
0.110100744288
0.221688247981
0.00404316827822
0.00422151767282
0.00462577530194
0.0047829224005
0.00483238809584
0.00478386624691
0.00452802028335
0.00479204975585
0.00402605400212
0.00421116056519
0.00461545061292
0.00476986608344
0.00480986523317
0.00473138051527
0.00438854842
0.00436985942369
0.00402605829143
0.00421116461196
0.00461545439225
0.00476986913933
0.00480986719886
0.00473138182413
0.00438855109299
0.00436987333793
0.00404317861941
0.00422152861538
0.00462578575407
0.00478293105963
0.0048323943846
0.0047838715832
0.00452803051406
0.00479207383403
)
;
    }
    atmosphere
    {
        type            inletOutlet;
        inletValue      uniform 0.1;
        value           uniform 0.1;
    }
    floatingObject
    {
        lowReCorrection 0;
        blending        stepwise;
        n               2;
        type            epsilonWallFunction;
        value           nonuniform List<scalar> 8(0.00509916830664 0.00503463826359 0.00517732069165 0.00552523624681 0.00479204975585 0.00436985942369 0.00436987333793 0.00479207383403);
    }
    procBoundary3to4
    {
        type            processor;
        value           nonuniform List<scalar> 
13
(
0.00523245728542
0.00527203379856
0.00531595710794
0.00429146092427
0.00444169155228
0.00485383840186
0.00501748579584
0.0051366001376
0.00517456358784
0.00517456358784
0.00506091425281
0.00506091425281
0.00506091425281
)
;
    }
    procBoundary3to5
    {
        type            processor;
        value           nonuniform List<scalar> 10(0.00536449597001 0.00541892769509 0.00548949469257 0.00564450698204 0.0062633155852 0.00892052349289 0.018571527012 0.0454972427959 0.0927623407267 0.178593799578);
    }
    procBoundary3to6
    {
        type            processor;
        value           nonuniform List<scalar> 8(0.00526277439751 0.00486513438664 0.00529965786181 0.00587380307083 0.00861790475511 0.0257104268475 0.102910783465 0.236201483355);
    }
    procBoundary3to8
    {
        type            processor;
        value           nonuniform List<scalar> 8(0.00406857374548 0.0042397000865 0.00464564181107 0.00480897155854 0.00487499822689 0.00487566078153 0.0047568654335 0.00439653307844);
    }
}


// ************************************************************************* //
