/*--------------------------------*- C++ -*----------------------------------*\
| =========                 |                                                 |
| \\      /  F ield         | OpenFOAM: The Open Source CFD Toolbox           |
|  \\    /   O peration     | Version:  v2012                                 |
|   \\  /    A nd           | Website:  www.openfoam.com                      |
|    \\/     M anipulation  |                                                 |
\*---------------------------------------------------------------------------*/
FoamFile
{
    version     2.0;
    format      ascii;
    class       surfaceScalarField;
    location    "2.2";
    object      phi;
}
// * * * * * * * * * * * * * * * * * * * * * * * * * * * * * * * * * * * * * //

dimensions      [0 3 -1 0 0 0 0];
oriented        oriented;


internalField   nonuniform List<scalar> 
296
(
-0.000160742074907
-0.000180430404105
-0.000180899769972
-0.000190949315157
-0.000200622823627
-0.000202358326238
-0.000219106029961
-0.000215712079302
-0.000235398578427
-0.000230820333397
-0.00025019783731
-0.00024607753911
-0.000266040065122
-0.000254780862499
-0.000284851150166
-0.000265739005263
-0.000316815755512
-0.000300035492794
-0.000421565152843
-0.000380849354237
-0.000647469759933
-0.000396392214513
-0.000628645870246
-0.000512353490602
-5.87723237428e-05
-2.09238858568e-05
-0.000149545088732
-4.11522324628e-05
-0.000140541364004
-6.13709682444e-05
-0.000136195600644
-0.000136144116422
-0.000125503338186
-0.00014264673508
-0.0001482199076
-0.000148742667906
-0.000170584279011
-0.000158065593373
-0.000192093576605
-0.000169439189349
-0.00021315761833
-0.00018129318406
-0.000232854033834
-0.000196014290435
-0.000248438149451
-0.000215234729289
-0.000258256839528
-0.000236257259696
-0.000265496116262
-0.000247540055393
-0.000271968932063
-0.000259264757446
-0.000292770554142
-0.000279232804851
-0.000373071779531
-0.000300547659532
-0.00053175623948
-0.000237705628323
-0.000326619864364
-0.0007174850325
5.65063842887e-05
-2.15019539842e-05
-0.000128042971634
-4.23245869345e-05
-0.000119718590862
-6.32252555636e-05
-0.000115294831753
-8.47546507078e-05
-0.000114614658451
-0.000107334163067
-0.000115837676068
-0.000131072212867
-0.000118908613267
-0.000156128993411
-0.000123685703778
-0.000180674969345
-0.000133519271976
-0.000204146626455
-0.000145966920657
-0.000228048016127
-0.000157390895423
-0.000251241767531
-0.000172819351564
-0.000267786146193
-0.000198688916757
-0.000272376199162
-0.000231665576979
-0.000277471682741
-0.000242442824555
-0.000282296484585
-0.000254438245659
-0.000285002521781
-0.000276525410833
-0.000319485060909
-0.00026606449377
-0.000436941028638
-0.000120249238501
-0.000771462916178
-0.000382961569371
0.000424886901886
-2.17831893729e-05
-0.000106259649688
-4.29375174366e-05
-9.85641516041e-05
-6.41962060916e-05
-9.40360706201e-05
-8.64173538168e-05
-9.23934786336e-05
-0.000110156672947
-9.2098343273e-05
-0.00013583944701
-9.32257987244e-05
-0.000164195369559
-9.53296373124e-05
-0.000192775235061
-0.00010493910527
-0.000218245315492
-0.000120496280042
-0.000246623925289
-0.000129011416086
-0.000276010186038
-0.000143431842342
-0.000295751861598
-0.000178945632614
-0.000288431215473
-0.000238984251587
-0.000292710632447
-0.000238161170219
-0.000311400558717
-0.000235746052643
-0.000337107682417
-0.000250816426512
-0.000391342892111
-0.00021182841626
-0.000429220050575
-8.23719077525e-05
-0.000783184555054
-2.89955628608e-05
0.000732999524574
-2.17958316897e-05
-8.44637199567e-05
-4.2950677116e-05
-7.74092313269e-05
-6.42129804337e-05
-7.27737287043e-05
-8.64418710113e-05
-7.01645836357e-05
-0.000110630394373
-6.7909827095e-05
-0.000138251573445
-6.56045949497e-05
-0.000172588433024
-6.09926552419e-05
-0.000212147529722
-6.53797110698e-05
-0.000242986647995
-8.96565742448e-05
-0.000278697117846
-9.32999547515e-05
-0.000319092106253
-0.000103035375895
-0.000345268104371
-0.000152767626973
-0.000305011163506
-0.000279238186551
-0.000296413443144
-0.000246755223449
-0.000306188301083
-0.000225967354294
-0.000324552578415
-0.00023244885291
-0.000390743726065
-0.000145635489618
-0.000557971099533
8.4855939143e-05
-0.000594276847808
7.31304601482e-06
0.00154357996777
-2.16319260882e-05
-6.28317328816e-05
-4.24638078797e-05
-5.65773135979e-05
-6.32780015015e-05
-5.19595312491e-05
-8.50554018472e-05
-4.83872067612e-05
-0.00010924287425
-4.37223835303e-05
-0.000139681560497
-3.51659024821e-05
-0.000189966078159
-1.07080295248e-05
-0.000260171250433
4.82578906878e-06
-0.000290671993159
-5.91551245809e-05
-0.00033260285779
-5.13678938666e-05
-0.000392747509191
-4.28889314559e-05
-0.000440668786814
-0.000104842863431
-0.000346755890067
-0.000373146035437
-0.000341082254095
-0.000252422771347
-0.000408209950643
-0.000158833321613
-0.000538999351815
-0.000101654046495
-0.000688607684603
3.97555463975e-06
-0.000845435696747
0.000241684941171
-0.00135059750765
0.000512483850997
0.00293134845807
-2.12355069788e-05
-4.15962032644e-05
-4.1310111678e-05
-3.6502712501e-05
-6.11809846564e-05
-3.20886903176e-05
-8.26632074485e-05
-2.69050387653e-05
-0.000108872762834
-1.75128871183e-05
-0.000143318087099
-7.20600025741e-07
-0.000203820390532
4.97943745521e-05
-0.000304547301461
0.000105553005774
-0.000363701918286
-0.000415069003958
-0.000457956198206
-0.000562796314714
-0.000361111379111
-0.000339001331624
-0.00038276877797
-0.00044726335883
-0.000510470647466
-0.000496703968779
-0.00130969487746
-2.08858544456e-05
-2.07103657105e-05
-3.93702750718e-05
-1.80183361594e-05
-5.56441998358e-05
-1.58148367956e-05
-6.89005433225e-05
-1.36487891323e-05
-7.64694924107e-05
-9.94403581488e-06
-7.78885766059e-05
6.98421257124e-07
-5.18419534005e-05
2.37477437777e-05
5.3711044689e-05
-2.07147548503e-05
4.30470500988e-09
-3.87403382174e-05
7.13653432768e-09
-5.45628545956e-05
7.53678215818e-09
-6.82180571083e-05
6.24455459741e-09
-7.81662072769e-05
3.94007119681e-09
-7.74688724671e-05
9.51034103926e-10
-5.37182839461e-05
-2.90023666263e-09
-7.2128921658e-09
-2.07153105525e-05
2.07194490717e-05
-3.87406699142e-05
1.80322908212e-05
-5.45624401143e-05
1.58290610785e-05
-6.82165933123e-05
1.36601319942e-05
-7.8164012465e-05
9.95111175201e-06
-7.74668050903e-05
-6.9640114409e-07
-5.37164892274e-05
-2.37531933864e-05
-5.37236239851e-05
-2.08867979876e-05
-3.93708840403e-05
-5.56432454495e-05
-6.88977958246e-05
-7.64649238104e-05
-7.78838631219e-05
-5.18384154166e-05
)
;

boundaryField
{
    back
    {
        type            calculated;
        value           uniform 0;
    }
    sides
    {
        type            calculated;
        value           nonuniform List<scalar> 0();
    }
    bottom
    {
        type            calculated;
        value           uniform 0;
    }
    front
    {
        type            calculated;
        value           uniform 0;
    }
    atmosphere
    {
        type            calculated;
        value           nonuniform List<scalar> 7(-0.000768679127371 -0.000441895963395 -0.00113984148207 -0.00109129452397 -0.00140484003267 -0.0027383444585 -0.00553285154094);
    }
    floatingObject
    {
        type            calculated;
        value           uniform 0;
    }
    procBoundary3to4
    {
        type            processor;
        value           nonuniform List<scalar> 
13
(
0.000200986998748
0.000211109412296
0.000222083943733
0.000170469251959
0.000160769958489
0.000156414533519
0.000156805487646
0.000164770470568
0.000140186617795
0.000171459624264
-8.20322445179e-05
0.000103379883756
0.000138417223554
)
;
    }
    procBoundary3to5
    {
        type            processor;
        value           nonuniform List<scalar> 10(0.000234198811195 0.000247116100996 0.000260880022852 0.000270625739191 0.000284552509626 0.000332001685152 0.000485599476834 0.000622301986515 0.000493551612993 0.000198820747793);
    }
    procBoundary3to6
    {
        type            processor;
        value           nonuniform List<scalar> 8(-0.000574824223689 -0.000274525077334 -0.000115057985376 -3.71528776325e-05 6.71862950651e-05 0.000227919814913 0.00132548830607 0.00715453467562);
    }
    procBoundary3to8
    {
        type            processor;
        value           nonuniform List<scalar> 8(4.16060305838e-05 3.65161092016e-05 3.21011172548e-05 2.69143682944e-05 1.7517991419e-05 7.2243275371e-07 -4.97985469318e-05 -0.000105561908633);
    }
}


// ************************************************************************* //
