/*--------------------------------*- C++ -*----------------------------------*\
| =========                 |                                                 |
| \\      /  F ield         | OpenFOAM: The Open Source CFD Toolbox           |
|  \\    /   O peration     | Version:  v2012                                 |
|   \\  /    A nd           | Website:  www.openfoam.com                      |
|    \\/     M anipulation  |                                                 |
\*---------------------------------------------------------------------------*/
FoamFile
{
    version     2.0;
    format      ascii;
    class       surfaceScalarField;
    location    "3.1";
    object      alphaPhi0.water;
}
// * * * * * * * * * * * * * * * * * * * * * * * * * * * * * * * * * * * * * //

dimensions      [0 3 -1 0 0 0 0];
oriented        oriented;


internalField   nonuniform List<scalar> 
293
(
0.000129384392312
2.35528525974e-05
0.000246378175112
7.93414371811e-05
0.000339638707285
0.000117510195107
0.000426488585942
0.000163047483679
0.000533410054699
0.000143788676281
8.62421898824e-05
6.16522577679e-05
2.5683663628e-07
1.49192711967e-06
4.51911250839e-07
2.36663442431e-05
-1.38406080147e-07
0.000103113426063
-1.29536092781e-07
0.000220714620912
-1.09561981977e-07
0.000383808706956
-6.11035861949e-08
0.000553767723486
7.00404457051e-09
9.49473779555e-05
3.67037667013e-07
7.26861404904e-06
-2.35335083761e-07
-1.77146708209e-07
2.36350670423e-05
-2.38008964054e-05
0.000103077451445
-7.95953988293e-05
0.000220684438994
-0.000117734496419
0.00038383975562
-0.000163229884811
0.000553977168144
-0.000143960791074
9.50620729317e-05
-6.18840862475e-05
1.5009291735e-05
-1.23088677871e-06
-7.92026222353e-07
0.00012936110251
0.000246314652381
0.000339574104065
-0.000211013471346
0.000426486369995
-0.000250154095428
0.000533388475119
-0.000238385422492
8.64173564931e-05
-0.000122934238761
2.69187706417e-05
-9.38482405336e-07
-1.42682670013e-06
0.00045763580337
-0.000216753894827
0.000483442274917
-0.000275971648874
0.000508597291624
-0.000289635154571
7.48679582423e-05
-0.000151662214562
2.91261061819e-05
-1.23811705204e-06
6.536581971e-07
0.000510527688089
-0.000235315803917
0.000534243248705
-0.000299693619264
0.000547707231341
-0.000314620836785
6.7200566318e-05
-0.00016427263195
2.762410117e-05
-1.09761027753e-06
7.15130759415e-07
0.000539693635155
-0.000272733809582
0.000570950255895
-0.000330953069759
0.000592153200663
-0.000343808069766
6.66344812429e-05
-0.000195493819602
2.33357114072e-05
-1.75034785063e-06
-2.3204976358e-06
0.00054274782107
-0.000320107847303
0.000587349408313
-0.000375554025486
0.000620289453331
-0.000395705861942
5.81819746247e-05
-0.0002454157987
1.98274420678e-05
-9.68743336051e-07
-3.2811550347e-06
0.000523657584865
-0.000374181782573
0.000576587940294
-0.000428484032473
0.000610175974406
-0.000461531349209
3.84706727201e-05
-0.000289386299977
1.45773060948e-05
-7.75656556871e-07
-1.84587406858e-06
0.000483269345185
-0.000426328625579
0.00052974732012
-0.000474960993642
0.000581456861316
-0.00052120593529
2.06711569109e-05
-0.000321928365782
7.59426515263e-06
-7.51421571313e-07
-1.32236225808e-07
0.000422874420623
-0.000468886954827
0.000460138457239
-0.000512218285139
0.000518524263276
-0.000565947526399
5.74750984576e-06
-0.000346867242684
1.76138148972e-06
-3.48949946677e-07
-1.8318111488e-07
0.000352346376207
-0.000499287809358
0.000381459235923
-0.000541328082311
0.000436520730818
-0.000594124109466
-8.95573788671e-07
-0.00034967469662
-2.87422850924e-07
2.26084232182e-07
-2.26935527977e-08
0.000282549272362
-0.000522192666022
0.00030812282178
-0.00056690024562
0.000341687221326
-0.000606807681499
1.52542848527e-06
-0.000343898290947
5.45292165126e-08
-6.83677425621e-08
-3.30014823162e-08
0.000219122514116
-0.000536531767935
0.000238163883374
-0.000585939460207
0.000216945378809
-0.000608122399367
4.31527567034e-06
-0.000340258484718
7.43183934425e-08
-1.71757198989e-06
-1.13554088767e-08
0.000156821627232
-0.000540155392503
0.000162138535605
-0.000591250704669
0.000126023650315
-0.000605194537186
5.31385608446e-06
-0.000345585714318
-1.02138741909e-09
-6.20004119038e-06
1.59833444583e-09
9.16504013104e-05
-0.00053268557007
8.31982572586e-05
-0.000582792371305
7.81422819378e-05
-0.00061179976301
4.56543697973e-06
-0.000361358193897
-1.06120553206e-08
-7.31973193365e-06
-1.23051688687e-09
3.58607442744e-05
-0.000518460107826
2.48644275612e-05
-0.000571794827698
3.63765494393e-05
-0.000626152403184
2.32209169563e-06
-0.000379979006702
-5.54545922652e-08
-7.14330984827e-06
-2.55437015601e-08
-5.4930009081e-06
-0.000499359854182
-1.73725072768e-05
-0.000559916315036
-6.26318695069e-06
-0.000636581138934
3.12590255857e-07
-0.000400851748664
-2.24474138342e-08
-7.64239326516e-06
-3.99823143213e-08
-3.35455509228e-05
-0.000478072271895
-5.1466794649e-05
-0.000541997076002
-5.31551398943e-05
-0.00063389471516
-1.01270810733e-05
-0.000422399781963
4.1674536605e-08
-9.02986074398e-06
-9.62586742724e-13
-4.97268334372e-05
-0.000458695746467
-7.3515468944e-05
-0.000518207559672
-9.84808231375e-05
-0.000608645813628
-2.7310026661e-05
-0.000428084634328
-2.14375876369e-08
-1.27986431782e-05
-8.07673295496e-11
-6.36674474689e-05
-0.000441294764973
-9.16793336888e-05
-0.000490196002908
-0.000135999732283
-0.000564326280587
-4.58847564803e-05
-0.00041420926064
-2.15314648739e-08
-2.03150422783e-05
1.89937631347e-08
-8.1520154296e-05
-0.00042320856639
-0.000112784984482
-0.000458930734664
-0.000163961909328
-0.000513148750046
-6.23064534667e-05
-0.000387823649094
-7.12428686657e-07
-2.89354670746e-05
-3.98249870313e-10
-0.000100092124347
-0.000403871742697
-0.000131129007033
-0.000427894300649
-0.000181088665928
-0.000463188243461
-7.44547987689e-05
-0.000354703705304
4.63993744509e-10
-3.59025000258e-05
-1.46895163667e-09
-0.000116368325505
-0.000144524865231
-0.00018573412988
-0.000421978038776
-7.73431214841e-05
-0.00032672631422
4.71534635663e-09
-3.83313005754e-05
-5.94248343159e-10
-0.000183099487632
-0.000390876019005
-7.42162199044e-05
-0.000307371069707
-1.14778694026e-07
-3.60384906935e-05
1.5741556801e-09
-0.000177038132733
-0.000370275671036
-6.89178569206e-05
-0.000294711103589
-3.60682379469e-08
-3.10448071221e-05
3.05841305235e-10
-0.000176912507232
-6.60483846792e-05
-5.49765198653e-07
)
;

boundaryField
{
    back
    {
        type            calculated;
        value           uniform 0;
    }
    sides
    {
        type            calculated;
        value           nonuniform List<scalar> 0();
    }
    bottom
    {
        type            calculated;
        value           nonuniform List<scalar> 0();
    }
    front
    {
        type            calculated;
        value           uniform 0;
    }
    atmosphere
    {
        type            calculated;
        value           nonuniform List<scalar> 
27
(
2.65458913034e-08
1.70462747215e-06
-5.90277886012e-06
3.32132124072e-07
-1.46809773908e-07
3.48859266146e-07
6.67148595953e-07
3.67397368999e-07
6.87659529272e-08
-1.34673673717e-07
2.72229955251e-07
8.14326662305e-08
-7.51273043485e-09
1.37880346413e-08
-1.0481811045e-08
-7.78319901914e-09
-3.11413850888e-08
-8.01088758913e-09
1.69789451213e-09
-2.1496130378e-08
-4.00759174678e-08
-6.9163764904e-07
-4.998706263e-09
-1.30404132769e-08
-1.3442222506e-07
-1.81373096065e-08
-6.1190233364e-07
)
;
    }
    floatingObject
    {
        type            calculated;
        value           uniform 0;
    }
    procBoundary6to3
    {
        type            processor;
        value           nonuniform List<scalar> 8(-0.000152972766537 -0.000196371440455 -0.000210802228253 -0.000249920682278 -0.000238227012285 -0.00012304824499 -9.91441259294e-07 -2.25387613411e-07);
    }
    procBoundary6to7
    {
        type            processor;
        value           nonuniform List<scalar> 
11
(
1.22575803166e-05
3.03483653666e-05
4.62633201272e-05
6.34304258872e-05
8.07503342156e-05
9.6432591733e-05
-0.000383940182904
-0.000399707524061
0.000151998870438
0.000156437301539
0.000159652403266
)
;
    }
    procBoundary6to8
    {
        type            processor;
        value           nonuniform List<scalar> 
16
(
-0.0001531886849
-0.000196574680617
-0.000451926197368
-0.000491988269001
-0.000502291367811
-0.000495378721395
-0.000469573058039
-0.000431101018757
-0.000380294318652
-0.00032192229215
-0.000259623064833
-0.000204766601128
-0.000153184850028
-9.91148091284e-05
-5.00850599431e-05
-1.36065389846e-05
)
;
    }
    procBoundary6to9
    {
        type            processor;
        value           nonuniform List<scalar> 4(-0.00035301624829 -0.000286391145731 -2.78221512683e-05 4.93546793819e-08);
    }
}


// ************************************************************************* //
