/*--------------------------------*- C++ -*----------------------------------*\
| =========                 |                                                 |
| \\      /  F ield         | OpenFOAM: The Open Source CFD Toolbox           |
|  \\    /   O peration     | Version:  v2012                                 |
|   \\  /    A nd           | Website:  www.openfoam.com                      |
|    \\/     M anipulation  |                                                 |
\*---------------------------------------------------------------------------*/
FoamFile
{
    version     2.0;
    format      ascii;
    class       surfaceVectorField;
    location    "3.1";
    object      Uf;
}
// * * * * * * * * * * * * * * * * * * * * * * * * * * * * * * * * * * * * * //

dimensions      [0 1 -1 0 0 0 0];


internalField   nonuniform List<vector> 
293
(
(0.0269066346375 0.0259034472586 5.86842331074e-18)
(0.00506206415501 0.00267381523116 5.43469669848e-18)
(0.033500958176 0.0492864805232 4.22897267044e-18)
(0.0162527321723 0.029456067233 4.69048133295e-18)
(0.0406760687853 0.0678724101066 2.6369803258e-18)
(0.0239777106914 0.0416642491385 3.11092074142e-18)
(0.0432441894875 0.0850674881054 1.78756082201e-18)
(0.0332538268764 0.0715740497629 2.16695873964e-18)
(0.0359450205823 0.103622521431 1.48032521331e-18)
(0.0297042248634 0.0862185980822 1.74507955772e-18)
(0.0439907736247 0.123248008864 1.40946900069e-18)
(0.0226370542347 0.110643220397 1.66843426279e-18)
(0.442934094422 0.0839194082276 1.00911195144e-18)
(0.0749773818346 0.116273165225 1.64992541907e-18)
(1.02834408461 -0.071757779058 1.01107783992e-18)
(-0.000495315965915 0.00479826397164 4.25675472069e-18)
(0.00026940802577 -0.00906628852383 4.36180099969e-18)
(0.0105585143907 0.0207297455975 3.57242940393e-18)
(0.00032583876924 0.0171939172867 4.16997373308e-18)
(0.0192698061651 0.0442588400091 2.64089915526e-18)
(0.000451533301976 0.0278183989327 3.01284100282e-18)
(0.0227145862842 0.0768221996134 2.12447747536e-18)
(0.0006917272772 0.0622889190841 2.32712172057e-18)
(0.0181683511575 0.105373160557 1.93318860721e-18)
(0.00115346558227 0.0867673067344 1.99777257387e-18)
(0.046872963992 0.124831613207 1.90889068118e-18)
(0.00317972207107 0.111808213566 1.96763241938e-18)
(0.573843307186 0.116432595676 1.65189130755e-18)
(0.0833184846108 0.11335610557 1.97068219776e-18)
(0.974078151295 0.354777440817 1.43455037891e-18)
(0.00105497904895 0.00484977809768 4.27502001209e-18)
(-0.00457564511779 0.00272401122211 5.45428006122e-18)
(-0.00982657829918 0.0208476086711 3.61038533198e-18)
(-0.0156684928598 0.029618426208 4.71742279398e-18)
(-0.0182089566972 0.0444858968994 2.69906356812e-18)
(-0.0231850501305 0.0419744529011 3.15467445054e-18)
(-0.0210548383313 0.0772763302582 2.20041681907e-18)
(-0.0320982276045 0.0721511326165 2.21802508512e-18)
(-0.0144889018813 0.106371035288 2.03221638604e-18)
(-0.0279412395752 0.0871454602275 1.80874019985e-18)
(0.0240898141468 0.127923509308 2.02942393596e-18)
(-0.0183689411927 0.111706346411 1.74324173976e-18)
(0.258804774602 0.163026823339 1.75334126912e-18)
(0.048104459705 0.12601090573 1.72517192377e-18)
(0.315068736362 0.421446991206 1.28080915302e-18)
(-0.02645655341 0.0260610500674 5.89668284311e-18)
(-0.0329207933019 0.0496074834703 4.26171191255e-18)
(-0.0398860466453 0.0684518954828 2.67363596754e-18)
(-0.0420284548914 0.0726884246253 3.03253144499e-18)
(-0.0421371144669 0.0861229253448 1.8263484659e-18)
(-0.0497692196265 0.0903958256046 1.78006264073e-18)
(-0.0338818499204 0.105612199879 1.51976555357e-18)
(-0.0474306562514 0.0900886204766 1.2736869807e-18)
(0.00249853883917 0.128140539212 1.43898972757e-18)
(-0.0408902561901 0.111450176278 1.14999316031e-18)
(0.0972091759837 0.16852980528 1.25263980767e-18)
(0.0075736104217 0.135059240205 1.11999445876e-18)
(0.0557141787371 0.248177810424 9.02051722549e-19)
(-0.04966235631 0.092137753653 2.13895811818e-18)
(-0.0433644518451 0.0945136041409 2.46045395294e-18)
(-0.0548512815501 0.0975858162902 1.22740115553e-18)
(-0.0552173354565 0.104713519194 1.14711859498e-18)
(-0.0525712944639 0.108075199684 9.03914587439e-19)
(-0.057920201107 0.0963939492968 7.19936754609e-19)
(-0.0311021599122 0.119648126731 8.30997891492e-19)
(-0.0524536853516 0.112335431986 6.08027777023e-19)
(-0.00205908777705 0.162089712322 7.6940637363e-19)
(-0.0350208565338 0.133720651423 5.99042724442e-19)
(-0.0184308514446 0.217218129335 4.99571094416e-19)
(-0.0505805412342 0.102706772898 1.46861442974e-18)
(-0.0472525895074 0.102408291231 1.44442434853e-18)
(-0.0595714556523 0.107713534095 6.39654194057e-19)
(-0.0602237969366 0.113937565928 5.26961722037e-19)
(-0.0594508182206 0.113157195167 4.24049944193e-19)
(-0.0633638524701 0.102741874781 2.98254685652e-19)
(-0.0554364222646 0.119784603159 3.76072609972e-19)
(-0.0590717778593 0.115199236452 2.40272353699e-19)
(-0.0464369437043 0.168867708097 3.29207445227e-19)
(-0.0842664226575 0.129302725822 2.37096974537e-19)
(-0.152543621504 0.336456916736 1.63847687015e-19)
(-0.0573239086344 0.108439147962 5.02771640825e-19)
(-0.0548629622155 0.105028037858 4.51577765032e-19)
(-0.0650352444977 0.11486279152 1.85562213632e-19)
(-0.0666464223112 0.118290444393 1.30517084881e-19)
(-0.0666370872771 0.120970799207 1.14477095159e-19)
(-0.0694716167918 0.106936383886 6.18958826471e-20)
(-0.0820906174997 0.134402072965 1.01296718264e-19)
(-0.0724941004996 0.11983127665 4.53624586522e-20)
(-0.195719873917 0.193791104015 7.17372163244e-20)
(-0.143794159411 0.142799403872 4.94853985632e-20)
(-0.490753357607 0.419643035605 1.67680974936e-20)
(-0.0657271053179 0.108899365732 7.9323209088e-20)
(-0.064408445424 0.102672191748 7.74698262876e-20)
(-0.0732339936896 0.117912438026 6.85075389671e-21)
(-0.0756575957884 0.117469345211 -3.27307353028e-21)
(-0.0797319954457 0.128443259523 -7.21875385926e-21)
(-0.0800019012003 0.106620844143 -1.89428229822e-20)
(-0.130844381975 0.152366230262 -6.44886104851e-21)
(-0.0964073573087 0.121208476153 -1.73735796065e-20)
(-0.402308766269 0.234023955119 -5.48372026752e-21)
(-0.225599805793 0.16607508792 -1.54900805874e-20)
(-0.729855456924 0.325695958022 -6.81779798309e-21)
(-0.0753102209823 0.104908394861 -5.12645633067e-21)
(-0.0752339060821 0.0964136032653 4.09320962761e-21)
(-0.0837298405881 0.115497359845 -2.90666504092e-20)
(-0.0862438757702 0.110852935861 -2.33123934801e-20)
(-0.0974423954163 0.128426443484 -2.90976487295e-20)
(-0.0929302163973 0.0998526403293 -4.09069341698e-20)
(-0.180120689397 0.154584369748 -2.64147991454e-20)
(-0.122560706626 0.11366163952 -4.19436508745e-20)
(-0.493218350425 0.209763683522 -1.68241583029e-20)
(-0.280896875348 0.158030362743 -4.4499303438e-20)
(-0.78145420408 0.154502311836 -1.84426607674e-20)
(-0.0858991606591 0.0966704117879 -1.40927275219e-20)
(-0.0856205737987 0.086660106731 -1.01893508802e-20)
(-0.0949687249625 0.105880463353 -3.51526772407e-20)
(-0.0954507254831 0.0987756157563 -3.61636372073e-20)
(-0.116501773373 0.117638121912 -5.37529363147e-20)
(-0.104686908233 0.0879984221475 -6.04956293009e-20)
(-0.208693761841 0.141906238633 -6.00281551671e-20)
(-0.146841709798 0.0980234812004 -6.52606251756e-20)
(-0.498814776151 0.137272222866 -4.61178059025e-20)
(-0.276254901833 0.122340584351 -6.58503372367e-20)
(-0.645151721312 -0.0345352385554 -2.5379950025e-20)
(-0.0943092901586 0.0844805084053 -3.22602605656e-20)
(-0.0940609502145 0.0742094503921 -1.97154938285e-20)
(-0.103675017817 0.0918063932438 -6.15065892675e-20)
(-0.102773223546 0.0835727939775 -6.6572422251e-20)
(-0.130906954091 0.100533747007 -7.20033181618e-20)
(-0.113413372323 0.0743134456594 -9.94356940414e-20)
(-0.204794020404 0.113618028205 -7.10828072453e-20)
(-0.159925552839 0.0794325109594 -1.22964316406e-19)
(-0.372435794756 0.0551740671509 -4.51124813592e-20)
(-0.217831913021 0.0897389175561 -1.17457429827e-19)
(-0.304421606908 -0.038325614207 -4.56513306592e-20)
(-0.101176408849 0.0703234586855 -5.40276555138e-20)
(-0.100068528719 0.060646966554 -3.21715802964e-20)
(-0.110184303038 0.0760365363728 -1.04501527025e-19)
(-0.108483033371 0.067962076428 -9.67755670427e-20)
(-0.138117809348 0.0816286467558 -1.50396692285e-19)
(-0.119004661556 0.061090628885 -1.61496123251e-19)
(-0.187877473553 0.0831412574146 -1.69338938987e-19)
(-0.161430525463 0.0616868178255 -2.21780760869e-19)
(-0.229829058023 0.0693917987805 -1.17996279127e-19)
(-0.204122806681 0.0679214166687 -2.16654335204e-19)
(-0.228294688727 0.0200186992575 -7.23946184104e-20)
(-0.10633481296 0.0563535358537 -7.49194918253e-20)
(-0.104590293627 0.0478285782315 -3.54113920582e-20)
(-0.114957036987 0.0613930773694 -1.53770163269e-19)
(-0.113519663032 0.0534542863185 -1.16412789025e-19)
(-0.138214434198 0.0641614386743 -2.32880191834e-19)
(-0.121772256825 0.0486186091121 -2.06168236567e-19)
(-0.176716531251 0.0567630041461 -2.69096157086e-19)
(-0.154031560054 0.0458548698757 -2.70170036948e-19)
(-0.192386758756 0.0378260703588 -1.71052674488e-19)
(-0.185183750379 0.0532353841916 -2.71360016543e-19)
(-0.128414933639 0.012089328867 -8.96536950409e-20)
(-0.110641486222 0.0436790031284 -7.69046892581e-20)
(-0.107415094557 0.0362807333299 -2.91410554198e-20)
(-0.118730079104 0.0474418760026 -1.68810862323e-19)
(-0.117280147771 0.0393756333101 -1.00846195923e-19)
(-0.135392432493 0.0476151626162 -2.4345808168e-19)
(-0.121944894667 0.0352756872191 -1.91103536364e-19)
(-0.173439099123 0.039951100677 -2.72433896405e-19)
(-0.146368697198 0.0315756212104 -2.57341288483e-19)
(-0.146603900838 0.0656290323739 -1.89961037096e-19)
(-0.210861999895 0.0390133185169 -2.53769338134e-19)
(-0.0812069999729 0.0585281594355 -1.63361747891e-19)
(-0.113163556802 0.0312356251285 -5.30825620851e-20)
(-0.108110255273 0.0247609433157 -2.29641655889e-20)
(-0.120116738126 0.0322676084751 -1.23138869964e-19)
(-0.118310350414 0.0246622192656 -6.72695091836e-20)
(-0.13302455193 0.0313969678949 -2.04986743166e-19)
(-0.121073772907 0.0211017184664 -1.35978435327e-19)
(-0.181500671523 0.0284396836093 -2.38676730212e-19)
(-0.143410348138 0.0198735840601 -1.94962155193e-19)
(-0.155026000839 0.0539862862478 -2.27170048929e-19)
(-0.236411280854 0.0220325353755 -1.86568982025e-19)
(-0.0962579890505 0.0201017595514 -1.35842539492e-19)
(-0.112476890621 0.0182184500958 -3.71511126874e-20)
(-0.106595546565 0.0135888387542 -1.53129512691e-20)
(-0.119347433872 0.0165101053022 -8.01090745466e-20)
(-0.116600801083 0.011356796188 -3.96465356722e-20)
(-0.132725320117 0.0178173744655 -1.25953847354e-19)
(-0.122380705991 0.00885496374289 -7.79645423025e-20)
(-0.178674240012 0.0186311217302 -1.42854407006e-19)
(-0.144224103372 0.0115574579671 -1.13577949124e-19)
(-0.157327095736 -0.0188091924949 -9.52414725877e-20)
(-0.198970776127 0.0106166645449 -1.11155795678e-19)
(-0.0880937013259 -0.0292577630242 -9.52282805847e-21)
(-0.110349868754 0.0070764648069 -1.78083742539e-20)
(-0.103736811293 0.00446146053804 -6.92600669014e-21)
(-0.11964732461 0.00486745913564 -3.75020034281e-20)
(-0.114391051812 0.00146140553653 -1.69085392249e-20)
(-0.134185995023 0.00785423506547 -6.55886440723e-20)
(-0.125367266143 -0.00093242540383 -3.74985013278e-20)
(-0.164486559527 0.00854797408811 -8.18793377962e-20)
(-0.144918004335 0.00368974194628 -6.24204795867e-20)
(-0.12722340411 -0.0179839232998 -2.54371511492e-20)
(-0.172436523921 0.00325884904302 -5.89914553604e-20)
(-0.0895612273656 0.0049916595853 7.37229489406e-21)
(-0.10755032099 -0.00118193550929 -6.02617166109e-21)
(-0.0999073489954 -0.00203398977923 -4.40283683845e-21)
(-0.119862430692 -0.00356471049354 -1.69050371246e-20)
(-0.112007841433 -0.0057360686292 -1.07134365018e-20)
(-0.135499852821 -0.00151671425081 -3.43303368422e-20)
(-0.127415137761 -0.00955941204783 -2.22298809166e-20)
(-0.161739287577 -0.000411892842223 -3.95325971509e-20)
(-0.146022741768 -0.00515030635949 -4.31216049605e-20)
(-0.145824508603 0.0145635895361 -2.61820093171e-20)
(-0.187410423128 -0.00425215505428 -3.63984743709e-20)
(-0.113299285421 0.0372593453953 1.62079597947e-20)
(-0.104053114222 -0.00678203242427 -9.0901016792e-21)
(-0.0956430694584 -0.00629214348428 -7.45448521746e-21)
(-0.118847413516 -0.0103707699007 -1.60382802939e-20)
(-0.108418834715 -0.0103599584868 -1.09499108368e-20)
(-0.136715963677 -0.0109950383565 -3.10211490349e-20)
(-0.12679077214 -0.016605345121 -1.28639679996e-20)
(-0.177166436846 -0.0100854622892 -3.99874821805e-20)
(-0.146932360276 -0.0135385613291 -2.75948970276e-20)
(-0.166360153105 0.0252023060666 5.99149474096e-21)
(-0.222699750297 -0.0166993669625 -2.57860689245e-20)
(-0.117527607949 0.0249532713068 9.57046914552e-21)
(-0.0994587423783 -0.010009447803 -9.31429437506e-21)
(-0.0917625843872 -0.00941632455501 -6.89404672537e-21)
(-0.114883294519 -0.0147712628994 -7.77559854249e-21)
(-0.103656811196 -0.0133352567866 -1.02691906326e-20)
(-0.134348071559 -0.0198309876274 -9.43771599231e-21)
(-0.121730966036 -0.0219843042937 -7.1820792837e-21)
(-0.192837367513 -0.0247449096865 -1.33934837717e-20)
(-0.142018473004 -0.0209623502489 -1.30904174381e-20)
(-0.172280021446 0.00286310260648 -2.220709452e-20)
(-0.250308725664 -0.033523890863 -1.39668093558e-20)
(-0.106768986774 -0.0143094160448 -2.0364602982e-20)
(-0.0950475382779 -0.012789603588 -7.84894298286e-21)
(-0.0882782434152 -0.012698991329 -4.01028145321e-21)
(-0.108881086927 -0.0183949195985 -9.67567137376e-21)
(-0.0980512892174 -0.0166902003532 -7.27145105084e-21)
(-0.126977507441 -0.0271831237284 -1.08347807295e-20)
(-0.112942681185 -0.0265841347024 -8.03691191956e-21)
(-0.19619483588 -0.0382980343405 -1.36637430223e-20)
(-0.130903520919 -0.0262623930182 -1.68768649723e-20)
(-0.181025420465 -0.0349068285284 -1.21243178178e-20)
(-0.253700159719 -0.0480276550626 -1.95049956341e-20)
(-0.0985476148666 -0.0558956236819 -2.51132225705e-21)
(-0.0905817178271 -0.0163527611677 -3.43278952118e-21)
(-0.0846579034066 -0.016300555479 -2.63506671652e-21)
(-0.101288125793 -0.0226079265876 -5.63269159664e-21)
(-0.0917958396544 -0.0206894034932 -4.01538028144e-21)
(-0.115716828946 -0.0328174342551 -1.40789961624e-20)
(-0.102733064112 -0.0306085813452 -9.61879460179e-21)
(-0.182495922991 -0.0468825806298 -2.27181175841e-20)
(-0.116838381101 -0.0287143667863 -2.04405632835e-20)
(-0.166698979461 -0.0689055590536 -9.89200007336e-21)
(-0.231677754475 -0.0556633929477 -2.37683569956e-20)
(-0.0995999672915 -0.0812916806201 -4.76854874464e-21)
(-0.0857734761179 -0.020060553383 -3.21765747678e-21)
(-0.0807880754521 -0.0196823995816 -2.19640393637e-21)
(-0.0932102773778 -0.0262687401404 -8.00148328659e-21)
(-0.0855873226143 -0.0244630656086 -5.59409160515e-21)
(-0.10342433028 -0.0362601294872 -1.59803617229e-20)
(-0.0927415228672 -0.0332541614557 -1.18138633649e-20)
(-0.160724251394 -0.0502798477289 -2.14908026949e-20)
(-0.102818660286 -0.0289416478555 -1.99377922503e-20)
(-0.159924932483 -0.0825835788202 -1.86449056669e-20)
(-0.199374405687 -0.055100083109 -1.96323556496e-20)
(-0.105544609942 -0.0900369911767 -1.58143820689e-20)
(-0.0809282337967 -0.0233102030066 -4.57283806474e-21)
(-0.0857512472193 -0.0289471552265 -9.40647168347e-21)
(-0.0927185511232 -0.0372002086304 -1.57712938923e-20)
(-0.084488275669 -0.034308753994 -1.22307674434e-20)
(-0.13879425411 -0.047687520386 -1.8079345205e-20)
(-0.0923313474779 -0.0280624722155 -1.7143329568e-20)
(-0.143973618068 -0.0791273454206 -1.68018320516e-20)
(-0.167934237932 -0.0497021769857 -8.96269227638e-21)
(-0.105696590391 -0.0877010291161 -7.85914207848e-21)
(-0.0848859291617 -0.0366655573816 -1.36028031191e-20)
(-0.0782553512213 -0.0342250577646 -1.00417933497e-20)
(-0.120966073492 -0.0433221712353 -8.02667663937e-21)
(-0.0856747301999 -0.0269582396438 -1.08356379442e-20)
(-0.128119682457 -0.0694768786641 -2.00023032183e-23)
(-0.141779312313 -0.0447632194668 1.18953624678e-20)
(-0.100933327886 -0.0791494535906 1.1532659177e-20)
(-0.0799714401957 -0.0354492115854 -7.27462817484e-21)
(-0.074124030374 -0.0341845727945 -4.70854427442e-21)
(-0.107728637979 -0.0394968343503 9.08640116298e-21)
(-0.0816270989233 -0.0266081021292 -3.10107638424e-21)
(-0.115734603562 -0.0595144786858 2.34480239481e-20)
(-0.121761528715 -0.0426054366568 2.77151101248e-20)
(-0.0926375258424 -0.067151086479 2.22240141297e-20)
(-0.0765363529895 -0.0354161207121 -5.34992483816e-22)
(-0.0989524734358 -0.0383291391807 1.55276325776e-20)
(-0.100740988933 -0.0477896285961 2.64911003064e-20)
)
;

boundaryField
{
    back
    {
        type            calculated;
        value           uniform (0 0 0);
    }
    sides
    {
        type            calculated;
        value           nonuniform List<vector> 0();
    }
    bottom
    {
        type            calculated;
        value           nonuniform List<vector> 0();
    }
    front
    {
        type            calculated;
        value           uniform (0 0 0);
    }
    atmosphere
    {
        type            calculated;
        value           nonuniform List<vector> 
27
(
(0 -0.65000747696 0)
(1.06855049003 0.170739109541 1.39876145202e-18)
(0.460132962519 0.82218781319 1.4703393058e-18)
(0.161320679362 0.42802312546 1.09127900024e-18)
(0.0083700063518 0.236362614891 7.12824444853e-19)
(-0.0394553513221 0.30312571871 2.86317743979e-19)
(-0.293847283626 0.532129230711 4.13776300512e-20)
(-0.627285684144 0.473253829849 -7.84143506396e-21)
(-0.734524134673 0.261455516993 -5.79416090222e-21)
(-0.714436125414 0.000995233089425 -3.10911606327e-20)
(0 -0.285608844055 0)
(0 -0.00674396619957 0)
(0 -0.0620442855372 0)
(-0.095195954166 0.0184213537422 -1.06152075162e-19)
(-0.0913892726955 0.0690370120688 -2.20571420619e-19)
(0 -0.0269737689832 0)
(0 -0.0165180076752 0)
(-0.112767582661 0.0383004970816 -1.73234124595e-20)
(-0.12460437324 0.0294319603417 4.9739332049e-20)
(0 -0.00789445820312 0)
(0 -0.0431277622271 0)
(0 -0.0678525452568 0)
(0 -0.0766384364894 0)
(0 -0.0789754913174 0)
(0 -0.0742402614003 0)
(0 -0.0678103596762 0)
(0 -0.0581604847585 0)
)
;
    }
    floatingObject
    {
        type            calculated;
        value           nonuniform List<vector> 4((0 0 0) (0 0 0) (-1.38777878078e-16 0 0) (0 0 0));
    }
    procBoundary6to3
    {
        type            processor;
        value           nonuniform List<vector> 8((0.0309565554472 0.0592836531952 8.47527464002e-18) (0.0396264826951 0.0680939186331 5.51667735205e-18) (0.0425562728239 0.0721801133357 3.01438538769e-18) (0.0504445874694 0.0895166732546 1.77739817983e-18) (0.048257854153 0.0888160930779 1.29059711031e-18) (0.0422639079659 0.110138573322 1.17629399918e-18) (0.0356507530432 0.126416923215 1.15337866102e-18) (0.294508409591 -0.189623122167 5.27278234455e-19));
    }
    procBoundary6to7
    {
        type            processor;
        value           nonuniform List<vector> 
11
(
(-0.0937176621599 -0.00251837861314 -4.33766452148e-21)
(-0.0899383933031 -0.0061293646957 -6.07819913204e-21)
(-0.0868231212909 -0.00930565905191 -3.23911123338e-21)
(-0.0839817545685 -0.0127329387638 -1.96802211632e-21)
(-0.0808691519142 -0.0161914064309 -1.40171822369e-21)
(-0.0774663705888 -0.0193230945467 -1.3820769205e-21)
(-0.0768002543519 -0.0224694856766 -2.16043468849e-21)
(-0.0799499591807 -0.0273415561166 -6.9780771786e-21)
(-0.079493462306 -0.0304331173178 -9.80237293855e-21)
(-0.0747013627913 -0.0313183741592 -6.33904395111e-21)
(-0.0708837992444 -0.0319641220745 -2.24427486619e-21)
)
;
    }
    procBoundary6to8
    {
        type            processor;
        value           nonuniform List<vector> 
16
(
(-0.030633176182 0.05938669417 8.49435874538e-18)
(-0.0392126863845 0.0683745921524 5.5388651483e-18)
(-0.0420118291611 0.0907998337002 4.30968468075e-18)
(-0.0367201090938 0.0988165301612 3.32784991197e-18)
(-0.0458634854402 0.100825139207 1.28878810077e-18)
(-0.055773449818 0.099347935398 2.54370570546e-19)
(-0.065702781676 0.0940746497059 3.16537291403e-20)
(-0.0763729094469 0.0862737316972 -6.67190346439e-22)
(-0.0853525111447 0.076029357804 -8.57403246139e-21)
(-0.0929235359694 0.0643053651953 -1.59998492318e-20)
(-0.0977773185849 0.0518223458889 -2.34794120979e-20)
(-0.100754676542 0.0408464278695 -1.95914642316e-20)
(-0.10269431499 0.0305346441244 -1.72787146738e-20)
(-0.102723633026 0.0197292571908 -1.30040783912e-20)
(-0.100646901892 0.00993289407955 -7.2356003701e-21)
(-0.0974635643682 0.00264634048331 -2.18447437916e-21)
)
;
    }
    procBoundary6to9
    {
        type            processor;
        value           nonuniform List<vector> 4((-0.0706715806272 -0.0352747107429 -4.2896638931e-21) (-0.0787140589877 -0.0276962456578 -4.03387462308e-21) (-0.112302499754 -0.0449420308514 1.25338211662e-20) (-0.0822653716741 -0.0599297005054 1.03695900285e-20));
    }
}


// ************************************************************************* //
