/*--------------------------------*- C++ -*----------------------------------*\
| =========                 |                                                 |
| \\      /  F ield         | OpenFOAM: The Open Source CFD Toolbox           |
|  \\    /   O peration     | Version:  v2012                                 |
|   \\  /    A nd           | Website:  www.openfoam.com                      |
|    \\/     M anipulation  |                                                 |
\*---------------------------------------------------------------------------*/
FoamFile
{
    version     2.0;
    format      ascii;
    class       surfaceVectorField;
    location    "3.1";
    object      Uf_0;
}
// * * * * * * * * * * * * * * * * * * * * * * * * * * * * * * * * * * * * * //

dimensions      [0 1 -1 0 0 0 0];


internalField   nonuniform List<vector> 
293
(
(0.0270895874069 0.02648826839 5.81686093723e-18)
(0.00533354636404 0.00223853044657 5.39953242731e-18)
(0.0340316835594 0.0505030268423 4.20084911133e-18)
(0.0164769577228 0.0305497445294 4.66848594787e-18)
(0.0417980538545 0.0697395342134 2.61181889178e-18)
(0.02455601531 0.0430397876215 3.09528450999e-18)
(0.0446576318905 0.0878562592922 1.77252447481e-18)
(0.0343043763698 0.0744611029394 2.14473662429e-18)
(0.0369523435206 0.107765226712 1.48249075654e-18)
(0.0305185743536 0.0889005961981 1.74663802409e-18)
(0.0304310918705 0.129306910859 1.41414228737e-18)
(0.0229413973562 0.114401937917 1.67600851595e-18)
(0.136795331146 0.100030821264 9.36586263223e-19)
(0.0459024487034 0.125930709447 1.65009566342e-18)
(0.231647682556 0.193856740163 8.03457288155e-19)
(-3.40217280608e-05 0.00535099311218 4.25115743795e-18)
(-2.08366116054e-05 -0.00918082637952 4.35775025386e-18)
(0.0107509106684 0.0218420491875 3.56292134653e-18)
(-1.76399711928e-05 0.0181929192484 4.16298544117e-18)
(0.019587849835 0.0464070183102 2.6282022425e-18)
(-1.18397040199e-05 0.0290951583168 3.00189688289e-18)
(0.0229460890916 0.080709908596 2.11885017357e-18)
(-3.33276056314e-07 0.0652401973345 2.31520390258e-18)
(0.017389104752 0.111216129985 1.94015578351e-18)
(1.17483729594e-05 0.0900011532574 2.00303916875e-18)
(0.0219026736218 0.134152334194 1.91196189201e-18)
(5.03319038858e-06 0.115452034293 1.9819086438e-18)
(0.13359748865 0.180197450052 1.51696668835e-18)
(-0.0001515675227 0.117099925275 1.96761271369e-18)
(-0.00425554358976 0.366766976309 1.12605844469e-18)
(-7.39336495238e-06 0.00534624359434 4.26957825707e-18)
(-0.00537070679235 0.00223357471199 5.41895504746e-18)
(-0.010781030026 0.021836303302 3.60196097753e-18)
(-0.0165109917962 0.0305443498256 4.69580335564e-18)
(-0.0195998664233 0.0464020986942 2.68889854297e-18)
(-0.0245802797933 0.0430325561206 3.14043129854e-18)
(-0.0229334599768 0.0807137022889 2.19939289776e-18)
(-0.0343134811302 0.074460191055 2.19851080466e-18)
(-0.0173676425088 0.111230728881 2.04479202905e-18)
(-0.0305057501697 0.0889190470374 1.81514283488e-18)
(-0.0218947282375 0.134150448996 2.03755946548e-18)
(-0.0229146676711 0.114425886032 1.75524422169e-18)
(-0.138059618482 0.179722663205 1.57670447002e-18)
(-0.0457316677785 0.125594826814 1.7261727925e-18)
(-0.24033110139 0.196328068021 8.30567056144e-19)
(-0.0271227903258 0.026484871243 5.84518014602e-18)
(-0.034058970771 0.0504944671015 4.23427367665e-18)
(-0.0418206987182 0.0697345026074 2.65004356024e-18)
(-0.0438225756709 0.0731058198003 3.00228964259e-18)
(-0.0446705496408 0.0878707838416 1.81426074178e-18)
(-0.0524508925942 0.0917006285996 1.74331379416e-18)
(-0.0369479242267 0.107814217222 1.52559502752e-18)
(-0.0504494697586 0.0899815702458 1.26784676485e-18)
(-0.0304321253861 0.129396751293 1.44385754871e-18)
(-0.0444971708774 0.113245875784 1.14913151795e-18)
(-0.143833212076 0.100463923278 9.80035378623e-19)
(-0.0167999988499 0.136297123713 1.11528923197e-18)
(-0.131585337519 0.018958430476 4.56229253129e-19)
(-0.052102139686 0.092334057467 2.09555987651e-18)
(-0.0456345088149 0.0942841813239 2.40190397216e-18)
(-0.058007577603 0.098111062835 1.19689981722e-18)
(-0.0582282595403 0.105184670492 1.10902851769e-18)
(-0.0560693455786 0.108968844611 8.9138325527e-19)
(-0.0613072972446 0.0951591562869 7.07180416728e-19)
(-0.0382942559497 0.120231748582 8.20563201207e-19)
(-0.0557589576467 0.113317612472 6.02268884017e-19)
(-0.0381935781644 0.135010755985 5.91483106478e-19)
(-0.0315791947307 0.132916174111 5.92323401995e-19)
(0.0673975410079 0.012089422548 2.75716042304e-19)
(-0.0534411521389 0.102430867275 1.41537261334e-18)
(-0.0497212810607 0.101832052543 1.39451162871e-18)
(-0.0629741956706 0.107606911812 6.19309117192e-19)
(-0.0634036586898 0.113826548572 5.05660679958e-19)
(-0.0629179890003 0.113218812844 4.18066045475e-19)
(-0.066918907225 0.100835297389 2.92783450927e-19)
(-0.0334009612489 0.119036975881 3.74029084805e-19)
(-0.0615769929503 0.115675794675 2.40560321235e-19)
(0.114875841702 0.0911467210551 2.76556337821e-19)
(-0.00368822650859 0.119668767323 2.37930218502e-19)
(0.176088598167 0.281683544092 1.23764239956e-19)
(-0.060257093041 0.107585344031 4.84799695323e-19)
(-0.0573379838233 0.103845515282 4.38152121277e-19)
(-0.0688702851462 0.114328726283 1.79135013692e-19)
(-0.0701453085187 0.117333168967 1.24309507676e-19)
(-0.0711238917322 0.121605388834 1.15277726686e-19)
(-0.0741949590865 0.10391965768 6.14290536864e-20)
(-0.0528180571074 0.139008173176 1.04461454931e-19)
(-0.0789801541567 0.119236585416 4.72218263029e-20)
(-0.00465830864027 0.230694407784 8.51381206365e-20)
(-0.0953806121775 0.127078730168 5.08023136806e-20)
(-0.232289357687 0.433446586571 2.89961692543e-20)
(-0.0687286576848 0.107112340631 7.76619336307e-20)
(-0.0667052333334 0.100645627983 7.66128643197e-20)
(-0.0776404462986 0.116188623034 6.60354767065e-21)
(-0.0792188809353 0.115196587418 -3.74773674237e-21)
(-0.0863180419857 0.127490944782 -6.62684669718e-21)
(-0.085496415295 0.10170468672 -1.77836562978e-20)
(-0.0996561634106 0.154742546348 -6.43731494759e-21)
(-0.106234725651 0.118142744723 -1.60048895775e-20)
(-0.257602352216 0.185549939441 -5.33963770153e-21)
(-0.12618621658 0.155947775035 -1.6850030669e-20)
(-0.371831372003 0.171569570349 8.24153920313e-21)
(-0.0779565169643 0.102041538837 -4.79680605341e-21)
(-0.0770342528204 0.0934889125607 4.26314084922e-21)
(-0.0879729559825 0.112085795075 -2.81349407108e-20)
(-0.0892597032478 0.107052279821 -2.30329344744e-20)
(-0.105294633403 0.1245851889 -2.71616991781e-20)
(-0.0979947815021 0.0930666296078 -4.01045365641e-20)
(-0.119264830123 0.152153853553 -2.64176052989e-20)
(-0.133807987144 0.107772821724 -4.10258705008e-20)
(-0.20341600772 0.138172847369 -3.26885376434e-21)
(-0.112198973423 0.159338300147 -4.58769430989e-20)
(-0.198140040736 0.0402744375603 4.32175129639e-21)
(-0.0877612032743 0.0927695966889 -1.39729875718e-20)
(-0.0865877477269 0.0829558866308 -1.03208831991e-20)
(-0.0981657302296 0.100699439496 -3.50025303277e-20)
(-0.0971857132294 0.0936935722039 -3.51394810409e-20)
(-0.123832291387 0.110607116149 -5.39687078868e-20)
(-0.107901340049 0.0800929664429 -5.91242287599e-20)
(-0.128227312046 0.133252062361 -6.04852083008e-20)
(-0.156459378158 0.0900231774172 -6.3131977516e-20)
(-0.111567277614 0.131002682831 -3.82863380381e-20)
(-0.109935156822 0.130028540764 -6.59565385963e-20)
(-0.0711072837607 0.0567556824939 -1.06794219102e-20)
(-0.0949253592449 0.0798502825405 -3.14873766682e-20)
(-0.0939647414818 0.0700364269717 -1.99657734414e-20)
(-0.10497505607 0.0854948199104 -5.9261179473e-20)
(-0.102826362228 0.0778488350436 -6.48032862413e-20)
(-0.135592131802 0.0915327221409 -6.82874983891e-20)
(-0.11393809494 0.0663165432812 -9.69631421314e-20)
(-0.138843892005 0.100192728158 -6.86033078116e-20)
(-0.165129581557 0.0707795530641 -1.19677508867e-19)
(-0.0692751508342 0.109280589152 -3.83496224684e-20)
(-0.11899677099 0.0979550946759 -1.17877226463e-19)
(0.0230899218552 0.110232912499 -3.08151457896e-20)
(-0.100405722794 0.065413736868 -5.32816830145e-20)
(-0.0988545092666 0.0563624871289 -3.27206876789e-20)
(-0.109311620633 0.0694536997802 -1.025052489e-19)
(-0.106862687266 0.0623112267538 -9.6470689541e-20)
(-0.138977882309 0.0724197180769 -1.4835315261e-19)
(-0.116903054189 0.0539505763356 -1.6051256216e-19)
(-0.149177391413 0.0687117569778 -1.68951427519e-19)
(-0.161427861015 0.0540354150073 -2.21968637064e-19)
(-0.0823043583228 0.0943938201019 -1.10342749785e-19)
(-0.14467626821 0.0706424188233 -2.18047761521e-19)
(-0.0893227475161 0.107569458962 -5.84429058012e-20)
(-0.10434350603 0.0516230420564 -7.59096942054e-20)
(-0.102437989373 0.0437501918096 -3.63570200183e-20)
(-0.112294007552 0.0554561419379 -1.54478002801e-19)
(-0.110692630246 0.0483943186679 -1.18327795222e-19)
(-0.135752780245 0.0565350948583 -2.34128046615e-19)
(-0.11798107028 0.0428441095944 -2.08258916221e-19)
(-0.152773212876 0.0456248781232 -2.71064971066e-19)
(-0.150525796754 0.0399669593184 -2.74757938319e-19)
(-0.118044345556 0.0568627483612 -1.66147917538e-19)
(-0.155890339967 0.0494495396837 -2.75521697541e-19)
(-0.0779183559706 0.0548627258834 -9.25220608933e-20)
(-0.107759418812 0.0394425473673 -7.87751210347e-20)
(-0.104544676337 0.0326702869955 -2.99565085538e-20)
(-0.114973869777 0.0424836343909 -1.72108708641e-19)
(-0.113731198567 0.0351343268318 -1.03619033987e-19)
(-0.130834364975 0.0417334150443 -2.48888807925e-19)
(-0.117230150061 0.0308063496577 -1.95196865788e-19)
(-0.158490935784 0.0318157931211 -2.79214664794e-19)
(-0.140608222725 0.0271262055062 -2.65110713022e-19)
(-0.11104510451 0.0668541546483 -2.01895840897e-19)
(-0.190932023517 0.0342164712924 -2.59017744694e-19)
(-0.0460789566009 0.0819267228401 -1.76671359806e-19)
(-0.1097039377 0.027698143099 -5.48004215057e-20)
(-0.10473037247 0.0217153109952 -2.34668318154e-20)
(-0.11576626889 0.0282543264506 -1.26707191134e-19)
(-0.114285553555 0.0211623483263 -6.960229152e-20)
(-0.1275130115 0.0268919695947 -2.11418770885e-19)
(-0.115867293623 0.0175096021747 -1.39978748206e-19)
(-0.174831056795 0.0235702987344 -2.44913792921e-19)
(-0.137286563632 0.0162762047735 -2.02194939695e-19)
(-0.137765803991 0.0703878594344 -2.33793263604e-19)
(-0.237749099969 0.01842034236 -1.91450313976e-19)
(-0.0814568377978 0.0425952016795 -1.3773424024e-19)
(-0.108557716016 0.015250126535 -3.82687018297e-20)
(-0.102791857586 0.0110582265752 -1.57525199914e-20)
(-0.114488525706 0.0130689979552 -8.28738485918e-20)
(-0.112103261419 0.00842964225546 -4.1082231577e-20)
(-0.126948906799 0.0138868079565 -1.30754917016e-19)
(-0.116684779808 0.00587110562298 -8.09214652896e-20)
(-0.177145123592 0.0148540329459 -1.48731460749e-19)
(-0.138253569777 0.00873420788728 -1.18617746922e-19)
(-0.157755000778 -0.0160545568135 -9.53912906122e-20)
(-0.206840395738 0.00704885842401 -1.17665938223e-19)
(-0.0877570451714 -0.0259577546284 -8.80572947102e-21)
(-0.106003452019 0.00461263341611 -1.85660497387e-20)
(-0.0995804662974 0.0024266095815 -7.12279210829e-21)
(-0.114353816038 0.0019877880335 -3.91298482749e-20)
(-0.109477814326 -0.000899328065836 -1.7475873215e-20)
(-0.128271093011 0.00467126360625 -6.8784295196e-20)
(-0.119368082662 -0.00331226379882 -3.88869714777e-20)
(-0.16503819596 0.00534995520345 -8.75522243959e-20)
(-0.138932147988 0.00179494395045 -6.5019664057e-20)
(-0.131033653455 -0.022561406813 -3.10803770817e-20)
(-0.178930273806 0.000905895638375 -6.20431245125e-20)
(-0.090483415545 0.00673734995412 3.29687726119e-21)
(-0.102873096947 -0.00308695295739 -6.03261558458e-21)
(-0.0954678104448 -0.00353379953504 -4.30019826437e-21)
(-0.114348420525 -0.00572826726792 -1.72329964178e-20)
(-0.106836272427 -0.00753745964505 -1.0656770894e-20)
(-0.12955088628 -0.00354474229501 -3.51223403387e-20)
(-0.121551546987 -0.0114173985348 -2.27634375232e-20)
(-0.164799672448 -0.00229018084316 -3.95105641736e-20)
(-0.140186667022 -0.0062960122072 -4.50455227928e-20)
(-0.150987797873 0.0221456055047 -2.76658701696e-20)
(-0.203365599822 -0.00673458180121 -3.6449752215e-20)
(-0.110372336386 0.0383865852594 6.40361702053e-21)
(-0.0991046867571 -0.0081174764674 -8.92435357376e-21)
(-0.0909554173739 -0.00717287440548 -7.40730341987e-21)
(-0.113156921667 -0.0119996179495 -1.61872119994e-20)
(-0.102954124761 -0.0114883951674 -1.09161162224e-20)
(-0.13054238172 -0.0129059250271 -3.26866199773e-20)
(-0.120645253338 -0.0178144365045 -1.33334171513e-20)
(-0.181913211997 -0.012755263899 -4.19847108342e-20)
(-0.140337240554 -0.013943554312 -2.92182316185e-20)
(-0.171222193838 0.0199167108206 -2.38026502491e-21)
(-0.236035646364 -0.0206761854466 -2.58835750546e-20)
(-0.113622702819 0.0113142298252 1.11274257666e-20)
(-0.0942851435725 -0.0105930269893 -9.39906606849e-21)
(-0.0869495834701 -0.00955408013999 -6.95798563136e-21)
(-0.108919173346 -0.0155361717559 -8.06232137432e-21)
(-0.0980111070526 -0.013534165131 -1.04205369165e-20)
(-0.12748909509 -0.0208905062724 -9.86502879259e-21)
(-0.115290967781 -0.0221801597454 -7.37640134559e-21)
(-0.192782036305 -0.0271094744112 -1.3117095839e-20)
(-0.134118267369 -0.0204227448062 -1.3135966983e-20)
(-0.174966695613 -0.0114019585179 -1.2375884263e-20)
(-0.251742004483 -0.0371513038321 -1.31367223273e-20)
(-0.102913125748 -0.0333579350432 -1.46801128791e-20)
(-0.0898216845822 -0.0124607944867 -7.97945647932e-21)
(-0.0835385926956 -0.0120193990285 -4.10149855987e-21)
(-0.102798593351 -0.018040859284 -9.73461688772e-21)
(-0.0924312580406 -0.0157876400449 -7.43873962173e-21)
(-0.119444549415 -0.0269819136212 -1.0647339536e-20)
(-0.106349995238 -0.0254044205028 -7.92945906396e-21)
(-0.18819245182 -0.0392212705298 -1.31555934714e-20)
(-0.121878880273 -0.0245047611579 -1.64959426032e-20)
(-0.175850082285 -0.0493153042039 -1.54409509434e-20)
(-0.241647994632 -0.0485176314519 -1.97199977238e-20)
(-0.0971008945992 -0.0663767924427 -7.28035202475e-21)
(-0.0855610528051 -0.0150634588583 -3.56078170229e-21)
(-0.0802287970074 -0.0148306627194 -2.6797744293e-21)
(-0.0953623202231 -0.0209711294975 -5.63358179797e-21)
(-0.0865238849852 -0.0186725176356 -4.05998365367e-21)
(-0.108005003708 -0.0308347600853 -1.37780621312e-20)
(-0.096486470567 -0.027901022526 -9.3210734719e-21)
(-0.169916710926 -0.0448318155099 -2.30603468556e-20)
(-0.107881814689 -0.0255405374355 -2.0122292565e-20)
(-0.158527309137 -0.071951082141 -1.15593988051e-20)
(-0.214527736146 -0.0516861936109 -2.4894192307e-20)
(-0.0986263277592 -0.080162273137 -8.48891780261e-21)
(-0.081242837349 -0.0179040370118 -3.17897638068e-21)
(-0.0768959734469 -0.017555151044 -2.15941363288e-21)
(-0.0878870510206 -0.0233965840208 -7.7474753276e-21)
(-0.0810316813123 -0.0215356758285 -5.48375036325e-21)
(-0.0964212333605 -0.0324172736257 -1.56653039057e-20)
(-0.0874658998341 -0.0292920808864 -1.1835958008e-20)
(-0.14802700826 -0.0450391959914 -2.19561380164e-20)
(-0.0952598815024 -0.0245861861123 -1.9915400711e-20)
(-0.150427918735 -0.0763505408572 -2.18237113045e-20)
(-0.183216184986 -0.0476433779448 -2.04514592691e-20)
(-0.106098866094 -0.0772928585699 -1.87466615951e-20)
(-0.077120356473 -0.0205251895642 -4.46418761545e-21)
(-0.081433074001 -0.0252206564271 -9.57223304367e-21)
(-0.0872530883933 -0.032123417019 -1.60860548133e-20)
(-0.0805632611846 -0.0296978974053 -1.32550141501e-20)
(-0.129610631546 -0.0402819474421 -1.84107219637e-20)
(-0.0871013363983 -0.0232025162043 -1.74770623502e-20)
(-0.138653609407 -0.0638893575604 -1.73744095597e-20)
(-0.159608384985 -0.0407933392012 -8.97408751257e-21)
(-0.108333570038 -0.0685775003629 -7.98565826951e-21)
(-0.0812319306998 -0.0312868427779 -1.46460216869e-20)
(-0.0756340216517 -0.0295763450882 -1.14346279571e-20)
(-0.116981695955 -0.035616264134 -8.04042789903e-21)
(-0.0827718916238 -0.0222561933274 -1.14679430536e-20)
(-0.127992265941 -0.0534685928056 4.14663777583e-22)
(-0.141756109174 -0.036526716656 1.43139542913e-20)
(-0.105911390283 -0.0617608251954 1.38824340396e-20)
(-0.0779060858049 -0.0304341296405 -8.2565493238e-21)
(-0.0725400618813 -0.0298904436486 -6.3426898253e-21)
(-0.108233979124 -0.0327622917591 1.08864391367e-20)
(-0.0804436992673 -0.0224395426753 -3.65011050047e-21)
(-0.120841478644 -0.0470702944918 2.77817245533e-20)
(-0.12744823017 -0.0363232475197 3.30226814852e-20)
(-0.0995131194539 -0.0551563831726 2.67424384344e-20)
(-0.0754791753694 -0.0310400794168 -1.73625100198e-21)
(-0.102131715695 -0.0333583168117 1.8486131848e-20)
(-0.107546137569 -0.0400553714295 3.19833953663e-20)
)
;

boundaryField
{
    back
    {
        type            calculated;
        value           uniform (0 0 0);
    }
    sides
    {
        type            calculated;
        value           nonuniform List<vector> 0();
    }
    bottom
    {
        type            calculated;
        value           nonuniform List<vector> 0();
    }
    front
    {
        type            calculated;
        value           uniform (0 0 0);
    }
    atmosphere
    {
        type            calculated;
        value           nonuniform List<vector> 
27
(
(0 -0.0191026893921 0)
(0.236429248388 0.416115600746 1.13441093162e-18)
(-0.245352100879 0.415812097847 1.11770595776e-18)
(0 -0.00829103453497 0)
(0 -0.0639736042944 0)
(0 -0.0175493948159 0)
(0.025051930112 0.63908182249 6.51267470304e-20)
(-0.408194351829 0.325095976998 -7.13440852171e-21)
(0 -0.035522639083 0)
(-0.111485535597 0.00395418049621 -1.49739843352e-20)
(-0.0217296601584 0.0150836450428 -6.38485948525e-21)
(-0.0295811934536 0.206822016458 -5.5245432094e-20)
(-0.0853804951033 0.0454529068764 -6.16403795085e-20)
(-0.0491476053549 0.0350081400107 -1.23403742278e-19)
(-0.0641173004732 0.105766453444 -2.29938977335e-19)
(0 -0.00975374569038 0)
(0 -0.0198339133098 0)
(-0.111052008738 0.0420342884503 -2.13242896811e-20)
(-0.118539239344 0.0231654332039 3.41315237222e-20)
(0 -0.0221126372816 0)
(0 -0.0551277633006 0)
(0 -0.0704265932149 0)
(0 -0.0688783282475 0)
(0 -0.0616550461794 0)
(0 -0.0558899260251 0)
(0 -0.0534668966441 0)
(0 -0.0503910739678 0)
)
;
    }
    floatingObject
    {
        type            calculated;
        value           nonuniform List<vector> 4((0 0 0) (0 0 0) (-1.38777878078e-16 0 0) (0 0 0));
    }
    procBoundary6to3
    {
        type            processor;
        value           nonuniform List<vector> 8((0.0318261163292 0.0588228318675 8.32742352937e-18) (0.0404969181965 0.0686756783229 5.4245795256e-18) (0.0437974984375 0.073119509751 2.98383045244e-18) (0.0524246644875 0.0917010978767 1.73985232245e-18) (0.0504289483032 0.0899516827031 1.28391269383e-18) (0.0444838466416 0.113229408355 1.17466208968e-18) (0.0166318900205 0.137410748841 1.1535013447e-18) (0.112529894801 0.00466188495831 4.18019027063e-19));
    }
    procBoundary6to7
    {
        type            processor;
        value           nonuniform List<vector> 
11
(
(-0.0894627219481 -0.0036049264855 -4.2366940868e-21)
(-0.0855137993401 -0.00658670655955 -6.11108776484e-21)
(-0.0823847900812 -0.00904911032466 -3.27811424905e-21)
(-0.0797276574576 -0.0117527745485 -2.03228905495e-21)
(-0.0769943162349 -0.0145702031768 -1.37855567148e-21)
(-0.074120931275 -0.0172152525703 -1.3507930829e-21)
(-0.0735870225406 -0.0198959048787 -2.12213984253e-21)
(-0.0763365284766 -0.0238765927059 -6.81862500787e-21)
(-0.0763089978775 -0.026357329279 -1.05014061143e-20)
(-0.0725327513631 -0.027339988515 -6.96840908301e-21)
(-0.0694893370318 -0.028228710033 -3.29012581762e-21)
)
;
    }
    procBoundary6to8
    {
        type            processor;
        value           nonuniform List<vector> 
16
(
(-0.0318582878266 0.0588098499137 8.346176507e-18)
(-0.0405234348628 0.0686614860566 5.44681904634e-18)
(-0.0436826772347 0.0905244058149 4.21483501228e-18)
(-0.038790120201 0.0983432837169 3.26075103184e-18)
(-0.0479294337187 0.0999643502288 1.2681739671e-18)
(-0.0577395237642 0.0977374346758 2.53483865888e-19)
(-0.0673169010435 0.0917020872912 3.27457003682e-20)
(-0.0774339917392 0.0832038509916 -5.26893387074e-22)
(-0.0855926910031 0.0724603846159 -8.69186239147e-21)
(-0.0922611412712 0.0605115924088 -1.62345726993e-20)
(-0.0962342662363 0.0480286695663 -2.40510759131e-20)
(-0.0984291270664 0.0373270555176 -2.02005432124e-20)
(-0.0997798458413 0.0275060003194 -1.76196291591e-20)
(-0.0993826814771 0.0171845565791 -1.32925826181e-20)
(-0.0969383881126 0.00782193727375 -7.50451605162e-21)
(-0.0934501285318 0.00102496164376 -2.14260603518e-21)
)
;
    }
    procBoundary6to9
    {
        type            processor;
        value           nonuniform List<vector> 4((-0.0697287758994 -0.031314901542 -5.18167879161e-21) (-0.0781254123362 -0.0238462413452 -4.15802659377e-21) (-0.120747873066 -0.0398820667876 1.6726096446e-20) (-0.0891785494566 -0.0524183952485 1.32000464039e-20));
    }
}


// ************************************************************************* //
