/*--------------------------------*- C++ -*----------------------------------*\
| =========                 |                                                 |
| \\      /  F ield         | OpenFOAM: The Open Source CFD Toolbox           |
|  \\    /   O peration     | Version:  v2012                                 |
|   \\  /    A nd           | Website:  www.openfoam.com                      |
|    \\/     M anipulation  |                                                 |
\*---------------------------------------------------------------------------*/
FoamFile
{
    version     2.0;
    format      ascii;
    class       volScalarField;
    location    "3.4";
    object      ddt0(epsilon);
}
// * * * * * * * * * * * * * * * * * * * * * * * * * * * * * * * * * * * * * //

dimensions      [0 2 -4 0 0 0 0];


internalField   nonuniform List<scalar> 
164
(
-0.000977075396326
-0.00106018883587
-0.00182797538188
-0.00349042649407
-0.00619990784597
-0.00930558127564
-0.00358892458023
0.430444851891
-0.000922875266964
-0.00140114206808
-0.00261109219485
-0.0043346683025
-0.00675559944842
-0.00875395523375
0.00775291976137
0.0812714050755
-0.000921754864386
-0.00139320364845
-0.00261613724568
-0.0043341457519
-0.00674413154244
-0.00833067758481
0.0106864217748
-0.120818711604
-0.000976994408642
-0.00105758322392
-0.0018205964833
-0.00346853024941
-0.00617559271186
-0.00905899972717
-0.00859139056818
-0.166673226383
-0.0015745502457
-0.00300848556331
-0.00567627716805
-0.0088450876152
0.0259781837091
0.754664774856
-0.00143363666684
-0.00267834311184
-0.0052650730962
-0.00906261794016
-0.00619294755044
0.0658134575431
-0.00128782582339
-0.00236582078716
-0.00489200017038
-0.00886205626096
-0.0229023998659
-0.590528844584
-0.0011871854152
-0.00213833427081
-0.00458695269627
-0.00877258319513
-0.0244190770873
-0.517375472831
-0.00112160639258
-0.00197778867171
-0.00430599313663
-0.0085859138631
-0.0312552597814
-0.286274461893
-0.00109550299503
-0.00190125710017
-0.00411074663936
-0.00850841806394
-0.00871712537409
1.32318345279
-0.00112332993782
-0.00192951710433
-0.00401946183258
-0.00823586855071
0.00249108603752
0.823616212321
-0.00120009447508
-0.00203807473376
-0.0040385215119
-0.00825976854563
-0.0260745148112
-0.0715234366486
-0.00127554158268
-0.00213974324372
-0.00403985202151
-0.0082380093581
-0.0278139490912
-0.156438940824
-0.00126661698482
-0.00213380245092
-0.00393027492429
-0.00758342456544
-0.0238278448765
-0.111037694841
-0.00121809487111
-0.0020655331968
-0.00377791320559
-0.00719610690136
-0.0264196157287
-0.138851718207
-0.00120100320525
-0.00202452022301
-0.0036599848935
-0.00741383491423
-0.0360583463303
-0.210025702943
-0.001205759083
-0.00198189464752
-0.0034430579391
-0.00712093484654
-0.0336912512117
-0.194793665567
-0.00117607992179
-0.00185548774703
-0.00301832986779
-0.0056352126237
-0.0156898639905
-0.736047959599
-0.0011001728741
-0.00164786204426
-0.00256340656916
-0.00563685342344
-0.0280179813709
-0.103692208562
-0.0010040263133
-0.00141314741673
-0.00217289212386
-0.00520296596668
-0.0319142880716
-0.100469296683
-0.000923981677051
-0.00122292507869
-0.00198414107863
-0.00453222492686
-0.0222467685005
-0.100273255993
-0.000889703210655
-0.00120036042055
-0.0016902202393
-0.00345285148799
-0.020566639251
-0.0253465331879
-0.00085545436392
-0.000990457456798
-0.000996850846045
-0.000434550280461
-0.0110294473598
-0.0161117715316
-0.000805199492731
-0.000742705060093
0.000409404239739
0.00513198097024
-0.000550254468515
-0.0131718814349
0.0019522735185
0.0110842437184
0.00798716373841
-0.00992596399905
0.00312404648946
0.0148303870381
0.0108599896206
-0.00827518191756
0.00354879194341
0.0142936600265
0.00753884210994
-0.00993482954679
)
;

boundaryField
{
    back
    {
        type            calculated;
        value           nonuniform List<scalar> 
164
(
-0.000977075396326
-0.00106018883587
-0.00182797538188
-0.00349042649407
-0.00619990784597
-0.00930558127564
-0.00358892458023
0.430444851891
-0.000922875266964
-0.00140114206808
-0.00261109219485
-0.0043346683025
-0.00675559944842
-0.00875395523375
0.00775291976137
0.0812714050755
-0.000921754864386
-0.00139320364845
-0.00261613724568
-0.0043341457519
-0.00674413154244
-0.00833067758481
0.0106864217748
-0.120818711604
-0.000976994408642
-0.00105758322392
-0.0018205964833
-0.00346853024941
-0.00617559271186
-0.00905899972717
-0.00859139056818
-0.166673226383
-0.0015745502457
-0.00300848556331
-0.00567627716805
-0.0088450876152
0.0259781837091
0.754664774856
-0.00143363666684
-0.00267834311184
-0.0052650730962
-0.00906261794016
-0.00619294755044
0.0658134575431
-0.00128782582339
-0.00236582078716
-0.00489200017038
-0.00886205626096
-0.0229023998659
-0.590528844584
-0.0011871854152
-0.00213833427081
-0.00458695269627
-0.00877258319513
-0.0244190770873
-0.517375472831
-0.00112160639258
-0.00197778867171
-0.00430599313663
-0.0085859138631
-0.0312552597814
-0.286274461893
-0.00109550299503
-0.00190125710017
-0.00411074663936
-0.00850841806394
-0.00871712537409
1.32318345279
-0.00112332993782
-0.00192951710433
-0.00401946183259
-0.00823586855071
0.00249108603752
0.823616212321
-0.00120009447508
-0.00203807473376
-0.0040385215119
-0.00825976854563
-0.0260745148112
-0.0715234366486
-0.00127554158268
-0.00213974324372
-0.00403985202151
-0.0082380093581
-0.0278139490912
-0.156438940824
-0.00126661698482
-0.00213380245092
-0.00393027492429
-0.00758342456544
-0.0238278448765
-0.111037694841
-0.00121809487111
-0.0020655331968
-0.00377791320559
-0.00719610690136
-0.0264196157287
-0.138851718207
-0.00120100320525
-0.00202452022301
-0.0036599848935
-0.00741383491423
-0.0360583463303
-0.210025702943
-0.001205759083
-0.00198189464752
-0.0034430579391
-0.00712093484654
-0.0336912512117
-0.194793665567
-0.00117607992179
-0.00185548774703
-0.00301832986779
-0.0056352126237
-0.0156898639905
-0.736047959599
-0.0011001728741
-0.00164786204426
-0.00256340656916
-0.00563685342344
-0.0280179813709
-0.103692208562
-0.0010040263133
-0.00141314741673
-0.00217289212386
-0.00520296596668
-0.0319142880716
-0.100469296683
-0.000923981677051
-0.00122292507869
-0.00198414107863
-0.00453222492686
-0.0222467685005
-0.100273255993
-0.000889703210655
-0.00120036042055
-0.0016902202393
-0.00345285148799
-0.020566639251
-0.0253465331879
-0.00085545436392
-0.000990457456798
-0.000996850846045
-0.000434550280461
-0.0110294473598
-0.0161117715316
-0.000805199492731
-0.000742705060093
0.000409404239739
0.00513198097024
-0.000550254468515
-0.0131718814349
0.0019522735185
0.0110842437184
0.00798716373841
-0.00992596399906
0.00312404648946
0.0148303870381
0.0108599896206
-0.00827518191756
0.00354879194341
0.0142936600265
0.00753884210994
-0.00993482954679
)
;
    }
    sides
    {
        type            calculated;
        value           nonuniform List<scalar> 0();
    }
    bottom
    {
        type            calculated;
        value           nonuniform List<scalar> 0();
    }
    front
    {
        type            calculated;
        value           nonuniform List<scalar> 
164
(
-0.000977075396326
-0.00106018883587
-0.00182797538188
-0.00349042649407
-0.00619990784597
-0.00930558127564
-0.00358892458023
0.430444851891
-0.000922875266964
-0.00140114206808
-0.00261109219485
-0.0043346683025
-0.00675559944842
-0.00875395523375
0.00775291976137
0.0812714050755
-0.000921754864386
-0.00139320364845
-0.00261613724568
-0.0043341457519
-0.00674413154244
-0.00833067758481
0.0106864217748
-0.120818711604
-0.000976994408642
-0.00105758322392
-0.0018205964833
-0.00346853024941
-0.00617559271186
-0.00905899972717
-0.00859139056818
-0.166673226383
-0.0015745502457
-0.00300848556331
-0.00567627716805
-0.0088450876152
0.0259781837091
0.754664774856
-0.00143363666684
-0.00267834311184
-0.0052650730962
-0.00906261794016
-0.00619294755044
0.0658134575431
-0.00128782582339
-0.00236582078716
-0.00489200017038
-0.00886205626096
-0.0229023998659
-0.590528844584
-0.0011871854152
-0.00213833427081
-0.00458695269627
-0.00877258319513
-0.0244190770873
-0.517375472831
-0.00112160639258
-0.00197778867171
-0.00430599313663
-0.0085859138631
-0.0312552597814
-0.286274461893
-0.00109550299503
-0.00190125710017
-0.00411074663936
-0.00850841806394
-0.00871712537409
1.32318345279
-0.00112332993782
-0.00192951710433
-0.00401946183259
-0.00823586855071
0.00249108603752
0.823616212321
-0.00120009447508
-0.00203807473376
-0.0040385215119
-0.00825976854563
-0.0260745148112
-0.0715234366486
-0.00127554158268
-0.00213974324372
-0.00403985202151
-0.0082380093581
-0.0278139490912
-0.156438940824
-0.00126661698482
-0.00213380245092
-0.00393027492429
-0.00758342456544
-0.0238278448765
-0.111037694841
-0.00121809487111
-0.0020655331968
-0.00377791320559
-0.00719610690136
-0.0264196157287
-0.138851718207
-0.00120100320525
-0.00202452022301
-0.0036599848935
-0.00741383491423
-0.0360583463303
-0.210025702943
-0.001205759083
-0.00198189464752
-0.0034430579391
-0.00712093484654
-0.0336912512117
-0.194793665567
-0.00117607992179
-0.00185548774703
-0.00301832986779
-0.0056352126237
-0.0156898639905
-0.736047959599
-0.0011001728741
-0.00164786204426
-0.00256340656916
-0.00563685342344
-0.0280179813709
-0.103692208562
-0.0010040263133
-0.00141314741673
-0.00217289212386
-0.00520296596668
-0.0319142880716
-0.100469296683
-0.000923981677051
-0.00122292507869
-0.00198414107863
-0.00453222492686
-0.0222467685005
-0.100273255993
-0.000889703210655
-0.00120036042055
-0.0016902202393
-0.00345285148799
-0.020566639251
-0.0253465331879
-0.00085545436392
-0.000990457456798
-0.000996850846045
-0.000434550280461
-0.0110294473598
-0.0161117715316
-0.000805199492731
-0.000742705060093
0.000409404239739
0.00513198097024
-0.000550254468515
-0.0131718814349
0.0019522735185
0.0110842437184
0.00798716373841
-0.00992596399906
0.00312404648946
0.0148303870381
0.0108599896206
-0.00827518191756
0.00354879194341
0.0142936600265
0.00753884210994
-0.00993482954679
)
;
    }
    atmosphere
    {
        type            calculated;
        value           nonuniform List<scalar> 
27
(
0.153450420375
-0.0648557305725
4.74548692277
-1.36114284469
0.229227853571
0.355619059742
-0.307771569304
0.105495260141
2.90291052351
-0.102967104777
0.231367081499
1.0000693376
-0.240056413588
-0.14316474591
-0.242884859992
-0.512863925815
-0.491534439782
-1.48250187364
-0.137523485172
-0.0980605992975
-0.0797534222305
4.71759500637e-07
4.12413372631e-06
3.23993184338e-05
8.10975967892e-05
0.000105210239116
-9.67510150885e-07
)
;
    }
    floatingObject
    {
        type            calculated;
        value           nonuniform List<scalar> 4(-0.000977075396326 -0.000922875266964 -0.000921754864386 -0.000976994408642);
    }
    procBoundary6to3
    {
        type            processor;
        value           nonuniform List<scalar> 8(-0.000738993327379 -0.000976269377671 -0.00157864775632 -0.00303608591059 -0.00575533410075 -0.00980615527013 -0.0245971916018 0.159743948335);
    }
    procBoundary6to7
    {
        type            processor;
        value           nonuniform List<scalar> 
11
(
-0.000867788528247
-0.00083889672632
-0.000815067298341
-0.000802820051554
-0.00079548997578
-0.000781335333504
-0.000755585953525
-0.000475758782549
-0.000475758782549
-0.000243443327761
-8.20168636769e-05
)
;
    }
    procBoundary6to8
    {
        type            processor;
        value           nonuniform List<scalar> 
16
(
-0.000740558883635
-0.000976875976921
-0.000976875976921
-0.000959251243276
-0.000924824900319
-0.000897437322638
-0.000878833872782
-0.000870328041971
-0.000878389078919
-0.000905501270771
-0.000934427759469
-0.000926326351492
-0.00090333654466
-0.00089618487726
-0.000899844196868
-0.000891178804107
)
;
    }
    procBoundary6to9
    {
        type            processor;
        value           nonuniform List<scalar> 4(0.00356105782333 0.0132768671503 0.0110039982792 -0.00540553415011);
    }
}


// ************************************************************************* //
