/*--------------------------------*- C++ -*----------------------------------*\
| =========                 |                                                 |
| \\      /  F ield         | OpenFOAM: The Open Source CFD Toolbox           |
|  \\    /   O peration     | Version:  v2012                                 |
|   \\  /    A nd           | Website:  www.openfoam.com                      |
|    \\/     M anipulation  |                                                 |
\*---------------------------------------------------------------------------*/
FoamFile
{
    version     2.0;
    format      ascii;
    class       volScalarField;
    location    "3.4";
    object      ddt0(k);
}
// * * * * * * * * * * * * * * * * * * * * * * * * * * * * * * * * * * * * * //

dimensions      [0 2 -3 0 0 0 0];


internalField   nonuniform List<scalar> 
164
(
-0.00182992992221
-0.00236533736969
-0.00363554976165
-0.00606649225164
-0.00938168100135
-0.0119464563813
-0.00731814688592
-0.00576085025663
-0.00169175141361
-0.0029020650869
-0.00478953632024
-0.00707042322138
-0.00986664380634
-0.0112773889179
-0.000326417491448
0.00164266195585
-0.00168900990608
-0.00289046412643
-0.00479593283809
-0.00707085379593
-0.00985752140604
-0.0108613819231
-0.000104700616842
-0.288504665554
-0.00182890780588
-0.00235921040342
-0.00361844471953
-0.00601905421039
-0.00931679274835
-0.0118311485484
-0.00289686534396
0.248304288305
-0.0033317925342
-0.00554074568225
-0.00892509692699
-0.0117745850772
0.0134516666278
0.129344874001
-0.00309302256212
-0.00510920858447
-0.008554711286
-0.0123934826709
-0.00706649947238
0.113687128706
-0.00281697295149
-0.00463347648575
-0.00814096000677
-0.0123886403152
-0.0184499937548
-0.162156157433
-0.00262305584597
-0.00426498076242
-0.00776318978501
-0.0123038660133
-0.0167024549424
-0.0969279842127
-0.00248934640633
-0.00398614531434
-0.00738235976921
-0.0120556692461
-0.014726191541
0.258259473741
-0.00242559684839
-0.00383663535479
-0.00710553409659
-0.0119953446457
0.00308224920512
0.412585919876
-0.00246477584927
-0.00385904242052
-0.00694028171114
-0.0117614104188
0.000314944327526
0.180319761518
-0.00260429431836
-0.00402262151715
-0.00691638103731
-0.0118591814194
-0.0201973885024
-0.171700040303
-0.00275085706443
-0.00418531054958
-0.00688051650213
-0.0116734025714
-0.0245968432835
-0.130219795936
-0.00272804317153
-0.00415783997036
-0.0066680714366
-0.0106482913627
-0.0220561133456
-0.104197406487
-0.00262074508191
-0.00401016487184
-0.00636253619618
-0.00984199071193
-0.0233798375237
-0.107411545521
-0.00258022749609
-0.00391919626836
-0.00611998238077
-0.00984847542744
-0.0298084358789
-0.153881145545
-0.00259566799135
-0.00384906597726
-0.00576630896962
-0.00942880370725
-0.0283968741001
-0.141410695717
-0.00255030947531
-0.00364126811809
-0.00509210976688
-0.00758913914685
-0.0180814434621
-0.182682208512
-0.00241237716235
-0.00328070400188
-0.00432849066754
-0.00714280901621
-0.0252958480393
-0.084861762258
-0.00222620184846
-0.00285245895085
-0.00366576195302
-0.00642760204719
-0.0292091308617
-0.0763641269441
-0.00206450749332
-0.00248087928478
-0.00315475412353
-0.00529774583345
-0.0207601622443
-0.0755901187239
-0.00196811300587
-0.00226011665256
-0.00279490881845
-0.00383909046268
-0.0111613369011
-0.0199526976821
-0.00191402080941
-0.00198206162124
-0.00146374125152
8.17566082328e-05
-0.00654627448197
-0.00732238179261
-0.00180293575682
-0.00153290544595
0.000572094201993
0.00611059014218
0.000438215855127
-0.00610882165126
0.00288884940723
0.012472800955
0.00647965642754
-0.00463286440466
0.0046451763428
0.0163669146227
0.0092991314394
-0.00379730807612
0.00528948603136
0.015872781277
0.00700252870847
-0.00475734902215
)
;

boundaryField
{
    back
    {
        type            calculated;
        value           nonuniform List<scalar> 
164
(
-0.00182992992221
-0.00236533736969
-0.00363554976165
-0.00606649225164
-0.00938168100135
-0.0119464563813
-0.00731814688592
-0.00576085025663
-0.00169175141361
-0.0029020650869
-0.00478953632024
-0.00707042322138
-0.00986664380634
-0.0112773889179
-0.000326417491448
0.00164266195585
-0.00168900990608
-0.00289046412643
-0.00479593283809
-0.00707085379593
-0.00985752140604
-0.0108613819231
-0.000104700616842
-0.288504665554
-0.00182890780588
-0.00235921040342
-0.00361844471953
-0.00601905421039
-0.00931679274835
-0.0118311485484
-0.00289686534396
0.248304288305
-0.0033317925342
-0.00554074568225
-0.00892509692699
-0.0117745850772
0.0134516666278
0.129344874001
-0.00309302256212
-0.00510920858447
-0.008554711286
-0.0123934826709
-0.00706649947238
0.113687128706
-0.00281697295148
-0.00463347648575
-0.00814096000677
-0.0123886403152
-0.0184499937548
-0.162156157433
-0.00262305584597
-0.00426498076242
-0.00776318978501
-0.0123038660133
-0.0167024549424
-0.0969279842127
-0.00248934640633
-0.00398614531434
-0.00738235976921
-0.0120556692461
-0.014726191541
0.258259473741
-0.00242559684839
-0.00383663535479
-0.00710553409659
-0.0119953446457
0.00308224920512
0.412585919876
-0.00246477584927
-0.00385904242052
-0.00694028171114
-0.0117614104188
0.000314944327526
0.180319761518
-0.00260429431836
-0.00402262151715
-0.00691638103731
-0.0118591814194
-0.0201973885024
-0.171700040303
-0.00275085706443
-0.00418531054958
-0.00688051650213
-0.0116734025714
-0.0245968432835
-0.130219795936
-0.00272804317153
-0.00415783997036
-0.0066680714366
-0.0106482913627
-0.0220561133456
-0.104197406487
-0.00262074508191
-0.00401016487184
-0.00636253619618
-0.00984199071193
-0.0233798375237
-0.107411545521
-0.00258022749609
-0.00391919626836
-0.00611998238077
-0.00984847542744
-0.0298084358789
-0.153881145545
-0.00259566799135
-0.00384906597726
-0.00576630896962
-0.00942880370725
-0.0283968741001
-0.141410695717
-0.00255030947531
-0.00364126811809
-0.00509210976688
-0.00758913914685
-0.0180814434621
-0.182682208512
-0.00241237716235
-0.00328070400188
-0.00432849066754
-0.00714280901621
-0.0252958480393
-0.084861762258
-0.00222620184846
-0.00285245895085
-0.00366576195302
-0.00642760204719
-0.0292091308617
-0.0763641269441
-0.00206450749332
-0.00248087928478
-0.00315475412353
-0.00529774583345
-0.0207601622443
-0.0755901187239
-0.00196811300587
-0.00226011665256
-0.00279490881845
-0.00383909046268
-0.0111613369011
-0.0199526976821
-0.00191402080941
-0.00198206162124
-0.00146374125152
8.17566082327e-05
-0.00654627448197
-0.00732238179261
-0.00180293575682
-0.00153290544595
0.000572094201993
0.00611059014218
0.000438215855126
-0.00610882165126
0.00288884940723
0.012472800955
0.00647965642754
-0.00463286440466
0.0046451763428
0.0163669146227
0.0092991314394
-0.00379730807612
0.00528948603136
0.015872781277
0.00700252870847
-0.00475734902215
)
;
    }
    sides
    {
        type            calculated;
        value           nonuniform List<scalar> 0();
    }
    bottom
    {
        type            calculated;
        value           nonuniform List<scalar> 0();
    }
    front
    {
        type            calculated;
        value           nonuniform List<scalar> 
164
(
-0.00182992992221
-0.00236533736969
-0.00363554976165
-0.00606649225164
-0.00938168100135
-0.0119464563813
-0.00731814688592
-0.00576085025663
-0.00169175141361
-0.0029020650869
-0.00478953632024
-0.00707042322138
-0.00986664380634
-0.0112773889179
-0.000326417491448
0.00164266195585
-0.00168900990608
-0.00289046412643
-0.00479593283809
-0.00707085379593
-0.00985752140604
-0.0108613819231
-0.000104700616842
-0.288504665554
-0.00182890780588
-0.00235921040342
-0.00361844471953
-0.00601905421039
-0.00931679274835
-0.0118311485484
-0.00289686534396
0.248304288305
-0.0033317925342
-0.00554074568225
-0.00892509692699
-0.0117745850772
0.0134516666278
0.129344874001
-0.00309302256212
-0.00510920858447
-0.008554711286
-0.0123934826709
-0.00706649947238
0.113687128706
-0.00281697295148
-0.00463347648575
-0.00814096000677
-0.0123886403152
-0.0184499937548
-0.162156157433
-0.00262305584597
-0.00426498076242
-0.00776318978501
-0.0123038660133
-0.0167024549424
-0.0969279842127
-0.00248934640633
-0.00398614531434
-0.00738235976921
-0.0120556692461
-0.014726191541
0.258259473741
-0.00242559684839
-0.00383663535479
-0.00710553409659
-0.0119953446457
0.00308224920512
0.412585919876
-0.00246477584927
-0.00385904242052
-0.00694028171114
-0.0117614104188
0.000314944327526
0.180319761518
-0.00260429431836
-0.00402262151715
-0.00691638103731
-0.0118591814194
-0.0201973885024
-0.171700040303
-0.00275085706443
-0.00418531054958
-0.00688051650213
-0.0116734025714
-0.0245968432835
-0.130219795936
-0.00272804317153
-0.00415783997036
-0.0066680714366
-0.0106482913627
-0.0220561133456
-0.104197406487
-0.00262074508191
-0.00401016487184
-0.00636253619618
-0.00984199071193
-0.0233798375237
-0.107411545521
-0.00258022749609
-0.00391919626836
-0.00611998238077
-0.00984847542744
-0.0298084358789
-0.153881145545
-0.00259566799135
-0.00384906597726
-0.00576630896962
-0.00942880370725
-0.0283968741001
-0.141410695717
-0.00255030947531
-0.00364126811809
-0.00509210976688
-0.00758913914685
-0.0180814434621
-0.182682208512
-0.00241237716235
-0.00328070400188
-0.00432849066754
-0.00714280901621
-0.0252958480393
-0.084861762258
-0.00222620184846
-0.00285245895085
-0.00366576195302
-0.00642760204719
-0.0292091308617
-0.0763641269441
-0.00206450749332
-0.00248087928478
-0.00315475412353
-0.00529774583345
-0.0207601622443
-0.0755901187239
-0.00196811300587
-0.00226011665256
-0.00279490881845
-0.00383909046268
-0.0111613369011
-0.0199526976821
-0.00191402080941
-0.00198206162124
-0.00146374125152
8.17566082327e-05
-0.00654627448197
-0.00732238179261
-0.00180293575682
-0.00153290544595
0.000572094201993
0.00611059014218
0.000438215855126
-0.00610882165126
0.00288884940723
0.012472800955
0.00647965642754
-0.00463286440466
0.0046451763428
0.0163669146227
0.0092991314394
-0.00379730807612
0.00528948603136
0.015872781277
0.00700252870847
-0.00475734902215
)
;
    }
    atmosphere
    {
        type            calculated;
        value           nonuniform List<scalar> 
27
(
-0.227759797998
0.107582229428
-1.85896431838
2.5582822502
0.604099317183
2.36951017407
-0.27943237267
-0.397067115118
-1.45645624262
-1.72372771027
0.598694266011
-5.08216268418
0.172605134924
-0.234548880142
-0.307984950471
0.0709718407674
0.0818541750943
1.09150814303
-0.182837563608
-0.077599765052
-0.0851802800731
-3.39201692951e-06
-3.1554035267e-06
0.000191369298864
0.000208565268864
0.000212324707049
-2.68917997288e-06
)
;
    }
    floatingObject
    {
        type            calculated;
        value           nonuniform List<scalar> 4(-0.00182992992221 -0.00169175141361 -0.00168900990608 -0.00182890780588);
    }
    procBoundary6to3
    {
        type            processor;
        value           nonuniform List<scalar> 8(-0.00184371784877 -0.00228095935227 -0.00334218569792 -0.00559343657915 -0.00904814457111 -0.0127087317292 -0.0217374602557 -0.0596975639877);
    }
    procBoundary6to7
    {
        type            processor;
        value           nonuniform List<scalar> 
11
(
-0.00199764499602
-0.00194145435919
-0.00189319984887
-0.0018629125458
-0.00184747929264
-0.00181714546684
-0.00169907098266
-0.00103562773647
-0.00103562773647
-0.000587149888261
-0.00026340091953
)
;
    }
    procBoundary6to8
    {
        type            processor;
        value           nonuniform List<scalar> 
16
(
-0.00184392388852
-0.00228109380362
-0.00228109380362
-0.0022208044532
-0.00213649668558
-0.00207549092744
-0.00203356040666
-0.00201022703132
-0.00201954661184
-0.00207037024941
-0.00213058056044
-0.00211229543107
-0.00206059631955
-0.00204405581845
-0.00205488981109
-0.00204165883693
)
;
    }
    procBoundary6to9
    {
        type            processor;
        value           nonuniform List<scalar> 4(0.00534368406553 0.014466049687 0.0090073606801 -0.00280210371059);
    }
}


// ************************************************************************* //
