/*--------------------------------*- C++ -*----------------------------------*\
| =========                 |                                                 |
| \\      /  F ield         | OpenFOAM: The Open Source CFD Toolbox           |
|  \\    /   O peration     | Version:  v2012                                 |
|   \\  /    A nd           | Website:  www.openfoam.com                      |
|    \\/     M anipulation  |                                                 |
\*---------------------------------------------------------------------------*/
FoamFile
{
    version     2.0;
    format      ascii;
    class       surfaceVectorField;
    location    "4.9";
    object      ddtCorrDdt0(Uf);
}
// * * * * * * * * * * * * * * * * * * * * * * * * * * * * * * * * * * * * * //

dimensions      [0 1 -2 0 0 0 0];


internalField   nonuniform List<vector> 
304
(
(-0.186461172861 0.00541126613979 -1.15607268756e-22)
(-0.190831778203 0.0115964699972 -4.79618941512e-22)
(-0.191918473464 0.00576246458055 -2.18969893228e-22)
(-0.194133482699 0.0199731174615 -1.63830300306e-21)
(-0.196927915212 0.0134025594072 -6.67552983582e-22)
(-0.19497661625 0.0309922642974 1.24576806303e-22)
(-0.20093232866 0.0239691767811 -1.85400524852e-21)
(-0.190904460879 0.0464774318565 -5.35977498977e-22)
(-0.202086975555 0.0391273021473 4.10495229725e-21)
(-0.198401751389 0.0709977868443 -4.97834465803e-21)
(-0.19957643428 0.059322405699 -4.10043016134e-21)
(-0.152930634357 0.104707126844 -7.89770983423e-21)
(-0.226788856119 0.0463429990533 -1.50078021447e-21)
(-0.112808106846 0.268564487536 4.80138047761e-21)
(-0.173445241332 0.12962989827 1.2614288131e-20)
(-0.165916204299 0.313669283976 2.74012160729e-20)
(-0.19865042574 0.00652631223059 -4.06903935299e-22)
(-0.198815821722 -0.000828608961979 -1.99854716102e-22)
(-0.204780796108 0.0161140769177 -8.8325522904e-22)
(-0.206540590538 0.00740006232204 -5.52516857534e-22)
(-0.209520363678 0.0292424575525 2.12637024243e-21)
(-0.214081899005 0.0191456708295 -5.08862600708e-22)
(-0.211535496599 0.0470642694286 5.40499634885e-22)
(-0.219921433221 0.0344050193698 4.2995884582e-21)
(-0.228049637281 0.0710768500835 -6.22865717787e-22)
(-0.223593064574 0.055011969292 -2.97401117407e-22)
(-0.240246123397 0.10595147078 1.90112177508e-20)
(-0.261663659123 0.0410853490624 7.18927623191e-21)
(-0.221301140724 0.217074659239 3.52141237264e-20)
(-0.28457089513 0.116447787178 3.39411383983e-20)
(-0.230700453953 0.247220224673 3.17239922226e-20)
(-0.206964160871 -0.00127040660603 -3.45467638337e-22)
(-0.205752586666 -0.00991553320097 -1.77445452774e-22)
(-0.216280164109 0.0085512694734 -1.78124229202e-22)
(-0.216380126199 -0.00183417104093 -6.04937589763e-22)
(-0.225036984038 0.0220376904388 1.66435561506e-21)
(-0.227580391618 0.0101371391869 6.81669144214e-22)
(-0.232264739579 0.0402516075542 3.46168770591e-21)
(-0.238142108222 0.0242906121055 -2.26394324586e-21)
(-0.256821902864 0.0640356021345 7.51474083229e-21)
(-0.247378564832 0.0481677878082 9.54693561299e-22)
(-0.299595438908 0.093899501431 2.21191968794e-20)
(-0.29152769527 0.0343029720849 1.1268593854e-20)
(-0.291615063014 0.153263184951 3.04510068945e-20)
(-0.34390791463 0.0967171694699 3.35157232734e-20)
(-0.285729963438 0.227944198684 3.29925714879e-20)
(-0.203369906827 -0.0182788591394 -1.03966149073e-22)
(-0.199625147655 -0.0262186133516 -3.65990538051e-23)
(-0.215085549983 -0.0119073738156 -4.369154042e-22)
(-0.212142447555 -0.0216324900774 -2.66262326529e-22)
(-0.227657440244 -0.00250484435533 2.54855783652e-22)
(-0.225795371814 -0.0144005684314 -6.87535225109e-22)
(-0.240955440392 0.0106690099769 -3.24662971671e-21)
(-0.240762526235 -0.00306430828112 -1.00045357836e-21)
(-0.254478312808 0.0299946594623 -4.77093739047e-21)
(-0.257470378107 0.00974610481604 -6.9179835414e-21)
(-0.284847597608 0.0569384940677 4.70854658301e-21)
(-0.274323229223 0.0346172473263 8.00806450509e-22)
(-0.347688066575 0.0856843624764 2.2665120248e-20)
(-0.320273557464 0.0207876115582 9.55598608489e-21)
(-0.342984134031 0.164495728198 3.60572878668e-20)
(-0.422688705021 0.075773254671 4.84501956291e-21)
(-0.324180455446 0.239103806222 8.63870363893e-21)
(-0.20798654109 -0.0307453271706 -1.98895231261e-22)
(-0.202483200106 -0.039239305338 -1.55976971137e-22)
(-0.222431200326 -0.0255247352229 -5.16882147438e-22)
(-0.217380403063 -0.0360681593084 -5.01239915584e-22)
(-0.238403080078 -0.0171727130501 -1.94284458712e-21)
(-0.234160133431 -0.0304090286167 -1.3828409261e-21)
(-0.256367927695 -0.00502512719523 -4.67180740306e-21)
(-0.252916191322 -0.020801998792 -3.15054099412e-21)
(-0.276050123197 0.0117498782491 -1.34623970043e-21)
(-0.274248760012 -0.0107424119523 -2.4389899136e-21)
(-0.310826391863 0.0337015776072 5.64824595239e-21)
(-0.296275900364 0.00921056594653 8.23455965357e-21)
(-0.416274049107 0.0613800864126 -8.26411460023e-21)
(-0.347952026089 -0.00381640443731 2.09702893775e-21)
(-0.412939541886 0.189028611107 -2.2573564665e-20)
(-0.550346110009 0.0331733648789 -6.73630697109e-20)
(-0.321936172084 0.146736954421 -5.68131109553e-20)
(-0.211169425123 -0.0457067339185 -4.5832165546e-22)
(-0.203615734424 -0.0543752302775 -2.18113804754e-22)
(-0.228323637471 -0.0422707160615 -1.36719869425e-21)
(-0.220837000139 -0.0531983076998 -6.57835399943e-22)
(-0.247696555515 -0.0359321377892 -2.5905373331e-21)
(-0.240513278771 -0.0497728955715 -2.20336513752e-21)
(-0.269121717728 -0.02618983648 -9.17723504669e-22)
(-0.262669753995 -0.0425138085355 -1.79113913419e-21)
(-0.290933970523 -0.0140055723347 7.14180944039e-21)
(-0.286440137255 -0.0369413574939 -3.01858922527e-21)
(-0.326662653409 -0.00378694655136 4.68334263893e-21)
(-0.306498719953 -0.022222237581 1.06638122521e-20)
(-0.461267138181 0.00246003421724 -5.70019261729e-20)
(-0.354200174654 -0.0339308620405 -4.89842214865e-22)
(-0.446329111311 0.0401932559691 -1.01602616001e-19)
(-0.588112965752 -0.0286071046626 -1.21692178552e-19)
(-0.326427056405 -0.064489713023 -8.49301413055e-20)
(-0.195242509177 -0.0619446038442 -1.54701493297e-22)
(-0.185879778594 -0.0683516673533 -1.00474463138e-22)
(-0.212352229496 -0.0629956269635 -4.17627549237e-22)
(-0.202592750861 -0.0714965230433 -1.84959279789e-22)
(-0.232036104463 -0.0618860185734 -1.49400184322e-21)
(-0.221973917358 -0.072830099346 -5.44283759773e-22)
(-0.254476164082 -0.0581726467217 -1.40396693861e-21)
(-0.244252782722 -0.0721740990883 -2.15708917921e-21)
(-0.278736049282 -0.0514473892921 -3.89200485479e-21)
(-0.269418405938 -0.0671492431908 -6.33439393926e-22)
(-0.299974894095 -0.042922347913 5.03413586418e-22)
(-0.294984054253 -0.0662007703566 -1.1837928e-20)
(-0.326536829464 -0.0389803139881 5.49062739828e-21)
(-0.310453787776 -0.051034165657 1.89729675287e-21)
(-0.436263759908 -0.0600180225423 -6.51800945939e-20)
(-0.333167394118 -0.0625945206794 -3.15087684908e-21)
(-0.456629452236 -0.188609257377 -1.05019703856e-19)
(-0.459476301578 -0.0701526222227 -6.64368658e-20)
(-0.404881694828 -0.143081959631 -3.16624273471e-20)
(-0.176000638051 -0.0735797719831 -5.04135169493e-23)
(-0.165515098424 -0.0775260838375 -1.96804524204e-23)
(-0.192115924926 -0.0786949338787 -1.30732249631e-22)
(-0.180796710915 -0.0844607952719 -6.35127413956e-23)
(-0.211005326806 -0.0824296673722 -3.11615490326e-22)
(-0.198896564545 -0.090399258056 -1.64069903279e-22)
(-0.232995776798 -0.0842612117506 -1.20737109576e-21)
(-0.220187998989 -0.0947570869612 -4.4189286839e-22)
(-0.258198121647 -0.0835260666284 -1.38656163452e-21)
(-0.245038599256 -0.0974435183407 -1.55538247913e-21)
(-0.285563084135 -0.0798314064338 -8.57936253912e-21)
(-0.273162000475 -0.0944612285674 -2.30660221793e-21)
(-0.307424466429 -0.0721914103345 -1.04440448335e-20)
(-0.302668130656 -0.0973754929193 -1.54763520802e-20)
(-0.32226828982 -0.0638077824176 -6.74420749448e-21)
(-0.318865320308 -0.0754713563008 -4.10079563043e-21)
(-0.377328388709 -0.0715998510641 -4.4076480552e-21)
(-0.325385463872 -0.0847209788104 -9.32358571949e-21)
(-0.423481759696 -0.125016392914 6.92041070908e-21)
(-0.406019863541 -0.0708819258755 2.04542281521e-20)
(-0.488571331684 0.0362021533507 3.71366500071e-20)
(-0.169106050749 -0.0888546384191 -3.27796768667e-23)
(-0.186207732919 -0.096826999242 -9.68503950434e-23)
(-0.172880443918 -0.101540983227 -5.49521649595e-23)
(-0.206578427677 -0.103787019736 -2.94347281343e-22)
(-0.192002150125 -0.110778240982 -1.61252225694e-22)
(-0.230741010187 -0.109127216338 -7.89904251762e-22)
(-0.214931570591 -0.118870208516 -4.43616502133e-22)
(-0.258855716153 -0.111888860877 -2.47542306254e-21)
(-0.242371146494 -0.125692904225 -7.22782753531e-22)
(-0.290803106401 -0.110829614525 -9.20359175898e-21)
(-0.274317706833 -0.126046570844 -3.48898739301e-21)
(-0.318322523497 -0.101549574702 -9.13310287707e-21)
(-0.312031177437 -0.132419614144 -8.72946464743e-21)
(-0.33652156677 -0.0826029865753 -6.68017385543e-21)
(-0.337863844089 -0.104867390928 -6.09378762315e-21)
(-0.412130450649 -0.0452503139155 1.55382904878e-20)
(-0.362755036227 -0.104427230561 -3.04411286133e-21)
(-0.47775283144 0.103542379433 5.06704674501e-20)
(-0.554874228352 -0.0697271159692 1.41964651551e-20)
(-0.446689421763 0.120799517245 2.9950442407e-20)
(-0.177045491135 -0.115933371002 -1.1935399561e-22)
(-0.161762534809 -0.119149171748 -7.26508366911e-23)
(-0.198448530919 -0.126715418968 -3.10521446484e-22)
(-0.181337803189 -0.132183318899 -1.35005382082e-22)
(-0.224452765035 -0.136480663383 -3.76495003902e-22)
(-0.20531285243 -0.144861718756 -3.92010284233e-22)
(-0.255852898586 -0.144017883039 -1.736347084e-21)
(-0.235000192464 -0.157195114013 -5.18218784873e-22)
(-0.294336981364 -0.146818727084 -3.01486028145e-21)
(-0.271681917597 -0.164079916752 -1.86036032288e-21)
(-0.333427406744 -0.13984011527 -5.6901493935e-21)
(-0.319150274543 -0.176635442084 -4.71960504877e-21)
(-0.368296185546 -0.113399762402 -2.45772662905e-21)
(-0.36439010898 -0.155241929006 -4.43617222947e-21)
(-0.502864101067 -0.06973840189 -4.38593819398e-21)
(-0.40644432647 -0.147241603937 -1.11532911492e-22)
(-0.52485346591 0.0311596973055 -6.523559888e-21)
(-0.655857779726 -0.126638978618 -3.33590340516e-20)
(-0.404001615016 -0.0222982937682 -3.21241571816e-20)
(-0.164172287247 -0.135483437462 -8.83022231626e-23)
(-0.147129962304 -0.136653664693 -3.54933610537e-23)
(-0.185821864772 -0.150732132817 -2.16494219831e-22)
(-0.166289370398 -0.153826909334 -9.42233462295e-23)
(-0.212807901158 -0.166081463081 -5.33734065204e-22)
(-0.190208010571 -0.171854919934 -4.45620247942e-22)
(-0.24688665825 -0.180879428443 -6.42232023758e-22)
(-0.220467623747 -0.191340666114 -8.59388223011e-22)
(-0.291291134386 -0.192634142035 -3.5651050902e-21)
(-0.260186251395 -0.208133827226 -5.63735141491e-22)
(-0.343962243466 -0.1978506871 -3.46562788474e-21)
(-0.314148118196 -0.234076314486 -6.56047880001e-21)
(-0.396179398196 -0.188016428554 -2.08997851192e-21)
(-0.374355012117 -0.235946966759 9.34365359406e-21)
(-0.542571134873 -0.167049284835 -2.90846287691e-20)
(-0.42745084865 -0.228409824682 -1.26859520843e-20)
(-0.533955954685 -0.132901698828 -5.89596313452e-20)
(-0.690231805619 -0.273316332253 -1.06289839437e-19)
(-0.382373180349 -0.220250968198 -8.66669925545e-20)
(-0.14726258108 -0.154601070396 -4.14144841206e-23)
(-0.128909975906 -0.153211410132 1.39267108734e-23)
(-0.167977851434 -0.174651968837 -3.23349374341e-22)
(-0.14655611538 -0.174533522156 -1.39786213222e-22)
(-0.19418204131 -0.196526552881 -7.71274405749e-22)
(-0.168702677042 -0.198059839715 -6.74084509641e-22)
(-0.228062150866 -0.220378092672 -7.80891340744e-22)
(-0.197008464996 -0.225213167519 -9.27650099176e-22)
(-0.27352143081 -0.246620224119 -3.55910885131e-21)
(-0.234314130934 -0.25348342287 -6.3121775411e-22)
(-0.329674830219 -0.275159735905 6.24880267879e-21)
(-0.285912284337 -0.297048287657 -8.83738778294e-21)
(-0.380508781289 -0.308804883577 -1.25231997833e-21)
(-0.340890873964 -0.328744994368 3.76044732186e-20)
(-0.539395043492 -0.351914516731 -8.98911627525e-20)
(-0.384399890023 -0.327299729781 -2.82797566872e-20)
(-0.53598253805 -0.389622885772 -1.33997200647e-19)
(-0.652512826811 -0.445581401824 -1.27613512046e-19)
(-0.34326977419 -0.497697202006 -7.66620983051e-20)
(-0.12639813519 -0.172252599642 -8.44450182278e-23)
(-0.107429563644 -0.167932647686 2.64958484917e-23)
(-0.144806923365 -0.196785274031 -4.90521348522e-22)
(-0.122495006433 -0.192922222595 -1.80900162486e-22)
(-0.167998187853 -0.224779849636 -8.30460203068e-22)
(-0.141228996637 -0.221214612988 -7.08740933861e-22)
(-0.197667259788 -0.257497626558 -7.77976512542e-22)
(-0.164821576325 -0.25475240883 -1.10178486396e-21)
(-0.236650447568 -0.297901275334 -5.90949668575e-21)
(-0.194405037618 -0.292332283136 -2.0985394421e-21)
(-0.280017716155 -0.351761908364 2.25182827569e-20)
(-0.232446468501 -0.348269896382 -1.97675176663e-20)
(-0.311869953939 -0.430191640669 1.05770365098e-20)
(-0.262697314233 -0.398939731495 2.90358849416e-20)
(-0.429663717743 -0.542894413829 -6.60021059802e-20)
(-0.271776528679 -0.397578159227 -2.92510914139e-20)
(-0.468615769655 -0.714344282145 -7.02784097042e-20)
(-0.48065155624 -0.536702155631 -7.5419617703e-20)
(-0.569515971236 -0.677166863453 -2.50662165771e-20)
(-0.102022682127 -0.187298627917 -6.99592957664e-23)
(-0.0831336023141 -0.180061115404 3.72097963573e-23)
(-0.117013716585 -0.215568753043 -3.99119747825e-22)
(-0.0948451357457 -0.207883194254 -2.14805129333e-22)
(-0.135584446937 -0.248227996483 -9.80065594754e-22)
(-0.109235596267 -0.23969829298 -6.58813250359e-22)
(-0.158342806874 -0.287002748723 -2.42234779352e-21)
(-0.126715819279 -0.277290734453 -4.92415264982e-22)
(-0.186107346173 -0.334920300639 -1.59565604226e-20)
(-0.147092391853 -0.319493731976 -3.74600813305e-21)
(-0.210883230052 -0.39732788707 -1.32499154816e-20)
(-0.170520009979 -0.379454823439 -1.74580213484e-20)
(-0.213729071461 -0.480808744458 -1.07922429821e-20)
(-0.179499288102 -0.432830292048 2.04175373098e-20)
(-0.305786251739 -0.596937197156 -3.86686031367e-20)
(-0.155735467863 -0.415546729602 -5.12587182012e-20)
(-0.620600550594 -0.698429485862 -3.0207424576e-20)
(-0.379198406454 -0.544085811861 6.14406793843e-20)
(-0.969124195938 -0.70124283136 1.5679573207e-19)
(-0.0658357313749 -0.171892441201 8.31776786855e-23)
(-0.0501049238824 -0.162637130101 7.74171569088e-23)
(-0.0748414745573 -0.199031965939 -1.07636037209e-22)
(-0.0566838853518 -0.189095456676 -2.49464254646e-23)
(-0.0858349270864 -0.229923835268 -4.74498631867e-22)
(-0.0647047125905 -0.21890026297 -2.28338130702e-22)
(-0.0991687718226 -0.265575399047 -1.71162920587e-22)
(-0.0743767229076 -0.252972113937 -6.04809405609e-22)
(-0.114733534909 -0.307207623083 -1.81607560451e-21)
(-0.0858559785076 -0.292625617342 -2.23776618903e-23)
(-0.132236254178 -0.356621637403 -5.24746905883e-21)
(-0.0983666297833 -0.335760369169 -1.32223263175e-21)
(-0.141826899534 -0.415861347084 1.62094314429e-20)
(-0.111813552406 -0.394685839194 -2.44129016019e-21)
(-0.130989817267 -0.487374703432 -2.00489379093e-20)
(-0.108287727569 -0.433753830444 1.85093324654e-20)
(-0.245341379443 -0.568445278694 4.88505643198e-20)
(-0.0747649037067 -0.410394011366 -5.10213247704e-20)
(-0.741629205743 -0.555770128006 2.4844383603e-19)
(-0.391511182488 -0.484695607498 4.86797590793e-19)
(-0.517522501039 -0.959813292348 1.25240873669e-18)
(-0.0402912784812 -0.17855636157 -3.07069472413e-23)
(-0.02550322469 -0.167013922636 -5.1251995658e-23)
(-0.0457950290855 -0.207189955118 -1.45648518957e-22)
(-0.0288522735688 -0.194454950518 -7.77607700421e-23)
(-0.0524330516602 -0.239808827986 -3.58648904444e-22)
(-0.0329304592842 -0.225409937895 -2.66223673323e-22)
(-0.0604346842744 -0.277170707784 -4.56024146912e-22)
(-0.0378714718414 -0.260685898936 -1.11989198655e-21)
(-0.0698941071393 -0.320012215263 4.71465310874e-22)
(-0.0438317373812 -0.30156603025 4.17441394614e-23)
(-0.0825211805813 -0.368129945677 1.48394626689e-21)
(-0.0509569155042 -0.345706191801 3.59683688307e-22)
(-0.0944541789988 -0.416489411867 -1.41389137717e-22)
(-0.0639870201949 -0.404615450622 -2.59640719383e-22)
(-0.0983384598723 -0.451214912705 -1.24630543957e-20)
(-0.0738535379568 -0.451753356571 8.12926263373e-20)
(-0.353477471526 -0.486267929329 3.86925701702e-19)
(-0.0398017286177 -0.459240646534 6.49595046705e-19)
(2.68481590193 -0.252096438948 1.49076249145e-18)
(-0.625765467651 -0.441735236835 -7.54653772022e-19)
(1.49765725157 -1.00171532211 -1.7450213818e-18)
(-0.0140107363844 -0.181531940129 -9.83058184588e-23)
(-0.0159189970942 -0.210811539648 -1.98335924408e-22)
(-0.0182775596541 -0.244179972328 -1.02746675543e-21)
(-0.0211826098275 -0.282481501229 -6.22123700175e-22)
(-0.0247594240322 -0.326700884615 -7.00374831058e-23)
(-0.030143539787 -0.377972971103 -1.38390329797e-21)
(-0.0376643300865 -0.442170396253 8.11743747556e-20)
(0.0035512188862 -0.516106128209 7.43350727438e-19)
(-0.244365182222 -0.555895232217 -4.9198442702e-19)
(-7.67942219629 -1.1826152723 -3.99043764527e-18)
)
;

boundaryField
{
    back
    {
        type            calculated;
        value           uniform (0 0 0);
    }
    sides
    {
        type            calculated;
        value           uniform (0 0 0);
    }
    bottom
    {
        type            calculated;
        value           nonuniform List<vector> 0();
    }
    front
    {
        type            calculated;
        value           uniform (0 0 0);
    }
    atmosphere
    {
        type            calculated;
        value           nonuniform List<vector> 
17
(
(-8.00515152944e-05 0.349779728343 1.34790146434e-25)
(0.000253066497618 0.281857773379 -5.42251291098e-23)
(0.000197136182419 0.208267583444 -1.06732677501e-22)
(0.000588237987081 0.202919483088 -6.73318917568e-23)
(-0.00444013849574 0.186792796285 -4.15783533283e-22)
(-0.00681327672501 0.0447113890907 -2.07362494473e-21)
(0.0096168098811 -0.110205163194 -2.08141525289e-21)
(0.0160345912886 -0.0413813387507 -8.24449115978e-21)
(-0.0903638713408 0.0616935705345 5.23265675245e-20)
(-0.0496589598511 -0.0115080042229 1.16614265556e-20)
(-0.011182112425 -0.154378923172 -3.10807617054e-21)
(-0.194821686955 -0.428851782389 1.24978301259e-19)
(0.339812351765 -0.488587229578 -3.47770287019e-19)
(-0.00204473699025 -0.298962864103 5.71705403549e-23)
(-0.316252858046 -1.00778423119 8.1174474638e-21)
(-0.0694656760693 -2.26737067095 -3.48912886419e-18)
(-10.2043514637 0.316132185079 -3.55734046994e-17)
)
;
    }
    floatingObject
    {
        type            calculated;
        value           nonuniform List<vector> 0();
    }
    procBoundary11to9
    {
        type            processor;
        value           nonuniform List<vector> 9((-0.181694440172 0.00526006016277 -7.3842082099e-24) (-0.185662298906 0.0101814849093 -1.64245300753e-22) (-0.188478297025 0.016579471066 -7.80789302167e-22) (-0.189838651906 0.02453132574 -2.28664584022e-21) (-0.186551053344 0.0363492249027 1.89198745793e-22) (-0.175032659128 0.0591730445087 -5.23449416501e-21) (-0.193076531465 0.0500828656674 -2.29902813377e-21) (-0.00957142169935 0.115968154383 -9.55588784525e-21) (-0.0846976370988 0.358857552071 9.07593502738e-21));
    }
    procBoundary11to10
    {
        type            processor;
        value           nonuniform List<vector> 
23
(
(-0.181437661721 0.000881455397756 -3.82080423308e-23)
(-0.186245928933 0.000182840646271 -5.0081058597e-23)
(-0.192089252825 -0.00034353904542 -1.5344368307e-22)
(-0.197895435793 -0.00818246181512 -9.16655711327e-23)
(-0.195660071061 -0.0153679828521 -1.81862674326e-23)
(-0.192519753778 -0.0222109229069 -3.21804731632e-24)
(-0.194965157708 -0.0335603716112 -4.55646374256e-23)
(-0.196036293931 -0.0468112859697 -1.39740508953e-22)
(-0.188554432135 -0.0535425419816 -7.63281974957e-23)
(-0.180427962999 -0.0592463536731 -7.0932991811e-23)
(-0.171557418232 -0.0638977299245 -2.08720456218e-23)
(-0.162350648799 -0.0674940294564 -1.15272562689e-23)
(-0.154829445814 -0.0802930432796 -3.13484618131e-23)
(-0.156991342106 -0.0917791505392 -3.65675285718e-23)
(-0.159408945741 -0.104704393568 -5.87400166646e-23)
(-0.146639871049 -0.120649578513 -5.38350677188e-23)
(-0.130678990954 -0.136039206679 -8.38876209654e-24)
(-0.111639763747 -0.150111361268 1.74081692645e-23)
(-0.089859979171 -0.162246452351 -3.96993533367e-25)
(-0.0734803372268 -0.155312464575 4.55708887948e-23)
(-0.0585241214174 -0.147473495137 -1.48852968699e-23)
(-0.0357816608603 -0.152867096489 -1.86178080483e-23)
(-0.0124467797098 -0.155306365034 -1.06192257956e-22)
)
;
    }
}


// ************************************************************************* //
