/*--------------------------------*- C++ -*----------------------------------*\
| =========                 |                                                 |
| \\      /  F ield         | OpenFOAM: The Open Source CFD Toolbox           |
|  \\    /   O peration     | Version:  v2012                                 |
|   \\  /    A nd           | Website:  www.openfoam.com                      |
|    \\/     M anipulation  |                                                 |
\*---------------------------------------------------------------------------*/
FoamFile
{
    version     2.0;
    format      ascii;
    class       volScalarField;
    location    "4.9";
    object      p;
}
// * * * * * * * * * * * * * * * * * * * * * * * * * * * * * * * * * * * * * //

dimensions      [1 -1 -2 0 0 0 0];


internalField   nonuniform List<scalar> 
167
(
3060.59800078
2570.6389743
2080.37321053
1589.70511006
1098.62558011
606.545899586
184.369954529
0.48434853549
-9.5651958865
2579.27046802
2089.16956273
1598.59947825
1107.42900574
615.117513461
190.268872113
1.89080901778
-9.56150237141
2588.23568646
2098.42249462
1608.09969761
1117.06590894
624.860116938
196.982041591
3.61379980467
-9.56393483428
3086.57758689
2597.54892597
2108.16504153
1618.27506158
1127.64121432
635.894428717
204.767050605
5.67193582197
-9.57227447782
3095.68866768
2607.1969073
2118.39513066
1629.13616767
1139.20748022
648.376353358
214.114213649
8.29478676357
-9.58952450924
3104.9685225
2617.13549947
2129.06709788
1640.62796545
1151.64622503
662.055873118
224.964751872
11.7064655956
-9.60624270214
3601.38215207
3114.34587223
2627.28768136
2140.09139079
1652.62790945
1164.72024227
676.380554506
236.265420831
15.3189683019
-9.60965997527
4096.4396692
3609.9942561
3123.7230218
2637.54844025
2151.35707569
1665.01505406
1178.26078335
691.106372889
247.136797937
18.345439871
-9.60106353307
4104.14558909
3618.41018583
3132.97812151
2647.78941531
2162.73935225
1677.69519986
1192.28899145
706.470517081
258.320108576
21.3410413977
-9.58983676125
3626.49706692
3141.9615161
2657.84790029
2174.08456984
1690.56913393
1206.91543016
723.062063327
271.774382776
25.8196120091
-9.59850301856
3634.09981268
3150.48763709
2667.51041918
2185.1586972
1703.41348567
1222.00060526
741.044031128
287.618256352
31.686872189
-9.63807000037
3641.04520379
3158.33820175
2676.49662043
2195.59615399
1715.76062995
1236.92780991
759.666289666
305.125262254
38.5261276543
-9.69269265323
3647.1511827
3165.2733715
2684.47806146
2204.92671487
1726.88898094
1250.53291584
776.918423729
322.034752472
45.9179518202
-9.72891929557
3652.24001307
3171.06407363
2691.14291798
2212.69163251
1736.05735415
1261.52282294
790.415046476
335.169593002
52.0781893241
-9.73430444112
4137.99766204
3656.16620457
3175.52787022
2696.25479619
2218.57338559
1742.8208174
1269.23440466
799.131598851
343.859292456
56.6253444674
-9.71036222722
4140.35652981
3658.82252465
3178.54068223
2699.68281695
2222.45077903
1747.09753923
1273.62121359
802.919185734
348.181437671
59.6599623454
-9.70668652561
4141.52415016
3660.1365332
3180.02723993
2701.36556947
2224.33224026
1749.12542804
1275.70575055
804.406325764
353.998323327
67.024611241
-9.65351507136
)
;

boundaryField
{
    back
    {
        type            calculated;
        value           nonuniform List<scalar> 
167
(
3060.59800078
2570.6389743
2080.37321053
1589.70511006
1098.62558011
606.545899586
184.369954529
0.48434853549
-9.5651958865
2579.27046802
2089.16956273
1598.59947825
1107.42900574
615.117513461
190.268872113
1.89080901778
-9.56150237141
2588.23568646
2098.42249462
1608.09969761
1117.06590894
624.860116938
196.982041591
3.61379980467
-9.56393483428
3086.57758689
2597.54892597
2108.16504153
1618.27506158
1127.64121432
635.894428717
204.767050605
5.67193582197
-9.57227447782
3095.68866768
2607.1969073
2118.39513066
1629.13616767
1139.20748022
648.376353358
214.114213649
8.29478676357
-9.58952450924
3104.9685225
2617.13549947
2129.06709788
1640.62796545
1151.64622503
662.055873118
224.964751872
11.7064655956
-9.60624270214
3601.38215207
3114.34587223
2627.28768136
2140.09139079
1652.62790945
1164.72024227
676.380554506
236.265420831
15.3189683019
-9.60965997527
4096.4396692
3609.9942561
3123.7230218
2637.54844025
2151.35707569
1665.01505406
1178.26078335
691.106372889
247.136797937
18.345439871
-9.60106353307
4104.14558909
3618.41018583
3132.97812151
2647.78941531
2162.73935225
1677.69519986
1192.28899145
706.470517081
258.320108576
21.3410413977
-9.58983676125
3626.49706692
3141.9615161
2657.84790029
2174.08456984
1690.56913393
1206.91543016
723.062063327
271.774382776
25.8196120091
-9.59850301856
3634.09981268
3150.48763709
2667.51041918
2185.1586972
1703.41348567
1222.00060526
741.044031128
287.618256352
31.686872189
-9.63807000037
3641.04520379
3158.33820175
2676.49662043
2195.59615399
1715.76062995
1236.92780991
759.666289666
305.125262254
38.5261276543
-9.69269265323
3647.1511827
3165.2733715
2684.47806146
2204.92671487
1726.88898094
1250.53291584
776.918423729
322.034752472
45.9179518202
-9.72891929557
3652.24001307
3171.06407363
2691.14291798
2212.69163251
1736.05735415
1261.52282294
790.415046476
335.169593002
52.0781893241
-9.73430444112
4137.99766204
3656.16620457
3175.52787022
2696.25479619
2218.57338559
1742.8208174
1269.23440466
799.131598851
343.859292456
56.6253444674
-9.71036222722
4140.35652981
3658.82252465
3178.54068223
2699.68281695
2222.45077903
1747.09753923
1273.62121359
802.919185734
348.181437671
59.6599623454
-9.70668652561
4141.52415016
3660.1365332
3180.02723993
2701.36556947
2224.33224026
1749.12542804
1275.70575055
804.406325764
353.998323327
67.024611241
-9.65351507136
)
;
    }
    sides
    {
        type            calculated;
        value           nonuniform List<scalar> 
11
(
4141.52415016
3660.1365332
3180.02723993
2701.36556947
2224.33224026
1749.12542804
1275.70575055
804.406325764
353.998323327
67.024611241
-9.65351507136
)
;
    }
    bottom
    {
        type            calculated;
        value           nonuniform List<scalar> 0();
    }
    front
    {
        type            calculated;
        value           nonuniform List<scalar> 
167
(
3060.59800078
2570.6389743
2080.37321053
1589.70511006
1098.62558011
606.545899586
184.369954529
0.48434853549
-9.5651958865
2579.27046802
2089.16956273
1598.59947825
1107.42900574
615.117513461
190.268872113
1.89080901778
-9.56150237141
2588.23568646
2098.42249462
1608.09969761
1117.06590894
624.860116938
196.982041591
3.61379980467
-9.56393483428
3086.57758689
2597.54892597
2108.16504153
1618.27506158
1127.64121432
635.894428717
204.767050605
5.67193582197
-9.57227447782
3095.68866768
2607.1969073
2118.39513066
1629.13616767
1139.20748022
648.376353358
214.114213649
8.29478676357
-9.58952450924
3104.9685225
2617.13549947
2129.06709788
1640.62796545
1151.64622503
662.055873118
224.964751872
11.7064655956
-9.60624270214
3601.38215207
3114.34587223
2627.28768136
2140.09139079
1652.62790945
1164.72024227
676.380554506
236.265420831
15.3189683019
-9.60965997527
4096.4396692
3609.9942561
3123.7230218
2637.54844025
2151.35707569
1665.01505406
1178.26078335
691.106372889
247.136797937
18.345439871
-9.60106353307
4104.14558909
3618.41018583
3132.97812151
2647.78941531
2162.73935225
1677.69519986
1192.28899145
706.470517081
258.320108576
21.3410413977
-9.58983676125
3626.49706692
3141.9615161
2657.84790029
2174.08456984
1690.56913393
1206.91543016
723.062063327
271.774382776
25.8196120091
-9.59850301856
3634.09981268
3150.48763709
2667.51041918
2185.1586972
1703.41348567
1222.00060526
741.044031128
287.618256352
31.686872189
-9.63807000037
3641.04520379
3158.33820175
2676.49662043
2195.59615399
1715.76062995
1236.92780991
759.666289666
305.125262254
38.5261276543
-9.69269265323
3647.1511827
3165.2733715
2684.47806146
2204.92671487
1726.88898094
1250.53291584
776.918423729
322.034752472
45.9179518202
-9.72891929557
3652.24001307
3171.06407363
2691.14291798
2212.69163251
1736.05735415
1261.52282294
790.415046476
335.169593002
52.0781893241
-9.73430444112
4137.99766204
3656.16620457
3175.52787022
2696.25479619
2218.57338559
1742.8208174
1269.23440466
799.131598851
343.859292456
56.6253444674
-9.71036222722
4140.35652981
3658.82252465
3178.54068223
2699.68281695
2222.45077903
1747.09753923
1273.62121359
802.919185734
348.181437671
59.6599623454
-9.70668652561
4141.52415016
3660.1365332
3180.02723993
2701.36556947
2224.33224026
1749.12542804
1275.70575055
804.406325764
353.998323327
67.024611241
-9.65351507136
)
;
    }
    atmosphere
    {
        type            calculated;
        value           nonuniform List<scalar> 
17
(
-9.81000664432
-9.81000941583
-9.81016852521
-9.81055390612
-9.81125671607
-9.8122398169
-9.81240703582
-9.81209591212
-9.81189176386
-9.81221240038
-9.81351124643
-9.81532361592
-9.81623786554
-9.81517466828
-9.81360835855
-9.81211804634
-9.81292389301
)
;
    }
    floatingObject
    {
        type            calculated;
        value           nonuniform List<scalar> 0();
    }
    procBoundary11to9
    {
        type            processor;
        value           nonuniform List<scalar> 9(3052.38906826 2562.30145237 2071.97072284 1581.28848353 1090.41900073 598.588546641 179.399756996 -0.560966874821 -9.56233799283);
    }
    procBoundary11to10
    {
        type            processor;
        value           nonuniform List<scalar> 
23
(
3550.33157849
3069.02187767
3069.02187767
3077.68142744
3077.68142744
3575.37349124
3583.9925961
3592.68531285
3592.68531285
4088.4847752
4088.4847752
4583.11597213
4590.22504614
4111.48718896
4111.48718896
4118.33447637
4124.54860945
4129.98423741
4134.50671384
4134.50671384
4620.87409441
4622.98728386
4624.03448526
)
;
    }
}


// ************************************************************************* //
