/*--------------------------------*- C++ -*----------------------------------*\
| =========                 |                                                 |
| \\      /  F ield         | OpenFOAM: The Open Source CFD Toolbox           |
|  \\    /   O peration     | Version:  v2012                                 |
|   \\  /    A nd           | Website:  www.openfoam.com                      |
|    \\/     M anipulation  |                                                 |
\*---------------------------------------------------------------------------*/
FoamFile
{
    version     2.0;
    format      ascii;
    class       volVectorField;
    location    "1.3";
    object      ddt0(rho,U);
}
// * * * * * * * * * * * * * * * * * * * * * * * * * * * * * * * * * * * * * //

dimensions      [1 -2 -2 0 0 0 0];


internalField   nonuniform List<vector> 
167
(
(-7.91088357809 7.85433461704 5.71530565509e-19)
(-7.63809647438 22.4139397632 3.60905086784e-18)
(-7.6187321629 36.4921836266 4.75837760869e-19)
(-7.70857046055 51.1900307006 -3.73318858958e-19)
(-7.79630366938 65.8937735763 -7.58058437772e-19)
(-7.86499004686 80.7412572324 -4.44222473477e-19)
(-7.92307752443 95.7450411191 -1.44958224665e-18)
(-7.97207934057 110.907049631 1.75867603974e-18)
(-22.3589994414 7.53311330042 3.45238789127e-19)
(-22.0047723832 21.8884115499 8.6016506378e-19)
(-21.9578726272 35.8858120527 -8.92700927864e-20)
(-22.1244344381 50.5034471099 -1.11459135404e-18)
(-22.3395679671 65.0813899884 -1.98904512247e-18)
(-22.5699232274 79.7687947933 -1.50720396134e-18)
(-22.8097521325 94.5928268275 -1.91417023431e-20)
(-23.0528802779 109.56254287 1.19305513171e-18)
(-36.1799449583 7.37913897884 7.97126767139e-19)
(-35.8973344265 21.5367522685 3.36738582618e-18)
(-35.9219309068 35.4539664981 7.96549599386e-19)
(-36.140194272 49.9772603608 -4.3028300857e-19)
(-36.4423642945 64.4377763306 -1.000053534e-18)
(-36.7906573092 79.0095957402 -1.30716669531e-19)
(-37.1698810617 93.7246283114 -4.18056673348e-19)
(-37.561630514 108.603238931 3.6084251203e-19)
(-50.3467371229 7.36426956509 1.81838938109e-18)
(-50.188727214 21.3607041531 4.84870876777e-18)
(-50.2808657744 35.1449103007 6.33013475971e-19)
(-50.5761459114 49.5716298477 2.4084476414e-20)
(-50.98456265 63.9417404831 -1.73469974875e-19)
(-51.4657782714 78.437755899 2.2597857537e-19)
(-51.9972896448 93.0987877568 1.5147765081e-20)
(-52.5502416902 107.944070402 3.78372888155e-19)
(-53.093448535 123.009582989 1.66251069492e-19)
(-64.3482478045 7.35873231789 -4.79703310277e-19)
(-64.2803547337 21.1915285905 3.56440814019e-18)
(-64.4306674974 34.8271683447 1.1430761822e-18)
(-64.8211310974 49.1368504073 1.36972198927e-19)
(-65.3592727786 63.4048382256 4.39050738848e-21)
(-66.0013531135 77.8216721671 2.18705218527e-20)
(-66.7176595753 92.4300098508 6.02432483168e-20)
(-67.4759381326 107.262024393 -2.7609562247e-20)
(-68.227012905 122.351786249 -2.44240365816e-20)
(-68.9248075558 137.728084552 5.1314806089e-25)
(-78.2223130357 7.3202721011 -2.01679786946e-19)
(-78.212247176 20.9601211892 -5.99538184128e-19)
(-78.4231948905 34.4297261064 1.01922986665e-18)
(-78.9278796758 48.592771966 1.77959668789e-19)
(-79.6201786223 62.7300898583 6.12242510122e-20)
(-80.4523606547 77.0426891644 -3.01450012665e-20)
(-81.3903714669 91.579257171 1.17998418628e-20)
(-82.3960414153 106.381893871 -2.34169630761e-20)
(-83.4195429183 121.497588861 3.43279148088e-20)
(-84.394348223 136.960267521 -5.64764156463e-20)
(-91.9261254661 7.24955331061 2.15324441991e-19)
(-91.9588670478 20.6525098438 1.13034415881e-18)
(-92.2361363362 33.9260172728 -5.20843641429e-19)
(-92.8716493544 47.9055129201 4.94626236397e-20)
(-93.7416080173 61.8749978408 3.56180186823e-20)
(-94.7935877621 76.0479006491 -1.56095284894e-20)
(-95.9910426066 90.4810407773 -1.28026512923e-20)
(-97.2921432571 105.226299758 -2.68528633694e-20)
(-98.6449156436 120.342627082 -5.39635426805e-20)
(-99.9796861989 135.875804179 -3.58761364822e-20)
(-105.409397406 7.14909313413 -9.7845851823e-19)
(-105.481656073 20.2639198743 -1.50289363676e-19)
(-105.832285279 33.3004740776 1.6050889692e-18)
(-106.614615125 47.0523098914 1.24005508484e-19)
(-107.685959281 60.8094756408 -6.66695887959e-22)
(-108.988898501 74.7988241804 7.73016181827e-21)
(-110.485660143 89.0865434714 -2.0383530751e-20)
(-112.132978595 103.734628509 2.86086410007e-20)
(-113.877421187 118.814241085 -3.82504699302e-20)
(-115.647911387 134.383729548 -4.92579849323e-20)
(-118.619758736 7.01897601762 5.18753643016e-19)
(-118.735151073 19.7884615044 1.05495460848e-18)
(-119.167232176 32.5385994268 6.50755513417e-19)
(-120.112579816 46.0111945588 1.88406737677e-19)
(-121.40945021 59.5037017477 -1.4578334534e-21)
(-122.995618171 73.2569164392 -5.07372278904e-20)
(-124.833140823 87.3467852476 2.34364514054e-20)
(-126.879170015 101.84604672 -3.09714660981e-20)
(-129.08029539 116.837690016 6.45880153393e-21)
(-131.366218687 132.393360829 -1.75101009591e-20)
(-131.497357585 6.85805006085 1.76310514237e-18)
(-131.663109831 19.2197014336 5.41841282454e-18)
(-132.184962321 31.6266912521 5.7769442244e-19)
(-133.309169574 44.7610840449 1.65118513045e-19)
(-134.8551849 57.9287069892 1.39492742164e-20)
(-136.756456015 71.3842974934 1.62208811279e-20)
(-138.976019389 85.213569186 -1.12540408058e-20)
(-141.473022152 99.5000072092 -5.22678474253e-22)
(-144.196214418 114.338555426 -2.79808055582e-20)
(-147.077859276 129.814253454 2.45459718736e-21)
(-143.977729856 6.66433761003 3.29019344236e-19)
(-144.202497168 18.551062672 8.3791907363e-19)
(-144.821976531 30.551955979 -5.81257338805e-19)
(-146.139830873 43.2822641734 2.74146110336e-19)
(-147.957127886 56.0571298355 1.32408459658e-20)
(-150.203688141 69.1448626141 1.95476644265e-20)
(-152.844728663 82.6405674172 -7.18714282073e-21)
(-155.843098566 96.638175198 1.16772481626e-21)
(-159.151734875 111.244141612 1.52230332756e-20)
(-162.708335361 126.556943694 5.9633680289e-21)
(-155.992898922 6.43546390172 7.21034392284e-19)
(-156.285440063 17.7761644529 1.73601497654e-18)
(-157.009372362 29.3026835783 9.8062633568e-21)
(-158.533867817 41.556701345 1.11697559181e-19)
(-160.642158935 53.863814271 -1.5063876111e-20)
(-163.261199115 66.5050614292 -9.49698895575e-21)
(-166.359736921 79.5842668357 4.69529163838e-20)
(-169.906096742 93.2050606451 1.57986675306e-20)
(-173.859936547 107.484487756 4.98778803398e-20)
(-178.166720345 122.534252695 5.18652444804e-20)
(-167.471052434 6.16910816091 3.04784486454e-19)
(-167.839406202 16.889466723 -5.71093981074e-19)
(-168.673025153 27.8689104618 1.9427193855e-19)
(-170.414505968 39.5688567385 8.0336442633e-20)
(-172.829954683 51.3268108413 8.74622720569e-20)
(-175.844254251 63.4352176091 -4.20177645041e-21)
(-179.431146289 76.0055625893 2.00000714978e-20)
(-183.566494146 89.1497896973 5.70608660528e-20)
(-188.219082021 102.994618057 1.04528408293e-19)
(-193.345228321 117.664197 4.8594981674e-21)
(-178.337005252 5.86331732255 8.08369684818e-19)
(-178.78785295 15.8869414528 1.01140261242e-18)
(-179.734242116 26.2432622952 5.76448202449e-19)
(-181.69948312 37.3068228767 2.95385005163e-19)
(-184.433443291 48.4288760909 -2.04192999375e-20)
(-187.859775552 59.9113197249 8.63049714925e-20)
(-191.958845563 71.8716559785 8.20656938372e-20)
(-196.716153087 84.4285509636 -8.09474334767e-20)
(-202.112437597 97.7166493169 3.54920933198e-20)
(-208.116074807 111.872592825 1.6843807469e-20)
(-188.513405062 5.51673902507 2.6551473724e-19)
(-189.051484694 14.7666664706 -6.30129082346e-19)
(-190.111023676 24.4217949893 1.04961668036e-19)
(-192.302310113 34.7634686576 1.64050699246e-19)
(-195.360024869 45.1588614094 -1.3999226336e-19)
(-199.20752685 55.916525693 -1.23252199979e-20)
(-203.833330853 67.158145418 4.72659496922e-20)
(-209.234892042 79.0068994104 -5.0740816504e-20)
(-215.405676034 91.6051512859 -1.74130744786e-20)
(-222.335788494 105.096904811 1.71635024252e-20)
(-197.921207635 5.12873412968 -5.5507841949e-19)
(-198.549149801 13.5293134439 8.25628725783e-19)
(-199.719560359 22.4047137335 5.22413381796e-19)
(-202.133935252 31.9373238324 1.67419982235e-20)
(-205.513280064 41.5128732294 -7.05357303522e-20)
(-209.781984341 51.4435112348 1.1495771127e-20)
(-214.938308275 61.8524989331 3.88167525645e-21)
(-220.992600685 72.8662774493 -1.38368195888e-20)
(-227.959382965 84.6260566555 1.14302066193e-19)
(-235.84130903 97.2932916313 2.18663396603e-19)
(-206.482235169 4.69919801147 4.96292648211e-20)
(-207.200472647 12.1776497591 -2.97878442101e-19)
(-208.475939946 20.1962261134 -3.31643435892e-19)
(-211.104180902 28.833592884 5.28580792485e-21)
(-214.795549716 37.4965693615 -8.91765099446e-20)
(-219.474744558 46.4961941585 1.24478655272e-19)
(-225.151770146 55.9552446979 8.97304313372e-20)
(-214.122767817 4.2289143795 -3.55649477171e-19)
(-214.928496892 10.7180285501 -1.03108872573e-18)
(-216.298852488 17.8069665237 -3.4944520636e-19)
(-219.125635848 25.4652026797 -1.41405347384e-19)
(-223.109609511 33.1247067925 1.27436067444e-19)
(-223.112511871 15.2527023837 -1.74870669875e-19)
(-226.115641507 21.8535216806 1.57965390537e-19)
)
;

boundaryField
{
    back
    {
        type            calculated;
        value           uniform (0 0 0);
    }
    sides
    {
        type            calculated;
        value           uniform (0 0 0);
    }
    bottom
    {
        type            calculated;
        value           uniform (0 0 0);
    }
    front
    {
        type            calculated;
        value           uniform (0 0 0);
    }
    atmosphere
    {
        type            calculated;
        value           nonuniform List<vector> 0();
    }
    floatingObject
    {
        type            calculated;
        value           nonuniform List<vector> 0();
    }
    procBoundary2to0
    {
        type            processor;
        value           nonuniform List<vector> 
14
(
(-231.851683998 65.9953797666 2.96595962505e-21)
(-239.607967962 76.7665398811 4.90674650327e-21)
(-248.446130768 88.4340250292 1.36223515282e-19)
(-228.176953691 41.0912233969 1.24047375766e-19)
(-231.851683998 65.9953797666 2.96595962505e-21)
(-234.348798412 49.4833499444 1.38756297807e-19)
(-220.775118358 3.71994853487 -8.41303213159e-19)
(-221.662069057 9.16082402423 4.14968359432e-18)
(-228.176953691 41.0912233969 1.24047375766e-19)
(-230.360975503 28.4243831269 1.41285014653e-19)
(-221.662069057 9.16082402423 4.14968359432e-18)
(-228.852286053 12.556071607 6.07992656567e-19)
(-230.360975503 28.4243831269 1.41285014653e-19)
(-232.000178198 18.0300784276 2.61304524433e-19)
)
;
    }
    procBoundary2to1
    {
        type            processor;
        value           nonuniform List<vector> 
18
(
(-8.01235283858 126.234851118 1.03292197872e-18)
(-23.2801315896 124.694689368 1.52656516467e-19)
(-37.9429647657 123.660911522 -1.97391940581e-20)
(-37.9429647657 123.660911522 -1.97391940581e-20)
(-53.5770460003 138.298875418 2.79479851007e-19)
(-53.5770460003 138.298875418 2.79479851007e-19)
(-69.4852265656 153.317232983 -3.37757166595e-20)
(-85.2490302936 152.727823605 -3.96536465985e-20)
(-101.215197277 151.808973985 -1.05809435293e-19)
(-117.360432737 150.450224802 -6.01138884522e-20)
(-133.652398942 148.544369762 -6.88528817175e-20)
(-150.035892353 145.983205988 -1.68898879155e-20)
(-166.4356972 142.657362422 -3.58976075648e-20)
(-182.757576956 138.459029928 -4.07813913827e-20)
(-198.886547998 133.285491824 -5.19886060529e-20)
(-214.686316488 127.043350239 -7.45088539953e-20)
(-229.992346779 119.65199473 -6.03600843814e-20)
(-244.630743973 111.0509862 -1.7065770539e-19)
)
;
    }
}


// ************************************************************************* //
