/*--------------------------------*- C++ -*----------------------------------*\
| =========                 |                                                 |
| \\      /  F ield         | OpenFOAM: The Open Source CFD Toolbox           |
|  \\    /   O peration     | Version:  v2012                                 |
|   \\  /    A nd           | Website:  www.openfoam.com                      |
|    \\/     M anipulation  |                                                 |
\*---------------------------------------------------------------------------*/
FoamFile
{
    version     2.0;
    format      ascii;
    class       volScalarField;
    location    "1.3";
    object      rAU;
}
// * * * * * * * * * * * * * * * * * * * * * * * * * * * * * * * * * * * * * //

dimensions      [-1 3 1 0 0 0 0];


internalField   nonuniform List<scalar> 
167
(
8.29743945192e-06
8.27009437951e-06
8.26683498054e-06
8.26690101955e-06
8.26720563036e-06
8.26755659614e-06
8.26791196022e-06
8.26826923568e-06
8.26797853099e-06
8.21963991126e-06
8.21202853078e-06
8.21153144147e-06
8.21164848274e-06
8.21188400015e-06
8.21216181276e-06
8.21245573436e-06
8.26420445358e-06
8.2100723748e-06
8.20158070275e-06
8.20074577895e-06
8.20056015608e-06
8.20048629187e-06
8.2004685877e-06
8.20047965984e-06
8.2651480699e-06
8.21006785999e-06
8.20138327036e-06
8.20061074967e-06
8.20046721515e-06
8.20040428081e-06
8.2003803425e-06
8.20037877865e-06
8.20044443067e-06
8.26490213625e-06
8.20965163639e-06
8.20089252339e-06
8.2001204751e-06
8.20001621362e-06
8.20000195544e-06
8.20002309299e-06
8.20006223069e-06
8.20016288505e-06
8.20039528006e-06
8.2646499593e-06
8.20933822042e-06
8.2005720682e-06
8.19977585593e-06
8.19967065729e-06
8.19966721141e-06
8.19969908552e-06
8.19974606835e-06
8.1998477527e-06
8.20007081334e-06
8.26460305564e-06
8.20927576884e-06
8.2005591655e-06
8.1997538282e-06
8.1996448953e-06
8.19964633363e-06
8.19968451052e-06
8.19973683081e-06
8.19983771024e-06
8.20004919491e-06
8.26464998387e-06
8.20930241731e-06
8.20065948201e-06
8.19985700476e-06
8.19974816275e-06
8.1997552107e-06
8.1998002197e-06
8.19985945261e-06
8.19996189767e-06
8.20016468565e-06
8.26472237117e-06
8.20933587168e-06
8.20077510581e-06
8.19997801011e-06
8.19986944568e-06
8.19988066823e-06
8.19993046746e-06
8.19999486873e-06
8.20009775855e-06
8.20029067844e-06
8.26482445801e-06
8.20938586024e-06
8.2009134314e-06
8.2001207967e-06
8.20001079313e-06
8.2000239344e-06
8.20007585362e-06
8.20014279849e-06
8.20024375826e-06
8.20042441772e-06
8.26496599213e-06
8.20946795437e-06
8.20108929796e-06
8.20029929093e-06
8.20018546692e-06
8.20019810981e-06
8.200249539e-06
8.20031649543e-06
8.2004135308e-06
8.20058020079e-06
8.26514811149e-06
8.20958624786e-06
8.20130444968e-06
8.20051438614e-06
8.20039355412e-06
8.20040272792e-06
8.20045066123e-06
8.20051479643e-06
8.20060561585e-06
8.20075672832e-06
8.26537322258e-06
8.20974429227e-06
8.2015586848e-06
8.20076491415e-06
8.20063284399e-06
8.20063459778e-06
8.20067529059e-06
8.20073322725e-06
8.20081552666e-06
8.20094979799e-06
8.26564835951e-06
8.20994912226e-06
8.20185380352e-06
8.20105145555e-06
8.20090256593e-06
8.20089181658e-06
8.20092069728e-06
8.20096804176e-06
8.20103891903e-06
8.20115596313e-06
8.26598404884e-06
8.21021056496e-06
8.20219273115e-06
8.20137494507e-06
8.20120215292e-06
8.20117161296e-06
8.2011814852e-06
8.20121358059e-06
8.20127011974e-06
8.20136976631e-06
8.266393788e-06
8.21054054279e-06
8.20257909644e-06
8.20173675696e-06
8.20152841013e-06
8.20146826578e-06
8.20145259377e-06
8.20146323469e-06
8.20150286781e-06
8.20158580881e-06
8.26689553828e-06
8.21095417209e-06
8.20301820415e-06
8.20213540197e-06
8.20187917975e-06
8.20177706167e-06
8.20172282354e-06
8.26751322193e-06
8.21147084567e-06
8.20351778188e-06
8.2025738546e-06
8.20224636316e-06
8.20408901839e-06
8.20304954096e-06
)
;

boundaryField
{
    back
    {
        type            calculated;
        value           nonuniform List<scalar> 
167
(
8.29743945192e-06
8.27009437951e-06
8.26683498054e-06
8.26690101955e-06
8.26720563036e-06
8.26755659614e-06
8.26791196022e-06
8.26826923568e-06
8.26797853099e-06
8.21963991126e-06
8.21202853078e-06
8.21153144147e-06
8.21164848274e-06
8.21188400015e-06
8.21216181276e-06
8.21245573436e-06
8.26420445358e-06
8.2100723748e-06
8.20158070275e-06
8.20074577895e-06
8.20056015608e-06
8.20048629187e-06
8.2004685877e-06
8.20047965984e-06
8.2651480699e-06
8.21006785999e-06
8.20138327036e-06
8.20061074967e-06
8.20046721515e-06
8.20040428081e-06
8.2003803425e-06
8.20037877865e-06
8.20044443067e-06
8.26490213625e-06
8.20965163639e-06
8.20089252339e-06
8.2001204751e-06
8.20001621362e-06
8.20000195544e-06
8.20002309299e-06
8.20006223069e-06
8.20016288505e-06
8.20039528006e-06
8.2646499593e-06
8.20933822042e-06
8.2005720682e-06
8.19977585593e-06
8.19967065729e-06
8.19966721141e-06
8.19969908552e-06
8.19974606835e-06
8.1998477527e-06
8.20007081334e-06
8.26460305564e-06
8.20927576884e-06
8.2005591655e-06
8.1997538282e-06
8.1996448953e-06
8.19964633363e-06
8.19968451052e-06
8.19973683081e-06
8.19983771024e-06
8.20004919491e-06
8.26464998387e-06
8.20930241731e-06
8.20065948201e-06
8.19985700476e-06
8.19974816275e-06
8.1997552107e-06
8.1998002197e-06
8.19985945261e-06
8.19996189767e-06
8.20016468565e-06
8.26472237117e-06
8.20933587168e-06
8.20077510581e-06
8.19997801011e-06
8.19986944568e-06
8.19988066823e-06
8.19993046746e-06
8.19999486873e-06
8.20009775855e-06
8.20029067844e-06
8.26482445801e-06
8.20938586024e-06
8.2009134314e-06
8.2001207967e-06
8.20001079313e-06
8.2000239344e-06
8.20007585362e-06
8.20014279849e-06
8.20024375826e-06
8.20042441772e-06
8.26496599213e-06
8.20946795437e-06
8.20108929796e-06
8.20029929093e-06
8.20018546692e-06
8.20019810981e-06
8.200249539e-06
8.20031649543e-06
8.2004135308e-06
8.20058020079e-06
8.26514811149e-06
8.20958624786e-06
8.20130444968e-06
8.20051438614e-06
8.20039355412e-06
8.20040272792e-06
8.20045066123e-06
8.20051479643e-06
8.20060561585e-06
8.20075672832e-06
8.26537322258e-06
8.20974429227e-06
8.2015586848e-06
8.20076491415e-06
8.20063284399e-06
8.20063459778e-06
8.20067529059e-06
8.20073322725e-06
8.20081552666e-06
8.20094979799e-06
8.26564835951e-06
8.20994912226e-06
8.20185380352e-06
8.20105145555e-06
8.20090256593e-06
8.20089181658e-06
8.20092069728e-06
8.20096804176e-06
8.20103891903e-06
8.20115596313e-06
8.26598404884e-06
8.21021056496e-06
8.20219273115e-06
8.20137494507e-06
8.20120215292e-06
8.20117161296e-06
8.2011814852e-06
8.20121358059e-06
8.20127011974e-06
8.20136976631e-06
8.266393788e-06
8.21054054279e-06
8.20257909644e-06
8.20173675696e-06
8.20152841013e-06
8.20146826578e-06
8.20145259377e-06
8.20146323469e-06
8.20150286781e-06
8.20158580881e-06
8.26689553828e-06
8.21095417209e-06
8.20301820415e-06
8.20213540197e-06
8.20187917975e-06
8.20177706167e-06
8.20172282354e-06
8.26751322193e-06
8.21147084567e-06
8.20351778188e-06
8.2025738546e-06
8.20224636316e-06
8.20408901839e-06
8.20304954096e-06
)
;
    }
    sides
    {
        type            calculated;
        value           nonuniform List<scalar> 8(8.29743945192e-06 8.27009437951e-06 8.26683498054e-06 8.26690101955e-06 8.26720563036e-06 8.26755659614e-06 8.26791196022e-06 8.26826923568e-06);
    }
    bottom
    {
        type            calculated;
        value           nonuniform List<scalar> 
18
(
8.29743945192e-06
8.26797853099e-06
8.26420445358e-06
8.2651480699e-06
8.26490213625e-06
8.2646499593e-06
8.26460305564e-06
8.26464998387e-06
8.26472237117e-06
8.26482445801e-06
8.26496599213e-06
8.26514811149e-06
8.26537322258e-06
8.26564835951e-06
8.26598404884e-06
8.266393788e-06
8.26689553828e-06
8.26751322193e-06
)
;
    }
    front
    {
        type            calculated;
        value           nonuniform List<scalar> 
167
(
8.29743945192e-06
8.27009437951e-06
8.26683498054e-06
8.26690101955e-06
8.26720563036e-06
8.26755659614e-06
8.26791196022e-06
8.26826923568e-06
8.26797853099e-06
8.21963991126e-06
8.21202853078e-06
8.21153144147e-06
8.21164848274e-06
8.21188400015e-06
8.21216181276e-06
8.21245573436e-06
8.26420445358e-06
8.2100723748e-06
8.20158070275e-06
8.20074577895e-06
8.20056015608e-06
8.20048629187e-06
8.2004685877e-06
8.20047965984e-06
8.2651480699e-06
8.21006785999e-06
8.20138327036e-06
8.20061074967e-06
8.20046721515e-06
8.20040428081e-06
8.2003803425e-06
8.20037877865e-06
8.20044443067e-06
8.26490213625e-06
8.20965163639e-06
8.20089252339e-06
8.2001204751e-06
8.20001621362e-06
8.20000195544e-06
8.20002309299e-06
8.20006223069e-06
8.20016288505e-06
8.20039528006e-06
8.2646499593e-06
8.20933822042e-06
8.2005720682e-06
8.19977585593e-06
8.19967065729e-06
8.19966721141e-06
8.19969908552e-06
8.19974606835e-06
8.1998477527e-06
8.20007081334e-06
8.26460305564e-06
8.20927576884e-06
8.2005591655e-06
8.1997538282e-06
8.1996448953e-06
8.19964633363e-06
8.19968451052e-06
8.19973683081e-06
8.19983771024e-06
8.20004919491e-06
8.26464998387e-06
8.20930241731e-06
8.20065948201e-06
8.19985700476e-06
8.19974816275e-06
8.1997552107e-06
8.1998002197e-06
8.19985945261e-06
8.19996189767e-06
8.20016468565e-06
8.26472237117e-06
8.20933587168e-06
8.20077510581e-06
8.19997801011e-06
8.19986944568e-06
8.19988066823e-06
8.19993046746e-06
8.19999486873e-06
8.20009775855e-06
8.20029067844e-06
8.26482445801e-06
8.20938586024e-06
8.2009134314e-06
8.2001207967e-06
8.20001079313e-06
8.2000239344e-06
8.20007585362e-06
8.20014279849e-06
8.20024375826e-06
8.20042441772e-06
8.26496599213e-06
8.20946795437e-06
8.20108929796e-06
8.20029929093e-06
8.20018546692e-06
8.20019810981e-06
8.200249539e-06
8.20031649543e-06
8.2004135308e-06
8.20058020079e-06
8.26514811149e-06
8.20958624786e-06
8.20130444968e-06
8.20051438614e-06
8.20039355412e-06
8.20040272792e-06
8.20045066123e-06
8.20051479643e-06
8.20060561585e-06
8.20075672832e-06
8.26537322258e-06
8.20974429227e-06
8.2015586848e-06
8.20076491415e-06
8.20063284399e-06
8.20063459778e-06
8.20067529059e-06
8.20073322725e-06
8.20081552666e-06
8.20094979799e-06
8.26564835951e-06
8.20994912226e-06
8.20185380352e-06
8.20105145555e-06
8.20090256593e-06
8.20089181658e-06
8.20092069728e-06
8.20096804176e-06
8.20103891903e-06
8.20115596313e-06
8.26598404884e-06
8.21021056496e-06
8.20219273115e-06
8.20137494507e-06
8.20120215292e-06
8.20117161296e-06
8.2011814852e-06
8.20121358059e-06
8.20127011974e-06
8.20136976631e-06
8.266393788e-06
8.21054054279e-06
8.20257909644e-06
8.20173675696e-06
8.20152841013e-06
8.20146826578e-06
8.20145259377e-06
8.20146323469e-06
8.20150286781e-06
8.20158580881e-06
8.26689553828e-06
8.21095417209e-06
8.20301820415e-06
8.20213540197e-06
8.20187917975e-06
8.20177706167e-06
8.20172282354e-06
8.26751322193e-06
8.21147084567e-06
8.20351778188e-06
8.2025738546e-06
8.20224636316e-06
8.20408901839e-06
8.20304954096e-06
)
;
    }
    atmosphere
    {
        type            calculated;
        value           nonuniform List<scalar> 0();
    }
    floatingObject
    {
        type            calculated;
        value           nonuniform List<scalar> 0();
    }
    procBoundary2to0
    {
        type            processor;
        value           nonuniform List<scalar> 
14
(
8.20170209277e-06
8.20172220975e-06
8.20179161331e-06
8.20208168378e-06
8.20170209277e-06
8.20197724286e-06
8.26827995378e-06
8.21211465688e-06
8.20208168378e-06
8.20261928966e-06
8.21211465688e-06
8.20474729961e-06
8.20261928966e-06
8.20355763684e-06
)
;
    }
    procBoundary2to1
    {
        type            processor;
        value           nonuniform List<scalar> 
18
(
8.26869230139e-06
8.21281666438e-06
8.20056253582e-06
8.20056253582e-06
8.20064946451e-06
8.20064946451e-06
8.20026337136e-06
8.19994621802e-06
8.19993838139e-06
8.2000760593e-06
8.20022658609e-06
8.20038325805e-06
8.20055993054e-06
8.20075367773e-06
8.20096019461e-06
8.20117708279e-06
8.20139957671e-06
8.20162509261e-06
)
;
    }
}


// ************************************************************************* //
