/*--------------------------------*- C++ -*----------------------------------*\
| =========                 |                                                 |
| \\      /  F ield         | OpenFOAM: The Open Source CFD Toolbox           |
|  \\    /   O peration     | Version:  v2012                                 |
|   \\  /    A nd           | Website:  www.openfoam.com                      |
|    \\/     M anipulation  |                                                 |
\*---------------------------------------------------------------------------*/
FoamFile
{
    version     2.0;
    format      ascii;
    class       volScalarField;
    location    "3.5";
    object      k;
}
// * * * * * * * * * * * * * * * * * * * * * * * * * * * * * * * * * * * * * //

dimensions      [0 2 -2 0 0 0 0];


internalField   nonuniform List<scalar> 
164
(
0.00247364061139
0.00309257472704
0.00330164421121
0.00338572330412
0.00341711818699
0.00341116151472
0.00334716681008
0.00316662193521
0.00295613201959
0.00293400249113
0.0029796701355
0.0030447050942
0.00336468796975
0.00382351569372
0.00248812609843
0.00310565764658
0.0033159552957
0.00340294808305
0.00344220038764
0.00345789933347
0.00345286159913
0.00341990652191
0.00341787743048
0.00344133899912
0.00348186913101
0.00352900485456
0.0036308643747
0.00389142972135
0.0025040509719
0.00312137460243
0.00333258031722
0.0034210861926
0.00346408743943
0.00348968502596
0.0035077613881
0.00352276527761
0.00354356690401
0.00357383002441
0.00360923886575
0.0036484839448
0.00372168463595
0.00390437891
0.00252069080201
0.00313882624119
0.0033506144347
0.00343950933671
0.00348341400588
0.00351159757394
0.00353536440067
0.0035593857939
0.00358644462127
0.00361745500806
0.00365103872784
0.00368891097669
0.0037494672393
0.0038911648294
0.00253735516155
0.00315712373603
0.00336928371209
0.00345790533329
0.0035013696645
0.0035293098464
0.00355325572917
0.00357770756113
0.003604465985
0.00363383306967
0.00366554192351
0.00370194051228
0.00375685497586
0.00388072796518
0.00255348797323
0.00317552822278
0.0033879023235
0.00347585082157
0.00351827225819
0.003545014807
0.00356763281512
0.0035905512471
0.00361538333323
0.00364251243238
0.00367223507182
0.00370740974892
0.00376172383357
0.00388540709257
0.0025686864949
0.00319342069708
0.00340589250848
0.00349292790389
0.00353404536591
0.00355931604792
0.00358030544659
0.00360140263009
0.00362419597611
0.00364922882106
0.00367727564727
0.00371227675093
0.00377093391428
0.00391012595746
0.0025827029499
0.00321038673142
0.00342283813819
0.00350881154904
0.00354852861038
0.00357229071683
0.00359168838449
0.00361108272517
0.00363206400964
0.00365531874706
0.00368210245073
0.00371786289342
0.00378394683771
0.00394709918319
0.00259541384031
0.00322615465457
0.00343849346908
0.00352332978912
0.00356160320392
0.00358389929816
0.00360182069626
0.00361968625371
0.00363907831014
0.00366077108606
0.00368633973964
0.00372231116211
0.00379343074005
0.00397385734706
0.0026067179165
0.00324051991567
0.00345269709731
0.00353634407384
0.003573195806
0.00359410165883
0.00361067291583
0.00362717026699
0.00364514745185
0.003665381455
0.00368946988993
0.00372390860143
0.00379348851711
0.00397393231287
0.00261660441773
0.00325340192893
0.00346534336093
0.003547799315
0.00358327641106
0.00360288591088
0.00361823342896
0.00363351307979
0.00365022877763
0.00366913811561
0.00369180883963
0.00372448874161
0.00379116315176
0.00396720728325
0.00365429973616
0.00367202550042
0.00369352142211
0.00372512548371
0.0037910275981
0.003967333988
0.00372470378823
0.00378930824951
0.0039635787521
0.00394331542341
)
;

boundaryField
{
    back
    {
        type            kqRWallFunction;
        value           nonuniform List<scalar> 
164
(
0.00247364061139
0.00309257472704
0.00330164421121
0.00338572330412
0.00341711818699
0.00341116151472
0.00334716681008
0.00316662193521
0.00295613201959
0.00293400249113
0.0029796701355
0.0030447050942
0.00336468796975
0.00382351569372
0.00248812609843
0.00310565764658
0.0033159552957
0.00340294808305
0.00344220038764
0.00345789933347
0.00345286159913
0.00341990652191
0.00341787743048
0.00344133899912
0.00348186913101
0.00352900485456
0.0036308643747
0.00389142972135
0.0025040509719
0.00312137460243
0.00333258031722
0.0034210861926
0.00346408743943
0.00348968502596
0.0035077613881
0.00352276527761
0.00354356690401
0.00357383002441
0.00360923886575
0.0036484839448
0.00372168463595
0.00390437891
0.00252069080201
0.00313882624119
0.0033506144347
0.00343950933671
0.00348341400588
0.00351159757394
0.00353536440067
0.0035593857939
0.00358644462127
0.00361745500806
0.00365103872784
0.00368891097669
0.0037494672393
0.0038911648294
0.00253735516155
0.00315712373603
0.00336928371209
0.00345790533329
0.0035013696645
0.0035293098464
0.00355325572917
0.00357770756113
0.003604465985
0.00363383306967
0.00366554192351
0.00370194051228
0.00375685497586
0.00388072796518
0.00255348797323
0.00317552822278
0.0033879023235
0.00347585082157
0.00351827225819
0.003545014807
0.00356763281512
0.0035905512471
0.00361538333323
0.00364251243238
0.00367223507182
0.00370740974892
0.00376172383357
0.00388540709257
0.0025686864949
0.00319342069708
0.00340589250848
0.00349292790389
0.00353404536591
0.00355931604792
0.00358030544659
0.00360140263009
0.00362419597611
0.00364922882106
0.00367727564727
0.00371227675093
0.00377093391428
0.00391012595746
0.0025827029499
0.00321038673142
0.00342283813819
0.00350881154904
0.00354852861038
0.00357229071683
0.00359168838449
0.00361108272517
0.00363206400964
0.00365531874706
0.00368210245073
0.00371786289342
0.00378394683771
0.00394709918319
0.00259541384031
0.00322615465457
0.00343849346908
0.00352332978912
0.00356160320392
0.00358389929816
0.00360182069626
0.00361968625371
0.00363907831014
0.00366077108606
0.00368633973964
0.00372231116211
0.00379343074005
0.00397385734706
0.0026067179165
0.00324051991567
0.00345269709731
0.00353634407384
0.003573195806
0.00359410165883
0.00361067291583
0.00362717026699
0.00364514745185
0.003665381455
0.00368946988993
0.00372390860143
0.00379348851711
0.00397393231287
0.00261660441773
0.00325340192893
0.00346534336093
0.003547799315
0.00358327641106
0.00360288591088
0.00361823342896
0.00363351307979
0.00365022877763
0.00366913811561
0.00369180883963
0.00372448874161
0.00379116315176
0.00396720728325
0.00365429973616
0.00367202550042
0.00369352142211
0.00372512548371
0.0037910275981
0.003967333988
0.00372470378823
0.00378930824951
0.0039635787521
0.00394331542341
)
;
    }
    sides
    {
        type            kqRWallFunction;
        value           nonuniform List<scalar> 0();
    }
    bottom
    {
        type            kqRWallFunction;
        value           nonuniform List<scalar> 
11
(
0.00247364061139
0.00248812609843
0.0025040509719
0.00252069080201
0.00253735516155
0.00255348797323
0.0025686864949
0.0025827029499
0.00259541384031
0.0026067179165
0.00261660441773
)
;
    }
    front
    {
        type            kqRWallFunction;
        value           nonuniform List<scalar> 
164
(
0.00247364061139
0.00309257472704
0.00330164421121
0.00338572330412
0.00341711818699
0.00341116151472
0.00334716681008
0.00316662193521
0.00295613201959
0.00293400249113
0.0029796701355
0.0030447050942
0.00336468796975
0.00382351569372
0.00248812609843
0.00310565764658
0.0033159552957
0.00340294808305
0.00344220038764
0.00345789933347
0.00345286159913
0.00341990652191
0.00341787743048
0.00344133899912
0.00348186913101
0.00352900485456
0.0036308643747
0.00389142972135
0.0025040509719
0.00312137460243
0.00333258031722
0.0034210861926
0.00346408743943
0.00348968502596
0.0035077613881
0.00352276527761
0.00354356690401
0.00357383002441
0.00360923886575
0.0036484839448
0.00372168463595
0.00390437891
0.00252069080201
0.00313882624119
0.0033506144347
0.00343950933671
0.00348341400588
0.00351159757394
0.00353536440067
0.0035593857939
0.00358644462127
0.00361745500806
0.00365103872784
0.00368891097669
0.0037494672393
0.0038911648294
0.00253735516155
0.00315712373603
0.00336928371209
0.00345790533329
0.0035013696645
0.0035293098464
0.00355325572917
0.00357770756113
0.003604465985
0.00363383306967
0.00366554192351
0.00370194051228
0.00375685497586
0.00388072796518
0.00255348797323
0.00317552822278
0.0033879023235
0.00347585082157
0.00351827225819
0.003545014807
0.00356763281512
0.0035905512471
0.00361538333323
0.00364251243238
0.00367223507182
0.00370740974892
0.00376172383357
0.00388540709257
0.0025686864949
0.00319342069708
0.00340589250848
0.00349292790389
0.00353404536591
0.00355931604792
0.00358030544659
0.00360140263009
0.00362419597611
0.00364922882106
0.00367727564727
0.00371227675093
0.00377093391428
0.00391012595746
0.0025827029499
0.00321038673142
0.00342283813819
0.00350881154904
0.00354852861038
0.00357229071683
0.00359168838449
0.00361108272517
0.00363206400964
0.00365531874706
0.00368210245073
0.00371786289342
0.00378394683771
0.00394709918319
0.00259541384031
0.00322615465457
0.00343849346908
0.00352332978912
0.00356160320392
0.00358389929816
0.00360182069626
0.00361968625371
0.00363907831014
0.00366077108606
0.00368633973964
0.00372231116211
0.00379343074005
0.00397385734706
0.0026067179165
0.00324051991567
0.00345269709731
0.00353634407384
0.003573195806
0.00359410165883
0.00361067291583
0.00362717026699
0.00364514745185
0.003665381455
0.00368946988993
0.00372390860143
0.00379348851711
0.00397393231287
0.00261660441773
0.00325340192893
0.00346534336093
0.003547799315
0.00358327641106
0.00360288591088
0.00361823342896
0.00363351307979
0.00365022877763
0.00366913811561
0.00369180883963
0.00372448874161
0.00379116315176
0.00396720728325
0.00365429973616
0.00367202550042
0.00369352142211
0.00372512548371
0.0037910275981
0.003967333988
0.00372470378823
0.00378930824951
0.0039635787521
0.00394331542341
)
;
    }
    atmosphere
    {
        type            inletOutlet;
        inletValue      nonuniform List<scalar> 0();
        value           nonuniform List<scalar> 0();
    }
    floatingObject
    {
        type            kqRWallFunction;
        value           nonuniform List<scalar> 4(0.00295613201959 0.00293400249113 0.0029796701355 0.0030447050942);
    }
    procBoundary8to3
    {
        type            processor;
        value           nonuniform List<scalar> 8(0.00246134053454 0.00308197718147 0.00329004840575 0.00337080973487 0.00339333963729 0.00336441202949 0.00323962384367 0.00275317189637);
    }
    procBoundary8to6
    {
        type            processor;
        value           nonuniform List<scalar> 
16
(
0.00328675546363
0.00419442625764
0.00464855852978
0.00448411844709
0.00436553860079
0.00427540524502
0.00422688105767
0.00422760934914
0.00428038241503
0.00436134482985
0.00442125857743
0.00442852617506
0.00442147577286
0.00442483357031
0.00441435493156
0.00436398033766
)
;
    }
    procBoundary8to7
    {
        type            processor;
        value           nonuniform List<scalar> 
17
(
0.00262512153581
0.00326480685221
0.00347642682424
0.00355769192557
0.00359185920299
0.00361027449381
0.0036245194253
0.00363870819161
0.00363870819161
0.00365731666153
0.00367396027525
0.00369429488497
0.00369429488497
0.00372231906943
0.00378201419815
0.00378201419815
0.00391127598564
)
;
    }
}


// ************************************************************************* //
