/*--------------------------------*- C++ -*----------------------------------*\
| =========                 |                                                 |
| \\      /  F ield         | OpenFOAM: The Open Source CFD Toolbox           |
|  \\    /   O peration     | Version:  v2012                                 |
|   \\  /    A nd           | Website:  www.openfoam.com                      |
|    \\/     M anipulation  |                                                 |
\*---------------------------------------------------------------------------*/
FoamFile
{
    version     2.0;
    format      ascii;
    class       surfaceScalarField;
    location    "4.5";
    object      phi;
}
// * * * * * * * * * * * * * * * * * * * * * * * * * * * * * * * * * * * * * //

dimensions      [0 3 -1 0 0 0 0];
oriented        oriented;


internalField   nonuniform List<scalar> 
300
(
-4.93931330958e-05
-0.000157948664288
-5.65940474278e-05
-0.000161780138622
-6.42844406517e-05
-0.000165901074937
-7.25313804503e-05
-0.000170208722453
-8.14256512394e-05
-0.000174631068068
-9.12583840008e-05
-0.000178805121679
-0.000102541469159
-0.000180815344203
-0.000116150500328
-0.000176888441887
-0.00012935473668
-0.000172951705891
-0.000136603036279
-0.000175671046067
-0.000135605959662
-0.000192589643269
-5.47222280305e-05
-5.31301049991e-05
-6.0564726344e-05
-6.83669923714e-05
-0.000158100758953
-7.65575444896e-05
-0.000162019893426
-8.52233414929e-05
-0.000165966855304
-9.4550523662e-05
-0.000169479405674
-0.000105061461671
-0.000170305664396
-0.00011735685666
-0.000164593847533
-0.00012801190211
-0.000162296904101
-0.000132287333239
-0.000171393704854
-0.00014981966576
-0.000175057429136
-4.95047867438e-05
-7.19332447422e-05
-0.000150179750471
-8.01040258138e-05
-0.000153850540852
-8.85113785159e-05
-0.000157560762522
-9.73501754216e-05
-0.000160641740023
-0.000107339072759
-0.000160317709984
-0.000119253934932
-0.000152679576542
-0.000129831956785
-0.000151719065516
-0.000136065113257
-0.000165159198987
-0.000150771469681
-0.000160351445479
-3.90591308401e-05
-7.53078194566e-05
-0.000142174801756
-8.34203785561e-05
-0.000145739187018
-9.16336249902e-05
-0.000149348538961
-0.000100305641682
-0.000151970613059
-0.00011090746673
-0.000149716607136
-0.000124833718211
-0.000138753771817
-0.000137555325916
-0.000138997598508
-0.000145160279823
-0.000157553032543
-0.000155707339238
-0.000149804908406
-3.94103021013e-05
-7.85547511775e-05
-0.000133982686969
-8.67605333028e-05
-0.000137534412833
-9.48854171893e-05
-0.00014122447926
-0.000103371614348
-0.000143485112322
-0.000114373245342
-0.000138715529185
-0.000129317004557
-0.000123810350482
-0.00014563102549
-0.000122683683293
-0.000161271124658
-0.000141911988812
-0.0001777206045
-0.000133355786993
-3.62998996405e-05
-8.19705634742e-05
-0.000125379888731
-9.05526136786e-05
-0.000128953185177
-9.89942442083e-05
-0.000132783495847
-0.000107806472202
-0.000134673415995
-0.000119065785406
-0.000127456630298
-0.000134338987726
-0.000108537398037
-0.000153240639956
-0.000103782110258
-0.000180740130537
-0.000114411524125
-0.000208305643419
-0.00010579068726
-1.74343598372e-05
-8.57198962975e-05
-0.000116028591737
-9.52802336593e-05
-0.000119393497007
-0.000105089581826
-0.000122974636434
-0.000115743675606
-0.000124019711124
-0.000128749855933
-0.000114450746934
-0.000144582960995
-9.27044690948e-05
-0.000164969563639
-8.33955621177e-05
-0.000195474811996
-8.39056001189e-05
-0.00022240979869
-7.88558198574e-05
-2.0890540511e-06
-8.95984571307e-05
-0.000105626499146
-0.000100805283796
-0.000108187161928
-0.000113102303322
-0.000110677966377
-0.000127183222157
-0.000109939058272
-0.000142665368117
-9.89687981213e-05
-0.000157999265345
-7.7370686186e-05
-0.000176114484925
-6.52803782461e-05
-0.000202160782759
-5.78585539205e-05
-0.000225142312604
-5.5874442781e-05
7.88255914846e-06
-9.28042502184e-05
-9.41986409759e-05
-0.000105735086128
-9.52566781891e-05
-0.000120660475115
-9.57528064653e-05
-0.000137620554818
-9.29791397244e-05
-0.000154510019662
-8.20794459197e-05
-0.00016799724889
-6.38835189187e-05
-0.000182546792975
-5.07308538489e-05
-0.000203670897858
-3.67336517738e-05
-0.000221562290766
-3.79832044489e-05
1.0358153302e-05
-9.44858933829e-05
-8.21068690002e-05
-0.000108552413933
-8.11903885005e-05
-0.000125029897085
-7.92754493029e-05
-0.000143463190589
-7.45459184763e-05
-0.000160653704672
-6.48889729022e-05
-0.000173014881001
-5.15223602468e-05
-0.000185164362348
-3.85813792384e-05
-0.000202177429605
-1.97196665303e-05
-0.000215310941037
-2.48498988201e-05
8.85997438035e-06
-9.39484591845e-05
-7.00728914115e-05
-0.000107854529313
-6.72844438023e-05
-0.000124091985281
-6.30380310503e-05
-0.000142052373024
-5.65855275835e-05
-0.000158187785199
-4.87535405944e-05
-0.000170234893795
-3.94752312798e-05
-0.000182427766053
-2.63884995373e-05
-0.000196603551961
-5.54312360748e-06
-0.000208344985176
-1.31083951451e-05
3.66325144105e-06
-9.0946620148e-05
-5.90625622619e-05
-0.000103576842099
-5.4654254688e-05
-0.000118053288613
-4.85615455199e-05
-0.000133650663818
-4.098808519e-05
-0.000148267577957
-3.41365524403e-05
-0.000160623400049
-2.71193554787e-05
-0.000174344285212
-1.26675940413e-05
-0.00018962966817
9.74302509741e-06
-0.000198800371122
-3.93742364439e-06
-6.79769911409e-06
-8.6419527591e-05
-4.92155927573e-05
-9.71996964936e-05
-4.38740369791e-05
-0.000109219025127
-3.65421147729e-05
-0.000121794161597
-2.8412827016e-05
-0.000134039670397
-2.18909218284e-05
-0.000145825357976
-1.53335813568e-05
-0.000160882593947
2.38967747192e-06
-0.000177622677725
2.64839288487e-05
-0.000189692386321
8.13284716575e-06
-1.1340092161e-05
-8.09046737502e-05
-4.08126281573e-05
-8.9790769902e-05
-3.49877686162e-05
-9.92654892659e-05
-2.70671833844e-05
-0.000108843067689
-1.8835036903e-05
-0.000117979576847
-1.27541906578e-05
-0.000128209431553
-5.10357034981e-06
-0.000142136155499
1.63164677269e-05
-0.000161115878259
4.54645039994e-05
-0.000178062103733
2.50813985389e-05
-2.34236151026e-06
-7.43538653475e-05
-3.42003790467e-05
-8.07892545809e-05
-2.85520799224e-05
-8.70646287551e-05
-2.07915254104e-05
-9.35999826551e-05
-1.22992979765e-05
-0.000100118535081
-6.23532952623e-06
-0.00010882239857
3.6005498927e-06
-0.000122032042242
2.95261983574e-05
-0.000138699432969
6.21335052121e-05
-0.000155040027225
4.14270549584e-05
9.25166823082e-06
-6.76178323875e-05
-7.0886888387e-05
-7.31088405281e-05
-7.60209751315e-05
-8.11501131718e-05
-9.05386889372e-05
-0.000102105911689
-0.00011354224126
-0.000125388768569
)
;

boundaryField
{
    back
    {
        type            calculated;
        value           uniform 0;
    }
    sides
    {
        type            calculated;
        value           nonuniform List<scalar> 0();
    }
    bottom
    {
        type            calculated;
        value           nonuniform List<scalar> 0();
    }
    front
    {
        type            calculated;
        value           uniform 0;
    }
    atmosphere
    {
        type            calculated;
        value           nonuniform List<scalar> 
16
(
-0.000108566302029
-0.000155036466286
-0.000161216717078
-0.000155355841755
-0.000180830709989
-0.000227170897931
-0.000237754808933
-0.000235113609993
-0.000224037543626
-0.000213812370572
-0.000203147769626
-0.000188338758845
-0.000185149000993
-0.000187057114019
-0.000166630569906
-0.000132142415996
)
;
    }
    floatingObject
    {
        type            calculated;
        value           nonuniform List<scalar> 0();
    }
    procBoundary5to0
    {
        type            processor;
        value           nonuniform List<scalar> 
12
(
0.000164705572467
0.000168977259435
0.000173587833089
0.00017845210308
0.000183521878257
0.000188634576521
0.000192095527864
0.000190495375514
0.000186155120501
0.000182920851225
0.00019159662921
2.76861728414e-05
)
;
    }
    procBoundary5to3
    {
        type            processor;
        value           nonuniform List<scalar> 10(-2.96054200609e-05 -2.52827178401e-05 -1.85691328762e-05 -9.38677389828e-06 -1.1057514345e-06 1.29893971687e-05 4.10935458494e-05 7.35722418252e-05 5.327932204e-05 1.60092127254e-05);
    }
    procBoundary5to4
    {
        type            processor;
        value           nonuniform List<scalar> 
18
(
4.26308361767e-05
4.60875633544e-05
-0.000150909655353
-0.000154347707442
6.40093927891e-05
6.73003871262e-05
7.0360455278e-05
7.33658804118e-05
7.63670146035e-05
7.91950735696e-05
8.13753757053e-05
8.23933532432e-05
8.19139351891e-05
7.99359459365e-05
7.65724043277e-05
7.25017897755e-05
6.77417394137e-05
6.30233927086e-05
)
;
    }
}


// ************************************************************************* //
