/*--------------------------------*- C++ -*----------------------------------*\
| =========                 |                                                 |
| \\      /  F ield         | OpenFOAM: The Open Source CFD Toolbox           |
|  \\    /   O peration     | Version:  v2012                                 |
|   \\  /    A nd           | Website:  www.openfoam.com                      |
|    \\/     M anipulation  |                                                 |
\*---------------------------------------------------------------------------*/
FoamFile
{
    version     2.0;
    format      ascii;
    class       volVectorField;
    location    "3.4";
    object      ddt0(rho,U);
}
// * * * * * * * * * * * * * * * * * * * * * * * * * * * * * * * * * * * * * //

dimensions      [1 -2 -2 0 0 0 0];


internalField   nonuniform List<vector> 
167
(
(8.16242688582 52.4465625048 -9.79596836107e-20)
(2.48623732755 56.7936541443 -4.00170582633e-19)
(-3.69862448992 61.1819155646 -4.47221070575e-19)
(-10.4527721498 65.7339731468 1.15067301495e-18)
(-19.2341479932 72.5155483717 -1.63210413697e-18)
(-29.6390363632 72.6242581938 -2.60259811796e-18)
(3.08104630056 47.3871648391 7.20069641519e-18)
(-0.0600329945075 0.0215896136543 -2.25590218972e-20)
(0.0370645267654 0.122559854111 2.11281720035e-20)
(-1.60630518649 50.7035398975 -3.04640044219e-19)
(-7.87860399971 54.3246236789 -5.12255649779e-19)
(-15.0050953886 58.1836407555 5.52466435184e-19)
(-23.9193236376 64.5671875577 -1.36343108194e-18)
(-33.3194022097 66.4551050285 -2.18073025053e-17)
(-0.028034077089 44.9896753223 4.53101811636e-18)
(-0.136841995177 -0.0968449047409 -1.01163545536e-19)
(0.0357582186112 0.054208657369 1.07398934515e-21)
(-5.04017387775 44.6704781581 -3.19395767006e-19)
(-11.3255855634 47.4105289505 -8.02054446765e-19)
(-18.3564502896 50.1155403606 -1.33104808301e-18)
(-26.2873447473 54.7102463161 3.79761535528e-18)
(-34.6366887634 58.9716707055 8.0109005825e-18)
(-6.23557189718 42.7342351202 8.70414812712e-18)
(-0.0645170409732 -0.00930815127172 -1.74060469126e-20)
(0.0378650400038 0.0261597138391 9.81111816068e-21)
(-2.41206888708 36.4959435571 1.57436545674e-19)
(-7.73624555967 38.7752786336 -2.27176714663e-19)
(-13.8255301547 40.8231198158 -1.48224882763e-19)
(-20.5626912596 42.5253232682 -1.32916289122e-18)
(-27.5037338878 46.4881428681 6.28933239997e-19)
(-34.6728403729 55.4061942603 4.79829262695e-19)
(-11.6200719976 41.134491186 2.91182802835e-19)
(-0.0590468340993 0.0199611703003 -5.63815400265e-21)
(0.0346695528021 0.0295773818045 -1.0555343819e-20)
(-4.66681102401 31.5270429013 -9.25782303317e-20)
(-9.7664389773 33.1545874204 -6.43994168319e-19)
(-15.4998307462 34.3761598824 -1.75507013192e-18)
(-22.0488330912 35.3690040873 -8.33455361069e-19)
(-28.6983212185 38.5752484398 -4.54883383303e-18)
(-33.780611103 52.0606645074 -7.24764557502e-18)
(-15.2925765951 40.6052659488 -1.11187997315e-17)
(-0.0556619586635 0.0279393966978 -2.16041280722e-20)
(0.0102268574033 0.0440767174641 -1.04941698997e-20)
(-6.30944656836 26.8285245199 -4.46163653488e-19)
(-11.0583947129 27.8704206808 -1.00528324192e-18)
(-16.4323551077 28.315548093 -6.40104984286e-19)
(-22.9148988657 28.3902627082 -1.67674571228e-18)
(-29.1269491252 30.966282003 1.26225241183e-18)
(-33.2117840435 45.8156144034 -2.74372877029e-17)
(-15.6776050882 39.3002705061 8.23099061245e-18)
(-0.0232613586402 0.0555803790944 4.57435910298e-20)
(-0.0218685032154 0.0253520559542 4.3665303964e-20)
(-3.48811962123 21.6072005626 -2.75688998272e-19)
(-7.38516360008 22.4739651252 -3.01355461361e-19)
(-11.6976269889 22.9550003161 -1.14513400913e-18)
(-16.5818022177 22.7349192678 1.24708502535e-18)
(-22.5202574824 21.8475752457 -8.67802304738e-19)
(-28.9493360339 22.8721507037 -7.51050822903e-18)
(-32.8283577391 35.1513220797 -2.77647174161e-17)
(-12.375169278 34.3653404462 3.42449965449e-17)
(0.0238776758354 0.0620001805988 1.24441449258e-19)
(-0.029712788507 -0.00186405214077 1.2914974181e-19)
(-1.31199258096 17.276670955 -1.63390475171e-20)
(-4.46779732648 18.0798576962 -9.43574721488e-20)
(-7.96799024407 18.5341305285 -1.16858745472e-19)
(-11.7796228375 18.5409731229 -5.05726567667e-19)
(-16.0125908336 17.7892937965 5.07194659088e-19)
(-21.0028258115 15.9968980469 -2.08501837152e-18)
(-26.6490335589 14.7216055868 -9.79820943733e-18)
(-28.993087966 21.9712856849 -2.96377460844e-17)
(-4.98923757466 27.7077462926 2.10432404128e-17)
(-0.0239375476975 0.0295694861825 2.73026001557e-20)
(0.00132950141328 -0.0301774936677 1.60781546341e-19)
(-2.23330073085 14.4347650362 1.04071518736e-19)
(-5.05616579877 14.921364806 -5.00739360204e-20)
(-8.16076700232 15.0625903399 -1.49020913479e-19)
(-11.4606178374 14.7433409998 -8.71404269331e-19)
(-14.9374607651 13.7069745419 -1.50526578471e-18)
(-18.5595440553 11.5807004303 -4.26740384701e-18)
(-22.0590132028 8.86153294685 -5.71577164593e-18)
(-22.5871049758 11.5872670047 -2.09627415853e-18)
(7.90698421499 23.990738487 1.45703915129e-17)
(-0.183912985558 -0.0581314325304 -7.52079524998e-20)
(0.083000842588 0.0390831867015 1.92509028896e-19)
(-5.35775852261 12.1225412959 -3.58933584934e-20)
(-8.09771985701 12.0269183384 -1.18828479662e-19)
(-10.9405226611 11.5725915622 -5.34252670036e-19)
(-13.7709289724 10.6537383547 3.25922520228e-20)
(-16.2346993383 9.05628513538 -3.0279120458e-18)
(-17.6647646866 6.68597912367 -2.49271436275e-19)
(-16.8079964457 7.9111465245 -1.32015724437e-17)
(22.4405693615 23.807949816 2.50026880082e-17)
(-0.0613905558046 0.184568491796 1.49660586593e-19)
(0.103136946427 0.0433746145802 7.76844313187e-20)
(-5.4181579461 9.63749153588 -3.29534384104e-20)
(-7.87366403824 9.39011755892 -2.27657735629e-19)
(-10.4006313377 8.89686557536 -5.95824621564e-19)
(-12.9316991404 8.21490201577 -1.15392200501e-19)
(-14.9124153416 7.63286982534 -1.41303944879e-18)
(-15.7486494638 6.59559680882 2.41448615314e-18)
(-17.959094269 11.3263748852 -5.76552010623e-19)
(34.1452618813 31.0450662355 1.43650577774e-17)
(-1.04716633271 -0.181267062214 -1.38899491055e-19)
(0.0925501372232 0.233795513728 6.36963428096e-20)
(-5.24862927258 7.41119571862 -1.7882829537e-20)
(-7.46718164094 6.97774044883 -1.90176061171e-19)
(-9.84214158195 6.36141203086 -8.4186486858e-19)
(-12.3382281155 5.82958625664 -2.41890712723e-19)
(-14.4792759622 5.91026876394 -7.56073756167e-19)
(-16.5906783763 5.30083242647 1.91496636839e-18)
(-27.4870454755 12.4745044248 -1.68818406249e-17)
(40.5939533041 36.8329641319 2.09562978402e-17)
(0.538674693512 0.531719091021 2.71611182332e-20)
(0.520421082573 0.659849460691 5.49726852534e-20)
(-4.85929484866 5.44316503491 8.53970929351e-21)
(-6.86144606938 4.77642338189 -3.2604916703e-19)
(-9.14230979094 3.91333557 -1.08330069222e-18)
(-11.6799438361 3.24539330178 1.30754148323e-19)
(-14.4253199001 3.1746221463 -1.96997093573e-18)
(-18.7531361199 1.60489260242 1.27147781154e-18)
(-38.4184834194 6.90034060692 -1.12699879899e-17)
(41.8677076792 39.5516290519 3.29482127062e-17)
(4.92378849141 3.28276011816 1.38912084805e-18)
(0.830133398003 -1.13889938878 7.46737092004e-20)
(-4.20305472121 3.74540038695 7.21806161729e-20)
(-5.94296434358 2.77335799841 -1.68693057075e-19)
(-8.07351047478 1.50938017111 -1.04108871608e-18)
(-10.6697201672 0.390669650515 -2.39672001947e-18)
(-14.1994152453 -0.379004870874 -6.29652393219e-18)
(-20.548489186 -4.01349435156 5.20561714483e-19)
(-47.1643063082 -2.43223998004 -3.21049976507e-18)
(48.3774898195 46.360056351 4.16631287571e-17)
(-4.43475174156 -4.46711090466 -1.31167278401e-18)
(0.210673443671 -1.99533875142 8.94324063036e-20)
(-2.06127639795 3.31326049044 1.04271236032e-19)
(-3.19292005183 2.37149680585 1.00586222403e-19)
(-4.56266549045 1.07025301789 -3.68268581781e-19)
(-6.30747352827 -0.703403635731 -6.80104846109e-19)
(-8.67303047583 -2.65630706497 -9.7076231809e-19)
(-12.4845021636 -4.76077142286 -6.35895115075e-18)
(-20.2619025936 -12.1837365855 6.25331630026e-18)
(-43.9807007636 -20.2285807501 9.38241983968e-18)
(44.1399589692 44.4672346814 3.27895162185e-17)
(-8.52192046157 -10.5735593328 -1.76536231168e-18)
(-0.318677203995 -0.569551470866 2.34848466903e-20)
(-1.32901655754 2.48567751475 -5.32902587655e-20)
(-2.05481016902 1.34368589085 2.20373310384e-19)
(-2.96156613936 -0.226825444541 7.04312670933e-20)
(-4.18159073432 -2.43895450864 -4.07715627996e-19)
(-6.00980303939 -5.08217670616 2.10616494771e-19)
(-9.4742655326 -8.34394821333 -3.53426085842e-18)
(-16.9811967689 -21.1081264838 -1.63365346611e-18)
(-24.0566913696 -37.3256236294 1.42320452222e-17)
(25.0422142195 43.7212167594 2.59703664072e-19)
(-4.51702094985 -13.0087157295 8.10533816649e-19)
(-0.338347050978 0.12705122609 -6.52081667832e-20)
(-0.830384272692 2.51640769318 1.04522731944e-19)
(-1.0984750352 1.33363701894 6.06547162165e-20)
(-1.40094665161 -0.31776515688 -3.90712143911e-19)
(-1.81292633959 -2.67283307708 -1.30316622796e-18)
(-2.46409584817 -5.8348826588 6.31416554314e-19)
(-3.40709910841 -9.33524707673 -6.76306556714e-18)
(-5.90022790601 -24.3696802232 2.41604629688e-17)
(-11.8373174341 -45.4601784738 3.7013156025e-17)
(-4.54647114095 48.8740945083 -4.07422969961e-17)
(-3.68010716036 -8.95928012103 4.00802188072e-18)
(0.0659487089145 -0.124143643349 -1.89124296401e-19)
)
;

boundaryField
{
    back
    {
        type            calculated;
        value           uniform (0 0 0);
    }
    sides
    {
        type            calculated;
        value           uniform (0 0 0);
    }
    bottom
    {
        type            calculated;
        value           nonuniform List<vector> 0();
    }
    front
    {
        type            calculated;
        value           uniform (0 0 0);
    }
    atmosphere
    {
        type            calculated;
        value           nonuniform List<vector> 
17
(
(-4.85170828047e-08 0.122559855901 -1.72740644903e-28)
(-1.1536306851e-08 0.0542076996028 -1.78157708397e-28)
(5.88649698043e-09 0.0261597168834 -2.66736014703e-28)
(-2.47547766293e-07 0.0295773797663 1.89333015262e-26)
(-2.85407676643e-08 0.0440767176847 -6.2088070101e-26)
(8.96566008553e-08 0.0253520559458 2.15318774598e-25)
(0.00814633856945 -0.00186405176822 9.84032954962e-20)
(-0.148717667973 -0.0301775070525 -2.3836642198e-19)
(0.383831518187 0.0390831867332 3.48991220056e-19)
(0.54126974833 0.0433746145774 1.2363545745e-19)
(5.12810958678e-12 0.233795513535 -3.11441372164e-31)
(5.35206637969e-12 0.659849460691 -1.70692948258e-31)
(-0.000110264627345 -1.13893058627 1.576538587e-22)
(-0.000107573108688 -1.9953387514 5.63552384047e-22)
(1.02366955359e-05 -0.569551463103 1.67569695648e-22)
(-1.77512919867e-05 0.127051241218 1.33004363636e-22)
(9.73111750211e-11 -0.124143643349 4.19523296844e-27)
)
;
    }
    floatingObject
    {
        type            calculated;
        value           nonuniform List<vector> 0();
    }
    procBoundary11to9
    {
        type            processor;
        value           nonuniform List<vector> 9((12.9228691045 57.991783695 -1.43591492942e-19) (7.12249348269 62.9314910061 -2.77700354487e-19) (0.947902979948 67.9268574983 -7.60540826355e-19) (-5.36012788252 72.8213162045 -3.32595722709e-18) (-13.5841036886 79.0453386964 2.45705186193e-18) (-24.741574566 77.3227492832 -7.83024601687e-18) (6.77893282967 51.3537252045 5.04262067089e-18) (-0.0746627442354 0.0350717279365 -1.40459305676e-20) (0.0524879864918 0.122595405997 1.0169302445e-20));
    }
    procBoundary11to10
    {
        type            processor;
        value           nonuniform List<vector> 
23
(
(13.2737214759 48.0658628489 -4.09194076688e-20)
(3.99903108575 47.021670856 -5.43472901591e-20)
(3.99903108575 47.021670856 -5.43472901591e-20)
(0.468035697335 41.6866032649 -9.22104160582e-20)
(0.468035697335 41.6866032649 -9.22104160582e-20)
(2.32100596254 33.9914685842 1.84780082003e-21)
(-0.146741178044 29.6073426271 -1.28057748875e-20)
(-2.06104877176 25.4663680856 -6.87470360732e-20)
(-2.06104877176 25.4663680856 -6.87470360732e-20)
(-0.0151546395794 20.3969263371 8.61544921038e-20)
(-0.0151546395794 20.3969263371 8.61544921038e-20)
(1.48388874162 16.1638249634 2.83205484679e-20)
(0.299959680819 13.6576771343 7.53279946218e-20)
(-2.83867464133 11.9090368172 4.83649793068e-20)
(-2.83867464133 11.9090368172 4.83649793068e-20)
(-3.16906945807 9.64251158818 2.50121699098e-20)
(-3.25030552015 7.64648155975 -1.91205895182e-21)
(-3.09565089347 5.9017695499 -2.83323227596e-21)
(-2.71148345417 4.45293700821 3.837824136e-20)
(-2.71148345417 4.45293700821 3.837824136e-20)
(-1.12560893818 3.91395033354 -1.86949765942e-19)
(-0.731999563709 3.22508180475 2.76842270182e-19)
(-0.608620410769 3.27142469827 -1.60866001637e-19)
)
;
    }
}


// ************************************************************************* //
