/*--------------------------------*- C++ -*----------------------------------*\
| =========                 |                                                 |
| \\      /  F ield         | OpenFOAM: The Open Source CFD Toolbox           |
|  \\    /   O peration     | Version:  v2012                                 |
|   \\  /    A nd           | Website:  www.openfoam.com                      |
|    \\/     M anipulation  |                                                 |
\*---------------------------------------------------------------------------*/
FoamFile
{
    version     2.0;
    format      ascii;
    class       volScalarField;
    location    "3.4";
    object      epsilon_0;
}
// * * * * * * * * * * * * * * * * * * * * * * * * * * * * * * * * * * * * * //

dimensions      [0 2 -3 0 0 0 0];


internalField   nonuniform List<scalar> 
167
(
0.00195078546121
0.00200626805204
0.00213359999003
0.00245094305833
0.00340544015997
0.00684178938676
0.0192125583872
0.0572833770983
0.16467958267
0.00200259679828
0.00213014695055
0.00244268259947
0.00338612283366
0.00686782600239
0.0194929994323
0.0568065624921
0.163916736795
0.00199929481956
0.00212824344544
0.00243840798758
0.00336582313281
0.00684181359039
0.0196972681176
0.0570602110812
0.163845684899
0.00193664569061
0.0019967807353
0.00212995243758
0.00244921659775
0.00339090737836
0.00683392816312
0.0194850874154
0.0567395322742
0.163633712336
0.00193207372269
0.00199430203573
0.00213180599318
0.00246231405938
0.00343467266863
0.00687898417255
0.0190108228735
0.0550836613258
0.162646909763
0.00192744746321
0.00199138860793
0.00213114890142
0.00246322284091
0.00343341161537
0.00682028418074
0.018238127258
0.0515582412009
0.159065132836
0.00189147912146
0.00192279046458
0.00198811258923
0.00212866348259
0.00245584351236
0.00340237931116
0.00672551007942
0.0177556620199
0.0476493148875
0.144634981086
0.00186878634246
0.00188599520964
0.0019181890841
0.00198469519641
0.00212518348264
0.00244287293465
0.00334509443567
0.00656664536404
0.0174891823221
0.0457218473072
0.129253104279
0.0018629048674
0.00188066302608
0.00191373644345
0.00198152569021
0.00212298343381
0.00243783436096
0.00332472980656
0.00654325633969
0.0177800800511
0.0466656968711
0.117320663597
0.00187541696264
0.00190936676868
0.00197863343166
0.00212218554416
0.0024391710242
0.00332824709153
0.00657591873095
0.0181879060771
0.0495112000913
0.131339163485
0.0018699135517
0.00190477881023
0.00197562184592
0.00212164577989
0.00244252889858
0.00333623043801
0.00658016797715
0.0182783285355
0.0519791617278
0.159320877219
0.00186305520484
0.00189880026738
0.00197135372343
0.00212070442233
0.00244674868323
0.0033389752683
0.00648290832134
0.0178096674085
0.0527429945587
0.163045471196
0.00185164999001
0.00188813031965
0.00196233271456
0.0021153503122
0.00244777700369
0.00332789203492
0.00625747837824
0.0167293293641
0.0520134040159
0.163848914161
0.00182688433816
0.00186354160907
0.0019384281587
0.0020934168352
0.00242925672852
0.0032940400062
0.00603432022271
0.0159477166473
0.0544430112292
0.166233251896
0.0017464238983
0.0017656013162
0.00180108758802
0.00187384228416
0.00202508206983
0.00235255052488
0.00318697978197
0.00581405663849
0.0157006834493
0.0561870203225
0.167926525011
0.00159028383945
0.00160764606823
0.00163920666457
0.00170387496804
0.00183841764943
0.00212781425689
0.00286823886779
0.00533357750961
0.0153865447149
0.0562964078364
0.16821836364
0.00152366666399
0.00154059073357
0.00156938263437
0.00162699501324
0.00174539763752
0.0019939677621
0.0026276284342
0.00503883637621
0.0168049770678
0.0677031716341
0.215966475139
)
;

boundaryField
{
    back
    {
        lowReCorrection 0;
        blending        stepwise;
        n               2;
        type            epsilonWallFunction;
        value           nonuniform List<scalar> 
167
(
0.00195078546121
0.00200626805204
0.00213359999003
0.00245094305833
0.00340544015997
0.00684178938676
0.0192125583872
0.0572833770983
0.16467958267
0.00200259679828
0.00213014695055
0.00244268259947
0.00338612283366
0.00686782600239
0.0194929994323
0.0568065624921
0.163916736795
0.00199929481956
0.00212824344544
0.00243840798758
0.00336582313281
0.00684181359039
0.0196972681176
0.0570602110812
0.163845684899
0.00193664569061
0.0019967807353
0.00212995243758
0.00244921659775
0.00339090737836
0.00683392816312
0.0194850874154
0.0567395322742
0.163633712336
0.00193207372269
0.00199430203573
0.00213180599318
0.00246231405938
0.00343467266863
0.00687898417255
0.0190108228735
0.0550836613258
0.162646909763
0.00192744746321
0.00199138860793
0.00213114890142
0.00246322284091
0.00343341161537
0.00682028418074
0.018238127258
0.0515582412009
0.159065132836
0.00189147912146
0.00192279046458
0.00198811258923
0.00212866348259
0.00245584351236
0.00340237931116
0.00672551007942
0.0177556620199
0.0476493148875
0.144634981086
0.00186878634246
0.00188599520964
0.0019181890841
0.00198469519641
0.00212518348264
0.00244287293465
0.00334509443567
0.00656664536404
0.0174891823221
0.0457218473072
0.129253104279
0.0018629048674
0.00188066302608
0.00191373644345
0.00198152569021
0.00212298343381
0.00243783436096
0.00332472980656
0.00654325633969
0.0177800800511
0.0466656968711
0.117320663597
0.00187541696264
0.00190936676868
0.00197863343166
0.00212218554416
0.0024391710242
0.00332824709153
0.00657591873095
0.0181879060771
0.0495112000913
0.131339163485
0.0018699135517
0.00190477881023
0.00197562184592
0.00212164577989
0.00244252889858
0.00333623043801
0.00658016797715
0.0182783285355
0.0519791617278
0.159320877219
0.00186305520484
0.00189880026738
0.00197135372343
0.00212070442233
0.00244674868323
0.0033389752683
0.00648290832134
0.0178096674085
0.0527429945587
0.163045471196
0.00185164999001
0.00188813031965
0.00196233271456
0.0021153503122
0.00244777700369
0.00332789203492
0.00625747837824
0.0167293293641
0.0520134040159
0.163848914161
0.00182688433816
0.00186354160907
0.0019384281587
0.0020934168352
0.00242925672852
0.0032940400062
0.00603432022271
0.0159477166473
0.0544430112292
0.166233251896
0.0017464238983
0.0017656013162
0.00180108758802
0.00187384228416
0.00202508206983
0.00235255052488
0.00318697978197
0.00581405663849
0.0157006834493
0.0561870203225
0.167926525011
0.00159028383945
0.00160764606823
0.00163920666457
0.00170387496804
0.00183841764943
0.00212781425689
0.00286823886779
0.00533357750961
0.0153865447149
0.0562964078364
0.16821836364
0.00152366666399
0.00154059073357
0.00156938263437
0.00162699501324
0.00174539763752
0.0019939677621
0.0026276284342
0.00503883637621
0.0168049770678
0.0677031716341
0.215966475139
)
;
    }
    sides
    {
        lowReCorrection 0;
        blending        stepwise;
        n               2;
        type            epsilonWallFunction;
        value           nonuniform List<scalar> 
11
(
0.00152366666399
0.00154059073357
0.00156938263437
0.00162699501324
0.00174539763752
0.0019939677621
0.0026276284342
0.00503883637621
0.0168049770678
0.0677031716341
0.215966475139
)
;
    }
    bottom
    {
        lowReCorrection 0;
        blending        stepwise;
        n               2;
        type            epsilonWallFunction;
        value           nonuniform List<scalar> 0();
    }
    front
    {
        lowReCorrection 0;
        blending        stepwise;
        n               2;
        type            epsilonWallFunction;
        value           nonuniform List<scalar> 
167
(
0.00195078546121
0.00200626805204
0.00213359999003
0.00245094305833
0.00340544015997
0.00684178938676
0.0192125583872
0.0572833770983
0.16467958267
0.00200259679828
0.00213014695055
0.00244268259947
0.00338612283366
0.00686782600239
0.0194929994323
0.0568065624921
0.163916736795
0.00199929481956
0.00212824344544
0.00243840798758
0.00336582313281
0.00684181359039
0.0196972681176
0.0570602110812
0.163845684899
0.00193664569061
0.0019967807353
0.00212995243758
0.00244921659775
0.00339090737836
0.00683392816312
0.0194850874154
0.0567395322742
0.163633712336
0.00193207372269
0.00199430203573
0.00213180599318
0.00246231405938
0.00343467266863
0.00687898417255
0.0190108228735
0.0550836613258
0.162646909763
0.00192744746321
0.00199138860793
0.00213114890142
0.00246322284091
0.00343341161537
0.00682028418074
0.018238127258
0.0515582412009
0.159065132836
0.00189147912146
0.00192279046458
0.00198811258923
0.00212866348259
0.00245584351236
0.00340237931116
0.00672551007942
0.0177556620199
0.0476493148875
0.144634981086
0.00186878634246
0.00188599520964
0.0019181890841
0.00198469519641
0.00212518348264
0.00244287293465
0.00334509443567
0.00656664536404
0.0174891823221
0.0457218473072
0.129253104279
0.0018629048674
0.00188066302608
0.00191373644345
0.00198152569021
0.00212298343381
0.00243783436096
0.00332472980656
0.00654325633969
0.0177800800511
0.0466656968711
0.117320663597
0.00187541696264
0.00190936676868
0.00197863343166
0.00212218554416
0.0024391710242
0.00332824709153
0.00657591873095
0.0181879060771
0.0495112000913
0.131339163485
0.0018699135517
0.00190477881023
0.00197562184592
0.00212164577989
0.00244252889858
0.00333623043801
0.00658016797715
0.0182783285355
0.0519791617278
0.159320877219
0.00186305520484
0.00189880026738
0.00197135372343
0.00212070442233
0.00244674868323
0.0033389752683
0.00648290832134
0.0178096674085
0.0527429945587
0.163045471196
0.00185164999001
0.00188813031965
0.00196233271456
0.0021153503122
0.00244777700369
0.00332789203492
0.00625747837824
0.0167293293641
0.0520134040159
0.163848914161
0.00182688433816
0.00186354160907
0.0019384281587
0.0020934168352
0.00242925672852
0.0032940400062
0.00603432022271
0.0159477166473
0.0544430112292
0.166233251896
0.0017464238983
0.0017656013162
0.00180108758802
0.00187384228416
0.00202508206983
0.00235255052488
0.00318697978197
0.00581405663849
0.0157006834493
0.0561870203225
0.167926525011
0.00159028383945
0.00160764606823
0.00163920666457
0.00170387496804
0.00183841764943
0.00212781425689
0.00286823886779
0.00533357750961
0.0153865447149
0.0562964078364
0.16821836364
0.00152366666399
0.00154059073357
0.00156938263437
0.00162699501324
0.00174539763752
0.0019939677621
0.0026276284342
0.00503883637621
0.0168049770678
0.0677031716341
0.215966475139
)
;
    }
    atmosphere
    {
        type            inletOutlet;
        inletValue      uniform 0.1;
        value           uniform 0.1;
    }
    floatingObject
    {
        lowReCorrection 0;
        blending        stepwise;
        n               2;
        type            epsilonWallFunction;
        value           nonuniform List<scalar> 0();
    }
    procBoundary11to9
    {
        type            processor;
        value           nonuniform List<scalar> 9(0.00195535454559 0.0020093093038 0.00213510115738 0.00245289006319 0.00340710130408 0.00680636024252 0.0190162282108 0.0571251631279 0.164819118331);
    }
    procBoundary11to10
    {
        type            processor;
        value           nonuniform List<scalar> 
23
(
0.00192514022869
0.00194598866296
0.00194598866296
0.00194124271761
0.00194124271761
0.00190830690671
0.00190267577353
0.00189705547594
0.00189705547594
0.00187479721974
0.00187479721974
0.00185761164863
0.00185134720516
0.00185711404779
0.00185711404779
0.00185106422347
0.00184372332908
0.00183194760647
0.00180712524205
0.00180712524205
0.00173362907933
0.00157838518623
0.00151108444603
)
;
    }
}


// ************************************************************************* //
