/*--------------------------------*- C++ -*----------------------------------*\
| =========                 |                                                 |
| \\      /  F ield         | OpenFOAM: The Open Source CFD Toolbox           |
|  \\    /   O peration     | Version:  v2012                                 |
|   \\  /    A nd           | Website:  www.openfoam.com                      |
|    \\/     M anipulation  |                                                 |
\*---------------------------------------------------------------------------*/
FoamFile
{
    version     2.0;
    format      ascii;
    class       surfaceVectorField;
    location    "3.9";
    object      ddtCorrDdt0(Uf);
}
// * * * * * * * * * * * * * * * * * * * * * * * * * * * * * * * * * * * * * //

dimensions      [0 1 -2 0 0 0 0];


internalField   nonuniform List<vector> 
305
(
(-0.0053325375843 0.010328249633 3.59857731373e-24)
(-0.010306105521 0.00533110825774 4.42504318646e-23)
(-0.00542582250716 0.0207895972096 8.03692616276e-24)
(-0.0104384895079 0.0155910145431 -5.27977303662e-23)
(-0.00544409610479 0.031395434671 6.27661268388e-23)
(-0.0105850944493 0.0261428273533 4.61631170487e-23)
(-0.00546870881009 0.0420127578956 1.05220803574e-22)
(-0.0105995603431 0.0367485430778 1.2187440664e-22)
(-0.00551554549403 0.0527041470239 7.92339744896e-23)
(-0.0106769643537 0.0474048021022 1.5253920945e-22)
(-0.00557647321334 0.0634895283059 -5.04992205488e-25)
(-0.0107494012054 0.0581586602839 7.08933612709e-23)
(-0.00563542097285 0.0744044667101 -1.00317744737e-22)
(-0.010855177301 0.0690341270519 -4.62874905725e-23)
(-0.0109404575569 0.0800336622914 -1.53105210881e-22)
(-0.0155850597799 0.0104211697363 -1.21458758154e-23)
(-0.0207045741692 0.00539752882319 -1.25626667819e-23)
(-0.0157262980451 0.0209830204745 -1.46715394803e-23)
(-0.0209782920251 0.0156343771182 -1.09044639093e-23)
(-0.0157939958741 0.0315067170125 1.0527139685e-22)
(-0.0210891402857 0.0261455426727 1.09609483571e-25)
(-0.0158951274927 0.0421164131833 1.69192812516e-22)
(-0.0211931293032 0.0367289822247 1.41851091304e-22)
(-0.0160345470705 0.0528161447777 1.44198596231e-22)
(-0.0213640440139 0.0473758792136 1.46408617154e-22)
(-0.0161991796505 0.0636554409901 2.51108629038e-23)
(-0.0215567246653 0.0581372722172 1.11011386166e-22)
(-0.016368724772 0.0746353292601 -9.90749567172e-23)
(-0.0217682651115 0.0690390383884 -3.32090904816e-23)
(-0.0219893468502 0.0800939345331 -4.79165449989e-23)
(-0.0260391895199 0.0104698534168 -1.13212548759e-23)
(-0.0311541755699 0.00536028040115 -9.01133124005e-23)
(-0.0262114120694 0.0209071495759 3.87668505449e-24)
(-0.0313965904788 0.0155356588074 -8.04664757666e-23)
(-0.0263595603607 0.0313780136263 3.66893039376e-23)
(-0.031543871923 0.0260005357319 -4.76646348672e-23)
(-0.0265572970607 0.0419574305642 1.19066895942e-22)
(-0.031759806734 0.0365274051333 1.0621715013e-22)
(-0.0267953580472 0.0526415320082 1.13221407089e-22)
(-0.0320394833678 0.047140316612 9.48334823898e-23)
(-0.0270663249553 0.0634742599802 5.26914327803e-23)
(-0.0323615090732 0.0578769316044 6.96415809516e-23)
(-0.0273503978085 0.0744442770714 1.79493212367e-23)
(-0.0327147370981 0.0687710944693 3.69660503641e-23)
(-0.0330531053606 0.0798492633519 -4.78670634173e-24)
(-0.0364409608265 0.0103340432752 -1.59258533291e-22)
(-0.0414721204434 0.00530182899455 -6.22652152334e-23)
(-0.036663213695 0.020700962332 -1.32007795688e-22)
(-0.0417492707474 0.0153842013107 -1.62694412048e-22)
(-0.0368903029398 0.0311414059317 2.18632113249e-23)
(-0.041973233149 0.0257649315439 -4.74800383833e-23)
(-0.0371934553747 0.0416687497632 8.19837365774e-23)
(-0.0422798733922 0.036210325727 5.90250706707e-23)
(-0.0375604103532 0.0523142727893 5.12536562528e-23)
(-0.0426827029463 0.046762265864 5.58701711811e-23)
(-0.0379778737389 0.063108449176 5.39161985354e-23)
(-0.0431481440947 0.0574530772697 2.4761601195e-23)
(-0.0384197884391 0.0741014381435 1.42300227858e-23)
(-0.0436653941902 0.0683239154343 3.51864043318e-23)
(-0.0388554927597 0.0852762940236 -4.72040731793e-23)
(-0.0442021836588 0.0794092507936 -3.33839794573e-23)
(-0.0446783827695 0.0907678058929 -3.27396681848e-23)
(-0.0467210642955 0.0102197719708 -6.57010939906e-23)
(-0.0516807703411 0.00523812724311 3.34987089452e-24)
(-0.0470054048154 0.0204601417946 -7.81666547434e-23)
(-0.0519808675072 0.0151822885248 -7.70206507494e-23)
(-0.0473276640321 0.0308060654754 -1.03181790375e-23)
(-0.0523136975962 0.0254323867625 1.73560900683e-23)
(-0.0477439968025 0.0412530242572 3.29115052744e-23)
(-0.0527252905385 0.0357794347568 3.57380680943e-23)
(-0.0482565072742 0.0518275632119 2.93781161233e-23)
(-0.0532609553721 0.0462363965401 3.45029811448e-23)
(-0.0488452047163 0.0625741999261 6.03180699137e-24)
(-0.053900349514 0.0568545103762 1.49349866982e-23)
(-0.0494849820979 0.0735331923869 -1.24275979113e-23)
(-0.0546120522896 0.0676746730165 -3.65962372842e-24)
(-0.0501266189303 0.0847554990922 -1.89195744627e-23)
(-0.0553611615153 0.0787564315526 -1.2492130968e-23)
(-0.0507299534416 0.0962898776293 8.04150928956e-24)
(-0.0561114342087 0.0901505883183 -7.23100986993e-24)
(-0.0567863069076 0.101899769622 6.43540004123e-24)
(-0.0568785030129 0.0100492706318 -7.96968586427e-24)
(-0.0617241626911 0.00516260468286 4.68859678581e-23)
(-0.0572332089662 0.0201897038752 1.85020940623e-23)
(-0.0621181252583 0.0149281935372 -5.3338671878e-23)
(-0.057651426633 0.0303820120286 6.34123372001e-23)
(-0.0625061232779 0.0250055627182 2.18485196327e-23)
(-0.0581992381078 0.0407002362583 3.73295439647e-23)
(-0.0630474357425 0.0352185368911 6.08933036818e-23)
(-0.0588795798866 0.0511715279145 2.00598517196e-23)
(-0.0637401329297 0.0455444511412 3.88201778799e-23)
(-0.0596705681761 0.0618443444231 5.24355597838e-24)
(-0.064583931453 0.056056695188 1.74421436738e-23)
(-0.0605367633537 0.0727551562981 -3.72415678519e-24)
(-0.0655241707794 0.0668033592426 9.68042052901e-24)
(-0.0614332293097 0.0839881748032 -8.03566375226e-25)
(-0.066540078266 0.0778527274363 -2.68322489472e-24)
(-0.0623094925932 0.0955695801481 -8.83711911826e-24)
(-0.0675714599586 0.0892613636874 1.33066458113e-23)
(-0.0685684616955 0.101057086256 -4.29039932745e-23)
(-0.0668734634495 0.00983841804446 1.51698184444e-24)
(-0.0715618718194 0.00505428036277 1.85862080501e-23)
(-0.0673142623075 0.0198008002918 -4.99922463076e-23)
(-0.072082668774 0.01460688649 -4.79446245153e-23)
(-0.0678282490541 0.0298273210031 1.93294861144e-23)
(-0.072537953366 0.0244830314592 4.20803187594e-24)
(-0.0685274808561 0.0399863534782 6.23839375971e-23)
(-0.0732153421891 0.0345058319144 5.1500288792e-23)
(-0.0693982862226 0.0503253994558 3.62024698341e-23)
(-0.0740911830521 0.0446629732022 5.12367081885e-23)
(-0.0704197984902 0.0608805164606 2.18790082244e-23)
(-0.0751511279587 0.0550305345127 2.61855112139e-23)
(-0.0715511681792 0.0717226185572 1.07213524195e-23)
(-0.0763698724919 0.0656690348606 1.33480178665e-23)
(-0.0727462098699 0.0829257073605 1.14269872918e-23)
(-0.0776921678562 0.076652017558 -1.24030148549e-23)
(-0.0739479882641 0.094524194494 -2.07602283449e-23)
(-0.0790467745326 0.0880486507307 3.30758217419e-23)
(-0.0804060415812 0.0998962321989 -4.8202794351e-23)
(-0.0766545280802 0.0096046568736 -3.08753983096e-23)
(-0.0811707194947 0.00490976918464 -4.75375124202e-23)
(-0.0771971621658 0.0193247316524 6.25565366821e-24)
(-0.0818098103967 0.0142023948276 -1.14780667926e-22)
(-0.0778247895481 0.0291361776484 3.63788345535e-23)
(-0.0823593131509 0.0238464207116 -1.53383251064e-23)
(-0.0786901452851 0.0390916729704 4.03530593834e-23)
(-0.0831840505593 0.0336251882067 1.94299508443e-23)
(-0.0797765589709 0.0492483238479 4.12197495682e-23)
(-0.0842634954705 0.0435647164214 4.80548315351e-23)
(-0.0810584876703 0.059659049137 1.76545208559e-23)
(-0.0855763166441 0.0537439531433 1.43354769057e-23)
(-0.0824965779009 0.0703889551942 -9.77634940794e-24)
(-0.0871028873178 0.0642281149529 -6.56225650871e-24)
(-0.084040384406 0.081520786844 9.24581959511e-24)
(-0.0887763368307 0.0751038459446 -7.33698432434e-26)
(-0.0856196203011 0.0931477118606 5.63325573574e-24)
(-0.0905406919583 0.0864613812681 8.33966858863e-24)
(-0.0923252620818 0.0983594402568 -5.61936370747e-23)
(-0.0861835176678 0.00935159169355 -1.31442782036e-22)
(-0.090531039235 0.0047408958314 -6.23105343944e-23)
(-0.0868253344558 0.0187660473366 -1.363746467e-22)
(-0.0912357402329 0.0137177137051 -1.30398611079e-22)
(-0.0875849973463 0.0282955312662 -3.22872088155e-23)
(-0.0919027514753 0.0230766179872 -6.90145815553e-23)
(-0.0886362825071 0.0379923309487 2.71317229961e-23)
(-0.0928976999514 0.0325563056624 9.45787363879e-24)
(-0.0899659789244 0.0479128242845 2.11705588725e-23)
(-0.0942030758037 0.0422212386123 4.2510573321e-23)
(-0.0915474370443 0.0581298993188 -9.88130045893e-24)
(-0.0958097642732 0.052156908046 5.50791607498e-24)
(-0.093338132636 0.0687016865526 3.14072305599e-24)
(-0.0976785068505 0.0624342327127 -7.69695532329e-24)
(-0.0952866888654 0.0797459373921 -9.79520849721e-25)
(-0.0997703277903 0.0731505361491 1.24518250366e-23)
(-0.0973220908576 0.0913360735223 -5.34872242218e-23)
(-0.101998567352 0.084417255126 -9.02314409204e-24)
(-0.104330636327 0.0963250092247 -5.78359849426e-23)
(-0.0954059882886 0.00901081113244 -6.12663634372e-23)
(-0.0995546216139 0.00455882483516 -2.6961908527e-23)
(-0.0961419986071 0.0180825757141 -6.3038545934e-23)
(-0.100322814485 0.013158725805 -4.62553819047e-23)
(-0.0970530092608 0.0272845340211 -2.72694991009e-23)
(-0.10112216052 0.0221533909261 -8.01831537224e-23)
(-0.0983109659453 0.0366661161654 2.48367239637e-23)
(-0.102299312612 0.0312782739466 9.62222125922e-24)
(-0.0999089354176 0.0462970189777 2.68479305235e-23)
(-0.103855795161 0.0406079493643 3.98734979059e-23)
(-0.101826653867 0.0562486560477 7.69226121062e-24)
(-0.105780508734 0.0502327499256 5.84867327085e-24)
(-0.104022410209 0.0666082265582 1.61414665728e-24)
(-0.108042518875 0.060234431953 1.33282000581e-25)
(-0.106445704005 0.0774828700136 4.40820179424e-24)
(-0.110596896265 0.0707214077352 -1.93533281389e-24)
(-0.109033283712 0.0890204014667 -1.33719048128e-23)
(-0.113395176344 0.0818199139357 -4.64611897303e-24)
(-0.116349475962 0.0936667590888 -2.42642390707e-23)
(-0.104257415872 0.00856151444994 -1.19509269945e-23)
(-0.108132170341 0.00434694508173 3.57511848996e-23)
(-0.105106877138 0.0172642018426 -6.33999896931e-23)
(-0.109043736177 0.0125063699947 -3.89099656204e-23)
(-0.106176687681 0.0260865433688 -4.32914333623e-23)
(-0.109964645818 0.0210695590485 -4.89613337877e-23)
(-0.107656998608 0.0350913221332 2.46589952014e-23)
(-0.11132655316 0.0297749821118 2.06241219544e-24)
(-0.109545180968 0.0443651557946 1.88742406533e-23)
(-0.113153839382 0.0387022096148 3.67168258803e-23)
(-0.111828918274 0.0539848704986 -1.71030593919e-24)
(-0.115420729793 0.0479419340988 4.8248543735e-24)
(-0.114472672818 0.0640441568708 -3.41619747059e-24)
(-0.118107670473 0.0575865184772 -1.88446471467e-23)
(-0.117434013893 0.074679597858 -1.09896535812e-23)
(-0.121181101507 0.0677535132023 -1.54686689745e-23)
(-0.120673346557 0.0860114859194 -1.55384532309e-23)
(-0.124590639775 0.0785704004315 -3.6170132359e-23)
(-0.128460923142 0.0902704925553 -1.44043436934e-23)
(-0.112675099701 0.00812279028635 8.79214627368e-24)
(-0.116272913787 0.00409949037992 4.02830103651e-23)
(-0.11364748367 0.0163360247089 -2.4471309715e-23)
(-0.117276565971 0.0117504460737 -1.02193294353e-22)
(-0.114881119993 0.0246862024895 -3.60748822998e-24)
(-0.118336035462 0.0198199995639 -2.70099437896e-23)
(-0.116598490697 0.0332521055735 1.41202428744e-23)
(-0.119915788206 0.0280318978381 -8.985020004e-24)
(-0.118800182755 0.0420909955917 2.26674396005e-23)
(-0.122017285031 0.0364802780475 4.08592593246e-23)
(-0.121478386739 0.0513014092792 -1.2309486834e-23)
(-0.124652153181 0.0452548485927 7.3900511739e-24)
(-0.124600707717 0.0609795620902 -3.08971186506e-23)
(-0.127790336949 0.0544596271322 -3.05562937626e-23)
(-0.128129831398 0.0712533549207 -4.06491477523e-23)
(-0.131405022135 0.0642188953263 -4.18326399586e-23)
(-0.132015450572 0.0822437762116 -3.50360228215e-23)
(-0.135435573231 0.0746765659956 -6.24880354933e-23)
(-0.140446290911 0.0860407472359 -2.62982764992e-23)
(-0.120589234955 0.0075687586897 -7.07024302612e-23)
(-0.123859377502 0.00382060806715 3.31997876044e-23)
(-0.121685607291 0.0152550565034 -1.04731928427e-22)
(-0.12498121876 0.0108911584891 -1.76923989257e-22)
(-0.123092416723 0.0230837273395 -3.23874755636e-23)
(-0.126184173336 0.0183946333058 -9.14062583268e-23)
(-0.125059522138 0.0311239536722 1.77539964463e-23)
(-0.127977052808 0.0260361699845 -3.21591578143e-23)
(-0.127592418408 0.0394482443347 2.5581870898e-23)
(-0.130363400901 0.0339250928283 2.97750517528e-23)
(-0.130686718133 0.0481623498514 -1.08567557547e-23)
(-0.133383008072 0.0421508701896 1.08101949471e-23)
(-0.134322902809 0.0573701279025 -4.14918150706e-23)
(-0.136998900903 0.0508195499855 -7.80147975354e-24)
(-0.138463310359 0.0672279821957 -6.36715276996e-23)
(-0.141205569582 0.0600751067913 -1.94211713304e-23)
(-0.143047133523 0.0779181846903 -5.3750289171e-23)
(-0.145982290075 0.0700868039002 -4.03969305083e-23)
(-0.151774148346 0.0809250631261 -3.28218946708e-23)
(-0.12793032669 0.00697703056794 -7.30217713912e-23)
(-0.130850731879 0.00350935613554 1.01547347754e-23)
(-0.129152263532 0.0140555536859 -1.63598319156e-22)
(-0.132073264683 0.00992766051187 -1.57156245471e-22)
(-0.130737380128 0.0212694312766 -9.11779405775e-23)
(-0.133411800805 0.0167884319592 -1.18664241528e-22)
(-0.132957213415 0.028698373645 -2.01381025077e-23)
(-0.135420478978 0.0237839838848 -5.21733602907e-23)
(-0.135829749363 0.0364325416061 1.50033758019e-23)
(-0.13811181749 0.0310280846462 4.44032661014e-24)
(-0.139359716701 0.0445525625915 1.38654709482e-23)
(-0.141512824037 0.038611508627 1.16728658347e-23)
(-0.143535627777 0.0531939496593 1.42691639867e-23)
(-0.145633774587 0.0466417856805 7.62815837133e-24)
(-0.148343256952 0.0624953681212 3.85342586093e-24)
(-0.15043671571 0.0552679621251 2.75771924122e-23)
(-0.153769540038 0.0726678773141 -1.94685360081e-23)
(-0.155974248185 0.0646590280733 -1.60705209426e-24)
(-0.162433994213 0.0748698461421 -1.2274666626e-23)
(-0.134628689495 0.00628043194887 -7.39797393046e-23)
(-0.137138310181 0.00316460797996 4.49140995635e-24)
(-0.135972320001 0.0126908561474 -1.12222167843e-22)
(-0.138488336054 0.00886242394167 -8.44076656192e-23)
(-0.137730530127 0.019231378081 -7.96596612414e-23)
(-0.139956218851 0.0150055430336 -8.47606074149e-23)
(-0.14020198258 0.0259757679296 -2.75949311729e-23)
(-0.14216896606 0.021277087879 -2.92230946159e-23)
(-0.14341350967 0.0330188433034 1.10981664298e-24)
(-0.14515967273 0.0277920313132 -9.19138700075e-25)
(-0.147377273863 0.0404545695911 5.4355532578e-24)
(-0.148940159708 0.0346416432127 3.04113783722e-24)
(-0.152092463983 0.0483940074517 2.09361867968e-23)
(-0.153515937642 0.0419294485979 4.02759666717e-24)
(-0.157568276523 0.0569993565071 2.2116714457e-23)
(-0.158926533979 0.0497961785258 1.8100416833e-23)
(-0.163837788498 0.0664511905478 5.58681728783e-24)
(-0.165176488003 0.0583911664402 4.58319014814e-24)
(-0.172438076594 0.0677903911248 6.57334475874e-24)
(-0.140598600729 0.00554540484937 -5.9365163582e-24)
(-0.142670716979 0.00278509257039 1.52253508955e-22)
(-0.142066851625 0.0111946741091 -5.69461051912e-23)
(-0.14412164417 0.00769404406718 1.89846874256e-23)
(-0.143992481709 0.0169804340739 -3.43240407894e-23)
(-0.145731435784 0.0130527226253 -3.14824501165e-24)
(-0.146703541203 0.0229646211486 -2.54730214314e-24)
(-0.148146183273 0.0185296969823 4.14742346384e-24)
(-0.150234541075 0.0292337308181 1.01218249416e-24)
(-0.151385276633 0.0242393291705 -1.6468798257e-23)
(-0.154617226239 0.0358880887491 1.63318124659e-24)
(-0.155524976151 0.0302596028048 2.42857302949e-24)
(-0.159857517077 0.0430127959974 1.1918267033e-24)
(-0.160577213887 0.0366989634463 4.86027749995e-24)
(-0.165982089 0.0507968217806 5.66892524118e-25)
(-0.173003013313 0.0593284591888 5.56971761905e-24)
(-0.145767825757 0.00474433940622 1.77174712739e-22)
(-0.147374705163 0.00237712331233 2.73696929827e-22)
(-0.147351722944 0.00958095285003 7.27825476051e-23)
(-0.148924341486 0.00643253293353 9.75131692929e-23)
(-0.149429839086 0.0145350000328 3.53232192416e-23)
(-0.150652614892 0.0109447169284 6.39949295256e-23)
(-0.152360643419 0.0196965793395 -9.77407265003e-24)
(-0.153221564892 0.0155586630874 2.51578823727e-23)
(-0.156199868148 0.0250999400069 -1.50524077217e-23)
(-0.156734670751 0.020375368747 1.24759912645e-23)
(-0.160982746039 0.0308607082266 5.65566928286e-24)
(-0.150075041041 0.00386620027727 1.9403538638e-22)
(-0.151759811597 0.00783592236943 8.87255512133e-23)
(-0.153971889023 0.0119264264898 5.38295926567e-23)
(-0.154646589852 0.00869707728244 3.61056546898e-23)
(-0.157103503215 0.0161482610121 4.74079462872e-23)
(-0.15738960988 0.012379099921 3.72861346725e-23)
(-0.157565806083 0.00913494894801 1.95621967056e-23)
)
;

boundaryField
{
    back
    {
        type            calculated;
        value           uniform (0 0 0);
    }
    sides
    {
        type            calculated;
        value           uniform (0 0 0);
    }
    bottom
    {
        type            calculated;
        value           uniform (0 0 0);
    }
    front
    {
        type            calculated;
        value           uniform (0 0 0);
    }
    atmosphere
    {
        type            calculated;
        value           nonuniform List<vector> 0();
    }
    floatingObject
    {
        type            calculated;
        value           nonuniform List<vector> 0();
    }
    procBoundary2to0
    {
        type            processor;
        value           nonuniform List<vector> 
14
(
(-0.16654683049 0.0436802387779 2.61117089922e-23)
(-0.173512518033 0.0513773853149 1.85650822649e-24)
(-0.181392405145 0.0599550308073 5.45185257924e-24)
(-0.161218117307 0.0254747465249 2.17403634752e-23)
(-0.166733966005 0.0370802983706 2.97801597889e-23)
(-0.166693498398 0.0309548087688 4.46206958751e-24)
(-0.151184440048 0.00193960735153 1.98815535629e-22)
(-0.152829906854 0.00509093625595 2.46590307634e-23)
(-0.161215390535 0.0206129332794 4.92687624613e-23)
(-0.161103309186 0.0162280550383 4.20117895088e-23)
(-0.155235859082 0.00599334792491 -2.79608657602e-23)
(-0.157683689149 0.00632791905837 -2.03120512387e-23)
(-0.160862973707 0.0123871827624 3.18899778942e-23)
(-0.160546839628 0.00902611765277 2.9982046676e-23)
)
;
    }
    procBoundary2to1
    {
        type            processor;
        value           nonuniform List<vector> 
18
(
(-0.00568996384089 0.0854265981077 -1.50542056051e-22)
(-0.0165140036477 0.0857317542823 -2.21793781516e-23)
(-0.0276174645322 0.0856280699864 2.64291907388e-23)
(-0.0334162648487 0.0911484993283 -1.59881760988e-23)
(-0.0392364936596 0.0967872393642 3.93027008537e-23)
(-0.0451616394172 0.102429839201 8.00838783281e-23)
(-0.0512495817975 0.108206016886 4.52316334021e-24)
(-0.0631381954861 0.107533390431 -2.07086926554e-23)
(-0.0750969396113 0.106552442229 -5.43026767307e-23)
(-0.0871415703671 0.105258300121 -5.81434965376e-23)
(-0.0993443283868 0.103543586231 -2.15912566912e-23)
(-0.11167786184 0.101239474807 -2.56111953021e-23)
(-0.124055411347 0.0983317374823 -1.33678939653e-23)
(-0.136232309294 0.0944333273941 -2.06003450848e-24)
(-0.148153404778 0.0894647484862 -2.25571913622e-23)
(-0.159819603286 0.0835836728262 -3.75979717291e-24)
(-0.170915620168 0.0767319001247 -8.41972275169e-25)
(-0.180844004429 0.0686537033592 -9.717904472e-24)
)
;
    }
}


// ************************************************************************* //
