/*--------------------------------*- C++ -*----------------------------------*\
| =========                 |                                                 |
| \\      /  F ield         | OpenFOAM: The Open Source CFD Toolbox           |
|  \\    /   O peration     | Version:  v2012                                 |
|   \\  /    A nd           | Website:  www.openfoam.com                      |
|    \\/     M anipulation  |                                                 |
\*---------------------------------------------------------------------------*/
FoamFile
{
    version     2.0;
    format      ascii;
    class       volVectorField;
    location    "3.9";
    object      U_0;
}
// * * * * * * * * * * * * * * * * * * * * * * * * * * * * * * * * * * * * * //

dimensions      [0 1 -1 0 0 0 0];


internalField   nonuniform List<vector> 
167
(
(-0.000677706569233 0.000664295581438 6.18856278153e-22)
(-0.000354631691535 0.00175416643307 9.46465532899e-22)
(-0.000263939681065 0.0024769069574 2.9303461575e-22)
(-0.00027246753026 0.00319524915828 -3.55358191092e-22)
(-0.000306446769152 0.00392909025978 -8.32765603388e-22)
(-0.000325879624659 0.00469233937094 -7.86943826162e-22)
(-0.000338598980541 0.00548822001149 -4.95300109003e-22)
(-0.000353412615744 0.00630731517275 3.90314387058e-22)
(-0.00173909236694 0.000330531419516 9.04546385408e-22)
(-0.00132282827455 0.0013024272793 1.11707947476e-21)
(-0.00117101843915 0.00202397029557 4.69665479914e-22)
(-0.0011431250491 0.00274010337952 -3.50769227226e-22)
(-0.00116347671851 0.00343123875523 -1.03244812565e-21)
(-0.00118829210932 0.00411231425036 -9.45842153182e-22)
(-0.00121263159357 0.00479736880586 -7.33858447625e-22)
(-0.00125050262933 0.00549262223442 -1.46178890784e-22)
(-0.00243318986892 0.000229342867316 1.4102066832e-21)
(-0.00203451421016 0.00111781007036 1.7979176913e-21)
(-0.00183818224013 0.00177610564415 8.85190165789e-22)
(-0.00176371840563 0.00245922722708 8.24054514023e-24)
(-0.00176005937166 0.00310346604416 -5.00519239979e-22)
(-0.00177995102175 0.00372624071709 -5.3811524738e-22)
(-0.0018101751595 0.00433908906697 -3.68386370758e-22)
(-0.00185992654201 0.00494861617979 -5.8532660048e-23)
(-0.00309797201437 0.000229126271518 1.4575385289e-21)
(-0.00272877338906 0.00107031052185 1.69908933187e-21)
(-0.00250785893835 0.00167843262933 1.05138857941e-21)
(-0.00239960364928 0.00232970070044 3.09368054061e-22)
(-0.00236395110986 0.00293818709969 -1.18182118337e-22)
(-0.002358539979 0.00352002365021 -2.0972182629e-22)
(-0.00237269789534 0.00408261842901 -1.44598293651e-22)
(-0.00240945017488 0.00462652056708 -2.8280317675e-24)
(-0.00248995063359 0.00516051328916 3.54641671004e-24)
(-0.00377063248224 0.000260744361665 1.03234182972e-21)
(-0.00340230293329 0.00109057524608 1.68711402232e-21)
(-0.00314560130037 0.00168014203132 1.10287556762e-21)
(-0.00300650708294 0.00230766828448 4.64476124421e-22)
(-0.00294163119033 0.00289506155726 9.04650620387e-23)
(-0.00290739026813 0.00345043992334 -2.62738792175e-23)
(-0.00289355760984 0.00397876426138 -3.14417356288e-23)
(-0.00290228944012 0.00447454773643 1.57100834253e-23)
(-0.00295347346695 0.00493306442366 1.72464655389e-23)
(-0.00307540407887 0.00534887835996 -2.17801991596e-23)
(-0.0044799590258 0.000282288378203 8.25812961885e-22)
(-0.00406654367875 0.00113001918885 1.38884622468e-21)
(-0.00377547178728 0.00173028483384 9.72864580782e-22)
(-0.0036036771686 0.00234177179704 4.49267324538e-22)
(-0.00350741867425 0.00292106373603 1.45802236722e-22)
(-0.00343821331235 0.0034656363779 2.51934890828e-23)
(-0.00338401410044 0.00397255415107 1.30993764789e-24)
(-0.00335034754463 0.00442809696648 2.48817344756e-24)
(-0.00334973683124 0.00482497627871 -3.96143704837e-24)
(-0.00339975416751 0.00515535976753 -7.81896369923e-24)
(-0.00523040659503 0.000304342428695 7.56027390067e-22)
(-0.00474034954883 0.00117375275855 1.12946910877e-21)
(-0.00441288906655 0.00179352215511 8.13415355275e-22)
(-0.00420403482479 0.0024109234666 3.76895543889e-22)
(-0.00406965613383 0.00299541424813 1.07687558903e-22)
(-0.00396101519543 0.00353938357204 2.80648673921e-23)
(-0.00385561175647 0.00403302240002 -1.06671931015e-23)
(-0.00376175634947 0.00446446025773 -1.61981614101e-23)
(-0.0036823566191 0.00482212372651 -1.5707770736e-23)
(-0.00363833971406 0.00508574163725 -2.81528179851e-23)
(-0.00601776282121 0.000327887464021 8.71532441546e-22)
(-0.00544345570713 0.00122452540008 1.34434672926e-21)
(-0.00506736330161 0.00187199185216 9.02064194497e-22)
(-0.00481643335862 0.00251022968694 4.21649379305e-22)
(-0.00464012295037 0.00310904827044 1.36481304589e-22)
(-0.00448341307599 0.00366550911468 3.45386096201e-23)
(-0.00432168617712 0.0041652008578 2.86537558087e-24)
(-0.00414937711573 0.00458849655858 -1.84544077398e-23)
(-0.0039735750069 0.00492071615872 -1.96058766431e-24)
(-0.00381145773619 0.00513968849823 -2.57587150541e-23)
(-0.00683816814114 0.000357484102443 9.13433475838e-22)
(-0.0061823144775 0.00128725859124 1.23485397146e-21)
(-0.00575176273798 0.00196634909319 8.93834878353e-22)
(-0.00545473271263 0.0026401534357 4.37658670331e-22)
(-0.00523355842671 0.00326975942042 1.54071992728e-22)
(-0.00502083710133 0.0038473298199 7.6368519904e-23)
(-0.0047917184906 0.00436630667766 9.57600176039e-24)
(-0.00453362869451 0.00480506873738 3.68793825897e-24)
(-0.00425004825701 0.00514105359401 2.46717716282e-25)
(-0.003949531199 0.00534948753628 -1.83850193003e-23)
(-0.00769427619976 0.000387320752721 6.76293963809e-22)
(-0.00696995012312 0.0013586957241 1.07654944048e-21)
(-0.00647702174716 0.00208138567814 7.62376406281e-22)
(-0.00613101159706 0.00280228024803 3.82672165365e-22)
(-0.00586252753165 0.00347612985067 1.26862992911e-22)
(-0.00559424916919 0.00409581554508 2.76555321621e-23)
(-0.00528847868251 0.0046512060429 9.44833680641e-24)
(-0.00493642948474 0.00512238637968 3.86509026914e-24)
(-0.0045345307781 0.00548683527541 1.48348494203e-23)
(-0.00408951931124 0.00571854049754 -1.16461515621e-23)
(-0.00860494413723 0.000414471893131 1.39562070099e-22)
(-0.00780460678308 0.00143758708488 4.98015699209e-22)
(-0.00725155140089 0.00222257401293 4.61827456218e-22)
(-0.00685349094763 0.00299906983552 2.71658380422e-22)
(-0.00653971448407 0.00373011574677 9.07581676522e-23)
(-0.00621544541014 0.00440799509546 9.65932314476e-24)
(-0.00583558911177 0.00502241980012 1.63455005983e-24)
(-0.0053839503582 0.00555014837452 -2.52356831168e-24)
(-0.00485625275361 0.00596696383393 -1.28951615213e-23)
(-0.00425202155427 0.00626374195489 -2.25772423273e-23)
(-0.0095795135835 0.000451896414271 -2.69952475825e-23)
(-0.00869765544255 0.00153215373987 5.9160951786e-22)
(-0.00808972978229 0.00238546387187 4.72306280324e-22)
(-0.00764331671409 0.0032295461704 2.69090566544e-22)
(-0.00728309220114 0.00402878160982 7.78174093513e-23)
(-0.00690223456157 0.00478408085305 1.06864458807e-23)
(-0.00645097435051 0.0054803168314 -1.32908266252e-23)
(-0.00590546706072 0.00609359656662 -2.28914175526e-23)
(-0.00525278661001 0.00659924234522 -4.76850612269e-23)
(-0.00448162036049 0.00697609444765 -5.32814214119e-23)
(-0.0106223984781 0.000492112052438 2.58819017462e-23)
(-0.00966577804461 0.00163654128293 6.92591170333e-22)
(-0.009000767481 0.00256596200102 5.48827142167e-22)
(-0.00851129245909 0.00349152750867 2.87274814551e-22)
(-0.00810464117861 0.00437579075163 5.88342367071e-23)
(-0.00767491209371 0.00522157906331 2.57250496772e-24)
(-0.00715874806323 0.00601679978104 -7.16906373372e-24)
(-0.00652481573619 0.00674183223029 -2.88756500677e-23)
(-0.00575954281077 0.00737511894836 -6.08109316475e-23)
(-0.00483971763329 0.00788362629562 -4.0169205873e-23)
(-0.0117348959475 0.000539353826424 -1.86885434785e-22)
(-0.0107117863916 0.00175259292086 3.52697264843e-22)
(-0.00999044958339 0.0027652135996 3.6120128239e-22)
(-0.0094617020775 0.00378218420968 2.25674534059e-22)
(-0.00902096335421 0.00475879793619 5.95049640201e-23)
(-0.00855023432648 0.00570783218766 -5.7489972483e-24)
(-0.00798051358652 0.00662848568208 -1.73174621792e-23)
(-0.00727733186723 0.00749084442046 -1.16183172867e-23)
(-0.00641330266335 0.0082765206297 -4.05076103627e-23)
(-0.00536297738347 0.00896366464859 -3.45678608051e-23)
(-0.0129239594034 0.000581617009729 -3.73589988015e-22)
(-0.0118350614442 0.0018705435959 1.15168038654e-23)
(-0.0110671338382 0.00297563266229 1.58776049512e-23)
(-0.0105059145835 0.00408589063518 5.463195758e-23)
(-0.0100436953868 0.00516983756801 1.48046233403e-23)
(-0.00954571906508 0.0062397598194 -7.86830043274e-24)
(-0.00894090096218 0.00729362881946 -1.42131430989e-23)
(-0.00819145815361 0.00831571275639 -4.63931507687e-24)
(-0.00725207738834 0.00929032516248 -1.72946271568e-23)
(-0.00609473307223 0.0101948324085 -2.06974477141e-23)
(-0.0141998835034 0.000630399646503 -8.18179178016e-22)
(-0.0130430796435 0.00199064220458 -4.98651248053e-22)
(-0.0122350681504 0.00318749145207 -2.83809061176e-22)
(-0.0116512018343 0.00439888569494 -1.06833802262e-22)
(-0.011178008999 0.00559364776144 -4.0920386012e-23)
(-0.0106731911491 0.00679206431727 -1.19275537858e-23)
(-0.0100560909853 0.00799387733487 -3.64796513313e-24)
(-0.00928452965861 0.00919554975226 2.1164242357e-24)
(-0.00830225390712 0.0103845444675 9.25734138602e-24)
(-0.00707861966422 0.011542344839 1.65658493154e-23)
(-0.015552192964 0.000675745124957 -9.79075723706e-22)
(-0.014344787198 0.00210925521184 -5.28309396074e-22)
(-0.0134995245994 0.00339668516354 -3.0001566614e-22)
(-0.0129053676883 0.00471070188496 -1.23119141546e-22)
(-0.0124358707998 0.00602103496228 -2.4978542387e-23)
(-0.0119408000444 0.00735366889261 -8.393095016e-24)
(-0.0113319404195 0.00870778403779 1.11303062936e-23)
(-0.0169822061165 0.000713178402995 -5.90671731483e-22)
(-0.0157265157855 0.00221405878541 -1.9533727331e-22)
(-0.0148561866554 0.00359082091368 -1.11013316671e-22)
(-0.014263663293 0.00499890534786 -5.10155769703e-23)
(-0.013817145479 0.00642187984854 -3.76973897146e-23)
(-0.0162922067131 0.00375507182773 1.35690101523e-22)
(-0.0157159731567 0.00524624449777 9.49803480482e-23)
)
;

boundaryField
{
    back
    {
        type            noSlip;
    }
    sides
    {
        type            noSlip;
    }
    bottom
    {
        type            noSlip;
    }
    front
    {
        type            noSlip;
    }
    atmosphere
    {
        type            pressureInletOutletVelocity;
        value           nonuniform List<vector> 0();
    }
    floatingObject
    {
        type            movingWallVelocity;
        value           nonuniform List<vector> 0();
    }
    procBoundary2to0
    {
        type            processor;
        value           nonuniform List<vector> 
14
(
(-0.0105541685137 0.0100987432994 9.85581296932e-24)
(-0.00958366368658 0.0115185048495 9.52867419323e-24)
(-0.00834962642948 0.012951487664 9.08620364284e-24)
(-0.0133553765412 0.00788919079226 -1.51085027095e-23)
(-0.0105541685137 0.0100987432994 9.85581296932e-24)
(-0.01278427717 0.00940992546483 2.10880409382e-24)
(-0.0184804928383 0.000755511373712 -6.11150619049e-23)
(-0.0171753010361 0.00230566446169 2.41174555732e-22)
(-0.0133553765412 0.00788919079226 -1.51085027095e-23)
(-0.0153108120114 0.00676723290966 5.50453427265e-24)
(-0.0171753010361 0.00230566446169 2.41174555732e-22)
(-0.0177953692653 0.00388014005045 1.5012167448e-22)
(-0.0153108120114 0.00676723290966 5.50453427265e-24)
(-0.0172498576272 0.00543587088218 1.08482089869e-22)
)
;
    }
    procBoundary2to1
    {
        type            processor;
        value           nonuniform List<vector> 
18
(
(-0.000372231664517 0.00716446933656 7.80857329068e-22)
(-0.00131179493953 0.00621254462509 2.44485707397e-22)
(-0.00194740860496 0.00556379696657 5.41972061606e-23)
(-0.00194740860496 0.00556379696657 5.41972061606e-23)
(-0.00264196534533 0.00568152252127 -4.3154633678e-23)
(-0.00264196534533 0.00568152252127 -4.3154633678e-23)
(-0.00330491042543 0.00571752625219 -4.71392253755e-23)
(-0.00354231946808 0.00539312991639 -5.81176583528e-23)
(-0.00366020542591 0.00522502095876 -7.80199982823e-23)
(-0.00368454175406 0.0052158953452 -1.01214702986e-22)
(-0.00364844270674 0.00539151467445 -6.21633641655e-23)
(-0.00359430688013 0.00577113673183 -7.19931765935e-23)
(-0.00357366645357 0.0063670549479 -7.6315161334e-23)
(-0.00361357043252 0.00717516913686 -5.54557925305e-23)
(-0.0037609311756 0.00822312382477 -7.28425468112e-23)
(-0.00409733134171 0.00951188322778 -5.32695442608e-23)
(-0.00467759511882 0.0110157834575 -2.98844156235e-23)
(-0.00555860528998 0.0126665408205 -1.49370456773e-23)
)
;
    }
}


// ************************************************************************* //
