/*--------------------------------*- C++ -*----------------------------------*\
| =========                 |                                                 |
| \\      /  F ield         | OpenFOAM: The Open Source CFD Toolbox           |
|  \\    /   O peration     | Version:  v2012                                 |
|   \\  /    A nd           | Website:  www.openfoam.com                      |
|    \\/     M anipulation  |                                                 |
\*---------------------------------------------------------------------------*/
FoamFile
{
    version     2.0;
    format      ascii;
    class       volScalarField;
    location    "2.1";
    object      ddt0(k);
}
// * * * * * * * * * * * * * * * * * * * * * * * * * * * * * * * * * * * * * //

dimensions      [0 2 -3 0 0 0 0];


internalField   nonuniform List<scalar> 
1984
(
-0.0033378673593
-0.00382292001625
-0.00391160275238
-0.00392056427729
-0.00392202303371
-0.00392676666244
-0.00393341519227
-0.00394050853984
-0.00394755026675
-0.00395541658336
-0.00396945117896
-0.00401142106449
-0.00415120254959
-0.00456600324398
-0.0055935869884
-0.00776630188101
-0.0116260327454
-0.0177518055161
-0.0196824307877
0.0159611066508
-0.00384758159118
-0.00465834752116
-0.00481099512321
-0.00483130496057
-0.00483277387815
-0.00483668662816
-0.00484311937969
-0.00485028800488
-0.0048575638107
-0.00486657875046
-0.0048860773808
-0.00494898389812
-0.00515397089625
-0.00573289948604
-0.00707214425178
-0.00960046397593
-0.0134678210457
-0.0181598151158
-0.0160738881457
-0.0466522632925
-0.00400756520813
-0.00491755746858
-0.00509723346336
-0.00512254476385
-0.0051239882635
-0.00512791914737
-0.00513508246381
-0.00514349539688
-0.00515241949741
-0.00516357082916
-0.00518630496298
-0.00525499899063
-0.00547069519823
-0.00606660707772
-0.00742751060872
-0.00999035072119
-0.0139142517001
-0.018712473946
-0.0128820417749
0.162492089969
-0.00406186096464
-0.00501041342761
-0.00520207570746
-0.0052296809081
-0.00523123479905
-0.00523538710522
-0.00524322991915
-0.00525271922865
-0.00526299180565
-0.00527575362906
-0.00530021232955
-0.00537006478228
-0.00558391947565
-0.00616898191474
-0.00750555506247
-0.0100446241352
-0.0139935720465
-0.0190517302536
-0.021255077437
0.227502282851
-0.00408110414547
-0.00504386165892
-0.00524000117957
-0.0052684087918
-0.00526987972847
-0.0052739932651
-0.00528205710808
-0.00529199946383
-0.00530295339689
-0.00531641926503
-0.00534128530224
-0.005409971905
-0.00561743119461
-0.00618382181693
-0.00748296452396
-0.00996835632109
-0.0138717261397
-0.0187399139471
-0.0205441265591
0.0697545573875
-0.00408930252251
-0.00505706338984
-0.00525474233921
-0.00528336483407
-0.00528461878853
-0.00528847220192
-0.00529638320497
-0.00530632671904
-0.00531741419691
-0.00533104174435
-0.00535550396295
-0.00542167697943
-0.00562032874496
-0.00616371694122
-0.00741778614958
-0.00983323949548
-0.013677765313
-0.0190480885299
-0.0283896451294
-0.0861389598419
-0.00409418430691
-0.00506377104395
-0.00526203992256
-0.00529079542729
-0.00529182539708
-0.00529534226406
-0.00530293196738
-0.00531264990803
-0.00532360360175
-0.00533705477378
-0.00536073984875
-0.00542373178112
-0.00561229144025
-0.00612988262339
-0.00733268868275
-0.00966525864771
-0.0134054998753
-0.0187207898005
-0.0288990680336
-0.0459031732248
-0.00409812853714
-0.00506851133878
-0.00526724132199
-0.00529622260598
-0.00529711647119
-0.00530029631055
-0.00530753212995
-0.00531694095315
-0.00532766630823
-0.00534082429144
-0.00536358786913
-0.00542310831671
-0.0056008306889
-0.006090787136
-0.00723823045326
-0.00947876186271
-0.0130946554956
-0.0181246567707
-0.0203973812227
0.300964812814
-0.00410181521695
-0.00507281517992
-0.00527198933321
-0.00530139659441
-0.00530225937476
-0.0053051650413
-0.00531205947797
-0.00532116225743
-0.00533164338499
-0.00534451295489
-0.0053663400276
-0.00542232989365
-0.00558888511137
-0.00605010033341
-0.0071389318419
-0.00927953277177
-0.0127519148669
-0.0172349922309
-0.0110326085471
0.0791117818601
-0.00410542726893
-0.0050771300094
-0.0052768320263
-0.00530677807163
-0.00530774993989
-0.00531046041773
-0.00531705406527
-0.00532588806066
-0.00533616613067
-0.0053487676244
-0.00536973729677
-0.00542227160251
-0.00557764317263
-0.00600969474211
-0.00703821481782
-0.00907457077775
-0.0123982564766
-0.0165725916713
-0.011234914328
-0.194362822499
-0.00410900794134
-0.00508154027885
-0.00528189606762
-0.00531251123215
-0.00531367971383
-0.00531626940657
-0.00532262529194
-0.00533123605722
-0.00534136140486
-0.00535376262652
-0.00537394633542
-0.00542319520167
-0.00556768020079
-0.0059708987143
-0.00693932176057
-0.00887091628177
-0.012040431784
-0.0159867615585
-0.0167602855918
-0.143360298319
-0.00411255915824
-0.00508609309552
-0.00528717407872
-0.00531856942708
-0.00532002636013
-0.00532256296856
-0.00532874090868
-0.00533718376887
-0.00534718217624
-0.00535944579008
-0.00537895074935
-0.00542511707699
-0.00555912802459
-0.00593437117808
-0.00684431146941
-0.00867472917376
-0.0116922035814
-0.0153279763095
-0.0178787183093
-0.13252549431
-0.004116070833
-0.00509074275643
-0.00529268092822
-0.00532492921508
-0.00532672862512
-0.00532926451626
-0.00533530644387
-0.00534361268799
-0.00535350696948
-0.00536567123223
-0.00538458463914
-0.00542788252244
-0.0055519304806
-0.00590031290404
-0.0067537487685
-0.00848967077831
-0.0113596677349
-0.014486469801
-0.00957297152855
0.0687284396104
-0.0041195545721
-0.00509553489775
-0.00529837810385
-0.00533154303177
-0.00533372454771
-0.00533628421433
-0.00534221330557
-0.00535038092307
-0.00536020688843
-0.0053722832236
-0.00539062026195
-0.00543117682828
-0.00554563566306
-0.00586816362301
-0.0066678553281
-0.00831400529421
-0.0110166319886
-0.0136804934655
-0.00935188300372
-0.00536970950657
-0.00412303821146
-0.00510036158348
-0.00530414544627
-0.00533834712213
-0.00534094557018
-0.00534354689434
-0.00534936701116
-0.00535740894768
-0.00536715058248
-0.00537910516405
-0.00539686369482
-0.00543478818001
-0.00554002223724
-0.00583767733947
-0.00658555950291
-0.00814001356981
-0.0106644993148
-0.0139521131455
-0.0289872889635
-0.148360779466
-0.00412651119701
-0.00510504512837
-0.00530996634602
-0.0053452550398
-0.00534831148242
-0.00535097456535
-0.00535668694185
-0.00536458393996
-0.00537419144575
-0.00538598555687
-0.00540319067859
-0.00543880439135
-0.00553638279818
-0.00581436008507
-0.00652267457089
-0.00800019031688
-0.0103895983012
-0.0137431712384
-0.025276483704
-0.100310402238
-0.00413004944369
-0.00510949564755
-0.00531570615177
-0.00535220885098
-0.00535576995948
-0.00535850776515
-0.00536410074496
-0.00537180621177
-0.00538122070384
-0.00539279834655
-0.00540947336026
-0.00544347232942
-0.00553681709854
-0.00580720069779
-0.00650778591632
-0.00797733547967
-0.0102620371472
-0.0126445779175
-0.0154493831275
-0.0313323543092
-0.00413387881879
-0.00511371579359
-0.00532141568036
-0.00535921030226
-0.00536330061068
-0.0053660812559
-0.00537150970494
-0.00537894821644
-0.00538805620871
-0.00539926917849
-0.00541532818576
-0.0054477977008
-0.00553732620019
-0.00579974417807
-0.00648492806586
-0.00792459877815
-0.0102048573104
-0.0133106543002
-0.0222141659692
-0.0823467023393
-0.00413777112513
-0.00511756482138
-0.00532697980609
-0.00536618384199
-0.00537085255586
-0.00537366593706
-0.00537885846312
-0.00538596581652
-0.00539466715888
-0.00540534879773
-0.00542052123805
-0.00545103030764
-0.0055353447563
-0.00578295149733
-0.00642546563462
-0.00778502271785
-0.0103429962761
-0.0166682233767
-0.0376151262372
-0.194835258818
-0.00414196482199
-0.0051207846179
-0.00533228847371
-0.00537308627601
-0.00537841020627
-0.00538124691413
-0.00538617341749
-0.00539287407687
-0.00540103712719
-0.00541101644223
-0.00542503005936
-0.00545308638197
-0.00553107777844
-0.00576132223286
-0.00635862277507
-0.00764856984964
-0.0104853909637
-0.018992129881
-0.0435786445598
-0.193449413516
-0.00414619124582
-0.0051234872509
-0.00533744101371
-0.00538000115411
-0.00538599892849
-0.00538886270743
-0.005393497483
-0.00539974410002
-0.00540729320141
-0.00541639403274
-0.00542904154893
-0.00545425984824
-0.00552512553669
-0.00573672347688
-0.00629412886607
-0.00754934912521
-0.010662055002
-0.0204670087716
-0.0476427566999
-0.180296876781
-0.00415047233375
-0.00512574174807
-0.00534242683112
-0.00538690024801
-0.00539366407128
-0.00539657517715
-0.00540091838352
-0.00540667465443
-0.00541351229547
-0.0054216489294
-0.00543279338646
-0.00545492118711
-0.00551808840588
-0.00571030052292
-0.00622715382673
-0.00745452280507
-0.0107743679024
-0.0214222481381
-0.04984708347
-0.169999468161
-0.00415453826525
-0.00512747439249
-0.00534724925474
-0.005393816088
-0.00540144767307
-0.00540444760122
-0.0054084783247
-0.00541369111436
-0.00541982137398
-0.00542699615683
-0.00543656496934
-0.00545549754865
-0.00551061720702
-0.00568255500368
-0.00615726595751
-0.00734508237884
-0.0107816387853
-0.0217922049637
-0.0504031146807
-0.157785816475
-0.00415860223184
-0.00512873577697
-0.00535201267051
-0.00540083194637
-0.00540938268992
-0.00541248860431
-0.0054162486149
-0.00542098430448
-0.00542645413308
-0.00543264960868
-0.00544064679328
-0.00545627566188
-0.00550331488803
-0.00565344816295
-0.00608278343584
-0.00721529418135
-0.0106598138173
-0.0216031964745
-0.0495925290915
-0.155564948887
-0.00416285691019
-0.00512895142905
-0.00535665020294
-0.0054079434934
-0.0054175239921
-0.00542081059032
-0.00542435833455
-0.00542863827003
-0.00543348940285
-0.00543884705761
-0.00544539931238
-0.00545799822324
-0.00549664690754
-0.00562439575133
-0.00600152532891
-0.00705204568692
-0.0103699933737
-0.020906441288
-0.0475244403391
-0.137547098151
-0.00416485280608
-0.00512953217846
-0.00536177315783
-0.00541565320035
-0.00542607236133
-0.00542944665961
-0.00543279882253
-0.00543676265195
-0.00544114296309
-0.00544584758569
-0.00545104716615
-0.00546076819967
-0.00549112894625
-0.00559504390345
-0.00591301213563
-0.00683280816291
-0.00985025201979
-0.0194430268804
-0.0382626024651
0.133173557805
-0.00416109003878
-0.00513177484144
-0.00536807408292
-0.00542396666586
-0.00543496202693
-0.00543834668172
-0.00544152444075
-0.00544521953414
-0.00544919415768
-0.00545321507794
-0.00545731903637
-0.00546393700634
-0.00548569588627
-0.00556686447821
-0.00582823964412
-0.0065485560289
-0.00903523940871
-0.0166529930715
-0.0330425105244
-0.0646222699582
-0.00415754783481
-0.00513322302139
-0.00537390095004
-0.00543216446922
-0.00544396572804
-0.00544749387882
-0.0054505979797
-0.00545412270882
-0.00545784457891
-0.00546140405195
-0.00546442986023
-0.0054675145798
-0.00547691189002
-0.00551756508519
-0.00565557460467
-0.00606480799314
-0.00758857805474
-0.0131068550689
-0.0299494697303
-0.0561245682751
-0.00415473857869
-0.00513382247795
-0.00537910053888
-0.00544011160426
-0.00545296716436
-0.00545677782148
-0.00545991505032
-0.00546339868822
-0.00546703732873
-0.00547036889614
-0.00547266360917
-0.00547298447722
-0.00547194482145
-0.00547680519111
-0.00550086086
-0.00553035945201
-0.00559356729381
-0.00699252914177
-0.0196391761646
-0.043755638502
-0.00415158408575
-0.00513352810157
-0.00538354034355
-0.00544767479787
-0.00546184863694
-0.00546610012286
-0.00546939273995
-0.00547295883731
-0.00547663558633
-0.00547991712186
-0.00548179539767
-0.00548003142472
-0.00547014208883
-0.0054428587939
-0.00535774529922
-0.00496050659632
-0.00297444970581
0.00210747767321
-0.00266180416674
-0.00412020712536
-0.00414853948778
-0.00513204441994
-0.0053870677594
-0.00545468411097
-0.00547043843493
-0.00547529572557
-0.00547887600286
-0.00548264628459
-0.00548649251079
-0.00548988865078
-0.00549162293643
-0.00548826067886
-0.00547049162934
-0.00541129347335
-0.00519998339699
-0.00426184334868
-0.000125709420435
0.00835628842888
-0.000825228882188
-0.00122619587205
-0.0041450005653
-0.00512935455534
-0.00538945614638
-0.00546090864797
-0.00547851675493
-0.00548416086196
-0.00548815596758
-0.00549224948249
-0.00549640567777
-0.00550011312525
-0.00550184014472
-0.00549693065503
-0.0054698876771
-0.00536438081337
-0.00494531523931
-0.00325389356325
0.00228636595456
0.00903911461468
-0.00572282430328
-0.0029490465811
-0.00414113495584
-0.00512514897064
-0.00539045117671
-0.0054660873139
-0.00548583580099
-0.00549245853186
-0.00549700750096
-0.00550155091947
-0.00550618216271
-0.00551030947856
-0.00551214763667
-0.00550545964413
-0.00546394249469
-0.00527149362347
-0.00446739286301
-0.00183771206067
0.00266602182828
-0.000809054465296
-0.0264666637397
-0.0193263683722
-0.0041365764697
-0.00511924209747
-0.00538973525007
-0.00546988123673
-0.00549208185082
-0.00549990628077
-0.00550519222247
-0.00551039498223
-0.00551562949275
-0.0055202923664
-0.00552245250594
-0.00551331960796
-0.00544798259381
-0.00511529085996
-0.00380157161034
-0.000702873671002
-0.000117457623307
-0.0134331417744
-0.0298781082654
-0.102881171161
-0.00413121993762
-0.00511128227952
-0.00538698322072
-0.00547193809622
-0.0054969020131
-0.00550617471734
-0.00551240176252
-0.00551843467815
-0.00552450430143
-0.00552999414763
-0.00553224667402
-0.00551733114579
-0.00540721353535
-0.00485538541774
-0.00298996082922
0.000194281122653
-0.000321455330159
-0.00794068234712
0.00501951298254
-0.0361022342393
-0.00412489104097
-0.00510105675827
-0.0053818310273
-0.00547184453047
-0.00549992650453
-0.00551093129343
-0.00551831403688
-0.00552540645492
-0.00553262123673
-0.0055393035677
-0.00554217369863
-0.00552125846776
-0.00537412781704
-0.00479209081621
-0.00381482545851
-0.00509645001876
-0.0108724064587
-0.0117913004482
0.073882496686
0.0505248534224
-0.00411705823624
-0.00508830184422
-0.00537393797826
-0.00546923028613
-0.00550071667902
-0.00551372542876
-0.00552252860371
-0.00553095828066
-0.00553962744516
-0.00554812682349
-0.00555411546873
-0.00554397486594
-0.00544498972578
-0.00494268394756
-0.00325019155569
0.000487215153488
0.00574807105254
-0.000923777173573
-0.0535208693684
-0.0363879107004
-0.00410766606911
-0.00507264248755
-0.00536291629243
-0.00546359732325
-0.00549879817515
-0.00551409816511
-0.00552459518025
-0.00553461014876
-0.0055449603027
-0.00555531466388
-0.00556364817244
-0.00556024074393
-0.00549149709958
-0.00505436902687
-0.0028837364725
0.00538368515749
0.0228464521668
0.0217431197763
-0.0159749918978
-0.00868802846732
-0.00409621233279
-0.00505393867209
-0.00534839943334
-0.00545454386866
-0.00549367860715
-0.0055115947753
-0.00552407932497
-0.00553599739187
-0.00554850688159
-0.00556123500047
-0.00557207479738
-0.00557097656995
-0.00549136227211
-0.00488361276776
-0.00149793260052
0.0111195498494
0.0344248607584
0.0363957478229
-0.0311553362238
-0.0279449731442
-0.0040826073045
-0.00503204644677
-0.00533021702988
-0.00544162930471
-0.0054849083487
-0.00550567963163
-0.00552044679471
-0.00553469812437
-0.00554995933483
-0.00556595176555
-0.00558023563267
-0.00557694858477
-0.00542564911287
-0.00418467101189
0.00195870999967
0.0152517809312
0.010597674856
-0.0351223718135
-0.0923651672418
-0.197740474352
-0.00406666776944
-0.00500695250616
-0.00530817124672
-0.00542462833431
-0.00547200551169
-0.00549582180947
-0.00551314523316
-0.00553014717777
-0.00554887638948
-0.00556972043382
-0.00559185731988
-0.0056096405743
-0.00558180745086
-0.00521293228958
-0.00310799555225
0.00469037534658
0.021951811842
0.043536610276
0.0190214074014
0.00658781317011
-0.00404812255619
-0.00497878678081
-0.00528243923084
-0.00540336375834
-0.00545479685318
-0.00548165614274
-0.00550172883839
-0.00552166327124
-0.00554432733503
-0.00557033440205
-0.00559943916524
-0.00562874062367
-0.00564050666564
-0.00549967795364
-0.00445302394229
0.00057364117832
0.0168276974813
0.0416681645982
0.0453660681894
0.00826311334669
-0.00402709884559
-0.00494803632022
-0.00525333708134
-0.00537818777274
-0.00543308938292
-0.00546297875175
-0.00548585350471
-0.00550900914731
-0.00553602666586
-0.00556776710058
-0.00560381215045
-0.00564348260181
-0.00567991152558
-0.0056458913297
-0.00509339941164
-0.0019929815106
0.00928017060407
0.0250891998124
0.0220287501612
-0.00663816534513
-0.00400395448729
-0.00491569838111
-0.00522191646528
-0.00534954761466
-0.00540748387279
-0.00544009677118
-0.00546607262404
-0.00549310925375
-0.00552602429877
-0.00556429456175
-0.00560673311978
-0.00565445624517
-0.00570715602202
-0.00572808508338
-0.00541729531265
-0.00330893195163
0.004650035834
0.014034929377
0.00481430222781
-0.0349000238116
-0.00397941771231
-0.00488340942719
-0.00518967942154
-0.00531889369149
-0.00537896166605
-0.00541462849855
-0.00544545641622
-0.00547930183363
-0.00552294488559
-0.00556837634896
-0.00561517149178
-0.00566870082307
-0.00573680743989
-0.00578904400228
-0.00561810319612
-0.00389111677778
0.00475135549563
0.0167686867954
-0.0251013896702
-0.06807722312
-0.00395458144715
-0.00485362408838
-0.00515907371948
-0.00528833657792
-0.0053499874992
-0.00539055765471
-0.00542921571397
-0.0054702183988
-0.00553760363375
-0.00558293843855
-0.00562344052372
-0.00569267264003
-0.00582022133074
-0.00586025133025
-0.00579322838655
-0.00471023735068
0.00279927290879
0.0230779646499
-0.0867204336088
-0.203768876295
-0.00393103546326
-0.00482910093867
-0.0051328482569
-0.00526084011807
-0.00532424428817
-0.00537265521571
-0.00541786688673
-0.0054358794665
-0.0055125455747
-0.00554193244482
-0.00553195769745
-0.00565235184107
-0.00594698066708
-0.00584938050561
-0.00550472523779
-0.000927100143566
0.0307552124125
0.0825588002504
0.158368806468
-0.0662782329811
-0.00391068339938
-0.00481201016036
-0.00511334553342
-0.00523917421146
-0.00530468110099
-0.00536961890049
-0.00546380977254
-0.00547871964993
-0.0048709131759
-0.00463160789556
-0.004530454857
-0.00431549334956
-0.00540473508693
-0.00542875368664
-0.00528854037991
-0.00240908100843
0.0119824342668
0.0208884204771
-0.0507466301946
-0.126355819557
-0.00389583969972
-0.00480405744198
-0.00510339965462
-0.00522663947369
-0.00529049390077
-0.00533824645308
-0.00526444712918
-0.00426590600784
-0.00418462810518
-0.00481179612619
-0.00522253163067
-0.00454513879472
-0.000596728191636
0.00581992537115
-0.0466015205644
-0.048376440669
-0.00388780233829
-0.00479878204571
-0.00509729898448
-0.00521908800425
-0.00528131485404
-0.00532364312291
-0.00522568272847
-0.00421970730404
-0.00395897022857
-0.00472164849133
-0.0048673104679
-0.00400115365167
0.000964650129261
0.0110138577266
0.00799486588203
-0.0127763561313
-0.00388780496957
-0.00479878301495
-0.00509729303093
-0.00521907478437
-0.00528129560149
-0.0053236212719
-0.00522566994044
-0.00421969772436
-0.0039590093124
-0.00472169020498
-0.00486748588129
-0.00400139314261
0.000964413004858
0.0110149527
0.00810010894697
-0.0123083298774
-0.00389585317917
-0.00480406735025
-0.00510339336624
-0.00522661488784
-0.00529045323797
-0.00533818978243
-0.00526439170986
-0.00426589210358
-0.00418447575248
-0.0048116262794
-0.00522251757634
-0.004545570423
-0.000599297588228
0.00580666640617
-0.0465402013407
-0.0480727506002
-0.00391067694427
-0.0048120019267
-0.00511331524211
-0.00523911918515
-0.00530460526593
-0.00536953481532
-0.00546372468365
-0.00547866975741
-0.00487090844349
-0.00463164916925
-0.00453053989198
-0.00431566695806
-0.00540495617085
-0.00542901139563
-0.00528923235374
-0.0024112194222
0.0119715941247
0.0209090010952
-0.0506413563095
-0.12630178668
-0.00393103727236
-0.00482911647969
-0.00513285457061
-0.00526083283502
-0.0053242219161
-0.00537262308136
-0.00541783539069
-0.00543584801567
-0.00551252117192
-0.00554192622798
-0.00553200710533
-0.00565240446071
-0.00594704381968
-0.00584948229149
-0.0055052065738
-0.000927744655434
0.0307560991454
0.0826115223145
0.158333609262
-0.0664912342829
-0.00395458389395
-0.00485363354973
-0.00515908136193
-0.00528833912699
-0.00534998211608
-0.00539055101497
-0.00542921693651
-0.0054702321202
-0.00553762374269
-0.00558296686981
-0.00562349267245
-0.00569278474762
-0.00582035618704
-0.00586045313657
-0.00579373987485
-0.00471036264028
0.00280099498915
0.0230819656662
-0.0867230670164
-0.203641448005
-0.0039794316095
-0.00488341228702
-0.00518968333931
-0.00531889954967
-0.00537896266636
-0.00541463647256
-0.00544547898907
-0.00547934151735
-0.00552299732911
-0.00556843596252
-0.00561524418479
-0.00566882474056
-0.00573699500371
-0.00578934992283
-0.00561878437738
-0.00389176482743
0.00475009521934
0.016768555067
-0.0250949286266
-0.0680379123422
-0.00400397921603
-0.00491569400713
-0.00522191472545
-0.00534956052024
-0.00540748842202
-0.00544010835944
-0.005466103169
-0.00549316138954
-0.00552609403196
-0.00556437452882
-0.00560682571743
-0.00565459314556
-0.00570735470534
-0.00572842041933
-0.005418012222
-0.00330969905391
0.00464882294512
0.0140324251555
0.00481290991708
-0.0348794099651
-0.00402710660732
-0.00494804065969
-0.0052533745866
-0.00537819623619
-0.00543317945783
-0.00546304289803
-0.00548592491392
-0.00550907687651
-0.00553611030052
-0.00556786076178
-0.00560391288856
-0.00564362162346
-0.00568010711766
-0.00564624408726
-0.00509416267565
-0.00199389751626
0.00927855220385
0.0250852107616
0.0220205894082
-0.00663452305734
-0.00404814230677
-0.00497882282315
-0.00528247207668
-0.00540345545477
-0.00545485137545
-0.00548175956328
-0.00550183752129
-0.00552180450923
-0.00554442229361
-0.00557042177087
-0.0055994913583
-0.00562882063359
-0.00564062892385
-0.00549997549953
-0.00445372756922
0.000572911917542
0.0168273795261
0.0416648045395
0.0453470743105
0.00825104172542
-0.00406671668165
-0.00500702713639
-0.00530825977109
-0.00542471160456
-0.00547212939328
-0.00549594509747
-0.00551328469699
-0.00553028913529
-0.00554902686526
-0.00556983895761
-0.00559197465977
-0.00560979441481
-0.00558205724334
-0.0052134682191
-0.00310882181152
0.00469110769175
0.0219584946956
0.0435425329504
0.0190489960796
0.0065992660374
-0.00408268890465
-0.0050321657997
-0.00533034483848
-0.00544176327445
-0.00548504513789
-0.00550583046802
-0.00552061130161
-0.0055348722433
-0.00555013358409
-0.00556613500093
-0.0055803952627
-0.005577148848
-0.00542589177582
-0.00418511486198
0.00195825015499
0.0152554342054
0.0106079965505
-0.0351039397186
-0.0923631172108
-0.197749826733
-0.00409632379938
-0.00505411088403
-0.00534858056063
-0.00545472311566
-0.00549385531343
-0.00551177230308
-0.00552426169369
-0.0055361972686
-0.00554872934052
-0.00556145309341
-0.00557231507007
-0.00557123264546
-0.0054915589255
-0.00488364866502
-0.00149834414161
0.01111637586
0.0344171952313
0.0363940018351
-0.0311456599679
-0.0279362279899
-0.00410779345645
-0.00507284332474
-0.00536313041346
-0.00546380826962
-0.00549900143068
-0.00551429518771
-0.00552478752029
-0.00553481790737
-0.00554519671824
-0.00555555673402
-0.00556392696722
-0.00556055843105
-0.00549179600753
-0.00505443234281
-0.00288292679651
0.00538455708161
0.0228386810192
0.0217265184471
-0.0159881181819
-0.00869427032434
-0.00411719304023
-0.00508851499716
-0.00537416536948
-0.00546945053358
-0.00550092088371
-0.00551390949483
-0.00552270210661
-0.00553113190483
-0.00553983028827
-0.00554835559321
-0.0055543937783
-0.00554430570885
-0.005445352665
-0.0049429577798
-0.00324972583548
0.000488600437214
0.00574851565551
-0.000932011116425
-0.0535270100586
-0.0364137594063
-0.00412501057235
-0.00510124821038
-0.00538204448232
-0.00547206455448
-0.00550014711223
-0.00551114901188
-0.00551852411704
-0.00552560221324
-0.00553278239171
-0.00553948880034
-0.00554239582238
-0.00552153804838
-0.00537450549354
-0.00479255172924
-0.00381508334309
-0.00509630466433
-0.0108734699992
-0.0117913546888
0.0738840354589
0.0505261666665
-0.00413135013019
-0.0051114785654
-0.00538720199194
-0.00547216689413
-0.00549713649327
-0.00550641147346
-0.00551263532238
-0.00551865902586
-0.00552472129651
-0.00553021673024
-0.0055324839334
-0.00551757329808
-0.00540752522329
-0.0048559093301
-0.00299065893552
0.000193936557264
-0.000320161007196
-0.0079390788784
0.00502406596763
-0.0361052189894
-0.00413671933635
-0.00511944430514
-0.00538995744407
-0.00547011353013
-0.00549232145259
-0.00550015088654
-0.00550543756763
-0.00551063515474
-0.00551586496649
-0.005520535403
-0.00552271626559
-0.00551360213676
-0.0054483080816
-0.00511570634532
-0.00380232152114
-0.000703774985644
-0.000117218815794
-0.0134289550895
-0.029875397633
-0.10287932953
-0.00414128334415
-0.0051253528367
-0.0053906726635
-0.00546631839848
-0.0054860747069
-0.00549270415002
-0.00549725741414
-0.00550179964967
-0.00550642845243
-0.00551056714127
-0.00551243171799
-0.00550576746729
-0.00546428887497
-0.00527189817101
-0.00446797146529
-0.00183872387956
0.00266525197402
-0.000808345237843
-0.0264627134513
-0.0193257269215
-0.00414515026424
-0.00512955649703
-0.00538967410396
-0.00546113605688
-0.00547875282245
-0.00548440537094
-0.00548840773536
-0.00549250354307
-0.00549665985702
-0.00550038242253
-0.0055021416063
-0.00549726219832
-0.0054702654671
-0.00536481026688
-0.00494578843018
-0.00325458354389
0.00228521493628
0.00903844303209
-0.00572294896752
-0.00294954963907
-0.00414868502352
-0.00513224198636
-0.00538728135408
-0.00545490772968
-0.00547067193823
-0.00547553972242
-0.00547912959126
-0.00548290442455
-0.00548675250364
-0.00549016741247
-0.0054919404624
-0.00548861001577
-0.005470892532
-0.00541175686087
-0.00520045959797
-0.00426223362432
-0.000126390855404
0.0083555609192
-0.000825971896449
-0.00122662891726
-0.00415172193712
-0.00513372054032
-0.00538375035575
-0.00544789578651
-0.00546208085013
-0.00546634465337
-0.00546964847896
-0.00547322025406
-0.00547689944934
-0.00548020369557
-0.00548212861014
-0.00548039377967
-0.00547055502682
-0.00544333743626
-0.00535825441628
-0.00496082364361
-0.00297463089353
0.0021071042093
-0.00266203922299
-0.00412016406531
-0.00415487055361
-0.00513401194178
-0.0053793088269
-0.00544033171153
-0.00545319953196
-0.00545702371743
-0.00546017294266
-0.00546366269214
-0.00546730439981
-0.00547066329501
-0.00547301285725
-0.00547335684449
-0.0054723621642
-0.00547727970888
-0.00550138048339
-0.00553074829783
-0.0055936268881
-0.0069923026592
-0.0196386555693
-0.0437545165689
-0.00415767637341
-0.00513340997845
-0.00537410773294
-0.00543238391971
-0.00544419838391
-0.00544774118927
-0.00545085765667
-0.00545438921125
-0.00545812920134
-0.00546172196471
-0.00546479319092
-0.00546789118996
-0.00547732387121
-0.00551801757387
-0.00565605811975
-0.00606524416588
-0.00758873522058
-0.0131067499466
-0.0299496545584
-0.0561253876277
-0.00416121801768
-0.00513195964003
-0.00536827848772
-0.00542418407236
-0.00543519319185
-0.00543859449374
-0.0054417886734
-0.00544549895551
-0.00544950412648
-0.00545354125887
-0.00545767748473
-0.005464308735
-0.00548609369632
-0.00556729242008
-0.00582871085441
-0.00654904940688
-0.00903565989564
-0.0166535767024
-0.0330431934435
-0.0646240025674
-0.00416498882572
-0.00512972164047
-0.00536197873341
-0.00541586926115
-0.0054263007926
-0.00542969164621
-0.00543306342278
-0.00543705062105
-0.0054414744033
-0.00544619050748
-0.00545141799507
-0.00546115973846
-0.00549154739993
-0.00559548794096
-0.00591350101075
-0.00683339697485
-0.00985085103263
-0.0194433038102
-0.0382616290229
0.133173573347
-0.0041629803795
-0.0051291341058
-0.00535684856375
-0.00540815410642
-0.00541775000297
-0.00542105456097
-0.00542462445678
-0.00542892677575
-0.0054338108504
-0.00543917494962
-0.00544574673673
-0.0054583677026
-0.00549703993738
-0.00562480474421
-0.00600194844034
-0.00705251580175
-0.0103705932862
-0.0209069638361
-0.0475246327255
-0.137545882268
-0.00415872903547
-0.00512891110374
-0.0053522029815
-0.00540103407327
-0.00540959893548
-0.00541272158925
-0.00541650159216
-0.00542126238582
-0.00542676262466
-0.00543297735474
-0.00544100360016
-0.00545666486232
-0.00550372767997
-0.00565387383778
-0.00608322014723
-0.00721579755534
-0.0106605757863
-0.0216043115693
-0.0495903634148
-0.155564840632
-0.00415465519858
-0.00512763367424
-0.00534742356735
-0.00539400371705
-0.0054016510056
-0.00540466849843
-0.00540871840354
-0.00541395358283
-0.00542010802478
-0.00542730873551
-0.00543690729849
-0.00545586931577
-0.0055110095179
-0.00568295121108
-0.00615766852546
-0.00734558061155
-0.0107825002732
-0.0217938832871
-0.0504044189041
-0.157784331604
-0.00415057604206
-0.00512588749318
-0.00534258531073
-0.00538707275224
-0.00539385463436
-0.00539678562294
-0.00540114880795
-0.00540692759622
-0.00541379010894
-0.00542195498737
-0.00543313052875
-0.00545528626187
-0.00551846837686
-0.00571067599647
-0.00622752390157
-0.00745498761435
-0.0107752243192
-0.0214240310191
-0.0498494329803
-0.170000058168
-0.00414628305905
-0.00512362293528
-0.00533758495627
-0.0053801585415
-0.00538617471635
-0.0053890612262
-0.00539371759652
-0.0053999888824
-0.00540756490147
-0.00541669646487
-0.0054293779461
-0.00545462423091
-0.00552549894708
-0.00573708258143
-0.00629446793742
-0.00754976815851
-0.0106628798465
-0.0204688307535
-0.047645236562
-0.180296396737
-0.004142050087
-0.00512092051071
-0.00533243818845
-0.00537324002014
-0.00537857010635
-0.00538142973704
-0.00538637963182
-0.00539310859176
-0.00540130152754
-0.00541131472547
-0.0054253689777
-0.00545345110278
-0.00553144168132
-0.00576166306984
-0.00635892880558
-0.00764893666147
-0.0104861430992
-0.0189938954883
-0.0435806459376
-0.193446448606
-0.00413787743072
-0.00511773308126
-0.00532715454948
-0.00536635106829
-0.00537101084655
-0.00537383117201
-0.00537904279236
-0.00538618511205
-0.00539491854546
-0.00540564372294
-0.00542085322159
-0.00545140339148
-0.00553570054972
-0.00578327063
-0.00642574330789
-0.00778533792605
-0.0103436341088
-0.0166700863599
-0.0376160199473
-0.194830323514
-0.00413399466946
-0.0051138847807
-0.00532159889126
-0.00535937905293
-0.00536346128206
-0.00536623654313
-0.00537166921404
-0.00537913668712
-0.00538828505232
-0.00539953296612
-0.00541566954858
-0.00544815779952
-0.0055376695256
-0.00580003376368
-0.00648516737568
-0.00792483515517
-0.0102053036638
-0.0133119858142
-0.0222154696196
-0.0823461889826
-0.0041301625134
-0.00510965403418
-0.00531586310735
-0.00535234440788
-0.00535591540667