/*--------------------------------*- C++ -*----------------------------------*\
| =========                 |                                                 |
| \\      /  F ield         | OpenFOAM: The Open Source CFD Toolbox           |
|  \\    /   O peration     | Version:  v2012                                 |
|   \\  /    A nd           | Website:  www.openfoam.com                      |
|    \\/     M anipulation  |                                                 |
\*---------------------------------------------------------------------------*/
FoamFile
{
    version     2.0;
    format      ascii;
    class       volScalarField;
    location    "2.1";
    object      ddt0(epsilon);
}
// * * * * * * * * * * * * * * * * * * * * * * * * * * * * * * * * * * * * * //

dimensions      [0 2 -4 0 0 0 0];


internalField   nonuniform List<scalar> 
1984
(
-0.00416370441136
-0.00455696166105
-0.00475567856312
-0.00479885694611
-0.00481651927416
-0.00483462949314
-0.00485448044113
-0.00487483800587
-0.00489594379669
-0.00491821070265
-0.00495183201719
-0.00503039214252
-0.00526311491893
-0.00593538206611
-0.00764438131783
-0.0115351587854
-0.0193685871501
-0.0342275488634
-0.0486554537781
0.0967202175048
-0.0045959648065
-0.0046072292426
-0.00487821271401
-0.00493870605221
-0.00495697971623
-0.00497204280875
-0.00498850876191
-0.00500561128786
-0.00502374767927
-0.0050437799434
-0.00507915019627
-0.00517225525784
-0.00545162702589
-0.00623031844107
-0.00809568566861
-0.011908224044
-0.0184897287314
-0.0282821847327
-0.0254209827528
-0.624956848452
-0.00489112657324
-0.00499754771676
-0.0053196599395
-0.00539195729609
-0.00541177546665
-0.00542727442517
-0.00544468990027
-0.0054638253083
-0.00548396986881
-0.00550738736757
-0.00554757155725
-0.00565104749529
-0.00595351647122
-0.00678019852835
-0.00873389565529
-0.0127078113538
-0.0195490247101
-0.0297796216537
-0.0321482327342
0.603844027661
-0.00499657287051
-0.00514182708135
-0.00548574742143
-0.00556285911647
-0.00558304128345
-0.00559846663042
-0.00561657506071
-0.00563645060648
-0.00565916990097
-0.00568422842929
-0.00572619800543
-0.00583182794299
-0.00613499693972
-0.00695595393698
-0.00889439502446
-0.012864592526
-0.0197946390624
-0.0304397779649
-0.0458660629262
-0.0399800591585
-0.00503841650004
-0.0051974762501
-0.00554948963059
-0.00562801481249
-0.00564779161879
-0.00566267030782
-0.00568044703538
-0.00570062773879
-0.00572265328025
-0.00574993700734
-0.00579237286598
-0.00589558323215
-0.00619116815115
-0.00698991256251
-0.00888125950157
-0.0127778481422
-0.0196451938807
-0.0299990547257
-0.0404825894514
-0.311232376868
-0.00506012857481
-0.00522310604539
-0.00557788083014
-0.00565650175537
-0.00567552844753
-0.00568955324634
-0.00570657539196
-0.00572624963032
-0.0057478045529
-0.00577370034507
-0.00581607481739
-0.00591609427131
-0.0062002154865
-0.00696899771526
-0.00879837030869
-0.0125888832244
-0.0193475372074
-0.0304263636792
-0.0536234604768
-0.191348899096
-0.00507568169118
-0.00523914224905
-0.0055949349278
-0.00567336607692
-0.00569160914864
-0.00570469693465
-0.00572082365208
-0.00573962318011
-0.00576055924469
-0.00578562563303
-0.00582641032513
-0.00592214747336
-0.00619285642705
-0.0069273425614
-0.00868486317111
-0.0123477395561
-0.0189284689949
-0.0299050370351
-0.055741191441
-0.178149702214
-0.00508933931351
-0.00525221405552
-0.00560871374673
-0.00568704514395
-0.00570463782268
-0.00571684301587
-0.00573206616978
-0.00575001085041
-0.00577008882004
-0.00579443167661
-0.00583327209343
-0.00592429499329
-0.00618050875667
-0.00687801132412
-0.00855751053473
-0.0120776843391
-0.0184439127403
-0.0290263432763
-0.0465643920324
0.293399199944
-0.00510230182911
-0.00526449577437
-0.00562165972981
-0.00570015833609
-0.00571728111445
-0.00572871762424
-0.00574312103273
-0.00576021948863
-0.00577964435652
-0.00580306629613
-0.00584022888911
-0.00592624489858
-0.00616743843089
-0.00682630504224
-0.00842299887499
-0.0117881031793
-0.0179109079581
-0.0276975664001
-0.0238028887116
0.343039458408
-0.00511486992449
-0.00527658666806
-0.00563453656387
-0.0057133706012
-0.00573023853233
-0.00574106892086
-0.00575473325581
-0.0057711505273
-0.00578986649112
-0.00581263706879
-0.00584807920639
-0.00592917777079
-0.00615523656803
-0.00677470839474
-0.00828591928118
-0.0114888147121
-0.0173551120688
-0.0265758991145
-0.0189844197612
0.249679906567
-0.00512709996495
-0.00528858185114
-0.00564749533916
-0.00572685823996
-0.00574362390979
-0.00575397174699
-0.0057670363925
-0.00578282730517
-0.00580108011177
-0.00582312867226
-0.00585716267491
-0.00593342563013
-0.00614463204063
-0.00672491430965
-0.00815051143656
-0.0111895262969
-0.0167879668126
-0.0254778595451
-0.0276456404556
-0.444931046743
-0.00513898562385
-0.00530052366061
-0.00566050882784
-0.0057405672407
-0.00575737653704
-0.00576737827398
-0.00577994291404
-0.00579526674287
-0.00581300521511
-0.005834605862
-0.00586725359242
-0.0059389802021
-0.00613578962987
-0.00667778969003
-0.00801953263147
-0.0108988020278
-0.0162320741747
-0.0243465120392
-0.0319427044002
-0.432026748404
-0.00515050344968
-0.00531234056494
-0.00567357594396
-0.00575444658802
-0.00577140235498
-0.00578114761737
-0.00579331331809
-0.00580820756026
-0.00582560426771
-0.00584669804264
-0.00587824386467
-0.00594566653697
-0.00612871444987
-0.00663376796406
-0.0078940219266
-0.0106220766703
-0.0156957591925
-0.0230066755685
-0.0225338112436
0.272710157726
-0.00516165746256
-0.00532407399471
-0.00568662759463
-0.00576841647066
-0.00578559844713
-0.00579516161267
-0.00580698137676
-0.00582151567128
-0.005838552681
-0.00585934083478
-0.00588971417616
-0.00595311845555
-0.00612296400927
-0.00659252569901
-0.0077752123676
-0.0103590495306
-0.0151406460289
-0.0215828886162
-0.0169878470401
-0.0117932416962
-0.00517248018756
-0.00533559137178
-0.00569950209207
-0.00578238224201
-0.00579986547175
-0.00580930704366
-0.00582083289793
-0.00583500066418
-0.00585183734681
-0.00587211205302
-0.00590162349578
-0.0059611277466
-0.00611846195427
-0.00655421501059
-0.00766311548874
-0.0101024181526
-0.0145620828468
-0.021682114889
-0.0571851500444
-0.475520378733
-0.00518296535476
-0.00534666928085
-0.00571217941568
-0.0057962287675
-0.00581413529561
-0.00582348215468
-0.00583471665533
-0.00584863786019
-0.00586503772573
-0.00588515781997
-0.00591351714003
-0.00596986240347
-0.00611676996258
-0.00652598454693
-0.00757909034603
-0.00990159428732
-0.0141162970545
-0.0211345697152
-0.0470643310801
-0.280911281423
-0.00519323006448
-0.00535721082178
-0.00572448867996
-0.00580994669773
-0.00582822766918
-0.00583759781967
-0.00584860582866
-0.00586210895468
-0.00587830907391
-0.00589786292533
-0.00592562706611
-0.0059795006738
-0.00612050658938
-0.00651858141894
-0.00755969470893
-0.00987693492692
-0.0139787170858
-0.0193973929915
-0.0255131788913
-0.0590335441644
-0.00520355808574
-0.00536718415914
-0.00573651067214
-0.00582333024514
-0.00584225701328
-0.00585156547806
-0.00586229062375
-0.00587548763028
-0.00589122280853
-0.00591033095003
-0.00593714410084
-0.00598889647557
-0.00612442743404
-0.00651078211507
-0.0075295471398
-0.0098165797508
-0.014005185496
-0.0209392790579
-0.0409340186066
-0.20838113213
-0.00521361311019
-0.00537642691187
-0.00574798312579
-0.00583650905713
-0.00585598928191
-0.00586527382996
-0.00587572293215
-0.00588850995342
-0.00590373644961
-0.00592219509998
-0.00594787707264
-0.00599702350817
-0.00612541071786
-0.0064913449317
-0.00745153470071
-0.00963117657013
-0.014306464277
-0.0275801396493
-0.0773648895174
-0.641124285955
-0.00522368852122
-0.00538462863493
-0.00575890649752
-0.00584925940761
-0.00586946114117
-0.00587876384367
-0.00588889845409
-0.00590121683513
-0.00591582703922
-0.00593347464282
-0.0059577573815
-0.0060037608106
-0.00612374690157
-0.00646630412539
-0.00736494736031
-0.00944696143588
-0.0145699060644
-0.0322922965498
-0.0937577198291
-0.638176362149
-0.00523342093429
-0.00539194577395
-0.00576929688272
-0.00586173544668
-0.0058827085971
-0.00589204033532
-0.0059018511251
-0.0059136739547
-0.00592761330924
-0.00594428007055
-0.00596696016303
-0.00600941034563
-0.00612012448513
-0.00643805825051
-0.00728302631621
-0.00931588753614
-0.0148808149619
-0.0353087830824
-0.106278012293
-0.586152487902
-0.00524278050559
-0.00539841057148
-0.00577917548685
-0.00587387724618
-0.00589574758094
-0.00590515330514
-0.00591466293632
-0.00592596890234
-0.00593914835985
-0.00595476721895
-0.00597571324215
-0.0060143387238
-0.00611514497053
-0.00640782563418
-0.00719918423966
-0.00919344200516
-0.0150960297187
-0.0373299676704
-0.112690786638
-0.545590185541
-0.00525136536457
-0.00540391059305
-0.00578851339954
-0.00588570138169
-0.00590860913331
-0.00591815664247
-0.00592735934449
-0.00593811153683
-0.00595055931056
-0.00596515520556
-0.00598429818916
-0.00601898520596
-0.006109471818
-0.00637595414607
-0.0071122164092
-0.00905254632426
-0.0151492660102
-0.0382044869951
-0.114768363357
-0.502932192773
-0.00525945378184
-0.00540845028595
-0.00579743349806
-0.00589728458203
-0.00592131140095
-0.00593103931987
-0.00594000362422
-0.00595030347724
-0.00596209870767
-0.00597566623212
-0.00599301840472
-0.00602362853342
-0.00610376002224
-0.00634215135781
-0.00701944010745
-0.00888448503207
-0.0150026210955
-0.0379644742292
-0.112887041309
-0.497788921664
-0.00526734236589
-0.0054114040627
-0.00580556708102
-0.00590856318396
-0.005933872595
-0.00594389631982
-0.00595272211303
-0.00596260999641
-0.00597382102462
-0.00598653038076
-0.00600225677798
-0.00602912836938
-0.00609851464971
-0.0063081279262
-0.00691783001544
-0.0086713926577
-0.0145875504456
-0.036668524845
-0.108463949465
-0.444367264605
-0.00526888788255
-0.005415260036
-0.00581474306069
-0.00592049977863
-0.00594665066233
-0.00595677511371
-0.00596545835619
-0.0059751139858
-0.00598594148868
-0.00599797474783
-0.00601243195855
-0.00603597768804
-0.00609445407323
-0.00627355990934
-0.00680708357548
-0.00838521706698
-0.0138272665695
-0.0339492022375
-0.0956220943184
-0.193295286678
-0.00526526967446
-0.00541924309722
-0.00582377610721
-0.00593216335845
-0.00595919856872
-0.00596950355574
-0.00597814759411
-0.00598766816331
-0.00599822246655
-0.00600967913127
-0.00602266494893
-0.00604188484887
-0.00608877560216
-0.00623667340105
-0.00669829722143
-0.00804677654173
-0.0126879247463
-0.0287943947722
-0.0705819992716
-0.172682041734
-0.00526165958114
-0.00542174896617
-0.00583168005052
-0.00594318681186
-0.00597142807615
-0.00598210641787
-0.00599086202189
-0.00600039754615
-0.00601089062814
-0.00602207453138
-0.00603402301554
-0.00604924109985
-0.00608159879604
-0.0061817809204
-0.006494321687
-0.00743688489932
-0.0107864359719
-0.0232391103347
-0.0655802633077
-0.144074299269
-0.00525846399595
-0.0054226789368
-0.00583822228484
-0.0059533506979
-0.00598314836398
-0.00599440838442
-0.00600343781436
-0.00601317588999
-0.00602383217107
-0.00603505507956
-0.00604644600908
-0.00605862652913
-0.00607867903383
-0.00613635656234
-0.00631428983287
-0.00679926212728
-0.00817001656648
-0.0135416177578
-0.0484124552416
-0.121904532526
-0.00525408288465
-0.00542191522967
-0.00584320009458
-0.00596245490563
-0.00599418381633
-0.00600626151493
-0.00601575120462
-0.00602588055866
-0.00603690950596
-0.00604843602908
-0.0060597025126
-0.00606971735158
-0.00607933327853
-0.0060983815804
-0.00614548814707
-0.00611226000421
-0.00467392925627
0.00221419105671
-0.00941167630957
-0.0164928871395
-0.00524921746204
-0.00541908645339
-0.00584639452944
-0.00597025616827
-0.00600428987599
-0.00601743093721
-0.00602758045502
-0.00603829095951
-0.00604990474015
-0.00606199920473
-0.0060735569654
-0.00608211194938
-0.00608267696918
-0.0060641054789
-0.00596269127839
-0.00526112012168
-0.000558264800506
0.015464695798
-0.00322147713507
-0.00427188539872
-0.00524289793681
-0.00541412884098
-0.00584749320747
-0.0059764341022
-0.00601316129349
-0.00602763380843
-0.00603864111408
-0.0060501244657
-0.00606254705211
-0.00607551013223
-0.00608762243156
-0.00609499384516
-0.00608564871074
-0.00601620357741
-0.00568184045445
-0.00403442385057
0.00340054332609
0.0200750008308
-0.010817835504
-0.00792162522542
-0.00523532786501
-0.00540663564819
-0.00584614809824
-0.00598063104879
-0.00602045789354
-0.00603654495521
-0.00604862444954
-0.00606108121754
-0.00607456240639
-0.00608858957303
-0.00610150840602
-0.00610773011057
-0.00608396558535
-0.00592369872914
-0.00516471002205
-0.00225877552096
0.00499432125004
0.00500918337967
-0.0590339833846
-0.0596587586893
-0.00522594453954
-0.00539635533429
-0.00584193678709
-0.00598239411686
-0.00602575798806
-0.00604378483278
-0.00605720557117
-0.00607092971287
-0.00608566761532
-0.00610095949704
-0.00611504311452
-0.00611977553626
-0.0060730400388
-0.00576852714742
-0.00444092595232
-0.000750692970192
0.00119531018561
-0.0222525838631
-0.0738541618619
-0.325133978893
-0.00521456965686
-0.00538284169584
-0.00583443368952
-0.00598125935148
-0.00602859793362
-0.00604891709415
-0.00606397277995
-0.00607921275087
-0.00609552635205
-0.00611246966092
-0.00612755113208
-0.0061275104118
-0.0060361030406
-0.00549709575827
-0.00350785908018
0.00052342173838
0.000372370191265
-0.0160626071562
0.00676574352269
-0.128876656096
-0.00520090880152
-0.00536582840933
-0.00582317148642
-0.00597668861825
-0.00602848862664
-0.00605150349546
-0.00606850496912
-0.00608558120753
-0.00610386812437
-0.00612289250772
-0.00613955030861
-0.0061341007845
-0.00600227229759
-0.00541786562079
-0.00445059070183
-0.00689569864075
-0.0197185424001
-0.032320561553
0.219918106854
0.215954185435
-0.00518416122705
-0.00534497871487
-0.00580771565558
-0.00596820041974
-0.00602485950609
-0.00605096484647
-0.00607029432543
-0.00608958930492
-0.00611025291656
-0.00613206129865
-0.00615279445694
-0.00615906810678
-0.00607869195851
-0.00558815643171
-0.00383444115861
0.000458154262584
0.00837835878184
-0.00175897056924
-0.162936067614
-0.109000706986
-0.00516431786214
-0.00531986392937
-0.0057875914672
-0.0059551694605
-0.0060171149209
-0.00604672474862
-0.00606877993501
-0.00609066506245
-0.00611405626641
-0.00613880385743
-0.00616290873508
-0.00617681360258
-0.00612890058291
-0.00571923644491
-0.00351820209572
0.00620335065258
0.0366181489653
0.0521854050377
-0.0460444029994
-0.079343916166
-0.00514061372179
-0.00529035051659
-0.00576237976647
-0.00593710931185
-0.00600463944675
-0.00603820571305
-0.00606341108828
-0.00608835159495
-0.00611511863353
-0.00614351898584
-0.00617141777101
-0.00618910243513
-0.00613424107036
-0.0055705084911
-0.00211632771071
0.0134362289573
0.0592987812644
0.107765520172
-0.0809797184508
-0.0933394785937
-0.00511292375164
-0.00525629813262
-0.00573190839422
-0.00591350791091
-0.00598688679505
-0.00602475408115
-0.00605354506421
-0.00608213706715
-0.00611307476686
-0.00614630818179
-0.00617926790936
-0.00619682756123
-0.00607415468463
-0.00484104202784
0.00223856168441
0.0248149471823
0.0388091609467
-0.0475207331052
-0.2982565103
-0.268389443489
-0.00508098935569
-0.00521775266074
-0.00569600462136
-0.00588411748508
-0.00596331499126
-0.00600573672073
-0.00603852508844
-0.0060713785712
-0.00610748979883
-0.00614746212548
-0.00619036779605
-0.00623064317184
-0.00622884611974
-0.00588906484527
-0.00369372317341
0.00549237007295
0.0336143196916
0.0956164307041
0.180299467353
0.107209372193
-0.00504462116387
-0.00517500293717
-0.00565497637518
-0.00584885872126
-0.00593369850304
-0.00598075898053
-0.00601785018743
-0.00605532863107
-0.00609731292912
-0.00614474440127
-0.00619723057936
-0.00625173548377
-0.00629155163723
-0.00618762776414
-0.00519229221781
0.000113402474246
0.0218054646184
0.0748455934083
0.0955835137343
0.0209718794038
-0.00500409064493
-0.00512878178147
-0.00560944822608
-0.00580819723912
-0.00589804604925
-0.00594961280517
-0.00599111097373
-0.00603366163799
-0.00608227941248
-0.00613814216505
-0.00620057756128
-0.00626862364192
-0.00633580851339
-0.00633836627358
-0.00583741313289
-0.00267313315555
0.0112220167247
0.041988073963
0.0378801463574
-0.00567581313273
-0.00496009011032
-0.0050804829029
-0.00556081144498
-0.00576298571597
-0.00585699374727
-0.00591263687369
-0.00595881748133
-0.00600711464758
-0.00606411664941
-0.00612956647987
-0.00620177032822
-0.00628138163124
-0.00636868919126
-0.0064305027177
-0.00617656318107
-0.00409274862442
0.00526813156269
0.0235253583314
0.00958814771226
-0.0527020409768
-0.00491395388691
-0.00503235478567
-0.00551130027979
-0.00571518872203
-0.00581198737006
-0.00587157703693
-0.00592363919774
-0.00597990301174
-0.00604968574114
-0.00612531934459
-0.00620534135917
-0.0062940215713
-0.00640095607816
-0.00650005309786
-0.00639721510765
-0.00477094449053
0.0053170073043
0.033347618861
-0.0366987908386
-0.111266734732
-0.00486761884236
-0.00498762471331
-0.00546420297824
-0.00566765157534
-0.00576585696508
-0.0058299305363
-0.00588807986092
-0.00594714010307
-0.00603761279433
-0.00611325538803
-0.00618887437137
-0.00629602222845
-0.00647081430056
-0.00656849014844
-0.00656963217155
-0.00569940371802
0.00156718754286
0.0397277674779
-0.186635939739
-0.202275865932
-0.00482376121559
-0.00494991286999
-0.0054232270681
-0.00562419447669
-0.00572244504116
-0.005789999589
-0.00584158349659
-0.00584538990609
-0.00590834464312
-0.00596262495975
-0.00598480182502
-0.00614565603724
-0.00652234119506
-0.00652502707377
-0.00633742340242
-0.00254394174919
0.0327789120517
0.132330551601
0.103127662859
-0.278503246887
-0.00478542946813
-0.00492212731695
-0.00539157872299
-0.00558833321938
-0.0056843819421
-0.00575509668292
-0.00580979464936
-0.00568457212612
-0.00645558097425
-0.006114963459
-0.00605355808296
-0.00589594113235
-0.00571611656403
-0.00595391214018
-0.00598678432969
-0.00347743375802
0.012634909401
0.0353281638003
-0.0942780738557
-0.21773706247
-0.00475646142552
-0.00490666179407
-0.00537299269871
-0.00556430331048
-0.00565189831304
-0.00568586499791
-0.0055095023487
-0.00551123249625
-0.00564636148649
-0.00518281289971
-0.00579710141902
-0.00539159136844
-0.00111633947834
0.00952733400918
-0.115777548698
-0.0842818954476
-0.00473945512963
-0.0048970278219
-0.00536235523207
-0.0055510056009
-0.00563321413193
-0.00564980459404
-0.00541529710204
-0.00529205375225
-0.00531495334882
-0.00509015296952
-0.00540547430837
-0.00479370353087
-0.000728513318019
0.0138944226674
0.0334236598888
0.00338387291294
-0.00473944977194
-0.00489702726539
-0.00536235466597
-0.00555100461765
-0.00563321193635
-0.00564979850459
-0.00541528792872
-0.00529205961723
-0.00531502994852
-0.005090222999
-0.00540570472192
-0.00479397875674
-0.000728738616762
0.0138960303976
0.0335460628415
0.00348429370481
-0.00475645849843
-0.00490666626988
-0.00537299689389
-0.00556430700132
-0.0056518982664
-0.00568585744586
-0.00550948763398
-0.00551125542563
-0.00564615990385
-0.00518256699441
-0.00579690354594
-0.00539170326522
-0.00111880615658
0.0095201061471
-0.115769777665
-0.0842584232865
-0.0047854108475
-0.00492212631237
-0.00539157900872
-0.00558833297289
-0.00568437898102
-0.00575508476132
-0.00580977681836
-0.00568455437839
-0.00645552889581
-0.00611491143203
-0.00605352418059
-0.00589606360345
-0.0057163927137
-0.00595426039382
-0.00598747362987
-0.00347917171241
0.0126301993032
0.035345496459
-0.0942497010986
-0.217677335065
-0.0048237495683
-0.00494992785884
-0.00542324791282
-0.00562421874538
-0.00572246997607
-0.00579002176203
-0.00584160392129
-0.00584541632392
-0.00590837044243
-0.00596263963589
-0.00598485222532
-0.00614572456989
-0.00652244292463
-0.00652513806986
-0.00633794237345
-0.0025444429908
0.0327828531626
0.132359865208
0.103066499016
-0.278081619738
-0.00486762293813
-0.00498764485048
-0.00546423276598
-0.00566768677292
-0.0057658927016
-0.00582996737749
-0.00588811939252
-0.00594718197883
-0.00603765857617
-0.00611330069016
-0.0061889370447
-0.00629616256075
-0.00647099757376
-0.00656875581908
-0.00657027726259
-0.00569964272299
0.0015683297259
0.039738538355
-0.186600720215
-0.202010462695
-0.00491399045058
-0.00503238303875
-0.00551133726395
-0.00571522903368
-0.00581202204868
-0.00587161541827
-0.00592368415683
-0.00597995380745
-0.00604974030012
-0.00612537773853
-0.00620541835722
-0.00629416390493
-0.00640117343634
-0.00650040521044
-0.00639797061717
-0.00477160256074
0.00531628799598
0.0333493934872
-0.0366785763639
-0.111187630105
-0.00496015918626
-0.00508052167543
-0.00556085471042
-0.00576303010072
-0.00585701332522
-0.00591266425545
-0.00595885271877
-0.00600715934136
-0.00606417120984
-0.00612963060818
-0.00620185749121
-0.00628152490844
-0.00636889382871
-0.00643085577368
-0.00617729196777
-0.00409350534155
0.00526753816175
0.0235245943313
0.00958865589532
-0.0526643582576
-0.00500415345166
-0.00512883646526
-0.0056095145716
-0.00580824626075
-0.0058981160436
-0.00594966399979
-0.00599117453584
-0.00603370812787
-0.00608233744058
-0.00613821217922
-0.00620066923582
-0.00626876270181
-0.00633599736593
-0.00633872613866
-0.00583816086423
-0.00267405511541
0.0112208932825
0.0419840556536
0.0378631090611
-0.00567163966191
-0.00504471452689
-0.00517510455332
-0.00565507993017
-0.00584898232339
-0.00593380102582
-0.0059808745924
-0.0060179560107
-0.00605545478857
-0.00609741907014
-0.0061448606565
-0.00619734409319
-0.00625187704199
-0.00629171606463
-0.00618796330747
-0.0051929710727
0.000112712506037
0.021805607085
0.0748428677409
0.0955344886686
0.0209399424943
-0.00508111946574
-0.00521789868557
-0.00569615863869
-0.00588426665568
-0.005963473797
-0.00600589291786
-0.00603868339633
-0.00607153078167
-0.00610764791839
-0.00614760858712
-0.0061905573974
-0.00623083428542
-0.0062291260231
-0.00588968575055
-0.00369473310893
0.0054926716676
0.0336232203873
0.0956189961171
0.18036823536
0.107190101236
-0.00511308446368
-0.00525648513078
-0.00573210724102
-0.00591370478192
-0.00598707943764
-0.00602494439112
-0.00605373770848
-0.00608233555558
-0.00611328643911
-0.00614652491595
-0.00617950265101
-0.00619708673078
-0.00607445975369
-0.00484156495032
0.00223796642056
0.0248188957772
0.0388404483439
-0.0474593074911
-0.298275586553
-0.268355485626
-0.00514079382566
-0.00529057835955
-0.00576262653686
-0.00593735542351
-0.0060048792866
-0.00603843874488
-0.00606363965984
-0.00608858716968
-0.00611538160235
-0.00614378054143
-0.00617170340467
-0.00618943349113
-0.00613453433732
-0.00557057432183
-0.00211626829729
0.0134338992627
0.0592818012682
0.107779766369
-0.0809355275854
-0.0932994615467
-0.00516450112256
-0.00532010702796
-0.00578786192694
-0.00595544356378
-0.00601738384635
-0.00604698644642
-0.00606903611844
-0.00609093392996
-0.00611435527491
-0.00613910469156
-0.00616324512641
-0.00617723548007
-0.00612934502189
-0.00571946535101
-0.00351718968472
0.006206495295
0.0366097153042
0.0521429506446
-0.046079828898
-0.0793968918465
-0.00518434459116
-0.00534522667588
-0.00580799672345
-0.0059684878549
-0.00602514015674
-0.00605123143193
-0.00607055055224
-0.00608984229381
-0.00611054645491
-0.006132378968
-0.00615315576076
-0.00615954671897
-0.00607924393609
-0.00558864277628
-0.00383399071636
0.000460443395699
0.00838126536495
-0.00177599287557
-0.162955260249
-0.109035468199
-0.00520106494216
-0.00536604479771
-0.00582342402043
-0.00597695675043
-0.0060287645413
-0.00605178334755
-0.00606878494775
-0.00608585451942
-0.00610412538502
-0.00612317179364
-0.0061398804015
-0.00613456986768
-0.0060028515007
-0.00541857051284
-0.00445106648579
-0.00689546221531
-0.0197199691793
-0.0323190190534
0.219930427966
0.215970158363
-0.00521473406657
-0.00538305928835
-0.00583468844529
-0.00598153371001
-0.00602888632761
-0.00604921634024
-0.00606427856719
-0.00607951800605
-0.00609583126733
-0.00611279231887
-0.00612790426277
-0.00612793499259
-0.00603666004629
-0.00549788583717
-0.00350886283362
0.00052294874046
0.000374957894543
-0.0160560763276
0.00677822254716
-0.128885743941
-0.00522612216428
-0.00539657836006
-0.00584219518114
-0.00598267244296
-0.00602605248858
-0.00604409403883
-0.00605752672557
-0.00607125639623
-0.00608599757054
-0.00610130883866
-0.00611542444477
-0.00612021839283
-0.00607355443171
-0.00576919514901
-0.00444190854668
-0.00075180700791
0.00119566561403
-0.0222431176273
-0.0738424192104
-0.32512617852
-0.0052355126857
-0.00540686205661
-0.00584640762389
-0.00598090971545
-0.00602075304578
-0.00603685672636
-0.00604895219711
-0.00606142026189
-0.00607490913907
-0.00608895922301
-0.00610191492904
-0.00610819134648
-0.00608448675683
-0.00592428630066
-0.00516545803782
-0.00225988696471
0.00499349009654
0.00501092947276
-0.059020147123
-0.0596529265474
-0.00524308595572
-0.00541435565701
-0.00584775120435
-0.00597671039493
-0.00601345419952
-0.00602794448138
-0.00603897024198
-0.00605046882287
-0.00606290326229
-0.00607589343112
-0.00608804916827
-0.00609547145468
-0.00608618797968
-0.00601680607452
-0.00568246207613
-0.00403508202509
0.00339953025789
0.0200751014028
-0.0108150662203
-0.00791933434255
-0.00524940320549
-0.00541931127255
-0.00584664972775
-0.00597052928745
-0.00600457982066
-0.00601773964288
-0.00602790871664
-0.00603863579496
-0.00605026357824
-0.00606238934239
-0.0060739980478
-0.00608259946402
-0.00608322652726
-0.00606472926921
-0.00596330663394
-0.00526146063887
-0.000558523507691
0.0154651356575
-0.00321950626481
-0.00426946054768
-0.00525426175857
-0.00542213636627
-0.00584345231666
-0.00596272512231
-0.00599447121477
-0.00600656831254
-0.00601607750783
-0.00602622250312
-0.0060372651957
-0.00604882772821
-0.00606015352484
-0.0060702101467
-0.00607988318313
-0.00609900659945
-0.00614612315359
-0.00611256750393
-0.00467361789182
0.00221516834438
-0.0094080236177
-0.0164887738211
-0.00525863610152
-0.00542289739316
-0.00583847260016
-0.00595361926371
-0.0059834343341
-0.00599471378011
-0.00600376152048
-0.00601351268008
-0.00602418166878
-0.00603544651471
-0.00604690481514
-0.00605912261515
-0.00607923014689
-0.00613696830264
-0.006314920078
-0.00679968032733
-0.00816971109731
-0.0135401037092
-0.0484094946291
-0.121900501615
-0.00526182757079
-0.00542196555557
-0.00583192949088
-0.00594345510683
-0.00597171424843
-0.00598241198257
-0.00599118403841
-0.00600072924079
-0.00601123222687
-0.00602247112904
-0.00603448675404
-0.00604973932698
-0.0060821405589
-0.00618236162619
-0.00649489622208
-0.00743732246984
-0.0107862878368
-0.0232379729543
-0.0655799074627
-0.144075231311
-0.00526543609188
-0.00541945806243
-0.00582402411632
-0.00593243061592
-0.00595948404323
-0.00596980829998
-0.00597847229011
-0.00598801110977
-0.00599858580912
-0.00601009327958
-0.00602312662768
-0.00604237215002
-0.00608929617904
-0.00623721928586
-0.00669886288982
-0.00804748685015
-0.0126883562305
-0.0287944009057
-0.0705822203192
-0.172684397528
-0.00526904924693
-0.00541546445145
-0.00581497511274
-0.00592074649497
-0.00594691198584
-0.00595705399428
-0.00596575847961
-0.00597543909553
-0.00598630140769
-0.00599838711343
-0.00601289187017
-0.00603647806152
-0.00609499785592
-0.00627414029857
-0.00680771954303
-0.00838595584827
-0.0138279158841
-0.0339489192553
-0.0956140082418
-0.193285459356
-0.00526751216012
-0.00541161476666
-0.00580580887104
-0.00590882488741
-0.00593415498912
-0.00594420211915
-0.00595305232242
-0.00596296902075
-0.00597422003863
-0.00598694716942
-0.00600270377666
-0.00602960755058
-0.00609902626131
-0.00630866001993
-0.00691836622094
-0.00867195564023
-0.0145881663789
-0.0366685255973
-0.108462208164
-0.444358755123
-0.0052596238259
-0.00540864796829
-0.00579765978446
-0.00589752976157
-0.00592157547015
-0.00593132465181
-0.00594031523273
-0.00595064654127
-0.00596248349242
-0.00597608317603
-0.00599347896468
-0.00602413671214
-0.00610430353472
-0.00634271252299
-0.00702000462537
-0.0088850900405
-0.0150034431386
-0.0379655389944
-0.112884175435
-0.497782895141
-0.00525152788608
-0.00540409591037
-0.00578872721715
-0.00588593578556
-0.00590886413916
-0.00591843379289
-0.0059276613184
-0.00593844384615
-0.0059509256929
-0.0059655598656
-0.005984746352
-0.00601947620024
-0.00610999232468
-0.00637647798546
-0.00711273242045
-0.00905313261034
-0.0151501913373
-0.0382063070344
-0.114768281126
-0.502922306404
-0.0052429284621
-0.00539858297066
-0.00577937285168
-0.00587409545906
-0.00589598910202
-0.00590541998647
-0.00591495569309
-0.00592629246442
-0.0059395072298
-0.00595516715242
-0.00597615853184
-0.00601482502404
-0.00611565274973
-0.00640832353351
-0.00719965384652
-0.00919397077705
-0.0150969129782
-0.03733176941
-0.112691838939
-0.545581082541
-0.00523355086218
-0.00539210447016
-0.00576947357223
-0.00586193153092
-0.00588292846561
-0.00589228998848
-0.00590212962941
-0.00591398721388
-0.00592796456927
-0.00594467616517
-0.00596740551199
-0.0060098978058
-0.00612062609065
-0.00643853609022
-0.00728345222442
-0.00931634382054
-0.0148816300116
-0.0353105579725
-0.106278487315
-0.5861397845
-0.00522380477494
-0.00538478275243
-0.00575906389284
-0.00584943811305
-0.00586965664332
-0.00587899433219
-0.00588916201867
-0.00590152290348
-0.00591617339697
-0.00593387008922
-0.00595820688035
-0.00600425561633
-0.00612424347969
-0.00646676397233
-0.00736533008455
-0.00944733876064
-0.0145705896435
-0.0322939476129
-0.0937570206306
-0.638152815403
-0.00521373410471
-0.00537658889999
-0.00574818649681
-0.00583668520835
-0.00585616274559
-0.00586548272943
-0.00587596997499
-0.00588880941557
-0.00590407861406
-0.00592258925685
-0.00594833804789
-0.00599753462628
-0.00612590639147
-0.00649177903979
-0.00745188273253
-0.00963147141755
-0.0143069568613
-0.0275822190514
-0.077362349177
-0.64109411003
-0.00520369893697
-0.00536736094404
-0.00573668326608
-0.00582354738413
-0.00584240999222
-0.00585173525643
-0.00586251884836
-0.00587577334861
-0.00589154511502
-0.00591071866072
-0.00593760639559
-0.00598941926941
-0.00612490677592
-0.00651119024088
-0.00752983341551
-0.00981675738929
-0.0140054033349
-0.0209406100512
-0.0409343968615
-0.208373027894
-0.00519335397488
-0.00535735904091
-0.00572465134355
-0.00581007036131
-0.00582842114595
-0.00583778748488
-0.0058488333531
-0.00586244406402
-0.00587862215889
-0.00589829624968