/*--------------------------------*- C++ -*----------------------------------*\
| =========                 |                                                 |
| \\      /  F ield         | OpenFOAM: The Open Source CFD Toolbox           |
|  \\    /   O peration     | Version:  v2012                                 |
|   \\  /    A nd           | Website:  www.openfoam.com                      |
|    \\/     M anipulation  |                                                 |
\*---------------------------------------------------------------------------*/
FoamFile
{
    version     2.0;
    format      ascii;
    class       surfaceScalarField;
    location    "2.1";
    object      phi;
}
// * * * * * * * * * * * * * * * * * * * * * * * * * * * * * * * * * * * * * //

dimensions      [0 3 -1 0 0 0 0];
oriented        oriented;


internalField   nonuniform List<scalar> 
3840
(
2.42197213554e-05
-2.42214928582e-05
4.57462719358e-05
-2.1528543366e-05
6.67750548821e-05
-2.1030847558e-05
8.82869152583e-05
-2.15138032404e-05
0.000110542321962
-2.22569138396e-05
0.000133592654032
-2.30491154589e-05
0.000157528541642
-2.39312158978e-05
0.00018248544198
-2.49495503344e-05
0.000208635362148
-2.61369575893e-05
0.000236163937654
-2.75157768558e-05
0.000265269143124
-2.90878434497e-05
0.000296130216961
-3.08387352083e-05
0.000329038982492
-3.28824375031e-05
0.000364385307106
-3.53179970401e-05
0.000400575234379
-3.61633988386e-05
0.000429403405119
-2.88089833274e-05
0.000461588074711
-3.21768563402e-05
0.000547846154092
-8.62567959757e-05
0.000889014851838
-0.000341155257388
-0.00295976897793
2.11443095409e-05
-4.53677298423e-05
4.22829919489e-05
-4.26692923999e-05
6.33487041918e-05
-4.20986237323e-05
8.45903971603e-05
-4.27573342779e-05
0.000106231675844
-4.38994422098e-05
0.000128505509696
-4.53216494958e-05
0.000151587778616
-4.70086647e-05
0.000175658796421
-4.9012391605e-05
0.000200918016526
-5.13807804933e-05
0.000227578186972
-5.41604939137e-05
0.000255900978993
-5.73911619707e-05
0.000286201776057
-6.11157141021e-05
0.000318863785296
-6.55174029257e-05
0.000354027011373
-7.04537448528e-05
0.000394172904098
-7.62848196822e-05
0.000441547751977
-7.6167069608e-05
0.00048983109394
-8.04537961379e-05
0.000536047575864
-0.000132472173192
0.000448848994329
-0.000253954130821
-0.0018238563359
2.00192705486e-05
-6.53888331982e-05
4.0500167309e-05
-6.3152111731e-05
6.10171335347e-05
-6.26174911284e-05
8.17039571013e-05
-6.3445823047e-05
0.000102774480949
-6.49710494381e-05
0.000124405447442
-6.69514586193e-05
0.000146785807867
-6.93854907693e-05
0.000170103562594
-7.23211209698e-05
0.000194565345656
-7.58277508071e-05
0.000220401392422
-7.99798679978e-05
0.000247894665608
-8.48654797296e-05
0.000277407277978
-9.06060616127e-05
0.000309358105332
-9.74440782325e-05
0.000344072553117
-0.000105144437139
0.000383460995767
-0.000115653211271
0.000429868687357
-0.000122561623202
0.000479432697234
-0.000130013099999
0.000525955404369
-0.000178994067059
0.000430591139139
-0.000158587388831
-0.000933865329651
1.96938069821e-05
-8.50842167513e-05
3.95937039858e-05
-8.30536484485e-05
5.9536408661e-05
-8.25618228703e-05
7.96801554464e-05
-8.35910011903e-05
0.000100198787822
-8.54906102227e-05
0.000121253560903
-8.80059027243e-05
0.000143007355524
-9.11358706803e-05
0.000165635344527
-9.49427318375e-05
0.000189335023386
-9.95090220107e-05
0.000214320104262
-0.000104945645651
0.000240854134593
-0.000111382210596
0.000269265471401
-0.000118998797752
0.000299965275321
-0.000128124504259
0.000333349463938
-0.000138510524343
0.000370860438778
-0.000153149535523
0.000413976785035
-0.000165668905796
0.000460190707804
-0.000176223996795
0.000507339383527
-0.000226142235545
0.000523752361942
-0.0001749990118
-0.000359464504924
1.94603936864e-05
-0.000104545848067
3.87593866595e-05
-0.00010235392661
5.8107144105e-05
-0.000101910869255
7.76617308488e-05
-0.000103146735634
9.75505047556e-05
-0.00010538012263
0.000117955448901
-0.000108410739624
0.000139001480382
-0.000112180049354
0.000160839242314
-0.00011677509346
0.000183639024362
-0.000122299112026
0.000207599458993
-0.000128885761037
0.000232945488972
-0.000136708190791
0.000259960243366
-0.00014599951853
0.000289028326977
-0.000157178866804
0.000320622712189
-0.000170092771078
0.000355806341592
-0.000188323986549
0.000395536763593
-0.000205394064049
0.000438446471269
-0.000219132139075
0.000484782787847
-0.000272478297824
0.00046911562699
-0.000159330932886
-4.82867819981e-05
1.90440499415e-05
-0.000123590775538
3.77477145708e-05
-0.000121058505972
5.64343528273e-05
-0.000120598443398
7.53062716525e-05
-0.000122019496893
9.45367359107e-05
-0.00012461112359
0.000114159423943
-0.000128033329081
0.000134372370975
-0.000132391825967
0.000155269932157
-0.000137668604867
0.000176995082775
-0.000144017508069
0.000199711478968
-0.000151592904337
0.000223611261864
-0.000160593727279
0.000248929512206
-0.000171308434269
0.000276004127666
-0.00018424504971
0.000305170958422
-0.000199252853385
0.000337359007831
-0.000220507498574
0.000373034796982
-0.000241067610622
0.00041144966549
-0.000257546502555
0.000460401598865
-0.000321430054989
0.00051697087468
-0.000215907325091
-0.000445424988536
1.84614077859e-05
-0.000142052724393
3.65396778387e-05
-0.000139137347022
5.45086476257e-05
-0.000138568016007
7.26286481248e-05
-0.000140140055007
9.10438656043e-05
-0.000143026670764
0.000109845876705
-0.000146835224936
0.000129086908863
-0.000151631961033
0.000148908515206
-0.000157487486966
0.000169400359175
-0.000164504344885
0.000190684505761
-0.000172870855376
0.000212901683306
-0.000182801072746
0.000236218755422
-0.000194619969907
0.000260864977542
-0.000208887027649
0.000287233164462
-0.000225618348576
0.000315644159702
-0.000248917263363
0.000346149928065
-0.000271573141571
0.00037630725732
-0.00028770395251
0.000416347092751
-0.000361469859608
0.000514842582706
-0.0003144067678
-0.00102256998506
1.77886551609e-05
-0.000159841636909
3.51344374661e-05
-0.000156483409042
5.23376497624e-05
-0.000155771545481
6.96478929035e-05
-0.00015745060219
8.71941267653e-05
-0.000160573074458
0.000105052028077
-0.000164692947267
0.000123237977391
-0.00016981720495
0.000141884675621
-0.000176132101959
0.000161023098657
-0.000183639393316
0.000180732282795
-0.000192575407747
0.000201093956756
-0.000203156416953
0.000222205403905
-0.000215728550492
0.00024417195779
-0.000230852120726
0.000267337402909
-0.000248783625665
0.00029168836479
-0.000273268894538
0.000317589357903
-0.000297474929785
0.000344082866152
-0.000314197846672
0.000377585144929
-0.000394972196964
0.000348732664839
-0.000285554409242
-0.000851800170863
1.70307912616e-05
-0.000176872471054
3.35975910512e-05
-0.000173050268358
4.99480030833e-05
-0.00017212205121
6.64205852579e-05
-0.000173923289247
8.3059456329e-05
-0.000177211968561
9.99309946419e-05
-0.000181564302105
0.000117012012263
-0.000186897602276
0.000134379702946
-0.000193498305544
0.000152073696963
-0.000201330504592
0.000170129563823
-0.000210628025804
0.000188531762288
-0.000221553966005
0.000207291352148
-0.000234486749331
0.000226427082963
-0.000249987812154
0.000246124969016
-0.000268482491034
0.000266095667454
-0.000293240990218
0.000286575525234
-0.000317955877283
0.000306563439043
-0.000334186168103
0.000325858609796
-0.000414267440824
0.000285338315546
-0.000245034388632
-0.000617857601015
1.6213874566e-05
-0.000193086248385
3.19325062386e-05
-0.000188768815057
4.74616464743e-05
-0.000187651136591
6.29890901396e-05
-0.000189450698266
7.86421649097e-05
-0.00019286498475
9.44367753991e-05
-0.000197358693095
0.000110435347137
-0.000202895656482
0.000126556579238
-0.000209618200113
0.000142845676703
-0.000217617390963
0.000159182028214
-0.000226961488613
0.000175599810187
-0.000237968286825
0.000192004656016
-0.000250890839099
0.00020828185414
-0.000266265416397
0.000224417730686
-0.000284619539
0.000239890066879
-0.000308714690166
0.000254529704366
-0.000332596465378
0.000267786503776
-0.000347443280135
0.000277181047579
-0.000423662050025
0.000234131923775
-0.000201985508582
-0.000411230387563
1.53586319767e-05
-0.000208444712881
3.0198141081e-05
-0.000203608167792
4.48212401628e-05
-0.000202274103757
5.94345803787e-05
-0.000204063935981
7.41099682206e-05
-0.000207540268502
8.88642983577e-05
-0.000212112850581
0.000103703608017
-0.000217734525542
0.000118529207807
-0.000224442764043
0.000133374869953
-0.000232460929083
0.000148164218253
-0.000241748537847
0.000162706667596
-0.000252507576242
0.000176831576587
-0.00026501507765
0.000190388181644
-0.000279822292705
0.000203130714764
-0.000297362921682
0.00021440805299
-0.00031999299607
0.000223823779712
-0.000342012832686
0.000231711690115
-0.000355331382406
0.000231948689144
-0.000423899107653
0.000207094011139
-0.000177131142419
-0.000480932986899
1.44679820217e-05
-0.000222912514427
2.8419427079e-05
-0.00021755944302
4.21289023781e-05
-0.000215983430887
5.5792227228e-05
-0.000217727144556
6.94865530999e-05
-0.000221234509063
8.32084464488e-05
-0.000225834605196
9.694550698e-05
-0.000231471269385
0.000110564750644
-0.00023806106353
0.000124099395423
-0.000245993924245
0.000137343077097
-0.000254990048955
0.000150170488308
-0.000265332317906
0.000162358558713
-0.000277202400884
0.000173392861465
-0.000290856558288
0.000183071279452
-0.000307041734173
0.000190686784491
-0.000327609018788
0.000195825599467
-0.000347151986339
0.000200477983283
-0.000359983866308
0.000193025376365
-0.000416446565902
0.000175276774606
-0.000159383047276
-0.000345353648935
1.35700746442e-05
-0.000236482435
2.66042800739e-05
-0.000230593505001
3.93820877187e-05
-0.000228761112501
5.21125875777e-05
-0.000230457553451
6.48364226386e-05
-0.000233958290144
7.75469111122e-05
-0.000238545042795
9.02007657954e-05
-0.00024412491199
0.000102795726667
-0.00025065536195
0.000115045146937
-0.000258241857838
0.000126953555027
-0.000266896801282
0.000138316386793
-0.00027669270876
0.000148745705514
-0.000287630877157
0.000157902195897
-0.000300012725755
0.000165225808324
-0.000314365363192
0.000169722312629
-0.000332105695994
0.000171691326245
-0.000349121136323
0.000175420597417
-0.000363713195763
0.000162277091833
-0.00040330317855
0.000137904599346
-0.000135011451698
-0.000186773004041
1.26673109468e-05
-0.000249149637766
2.47589142833e-05
-0.000242685008459
3.66518853504e-05
-0.000240653996732
4.84449401592e-05
-0.000242250552885
6.02110660119e-05
-0.000245724412399
7.19465645581e-05
-0.000250280545295
8.36004965854e-05
-0.000255778760097
9.51251227837e-05
-0.000262179464908
0.000106354896505
-0.000269470675931
0.00011720823258
-0.000277748591223
0.000127336306493
-0.000286818954395
0.000136534588266
-0.000296828259993
0.000144371050067
-0.000307848658655
0.000150231635461
-0.000320225666736
0.000153122612627
-0.000334996658735
0.000152897619572
-0.000348896166141
0.000157114167227
-0.000367929784575
0.000142393566456
-0.000388582856256
0.000127403223685
-0.000120025483987
-3.31181188699e-05
1.17265128841e-05
-0.000260876090549
2.29509450807e-05
-0.000253909385758
3.38905622108e-05
-0.000251593565522
4.47784804956e-05
-0.000253138452396
5.5631838504e-05
-0.000256577809766
6.64312862218e-05
-0.000261080021411
7.71650438564e-05
-0.000266512437272
8.77620445941e-05
-0.000272776291559
9.80765068792e-05
-0.00027978410793
0.000107969914907
-0.000287641301596
0.000117266086732
-0.000296113011142
0.000125650084446
-0.000305211320021
0.000132737115668
-0.000314934839331
0.000138197727366
-0.000325686004257
0.00014150747795
-0.000338306193053
0.000141798010839
-0.000349186800329
0.000145329295672
-0.000371461116451
0.000139896940929
-0.000383152594166
0.000172345311559
-0.000152487089674
0.000166435191588
1.08022890494e-05
-0.00027167837551
2.10922888654e-05
-0.000264199373158
3.11120278872e-05
-0.000261613289648
4.10948928527e-05
-0.000263121342342
5.10606644772e-05
-0.000266543434155
6.1006081377e-05
-0.000271025382474
7.08787157369e-05
-0.000276385166144
8.06453212881e-05
-0.000282542586208
9.02400854653e-05
-0.00028937876228
9.9413426956e-05
-0.000296813336651
0.000108068126988
-0.000304766621435
0.000115885836762
-0.000313027910545
0.000122500084895
-0.000321548499042
0.000127642579551
-0.000330827969927
0.000131517671397
-0.000342181315977
0.000137991500979
-0.000355660653309
0.000141550254839
-0.00037501998215
0.000144347809601
-0.000385955334863
0.000243526938091
-0.000251684040965
0.000204599688196
9.84699427927e-06
-0.00028152540394
1.92215541246e-05
-0.000273573968173
2.83148732623e-05
-0.000270706640693
3.73946310309e-05
-0.000272200815111
4.64955372756e-05
-0.000275644376955
5.56155196355e-05
-0.000280145274795
6.47174512977e-05
-0.00028548702019
7.37671401116e-05
-0.000291592378864
8.27142770101e-05
-0.000298325047393
9.140978282e-05
-0.000305508001415
9.97117888518e-05
-0.000313066902872
0.000107371658932
-0.00032068642739
0.000113962068998
-0.000328137679601
0.000118900259123
-0.000335765648136
0.000121696216843
-0.000344976984349
0.000125285214449
-0.000359249734814
0.000127905994994
-0.000377640871294
0.000142272346288
-0.00040032783772
0.000228722502934
-0.000338159119854
5.3879469054e-05
8.89720102629e-06
-0.000290422702582
1.73401309594e-05
-0.000282016958971
2.55237712045e-05
-0.000278890144798
3.37107305519e-05
-0.000280387888673
4.19428560497e-05
-0.000283876244116
5.02350524696e-05
-0.000288437337217
5.86130131289e-05
-0.000293864856086
6.70235204602e-05
-0.000300002692249
7.54598136073e-05
-0.000306760868481
8.392386326e-05
-0.000313971427982
9.21630088774e-05
-0.000321305290456
0.000100128204212
-0.000328650937048
0.000107490972629
-0.000335499887525
0.000113773755033
-0.000342048124179
0.000118149451586
-0.00034935254718
0.000121760020503
-0.000362860270722
0.000128285455998
-0.000384166324297
0.000149576760698
-0.000421622614045
0.000230631855069
-0.000419221814864
-0.000130055467606
7.99167560689e-06
-0.000298414485292
1.54264859942e-05
-0.000289451856451
2.27104700025e-05
-0.000286174269631
2.9992383914e-05
-0.000287669651075
3.73493832426e-05
-0.000291233211438
4.48304410764e-05
-0.00029591821199
5.24783603195e-05
-0.000301512520011
6.03184052441e-05
-0.000307842388951
6.83461839632e-05
-0.000314788138619
7.6572683459e-05
-0.000322197298694
8.50728623311e-05
-0.00032980478291
9.37404201286e-05
-0.00033731786586
0.000102598938087
-0.000344357912296
0.000111402072997
-0.000350850941983
0.000119889276737
-0.000357839586949
0.000128266751711
-0.00037123767598
0.000139702999346
-0.000395602566008
0.000157585330902
-0.000439506902873
0.000215806288393
-0.000477447131774
-0.000281845350818
6.98275917616e-06
-0.000305397312719
1.34596268007e-05
-0.00029592879399
1.97577309225e-05
-0.000292472378476
2.6090632295e-05
-0.000294002543137
3.25769934813e-05
-0.000297719436439
3.92681726577e-05
-0.000302609180768
4.61872144758e-05
-0.000308431246546
5.34132225145e-05
-0.000315067981749
6.09983282817e-05
-0.000322372703838
6.9074628573e-05
-0.00033027298174
7.77351805392e-05
-0.000338464686291
8.70961784389e-05
-0.000346678284491
9.73999058481e-05
-0.000354661177519
0.000108823310406
-0.000362274032943
0.000121795010002
-0.00037081110183
0.000135629661227
-0.000385072235188
0.000150937417817
-0.000410910303674
0.000166181008243
-0.000454751680954
0.000207108969569
-0.000518377652198
-0.000359632970314
5.94495924376e-06
-0.000311342310818
1.14059419748e-05
-0.000301389806784
1.67330638056e-05
-0.000297799494091
2.20810640634e-05
-0.00029935048137
2.76541383692e-05
-0.00030329237583
3.34700763746e-05
-0.000308424898861
3.95820016437e-05
-0.000314542850765
4.61515737003e-05
-0.000321637130451
5.31575523973e-05
-0.000329378160846
6.09837216735e-05
-0.00033809856759
6.96562941912e-05
-0.000347136665901
7.94937437085e-05
-0.000356515200742
9.08645444307e-05
-0.000366031550932
0.000104446088556
-0.000375855271828
0.000120678968379
-0.000387043787079
0.000138538430741
-0.000402931594301
0.000156716756131
-0.000429088603254
0.000172943776534
-0.00047097945414
0.000206560930169
-0.000551996272156
-0.000392630547488
4.85239914131e-06
-0.000316194725196
9.25539438632e-06
-0.000305792803671
1.3546048971e-05
-0.000302090125607
1.79424489266e-05
-0.000303746815584
2.24916175506e-05
-0.00030784141834
2.7364352196e-05
-0.000313297430992
3.25545665816e-05
-0.000319732774005
3.83218081755e-05
-0.000327403989013
4.48352344279e-05
-0.000335891123219
5.2042958638e-05
-0.000345305777333
6.03976739382e-05
-0.000355490863982
7.02829094503e-05
-0.000366399967745
8.21948731616e-05
-0.000377943131951
9.69190216265e-05
-0.000390579135505
0.000115223902104
-0.000405348476472
0.000136100530963
-0.000423808117854
0.000157251176081
-0.000450239219865
0.000175494342463
-0.000489223063223
0.000202567641084
-0.000579070501401
-0.000355828059898
3.73702510319e-06
-0.000319931730545
7.02752518532e-06
-0.000309083273828
1.02010609935e-05
-0.000305263615872
1.35028325438e-05
-0.000307048514239
1.69963534759e-05
-0.000311334824246
2.0801591306e-05
-0.000317102496017
2.51023328079e-05
-0.000324033272347
2.98389142319e-05
-0.000332140252756
3.5390107821e-05
-0.000341441929671
4.18942512159e-05
-0.000351809482135
4.97024569213e-05
-0.000363298616166
5.92115713449e-05
-0.000375908657362
7.08700644631e-05
-0.000389601262389
8.5453674303e-05
-0.000405162462574
0.000104349555585
-0.000424244158473
0.000126341174088
-0.000445799619028
0.000150876085457
-0.000474774088918
0.000170382192593
-0.000508729406094
0.000173329023677
-0.000582018045571
-0.00022828478471
2.55068540329e-06
-0.000322482354781
4.69902783608e-06
-0.000311231550527
6.73891891332e-06
-0.000307303438272
8.8583225834e-06
-0.000309167839647
1.12114868672e-05
-0.000313687889149
1.38973397891e-05
-0.00031978821261
1.70590762461e-05
-0.000327194823272
2.07382514357e-05
-0.000335819171945
2.51694347213e-05
-0.000345872787034
3.05550261247e-05
-0.000357194681833
3.72238290201e-05
-0.000369966992999
4.56767341938e-05
-0.000384361146774
5.62773844395e-05
-0.000400201547514
7.01540810552e-05
-0.000419038867353
8.74602735672e-05
-0.000441550137198
0.000109423814769
-0.000467763012167
0.000134790634291
-0.000500140853516
0.00015167672128
-0.00052561565266
0.000117956615945
-0.000548298903627
-0.000126300313986
1.25849059005e-06
-0.000323740763389
2.2879133769e-06
-0.000312260890837
3.08619102903e-06
-0.000308101639066
3.98107934113e-06
-0.00031006265558
5.09556071799e-06
-0.0003148022933
6.52012252633e-06
-0.000321212679314
8.36598824337e-06
-0.000329040544733
1.08098110023e-05
-0.000338262800197
1.39015445229e-05
-0.000348964247142
1.78761170197e-05
-0.000361168899886
2.31046373788e-05
-0.000375195127887
2.97000626251e-05
-0.000390956189416
3.84890835617e-05
-0.000408990224389
4.98123434172e-05
-0.000430361845188
6.50537512281e-05
-0.000456791307537
8.38860367234e-05
-0.000486595131532
0.000106504715168
-0.000522759474874
0.000115080252091
-0.000534191400505
3.79790674582e-05
-0.000471198490515
-8.85881718637e-05
8.81989863405e-09
-0.000323749460803
-3.62982489123e-07
-0.000311888965001
-7.74596593112e-07
-0.000307689913246
-1.17451466683e-06
-0.000309662638138
-1.37656839769e-06
-0.000314600142536
-1.3006858666e-06
-0.000321288442106
-8.63643616713e-07
-0.000329477423995
6.52987115609e-08
-0.000339191489961
1.62503214064e-06
-0.00035052355245
4.02082206949e-06
-0.000363564223028
7.23757982014e-06
-0.000378411360216
1.17279951619e-05
-0.000395446068861
1.7817194844e-05
-0.000415078927885
2.58787172309e-05
-0.000438422933223
3.59938117531e-05
-0.000466906039897
4.94623686015e-05
-0.000500063421399
6.45134869605e-05
-0.000537810485488
6.68106946849e-05
-0.000536488798969
-4.48515746852e-05
-0.000359537260411
-6.54438402698e-05
-1.24837515765e-06
-0.000322501005358
-2.96651170691e-06
-0.000310170748566
-4.75139311341e-06
-0.00030590496055
-6.49182053506e-06
-0.000307922149885
-8.08710805924e-06
-0.000313004801113
-9.45143882044e-06
-0.00031992405008
-1.05323551922e-05
-0.000328396424063
-1.12162406844e-05
-0.000338507481348
-1.1390640032e-05
-0.000350348890612
-1.09827293208e-05
-0.000363971861588
-9.83210105411e-06
-0.000379561698511
-7.85491715247e-06
-0.000397422966367
-4.99428893794e-06
-0.000417939279589
-1.14862018375e-06
-0.00044226834064
2.70584401916e-06
-0.00047076027317
9.2231163366e-06
-0.000506580534775
8.45630809365e-06
-0.000537043623035
1.10126612468e-05
-0.000539045255068
4.61123538095e-05
-0.000394637272481
-0.000127237942459
-2.67101713863e-06
-0.000319829909677
-5.71035053057e-06
-0.000307131337801
-8.87201476532e-06
-0.000302743226822
-1.20184681864e-05
-0.000304775636103
-1.50675152095e-05
-0.000309955699407
-1.79571967873e-05
-0.00031703430994
-2.05987030667e-05
-0.000325754843662
-2.29536513955e-05
-0.00033615240234
-2.49713665549e-05
-0.000348330860013
-2.65518749506e-05
-0.000362390928459
-2.76174770196e-05
-0.000378495650708
-2.81862497643e-05
-0.00039685389331
-2.83600884592e-05
-0.00041776514693
-2.87597587698e-05
-0.000441868389453
-3.01211214141e-05
-0.000469398664256
-3.62441474444e-05
-0.000500457339091
-4.79820610129e-05
-0.000525305649425
-5.36078938336e-05
-0.000533419458157
1.34948802835e-05
-0.00046174021355
-0.000250119969918
-4.15069630845e-06
-0.000315679139723
-8.53916400152e-06
-0.000302742798397
-1.31035733892e-05
-0.000298178752448
-1.76775237506e-05
-0.000300201627319
-2.22155831347e-05
-0.000305417583126
-2.6662393394e-05
-0.000312587434734
-3.0976093466e-05
-0.000321441058042
-3.5109743804e-05
-0.000332018598432
-3.90118528572e-05
-0.000344428478488
-4.26244531803e-05
-0.000358777976039
-4.59091735629e-05
-0.000375210418981
-4.88775836007e-05
-0.000393885146684
-5.17126791532e-05
-0.000414929721988
-5.50360086058e-05
-0.000438544745275
-6.0021381662e-05
-0.000464413015968
-7.17339487238e-05
-0.000488744580567
-9.69527602698e-05
-0.000500086767563
-0.000130311317715
-0.000500060910399
-0.000122188525756
-0.000469862985868
-0.000342078111687
-5.48469043456e-06
-0.000310194384791
-1.13979421078e-05
-0.00029682948433
-1.73584243161e-05
-0.000292218213105
-2.34091173814e-05
-0.000294150880758
-2.94752582376e-05
-0.000299351385575
-3.55269170608e-05
-0.000306535704961
-4.15466912352e-05
-0.000315421184442
-4.7510984228e-05
-0.000326054124477
-5.33429552311e-05
-0.000338596189829
-5.90168572938e-05
-0.000353103668583
-6.45261685448e-05
-0.000369700520682
-6.97407085742e-05
-0.000388670227522
-7.47519525607e-05
-0.000409918104548
-7.98634656218e-05
-0.000433432872028
-8.60375824408e-05
-0.000458238580362
-9.84332248388e-05
-0.000476348711614
-0.000131150082402
-0.00046736982412
-0.0002043986286
-0.000426812374791
-0.000281370583127
-0.000392890799338
-0.000242474620799
-6.9933462682e-06
-0.000303200985664
-1.42116877293e-05
-0.000289611091775
-2.16680875429e-05
-0.000284761766223
-2.91818208462e-05
-0.000286637101735
-3.67827025706e-05
-0.000291750451182
-4.44721076009e-05
-0.000298846227721
-5.22253895437e-05
-0.000307667795021
-6.00214954409e-05
-0.00031825781681
-6.78722869341e-05
-0.000330745044706
-7.56859234642e-05
-0.0003452895825
-8.34642634726e-05
-0.00036192152634
-9.08937847291e-05
-0.000381240279829
-9.78350351799e-05
-0.000402976423542
-0.000103975948525
-0.000427291533077
-0.000109877102946
-0.000452337040119
-0.000121615146047
-0.000464610388183
-0.000165642904484
-0.000423341957775
-0.000273021732533
-0.000319433541508
-0.000371396692514
-0.000294515408804
-8.89711945626e-05
-8.41723844116e-06
-0.000294783705531
-1.7088276642e-05
-0.000280940013138
-2.59006137214e-05
-0.000275949392321
-3.48756733539e-05
-0.000277662005793
-4.40040661899e-05
-0.000282622013111
-5.33357035784e-05
-0.000289514522079
-6.28475256646e-05
-0.000298155864139
-7.25556967077e-05
-0.000308549431091
-8.25120942159e-05
-0.000320788264197
-9.26148777132e-05
-0.000335186306199
-0.000102647961719
-0.000351887718906
-0.000112635350518
-0.00037125239935
-0.000121968021666
-0.000393643236769
-0.00012933867595
-0.000419920353778
-0.000134370085372
-0.000447305144858
-0.000143462368292
-0.000455517749524
-0.000192136188302
-0.000374668001212
-0.000308598807852
-0.000202970875714
-0.000398925436471
-0.000204188251318
0.000103349342922
-9.83815147392e-06
-0.000284945520364
-1.9832780166e-05
-0.000270945351596
-3.00559090173e-05
-0.000265726234929
-4.04568037984e-05
-0.000267261083865
-5.11064249356e-05
-0.000271972355722
-6.20105837581e-05
-0.000278610301697
-7.32470568486e-05
-0.000286919283489
-8.48478915313e-05
-0.000296948368619
-9.70107694309e-05
-0.00030862496205
-0.000109450767776
-0.000322745746259
-0.000122344386575
-0.000338993269523
-0.000135602035983
-0.000357994152111
-0.000149437522127
-0.000379807103439
-0.000162335953809
-0.000407021251313
-0.000174278052106
-0.000435362423051
-0.000186747623143
-0.000443047727876
-0.000213233212162
-0.000348182241672
-0.000252441913702
-0.000163762069222
-0.000267557545065
-0.000189072171234
0.000246771181361
-1.11973661933e-05
-0.000273748123511
-2.25393480022e-05
-0.000259603339818
-3.40109918793e-05
-0.000254254567184
-4.57726135149e-05
-0.000255499442108
-5.78643733125e-05
-0.000259880567608
-7.03823450508e-05
-0.000266092273658
-8.33672305942e-05
-0.000273934287219
-9.69441909335e-05
-0.000283371152864
-0.000111008525235
-0.000294560123093
-0.000125897313392
-0.000307856267858
-0.000141663543541
-0.000323226015825
-0.000158450682285
-0.000341206246421
-0.000176012067033
-0.000362244880249
-0.000196625407742
-0.000386407042377
-0.000224421106052
-0.000407565928964
-0.000256155483537
-0.000411312788185
-0.000252572788115
-0.000351764728205
-0.000108087641529
-0.0003082469242
0.00022122386613
-0.000518383930601
-9.08364534359e-05
-1.2494038763e-05
-0.000261254051509
-2.50396075214e-05
-0.000247057738775
-3.7776676479e-05
-0.000241517474813
-5.07973665238e-05
-0.000242478735849
-6.42576819321e-05
-0.000246420228951
-7.81668949552e-05
-0.000252183004792
-9.27981332554e-05
-0.000259302924635
-0.000108231766766
-0.000267937208202
-0.000124558746339
-0.000278232496519
-0.000141986540554
-0.000290427570392
-0.000160327386703
-0.000304883833236
-0.000179640154482
-0.00032189247223
-0.000199759355461
-0.000342124594696
-0.000220658046633
-0.000365507251794
-0.000248537025465
-0.000379685966066
-0.000279933173512
-0.000379915954483
-0.000277724899465
-0.000353972745192
-0.000151852597742
-0.000434119221224
0.000611929619854
-0.00128216484273
-0.000449345653874
-1.37524204832e-05
-0.000247501590189
-2.74175903669e-05
-0.000233392529865
-4.1229736741e-05
-0.000227705302075
-5.53795592091e-05
-0.000228328898636
-7.01505930419e-05
-0.000231649174357
-8.54110182419e-05
-0.000236922519071
-0.000101441919155
-0.000243271874428
-0.000118582126987
-0.000250796601001
-0.000136960196205
-0.000259853572798
-0.000157034323945
-0.000270352244416
-0.000179384133548
-0.000282532256247
-0.000204756172444
-0.000296519130264
-0.000232768350924
-0.000314111050911
-0.000262454228227
-0.000335820029516
-0.000279238133724
-0.000362900885805
-0.000256305241652
-0.000402848037786
-0.000154229025167
-0.000456048667429
-8.13350027418e-05
-0.000507013224342
-0.00154974328692
0.000186241540697
-0.000211007412476
-1.47797386327e-05
-0.00023272179964
-2.95548454632e-05
-0.000218617374558
-4.43785914433e-05
-0.000212881525374
-5.9606852799e-05
-0.000213100623543
-7.52251337293e-05
-0.000216030874643
-9.17201984395e-05
-0.000220427387407
-0.000109080063931
-0.000225911828744
-0.000127457320385
-0.00023241883506
-0.000147304835378
-0.000240004954645
-0.000168860637717
-0.000248794898865
-0.000192300800488
-0.000259089825213
-0.000217521069317
-0.000271297233763
-0.000245244212892
-0.000286386249588
-0.000277234254397
-0.000303828395466
-0.000311170117267
-0.000328963679299
-0.000337302576831
-0.000376714692891
-0.000342185205856
-0.000451165753579
-0.000338736437042
-0.000510462226248
9.49001585388e-06
-0.000161986551464
-0.000234394606297
-1.58625583111e-05
-0.000216859176406
-3.14069854627e-05
-0.000203072888365
-4.71112621537e-05
-0.000197177213537
-6.31598833265e-05
-0.000197051990046
-7.98111801786e-05
-0.000199379561022
-9.70990873929e-05
-0.000203139407159
-0.000115506124278
-0.000207504581283
-0.000134945546167
-0.000212978791848
-0.000155935995284
-0.00021901314623
-0.000179086113088
-0.000225642883031
-0.000204551550591
-0.00023362163106
-0.000232950316439
-0.000242896524629
-0.000264376455012
-0.000254958170127
-0.000299145544067
-0.000269057495984
-0.000337820702114
-0.000290287049612
-0.000384262116651
-0.000330272354324
-0.000489284633909
-0.000346142968921
-0.000641746448861
-0.000358001180582
-0.000552314809297
-0.000251420559535
-0.000218972575329
-1.67578823617e-05
-0.000200101214486
-3.30925257453e-05
-0.000186738173622
-4.94417308982e-05
-0.000180827966263
-6.62213481886e-05
-0.000180272356839
-8.35056051775e-05
-0.000182095279743
-0.000101646591706
-0.000184998330523
-0.000120532614338
-0.000188618319502
-0.000140806362495
-0.000192704246786
-0.000162762496214
-0.000197055256677
-0.000186822023926
-0.00020158086316
-0.000214009692928
-0.000206430562264
-0.000245113410067
-0.000211790215261
-0.000281094334792
-0.000218974671811
-0.000322479415809
-0.000227669993211
-0.000373217219023
-0.000239547385429
-0.00044880012629
-0.000254688236444
-0.000568294890679
-0.000226647832227
-0.000699392243297
-0.000226905087061
-0.00058584082721
-0.00036497613043
-9.22983903909e-05
-1.75220280086e-05
-0.00018257905778
-3.44509828735e-05
-0.000169809118237
-5.13985386236e-05
-0.000163880361689
-6.86417547793e-05
-0.000163029155386
-8.65012316272e-05
-0.000164235787005
-0.00010498229299
-0.000166517209645
-0.000124393880935
-0.000169206253344
-0.00014495299465
-0.000172144043965
-0.000167081183905
-0.000174924498459
-0.000191686150086
-0.000176973322455
-0.000220434235307
-0.000177677317324
-0.000256715106827
-0.000175505778905
-0.000306393278286
-0.000169292760737
-0.00038001504213
-0.000154045189507
-0.000487350486711
-0.000132209371664
-0.000617754226846
-0.000124283170983
-0.000615100419218
-0.000229301179512
-0.00038814468711
-0.00045386239812
-2.31426859123e-05
-0.000729986404093
-0.000392030828728
-1.80396156302e-05
-0.000164539271818
-3.54638122582e-05
-0.000152384805566
-5.27442201653e-05
-0.000146599966153
-7.05025501049e-05