/*--------------------------------*- C++ -*----------------------------------*\
| =========                 |                                                 |
| \\      /  F ield         | OpenFOAM: The Open Source CFD Toolbox           |
|  \\    /   O peration     | Version:  v2012                                 |
|   \\  /    A nd           | Website:  www.openfoam.com                      |
|    \\/     M anipulation  |                                                 |
\*---------------------------------------------------------------------------*/
FoamFile
{
    version     2.0;
    format      ascii;
    class       volScalarField;
    location    "2.4";
    object      ddt0(epsilon);
}
// * * * * * * * * * * * * * * * * * * * * * * * * * * * * * * * * * * * * * //

dimensions      [0 2 -4 0 0 0 0];


internalField   nonuniform List<scalar> 
164
(
-0.00403705026363
-0.00416571193865
-0.00452669195169
-0.0046518630974
-0.0046968944494
-0.00471856086548
-0.0047356735143
-0.00475395958345
-0.00405836932579
-0.00418602352319
-0.00454360252647
-0.0046641742972
-0.00470612384189
-0.0047260687943
-0.00474213042734
-0.00475953746587
-0.00477972233677
-0.00480326544322
-0.00482884724531
-0.0040767142958
-0.0042034880935
-0.004557657564
-0.00467386324001
-0.00471292358863
-0.00473126988765
-0.00474627760244
-0.00476266268169
-0.00478164132891
-0.0048034206992
-0.00482607524085
-0.00483850448101
-0.00479987464287
-0.00409287445443
-0.00421839533933
-0.00456910806046
-0.00468120846015
-0.00471764090686
-0.00473450452527
-0.00474847372453
-0.00476382680108
-0.00478150359752
-0.00480159333178
-0.0048228845011
-0.00483742815657
-0.0048086737257
-0.00462307448541
-0.00410695884377
-0.00423084680435
-0.00457820721773
-0.0046864844836
-0.0047205235592
-0.00473603403647
-0.00474901459636
-0.00476333174423
-0.00477978496013
-0.00479837597822
-0.00481851524993
-0.00483673215649
-0.00483474078629
-0.0047406987231
-0.00411913617263
-0.00424114673597
-0.00458519657249
-0.00468994003507
-0.00472182346245
-0.00473611699822
-0.00474818849445
-0.00476153890323
-0.00477682541405
-0.00479409862257
-0.00481323290979
-0.00483413240253
-0.00485547816103
-0.00486701805297
-0.00412980774345
-0.00424943675937
-0.00459034357727
-0.00469183403765
-0.00472178425061
-0.00473498178428
-0.00474622235972
-0.00475869743881
-0.00477293917929
-0.00478903759243
-0.0048073845117
-0.00483021164345
-0.00486653674433
-0.00494144571413
-0.00413500610154
-0.00425758014843
-0.00459467727151
-0.00469275410176
-0.00472073253813
-0.00473283759677
-0.0047432567495
-0.00475488998475
-0.0047681609714
-0.00478317420009
-0.0048005695199
-0.00482368873698
-0.00486611886684
-0.00497240472661
-0.00413639559165
-0.00426493390285
-0.00459864919263
-0.00469314997319
-0.00471897048469
-0.0047299067899
-0.0047395158612
-0.00475036973178
-0.00476278257815
-0.00477685555101
-0.00479339832951
-0.00481661837172
-0.00486290622122
-0.00498622187366
-0.00413705653422
-0.00427058631724
-0.00460104607681
-0.00469242401763
-0.00471638721006
-0.0047263239149
-0.00473522797675
-0.00474538285366
-0.00475699708084
-0.0047701925167
-0.00478598442212
-0.00480925093998
-0.00485849876642
-0.00499255264283
-0.00537860099931
-0.00653503406597
-0.00413844169864
-0.00427452943204
-0.00460202095083
-0.00469070281059
-0.00471310830116
-0.00472220266692
-0.00473050392327
-0.00474004752617
-0.00475095094261
-0.0047633541049
-0.00477849020285
-0.00480204110229
-0.00485504796058
-0.00500167855504
-0.00541750442031
-0.00661078372877
-0.00414050004444
-0.00427684602186
-0.00460171509404
-0.00468814295059
-0.00470927365198
-0.00471767729212
-0.00472547152315
-0.00473449034938
-0.0047448120362
-0.00475654924967
-0.00477118892535
-0.00479542168985
-0.00485352382549
-0.00501834539528
-0.00548716767942
-0.00683219553057
)
;

boundaryField
{
    back
    {
        type            calculated;
        value           nonuniform List<scalar> 
164
(
-0.00403705026363
-0.00416571193865
-0.00452669195169
-0.0046518630974
-0.0046968944494
-0.00471856086548
-0.0047356735143
-0.00475395958345
-0.00405836932579
-0.00418602352319
-0.00454360252647
-0.0046641742972
-0.00470612384189
-0.0047260687943
-0.00474213042734
-0.00475953746587
-0.00477972233677
-0.00480326544322
-0.00482884724531
-0.0040767142958
-0.0042034880935
-0.004557657564
-0.00467386324001
-0.00471292358863
-0.00473126988765
-0.00474627760244
-0.00476266268169
-0.00478164132891
-0.0048034206992
-0.00482607524085
-0.00483850448101
-0.00479987464287
-0.00409287445443
-0.00421839533933
-0.00456910806046
-0.00468120846015
-0.00471764090686
-0.00473450452527
-0.00474847372453
-0.00476382680108
-0.00478150359752
-0.00480159333178
-0.0048228845011
-0.00483742815657
-0.0048086737257
-0.00462307448541
-0.00410695884377
-0.00423084680435
-0.00457820721773
-0.0046864844836
-0.0047205235592
-0.00473603403647
-0.00474901459636
-0.00476333174423
-0.00477978496013
-0.00479837597822
-0.00481851524993
-0.00483673215649
-0.00483474078629
-0.0047406987231
-0.00411913617263
-0.00424114673597
-0.00458519657249
-0.00468994003507
-0.00472182346245
-0.00473611699822
-0.00474818849445
-0.00476153890323
-0.00477682541405
-0.00479409862257
-0.00481323290979
-0.00483413240253
-0.00485547816103
-0.00486701805297
-0.00412980774345
-0.00424943675937
-0.00459034357727
-0.00469183403765
-0.00472178425061
-0.00473498178428
-0.00474622235972
-0.00475869743881
-0.00477293917929
-0.00478903759243
-0.0048073845117
-0.00483021164345
-0.00486653674433
-0.00494144571413
-0.00413500610154
-0.00425758014843
-0.00459467727151
-0.00469275410176
-0.00472073253813
-0.00473283759677
-0.0047432567495
-0.00475488998475
-0.0047681609714
-0.00478317420009
-0.0048005695199
-0.00482368873698
-0.00486611886684
-0.00497240472661
-0.00413639559165
-0.00426493390285
-0.00459864919263
-0.00469314997319
-0.00471897048469
-0.0047299067899
-0.0047395158612
-0.00475036973178
-0.00476278257815
-0.00477685555101
-0.00479339832951
-0.00481661837172
-0.00486290622122
-0.00498622187366
-0.00413705653422
-0.00427058631724
-0.00460104607681
-0.00469242401763
-0.00471638721006
-0.0047263239149
-0.00473522797675
-0.00474538285366
-0.00475699708084
-0.0047701925167
-0.00478598442212
-0.00480925093998
-0.00485849876642
-0.00499255264283
-0.00537860099931
-0.00653503406597
-0.00413844169864
-0.00427452943204
-0.00460202095083
-0.00469070281059
-0.00471310830116
-0.00472220266692
-0.00473050392327
-0.00474004752617
-0.00475095094261
-0.0047633541049
-0.00477849020285
-0.00480204110229
-0.00485504796058
-0.00500167855504
-0.00541750442031
-0.00661078372877
-0.00414050004444
-0.00427684602186
-0.00460171509404
-0.00468814295059
-0.00470927365198
-0.00471767729212
-0.00472547152315
-0.00473449034938
-0.0047448120362
-0.00475654924967
-0.00477118892535
-0.00479542168985
-0.00485352382549
-0.00501834539528
-0.00548716767942
-0.00683219553057
)
;
    }
    sides
    {
        type            calculated;
        value           nonuniform List<scalar> 0();
    }
    bottom
    {
        type            calculated;
        value           nonuniform List<scalar> 
12
(
-0.00403705026363
-0.00405836932579
-0.0040767142958
-0.00409287445443
-0.00410695884377
-0.00411913617263
-0.00412980774345
-0.00413500610154
-0.00413639559165
-0.00413705653422
-0.00413844169864
-0.00414050004444
)
;
    }
    front
    {
        type            calculated;
        value           nonuniform List<scalar> 
164
(
-0.00403705026363
-0.00416571193865
-0.00452669195169
-0.0046518630974
-0.0046968944494
-0.00471856086548
-0.0047356735143
-0.00475395958345
-0.00405836932579
-0.00418602352319
-0.00454360252647
-0.0046641742972
-0.00470612384189
-0.0047260687943
-0.00474213042734
-0.00475953746587
-0.00477972233677
-0.00480326544322
-0.00482884724531
-0.0040767142958
-0.0042034880935
-0.004557657564
-0.00467386324001
-0.00471292358863
-0.00473126988765
-0.00474627760244
-0.00476266268169
-0.00478164132891
-0.0048034206992
-0.00482607524085
-0.00483850448101
-0.00479987464287
-0.00409287445443
-0.00421839533933
-0.00456910806046
-0.00468120846015
-0.00471764090686
-0.00473450452527
-0.00474847372453
-0.00476382680108
-0.00478150359752
-0.00480159333178
-0.0048228845011
-0.00483742815657
-0.0048086737257
-0.00462307448541
-0.00410695884377
-0.00423084680435
-0.00457820721773
-0.0046864844836
-0.0047205235592
-0.00473603403647
-0.00474901459636
-0.00476333174423
-0.00477978496013
-0.00479837597822
-0.00481851524993
-0.00483673215649
-0.00483474078629
-0.0047406987231
-0.00411913617263
-0.00424114673597
-0.00458519657249
-0.00468994003507
-0.00472182346245
-0.00473611699822
-0.00474818849445
-0.00476153890323
-0.00477682541405
-0.00479409862257
-0.00481323290979
-0.00483413240253
-0.00485547816103
-0.00486701805297
-0.00412980774345
-0.00424943675937
-0.00459034357727
-0.00469183403765
-0.00472178425061
-0.00473498178428
-0.00474622235972
-0.00475869743881
-0.00477293917929
-0.00478903759243
-0.0048073845117
-0.00483021164345
-0.00486653674433
-0.00494144571413
-0.00413500610154
-0.00425758014843
-0.00459467727151
-0.00469275410176
-0.00472073253813
-0.00473283759677
-0.0047432567495
-0.00475488998475
-0.0047681609714
-0.00478317420009
-0.0048005695199
-0.00482368873698
-0.00486611886684
-0.00497240472661
-0.00413639559165
-0.00426493390285
-0.00459864919263
-0.00469314997319
-0.00471897048469
-0.0047299067899
-0.0047395158612
-0.00475036973178
-0.00476278257815
-0.00477685555101
-0.00479339832951
-0.00481661837172
-0.00486290622122
-0.00498622187366
-0.00413705653422
-0.00427058631724
-0.00460104607681
-0.00469242401763
-0.00471638721006
-0.0047263239149
-0.00473522797675
-0.00474538285366
-0.00475699708084
-0.0047701925167
-0.00478598442212
-0.00480925093998
-0.00485849876642
-0.00499255264283
-0.00537860099931
-0.00653503406597
-0.00413844169864
-0.00427452943204
-0.00460202095083
-0.00469070281059
-0.00471310830116
-0.00472220266692
-0.00473050392327
-0.00474004752617
-0.00475095094261
-0.0047633541049
-0.00477849020285
-0.00480204110229
-0.00485504796058
-0.00500167855504
-0.00541750442031
-0.00661078372877
-0.00414050004444
-0.00427684602186
-0.00460171509404
-0.00468814295059
-0.00470927365198
-0.00471767729212
-0.00472547152315
-0.00473449034938
-0.0047448120362
-0.00475654924967
-0.00477118892535
-0.00479542168985
-0.00485352382549
-0.00501834539528
-0.00548716767942
-0.00683219553057
)
;
    }
    atmosphere
    {
        type            calculated;
        value           nonuniform List<scalar> 0();
    }
    floatingObject
    {
        type            calculated;
        value           nonuniform List<scalar> 0();
    }
    procBoundary7to6
    {
        type            processor;
        value           nonuniform List<scalar> 
11
(
-0.0041688575025
-0.00441540960812
-0.0048551682096
-0.00512514640105
-0.0052690269642
-0.00534257133255
-0.00534257133255
-0.00641373066073
-0.0103082913523
-0.0102843836497
-0.0108071873644
)
;
    }
    procBoundary7to8
    {
        type            processor;
        value           nonuniform List<scalar> 
17
(
-0.00401345095315
-0.00414242968158
-0.00450672484192
-0.00463665731572
-0.00468500621373
-0.00470854655601
-0.0047267470259
-0.00474577660856
-0.00477517084558
-0.00477517084558
-0.00479995967416
-0.0048272273852
-0.00484981696568
-0.00484981696568
-0.00485892737457
-0.00463655573942
-0.00463655573942
)
;
    }
    procBoundary7to9
    {
        type            processor;
        value           nonuniform List<scalar> 
16
(
-0.0041420107085
-0.00427771163067
-0.00460038980497
-0.0046849388084
-0.00470501587499
-0.00471286055191
-0.00472026156483
-0.0047288797762
-0.00473869735735
-0.00474990289393
-0.00476421054597
-0.00478943601167
-0.00485325292948
-0.00503731830236
-0.00555832100947
-0.0070423358604
)
;
    }
}


// ************************************************************************* //
