/*--------------------------------*- C++ -*----------------------------------*\
| =========                 |                                                 |
| \\      /  F ield         | OpenFOAM: The Open Source CFD Toolbox           |
|  \\    /   O peration     | Version:  v2012                                 |
|   \\  /    A nd           | Website:  www.openfoam.com                      |
|    \\/     M anipulation  |                                                 |
\*---------------------------------------------------------------------------*/
FoamFile
{
    version     2.0;
    format      ascii;
    class       volScalarField;
    location    "5.6";
    object      ddt0(epsilon);
}
// * * * * * * * * * * * * * * * * * * * * * * * * * * * * * * * * * * * * * //

dimensions      [0 2 -4 0 0 0 0];


internalField   nonuniform List<scalar> 
166
(
-0.000293020661829
-0.000294090693498
-0.000295102273022
-0.000295740257728
-0.000294606541389
-0.000285891432013
-0.000245345408408
-5.48181945855e-05
0.000919101229475
0.00496099151594
0.00975999190511
-0.0146577166599
0.189527545829
-0.000291452191707
-0.000292607837423
-0.00029364395131
-0.00029469794913
-0.000295728277347
-0.000296476010065
-0.000295804671532
-0.000288919426387
-0.000255981208128
-0.000101936028225
0.000696822237764
0.00419465035872
0.00793485568201
-0.0620651342947
-0.476593778072
-0.00024400019609
-0.000251868485298
-0.000290314459257
-0.000292030313965
-0.000293159477039
-0.000294186358331
-0.000295244468075
-0.000296313308689
-0.000297184767915
-0.00029694776699
-0.000291643152263
-0.000265035416792
-0.000142026179069
0.000488422859283
0.00337798193421
0.00869984277866
-0.0441721537618
-0.605012804519
-0.000244329665236
-0.000252386189201
-0.000277531722137
-0.000287107470701
-0.000290807077156
-0.000292498892927
-0.000293616226943
-0.000294646872273
-0.000295723749369
-0.000296841099955
-0.00029784369213
-0.000298003438826
-0.000294020552275
-0.000272415713395
-0.000174065215635
0.000307718133339
0.00258038920021
0.0108797431391
0.00426196828911
-0.0237857838122
-0.000244688737036
-0.000252771268501
-0.000277931588624
-0.00028749273405
-0.000291179080996
-0.000292864125272
-0.000293983434769
-0.000295024649597
-0.000296126542931
-0.000297296907895
-0.000298425260351
-0.000298925242654
-0.000296003078552
-0.000278110661516
-0.000197826335605
0.000166362599519
0.00189905239251
0.0116680541333
0.0660048861997
0.0359920304337
-0.000245048057576
-0.000253037827071
-0.00027820404598
-0.000287756412771
-0.000291439870496
-0.000293130568397
-0.000294258083389
-0.000295312759522
-0.000296442266848
-0.000297667887461
-0.00029890955764
-0.000299700344059
-0.00029762795847
-0.000282501589607
-0.000215783501358
5.48482682464e-05
0.00138878721347
0.011425816373
0.0715744282962
0.0382860192892
-0.000245380452422
-0.000253205783096
-0.000278369218356
-0.000287912923632
-0.000291596549363
-0.000293294653679
-0.000294434150381
-0.00029550670316
-0.000296667177562
-0.00029794672345
-0.000299294642371
-0.000300335088459
-0.00029900834924
-0.000286402915857
-0.000231978472531
-4.52551918422e-05
0.000932582745403
0.0107706781933
0.0649874306432
0.0309813408687
-0.000245629785294
-0.000253274998045
-0.000278430556758
-0.000287962402209
-0.000291649762997
-0.000293356673467
-0.000294512034136
-0.000295607689627
-0.000296800220401
-0.000298132064979
-0.000299576063189
-0.000300848855833
-0.000300245120893
-0.000290134628979
-0.000247049099294
-0.000132399277057
0.000476731754984
0.00916824137132
0.0632768642803
0.0296182578373
-0.000245812679685
-0.00025326034455
-0.000278392092754
-0.000287908811075
-0.00029159983757
-0.00029331955741
-0.000294494746802
-0.00029561526904
-0.00029684030865
-0.000298222212245
-0.000299756478598
-0.00030125816527
-0.000301377992631
-0.000293931383979
-0.000262176792943
-0.000206751401898
6.24009797351e-05
0.00699343753734
0.0638543229632
0.0480757517368
)
;

boundaryField
{
    back
    {
        type            calculated;
        value           nonuniform List<scalar> 
166
(
-0.000293020661829
-0.000294090693498
-0.000295102273022
-0.000295740257728
-0.000294606541389
-0.000285891432013
-0.000245345408408
-5.48181945855e-05
0.000919101229475
0.00496099151594
0.00975999190511
-0.0146577166599
0.189527545829
-0.000291452191707
-0.000292607837423
-0.00029364395131
-0.00029469794913
-0.000295728277347
-0.000296476010065
-0.000295804671532
-0.000288919426387
-0.000255981208128
-0.000101936028225
0.000696822237764
0.00419465035872
0.00793485568201
-0.0620651342947
-0.476593778072
-0.00024400019609
-0.000251868485298
-0.000290314459257
-0.000292030313965
-0.000293159477039
-0.000294186358331
-0.000295244468075
-0.000296313308689
-0.000297184767915
-0.00029694776699
-0.000291643152263
-0.000265035416792
-0.000142026179069
0.000488422859283
0.00337798193421
0.00869984277866
-0.0441721537618
-0.605012804519
-0.000244329665236
-0.000252386189201
-0.000277531722137
-0.000287107470701
-0.000290807077156
-0.000292498892927
-0.000293616226943
-0.000294646872273
-0.000295723749369
-0.000296841099955
-0.00029784369213
-0.000298003438826
-0.000294020552275
-0.000272415713395
-0.000174065215635
0.000307718133339
0.00258038920021
0.0108797431391
0.00426196828911
-0.0237857838122
-0.000244688737036
-0.000252771268501
-0.000277931588624
-0.00028749273405
-0.000291179080996
-0.000292864125272
-0.000293983434769
-0.000295024649597
-0.000296126542931
-0.000297296907895
-0.000298425260351
-0.000298925242654
-0.000296003078552
-0.000278110661516
-0.000197826335605
0.000166362599519
0.00189905239251
0.0116680541333
0.0660048861997
0.0359920304337
-0.000245048057576
-0.000253037827071
-0.00027820404598
-0.000287756412771
-0.000291439870496
-0.000293130568397
-0.000294258083389
-0.000295312759522
-0.000296442266848
-0.000297667887461
-0.00029890955764
-0.000299700344059
-0.00029762795847
-0.000282501589607
-0.000215783501358
5.48482682464e-05
0.00138878721347
0.011425816373
0.0715744282962
0.0382860192892
-0.000245380452422
-0.000253205783096
-0.000278369218356
-0.000287912923632
-0.000291596549363
-0.000293294653679
-0.000294434150381
-0.00029550670316
-0.000296667177562
-0.00029794672345
-0.000299294642371
-0.000300335088459
-0.00029900834924
-0.000286402915857
-0.000231978472531
-4.52551918422e-05
0.000932582745403
0.0107706781933
0.0649874306432
0.0309813408687
-0.000245629785294
-0.000253274998045
-0.000278430556758
-0.000287962402209
-0.000291649762997
-0.000293356673467
-0.000294512034136
-0.000295607689627
-0.000296800220401
-0.000298132064979
-0.000299576063189
-0.000300848855833
-0.000300245120893
-0.000290134628979
-0.000247049099294
-0.000132399277057
0.000476731754984
0.00916824137132
0.0632768642803
0.0296182578373
-0.000245812679685
-0.00025326034455
-0.000278392092754
-0.000287908811075
-0.00029159983757
-0.00029331955741
-0.000294494746802
-0.00029561526904
-0.00029684030865
-0.000298222212245
-0.000299756478598
-0.00030125816527
-0.000301377992631
-0.000293931383979
-0.000262176792943
-0.000206751401898
6.24009797351e-05
0.00699343753734
0.0638543229632
0.0480757517368
)
;
    }
    sides
    {
        type            calculated;
        value           nonuniform List<scalar> 0();
    }
    bottom
    {
        type            calculated;
        value           nonuniform List<scalar> 7(-0.00024400019609 -0.000244329665236 -0.000244688737036 -0.000245048057576 -0.000245380452422 -0.000245629785294 -0.000245812679685);
    }
    front
    {
        type            calculated;
        value           nonuniform List<scalar> 
166
(
-0.000293020661829
-0.000294090693498
-0.000295102273022
-0.000295740257728
-0.000294606541389
-0.000285891432013
-0.000245345408408
-5.48181945855e-05
0.000919101229475
0.00496099151594
0.00975999190511
-0.0146577166599
0.189527545829
-0.000291452191707
-0.000292607837423
-0.00029364395131
-0.00029469794913
-0.000295728277347
-0.000296476010065
-0.000295804671532
-0.000288919426387
-0.000255981208128
-0.000101936028225
0.000696822237764
0.00419465035872
0.00793485568201
-0.0620651342947
-0.476593778072
-0.00024400019609
-0.000251868485298
-0.000290314459257
-0.000292030313965
-0.000293159477039
-0.000294186358331
-0.000295244468075
-0.000296313308689
-0.000297184767915
-0.00029694776699
-0.000291643152263
-0.000265035416792
-0.000142026179069
0.000488422859283
0.00337798193421
0.00869984277866
-0.0441721537618
-0.605012804519
-0.000244329665236
-0.000252386189201
-0.000277531722137
-0.000287107470701
-0.000290807077156
-0.000292498892927
-0.000293616226943
-0.000294646872273
-0.000295723749369
-0.000296841099955
-0.00029784369213
-0.000298003438826
-0.000294020552275
-0.000272415713395
-0.000174065215635
0.000307718133339
0.00258038920021
0.0108797431391
0.00426196828911
-0.0237857838122
-0.000244688737036
-0.000252771268501
-0.000277931588624
-0.00028749273405
-0.000291179080996
-0.000292864125272
-0.000293983434769
-0.000295024649597
-0.000296126542931
-0.000297296907895
-0.000298425260351
-0.000298925242654
-0.000296003078552
-0.000278110661516
-0.000197826335605
0.000166362599519
0.00189905239251
0.0116680541333
0.0660048861997
0.0359920304337
-0.000245048057576
-0.000253037827071
-0.00027820404598
-0.000287756412771
-0.000291439870496
-0.000293130568397
-0.000294258083389
-0.000295312759522
-0.000296442266848
-0.000297667887461
-0.00029890955764
-0.000299700344059
-0.00029762795847
-0.000282501589607
-0.000215783501358
5.48482682464e-05
0.00138878721347
0.011425816373
0.0715744282962
0.0382860192892
-0.000245380452422
-0.000253205783096
-0.000278369218356
-0.000287912923632
-0.000291596549363
-0.000293294653679
-0.000294434150381
-0.00029550670316
-0.000296667177562
-0.00029794672345
-0.000299294642371
-0.000300335088459
-0.00029900834924
-0.000286402915857
-0.000231978472531
-4.52551918422e-05
0.000932582745403
0.0107706781933
0.0649874306432
0.0309813408687
-0.000245629785294
-0.000253274998045
-0.000278430556758
-0.000287962402209
-0.000291649762997
-0.000293356673467
-0.000294512034136
-0.000295607689627
-0.000296800220401
-0.000298132064979
-0.000299576063189
-0.000300848855833
-0.000300245120893
-0.000290134628979
-0.000247049099294
-0.000132399277057
0.000476731754984
0.00916824137132
0.0632768642803
0.0296182578373
-0.000245812679685
-0.00025326034455
-0.000278392092754
-0.000287908811075
-0.00029159983757
-0.00029331955741
-0.000294494746802
-0.00029561526904
-0.00029684030865
-0.000298222212245
-0.000299756478598
-0.00030125816527
-0.000301377992631
-0.000293931383979
-0.000262176792943
-0.000206751401898
6.24009797351e-05
0.00699343753734
0.0638543229632
0.0480757517368
)
;
    }
    atmosphere
    {
        type            calculated;
        value           nonuniform List<scalar> 9(-1.30344513667 -0.830742907592 0.305032539208 3.52585952639 -7.73441971408e-05 -1.55390966407e-06 -1.60681817971e-05 9.24922850887e-06 -3.57126897203e-05);
    }
    floatingObject
    {
        type            calculated;
        value           nonuniform List<scalar> 0();
    }
    procBoundary0to1
    {
        type            processor;
        value           nonuniform List<scalar> 10(-0.00029498545281 -0.000293387257393 -0.000282668768681 -0.000233404377324 -2.18568993225e-06 0.00114309458368 0.00564515574831 0.0132093638634 0.0210005882423 0.004698429846);
    }
    procBoundary0to2
    {
        type            processor;
        value           nonuniform List<scalar> 
14
(
-0.000292317444463
-0.000293412476397
-0.000294431566031
-0.000290770581787
-0.00029195568547
-0.00029195568547
-0.000243653893612
-0.000251225005844
-0.000289706103538
-0.000289706103538
-0.000276989726917
-0.000276989726917
-0.000286588955551
-0.000286588955551
)
;
    }
    procBoundary0to4
    {
        type            processor;
        value           nonuniform List<scalar> 8(-0.000245930052544 -0.000253155750053 -0.000278255418408 -0.000287753473329 -0.000291448366792 -0.000293184295571 -0.000294380109238 -0.000295524971293);
    }
    procBoundary0to5
    {
        type            processor;
        value           nonuniform List<scalar> 
12
(
-0.000296782770303
-0.000298214754544
-0.00029984450178
-0.000301576169549
-0.000302426782334
-0.000297696200742
-0.000277297019679
-0.00028021632676
-0.000406295833825
0.00403043466194
0.0614532215907
0.146748110162
)
;
    }
}


// ************************************************************************* //
