/*--------------------------------*- C++ -*----------------------------------*\
| =========                 |                                                 |
| \\      /  F ield         | OpenFOAM: The Open Source CFD Toolbox           |
|  \\    /   O peration     | Version:  v2012                                 |
|   \\  /    A nd           | Website:  www.openfoam.com                      |
|    \\/     M anipulation  |                                                 |
\*---------------------------------------------------------------------------*/
FoamFile
{
    version     2.0;
    format      ascii;
    class       surfaceVectorField;
    location    "5.6";
    object      ddtCorrDdt0(Uf);
}
// * * * * * * * * * * * * * * * * * * * * * * * * * * * * * * * * * * * * * //

dimensions      [0 1 -2 0 0 0 0];


internalField   nonuniform List<vector> 
302
(
(-0.162656304801 0.0222279682614 -7.73370738043e-24)
(-0.16057483653 0.0179834999855 -1.9424385026e-23)
(-0.169797151062 0.0245504447057 -1.07861162794e-23)
(-0.16712584491 0.0198959659847 3.71959223015e-25)
(-0.177998214916 0.0266506847456 -2.13132097947e-23)
(-0.174681607226 0.0215908657165 -3.02635371214e-23)
(-0.187347316893 0.0284905176487 -4.52384692054e-23)
(-0.183307190775 0.023012771634 -2.18344598689e-23)
(-0.197937084083 0.0299818902305 -1.22938025386e-22)
(-0.193089405133 0.0241001529011 -7.26373794028e-23)
(-0.209840808269 0.0310573247218 -2.20633120948e-22)
(-0.204127492693 0.0247848405419 -2.15917588965e-22)
(-0.223152308908 0.0315896052997 5.81139083498e-22)
(-0.216440432435 0.0249061767027 -3.71209850763e-22)
(-0.238030377915 0.0314818168777 -8.70973653634e-22)
(-0.230210729264 0.0250456789777 1.26323090504e-22)
(-0.250918362422 0.030336183832 -3.03943662507e-21)
(-0.245427577292 0.0223210245578 -1.47835015937e-21)
(-0.249867035785 0.031041030216 -2.13542782336e-21)
(-0.256573980348 0.0182013582887 4.90616326986e-21)
(-0.370853939734 0.0273168815474 -1.65802630833e-20)
(-0.242958032896 0.002279024077 2.53687014245e-21)
(-0.143753122505 -0.150930219813 3.67789029769e-20)
(-0.0967861217901 0.0271900840437 7.12887503264e-21)
(-0.0214170490912 -0.383484656998 1.70881743913e-20)
(-0.153501272258 0.0124605193073 -9.46332269746e-24)
(-0.152096651284 0.00946083022744 -7.58537890991e-25)
(-0.158592176605 0.0141721129044 -2.03553123818e-23)
(-0.156676723796 0.0108349555867 -6.97885625357e-24)
(-0.164574044658 0.0157032040385 -1.13187184226e-23)
(-0.162111955086 0.012020158821 -1.37013958373e-23)
(-0.171500476088 0.0170137769444 -1.91054616189e-23)
(-0.168447001988 0.0129858244196 -1.12170676329e-23)
(-0.179436631525 0.0180487359995 -3.07847871956e-23)
(-0.175731561793 0.013678705789 -2.21998733566e-23)
(-0.188452508026 0.0187516021516 -4.92333700663e-23)
(-0.184028055456 0.0140366205743 -2.9957236336e-23)
(-0.198635858398 0.0190371067317 -1.65616942981e-22)
(-0.193394788102 0.0139881136429 -1.01860308064e-22)
(-0.210050205715 0.0188481919162 -3.6649431878e-22)
(-0.203957937646 0.013521328844 -3.30331628863e-22)
(-0.222754349493 0.0181176687154 -8.26025843757e-22)
(-0.215727028245 0.0123045380574 -4.91503144721e-22)
(-0.236842856189 0.0166058974986 -4.81053415228e-22)
(-0.228711892487 0.0111512380745 -2.56375590892e-22)
(-0.250574696695 0.0142356843319 6.46724973557e-21)
(-0.243065049327 0.00705822726774 8.68158106834e-22)
(-0.250073261577 0.0152966780838 9.57846123566e-21)
(-0.257636861683 0.00396942113737 1.4036177417e-20)
(0.19453683999 0.0218585238777 2.62460082583e-20)
(-0.249569551425 -0.0134919778759 1.31389972515e-20)
(0.477100331217 -0.324637740398 -1.2561853553e-20)
(0.249818709135 -0.192594248661 -3.470810664e-21)
(0.318971048502 -0.499489814422 -1.34002995467e-19)
(-0.141967352193 0.00147577248675 -6.23256494656e-23)
(-0.142336473951 0.000478105996087 -3.73935873346e-23)
(-0.143030653951 0.00168893194499 -3.38556802755e-23)
(-0.150784348764 0.00684124075996 -1.12215428249e-23)
(-0.149526078488 0.00462779387516 -1.77278987435e-23)
(-0.154869570582 0.00789173369087 1.7259285529e-24)
(-0.153141013176 0.0053707255868 -4.51347146551e-24)
(-0.159771624881 0.00874755920433 -3.24939709065e-25)
(-0.157531193821 0.00592938356405 -1.06266886983e-23)
(-0.165533323906 0.00937836462817 -1.35997450476e-23)
(-0.16274581393 0.00626627155252 4.72149289124e-24)
(-0.172197149717 0.00973864785177 -1.43114793705e-23)
(-0.168814930439 0.00634285828311 -2.36288550694e-23)
(-0.179807304251 0.00977947201846 -2.13723224969e-23)
(-0.175784360373 0.00610126288756 -1.18334534332e-23)
(-0.18842595182 0.0094220994367 -8.25841743337e-23)
(-0.183686219663 0.00547567805912 -3.53326573122e-23)
(-0.198143385976 0.00861420102755 -2.66574993945e-22)
(-0.192604482562 0.00437772668315 -1.45526743702e-22)
(-0.209014805873 0.00724356650474 -4.55340454804e-22)
(-0.202605033809 0.00285079480048 -4.64421250224e-22)
(-0.220997963438 0.00525828084953 7.81471081438e-23)
(-0.213757468283 0.00045551371166 -4.65195066097e-22)
(-0.233909166027 0.00233164717914 1.09283593117e-21)
(-0.225797293475 -0.00190830879765 9.1741757815e-22)
(-0.248078013351 -0.00265852951979 8.4370857883e-21)
(-0.238081979528 -0.00728773112913 -1.09534336126e-22)
(-0.254745993905 -0.00715372520471 1.75967134328e-20)
(-0.253143652368 -0.0107481559857 1.73269360975e-20)
(0.226329525127 0.0168487752087 -1.65778216709e-20)
(-0.273570826032 -0.0266426184656 -1.1389420961e-20)
(0.224417715678 -0.839901625457 -1.24911952578e-19)
(1.1065475958 -0.0718777999963 -4.53453066218e-21)
(-0.768450553362 0.777517877459 -3.18329081485e-19)
(-0.143052284269 0.000768258777777 -8.92361814455e-24)
(-0.143090897088 0.000129167772108 2.47916461479e-23)
(-0.1441126592 0.00150069980612 -1.71102094061e-23)
(-0.143747528676 0.00064126111229 2.04868510182e-23)
(-0.145892050906 0.00218242406758 -3.87327304696e-23)
(-0.145157505981 0.00099903241908 -7.5625370847e-24)
(-0.148348877219 0.00276839525353 -2.67089400229e-23)
(-0.147228777992 0.00127655678739 -3.4856566123e-23)
(-0.151512319919 0.00320677665032 -1.10198273841e-23)
(-0.149953771501 0.00143367971537 -4.5244287243e-24)
(-0.155418754778 0.00347000049773 -1.68660887167e-23)
(-0.153397135287 0.00143146400097 3.12773890028e-24)
(-0.160103065254 0.00352765747387 -5.58025609801e-24)
(-0.157585492007 0.00122656277238 -1.39075876165e-23)
(-0.165602794502 0.00332701874142 -5.3076171306e-24)
(-0.16254599666 0.000769908194382 3.81652352108e-24)
(-0.171952118548 0.00281444524676 -2.11508291321e-23)
(-0.168307516645 1.32346803314e-05 -1.7168586901e-23)
(-0.1791901343 0.0019244055759 -2.57937882485e-23)
(-0.174903812996 -0.00110243078909 -1.7720598669e-23)
(-0.187363422672 0.000612225835894 -9.82752266803e-23)
(-0.182387049571 -0.00263735895691 -3.82350944437e-23)
(-0.196554641973 -0.00121651811984 -3.43372999981e-22)
(-0.190791002076 -0.00469351242966 -1.62078832596e-22)
(-0.206830526117 -0.00361387507781 -4.74275861517e-22)
(-0.200223222121 -0.00720660697257 -4.53790712876e-22)
(-0.218064790115 -0.00666915243955 3.74075403908e-22)
(-0.210716041531 -0.0105930250538 -5.60423921034e-22)
(-0.229655170807 -0.0104987953262 -2.84952689146e-22)
(-0.221978172003 -0.0139218253401 9.28166594502e-22)
(-0.243047282668 -0.0157123592674 8.78031597305e-21)
(-0.232874529509 -0.0197623666472 -2.76109757037e-21)
(-0.277825748445 -0.0210521483927 -1.16591982963e-20)
(-0.247805831027 -0.0241116989318 9.05220107235e-21)
(-0.132368465454 0.0258445441674 6.53870047699e-22)
(-0.320466959176 -0.0326635676018 -2.21159857082e-20)
(-0.307397347327 1.7800373087 -1.97951659569e-19)
(-0.647513573816 0.118255701994 2.3457382676e-20)
(-0.308054572628 1.03060516946 -2.16161408871e-19)
(-0.14344785513 8.86815684364e-05 5.42021153106e-23)
(-0.143167537569 -0.000201369460919 7.9352277964e-23)
(-0.144454624 0.00013469572248 3.00345233396e-23)
(-0.143780877716 -0.000356272706034 4.54028418928e-23)
(-0.146152491785 0.00011659031323 -3.68637273809e-24)
(-0.145126586127 -0.000668810877526 1.81570505998e-23)
(-0.14849193237 -1.11780807456e-05 -1.26720548244e-23)
(-0.14708915021 -0.00107562323542 -2.51398923287e-23)
(-0.151494916486 -0.000286016538798 9.62313756003e-24)
(-0.149668839487 -0.00160694350182 -5.57848470428e-24)
(-0.155202565918 -0.000740376940914 6.0862400005e-24)
(-0.152935059515 -0.0023084856622 2.76028557694e-24)
(-0.159645588343 -0.00143121799963 -4.51080799742e-24)
(-0.156889929611 -0.00323045274909 -2.79937242402e-24)
(-0.164845942833 -0.00241491702055 -8.04444624928e-24)
(-0.161561172876 -0.0044269960955 9.1185452673e-25)
(-0.170834461935 -0.00375104960405 -1.37383564378e-23)
(-0.166974233939 -0.00595980207514 -1.37637388124e-23)
(-0.177652875682 -0.00549690209976 -3.01619048641e-23)
(-0.173164798412 -0.00789151954869 -1.55556958071e-23)
(-0.18534497951 -0.00772649148876 -1.0203870036e-22)
(-0.180167686822 -0.0102753170764 -4.05942479124e-23)
(-0.19398116977 -0.0104769542899 -2.72496545492e-22)
(-0.188052966755 -0.0132137817227 -1.29428349352e-22)
(-0.203644358474 -0.0138290922794 -5.39938772392e-22)
(-0.196883979474 -0.0166710782174 -4.49497428642e-22)
(-0.214222247086 -0.0177969887776 -6.33273043954e-24)
(-0.206759651768 -0.0209733304481 -6.25287614986e-22)
(-0.225030959204 -0.0223557694226 -1.54797828672e-21)
(-0.217428065162 -0.0253292850593 7.20984304291e-22)
(-0.238218440043 -0.0272630513907 -2.48921247107e-21)
(-0.22797223457 -0.0317758296255 -3.57262004874e-21)
(-0.28512820019 -0.0309987799153 -1.40458633945e-21)
(-0.244071779844 -0.037617140085 -2.00824206447e-21)
(-0.533671455787 -0.0315684347183 6.8752692015e-22)
(-0.319902149927 -0.0411414482625 -1.58977918759e-21)
(-0.50061803763 0.0889760994629 5.24763337399e-21)
(-0.767876907637 -0.0447452619528 -2.63217145822e-21)
(-0.260820033455 0.00474146485763 8.22542595749e-20)
(-0.143179940209 -0.000555108686445 7.05530045462e-23)
(-0.142602247518 -0.000510820383564 6.22642746287e-23)
(-0.144129622082 -0.0011586588369 3.3525369153e-23)
(-0.143166936034 -0.00129430812956 2.98336998526e-23)
(-0.145738338666 -0.00183269922977 -3.2964689908e-24)
(-0.144442078103 -0.00223588971848 5.07158134195e-24)
(-0.147947932422 -0.00261976148153 -1.80463222085e-23)
(-0.146291967428 -0.00327916842772 -2.14070294766e-23)
(-0.150781777002 -0.0035587369201 -1.24413366874e-23)
(-0.148720631623 -0.00445245560781 -8.12502424795e-24)
(-0.154271855317 -0.00470475027395 -6.12532684758e-24)
(-0.151781286663 -0.00581244642178 -1.51305674838e-23)
(-0.158441269495 -0.00610914915939 2.62329010012e-24)
(-0.155479944732 -0.00741046523972 -6.25751517059e-24)
(-0.163312224705 -0.0078305846569 -4.80743803636e-24)
(-0.159837003009 -0.00929856872994 -2.320018218e-24)
(-0.168910091896 -0.00992247075656 -1.55810781817e-23)
(-0.164883005401 -0.011546346265 -3.93972564611e-24)
(-0.175266414052 -0.0124613231403 -2.59880388554e-23)
(-0.170630127104 -0.0142239702858 -1.64907736748e-23)
(-0.182433446237 -0.0155155095027 -6.79838969051e-23)
(-0.17712081472 -0.0173950822889 -3.63891325936e-23)
(-0.190480340893 -0.0191673530013 -3.06429232503e-22)
(-0.184410593773 -0.0211563448322 -7.74546478298e-23)
(-0.199503368528 -0.0234717547045 -5.34846271236e-22)
(-0.192589748063 -0.0255346042023 -3.80224155398e-22)
(-0.209472724596 -0.0284453967001 1.02029419745e-22)
(-0.201795256777 -0.0307677472147 -4.80456139718e-22)
(-0.219899576569 -0.0339545821175 -1.30365745773e-21)
(-0.211925949926 -0.0364385859269 1.1736947434e-22)
(-0.233195035339 -0.0394864208148 -3.09164964214e-21)
(-0.222444537155 -0.0440992393404 -2.54448922388e-21)
(-0.277346074493 -0.0455131670336 -2.19343491261e-21)
(-0.238046204796 -0.0524307479815 7.2506257863e-21)
(-0.530107269675 -0.0607826925079 -4.90947756597e-21)
(-0.304634697142 -0.0545026624196 -5.47110051414e-22)
(-0.501365690061 -0.0967451980197 7.43744547427e-20)
(-0.731949110404 -0.085268627049 1.28093333224e-20)
(-0.265565413283 -0.117513028746 9.25632462629e-20)
(-0.142288052387 -0.00116075612027 2.15449699351e-23)
(-0.141433630279 -0.000798675664292 2.53734939803e-23)
(-0.143177645237 -0.00236639754622 1.37991204156e-24)
(-0.141953186346 -0.00217190204189 -4.41434817569e-24)
(-0.144690809968 -0.00364890971927 -1.30389791438e-23)
(-0.143151070479 -0.0036998705005 -1.5510990905e-23)
(-0.1467598364 -0.00505207605018 -1.1485731516e-23)
(-0.144879933373 -0.00533459189062 -2.93503028347e-23)
(-0.149408679511 -0.00662248572189 -1.08142550444e-23)
(-0.147141221269 -0.00710603300223 -8.3020506362e-24)
(-0.152664277708 -0.00841134655423 -1.52627558068e-23)
(-0.149983766706 -0.00907592701245 -9.08935933323e-24)
(-0.156541561411 -0.010470028093 -1.12008234887e-23)
(-0.153413704391 -0.0112966706385 -4.2515516923e-24)
(-0.161060451193 -0.0128579744939 -1.45230582775e-24)
(-0.157443635087 -0.0138214359137 -2.30988252203e-24)
(-0.166238279217 -0.0156504576812 -4.84942113925e-24)
(-0.162088008354 -0.0167175327332 4.51762067322e-24)
(-0.172100500785 -0.0189198299706 -2.68918674131e-23)
(-0.167361592869 -0.0200646149394 -1.20505673917e-23)
(-0.178686003758 -0.0227456806179 -4.58598835184e-23)
(-0.173299136128 -0.0239397375244 -2.64378885854e-23)
(-0.186067669735 -0.0272377119154 -1.51249570725e-22)
(-0.179925616117 -0.028453280968 -5.75938313747e-23)
(-0.194354308682 -0.0324779094094 -3.2583402388e-22)
(-0.18735837344 -0.0336978950093 -2.37259404971e-22)
(-0.20358920007 -0.0386060525303 -4.65116085123e-22)
(-0.195676222482 -0.0398573557611 -2.36656231456e-22)
(-0.213514103721 -0.0455987840703 -1.12346229181e-21)
(-0.204941001962 -0.0469062255388 8.26253005042e-23)
(-0.225764357745 -0.0532617112881 7.79778620457e-21)
(-0.214786499163 -0.056164909315 -2.05564540828e-21)
(-0.262952380064 -0.063245327556 8.89695064749e-21)
(-0.228063637749 -0.0674380657817 8.27939764699e-21)
(-0.494226544754 -0.0873004678454 1.71717008369e-20)
(-0.280581272933 -0.0677992050091 -1.42340892525e-22)
(-0.491594229205 -0.15089088244 3.09981248426e-20)
(-0.668392780508 -0.115471443327 1.55257701565e-20)
(-0.298442510171 -0.17380152427 5.97285835653e-20)
(-0.140813891936 -0.00172468317144 -5.85824130445e-25)
(-0.13970345793 -0.00106622546517 3.56362085643e-24)
(-0.141640457334 -0.00349773591387 -2.13052511223e-23)
(-0.140173848018 -0.00299012442174 -2.96018469504e-23)
(-0.143053045865 -0.00534786174418 -3.18223145958e-23)
(-0.141293510717 -0.00506237527451 -1.95811173559e-23)
(-0.144975007715 -0.00732136775145 -2.61666219549e-23)
(-0.142897610396 -0.00724485044207 -2.74825943753e-23)
(-0.147425674586 -0.00946951418982 -6.57715492508e-24)
(-0.144982876716 -0.00956570043833 -1.09905875388e-23)
(-0.150431789186 -0.0118461340491 1.92184478125e-24)
(-0.147596089807 -0.0120860536278 1.39380795307e-24)
(-0.154006043003 -0.0145054301164 4.63938927437e-24)
(-0.150743747825 -0.0148627213548 6.51842034491e-25)
(-0.158155492145 -0.0175025998555 3.66004397894e-24)
(-0.154436622735 -0.0179570534121 7.97820574861e-24)
(-0.1628866039 -0.0209147344106 -2.68352557918e-24)
(-0.158669431635 -0.02143433782 2.73331725427e-24)
(-0.168217226617 -0.0248301862282 -1.1596588564e-23)
(-0.163443728688 -0.0253760987411 -1.67348070588e-23)
(-0.174175628628 -0.0293531491319 -3.81718364417e-23)
(-0.168778322102 -0.0298637798752 1.38393351199e-23)
(-0.180814187017 -0.0345734067898 -1.43603665621e-22)
(-0.174712031711 -0.0350298375827 -4.92637255743e-23)
(-0.18820457491 -0.0406715102661 -1.48081612547e-22)
(-0.181270529856 -0.0410080862479 -2.06711907689e-22)
(-0.1964332466 -0.0478485861916 3.11085154171e-22)
(-0.188510913629 -0.0479726778174 -1.62308759208e-22)
(-0.205399025499 -0.056250434883 -8.49557815966e-22)
(-0.196549292886 -0.0560741076002 8.00668171952e-22)
(-0.215691151747 -0.065958758383 -1.57403396585e-21)
(-0.205083089444 -0.0668499481866 -1.70504283364e-21)
(-0.242933682777 -0.0792607342203 -7.59893893027e-22)
(-0.214762316869 -0.0797066167612 1.13146873534e-20)
(-0.441294027396 -0.109956910252 -1.78827157296e-21)
(-0.249885431199 -0.0784807718256 8.78588552444e-22)
(-0.467927281002 -0.20235728015 4.42562288793e-20)
(-0.576054889765 -0.135029409289 1.4574621827e-20)
(-0.321218289396 -0.205116520229 5.5004339353e-20)
(-0.138796241812 -0.00225168841394 -2.54524019636e-23)
(-0.139559080231 -0.00454876426521 -2.78777131841e-23)
(-0.140870172576 -0.00692214883763 -1.52413971354e-23)
(-0.142642616612 -0.00941946374162 -1.23065599592e-23)
(-0.144892160374 -0.0120886841971 -3.01962466068e-24)
(-0.147641808518 -0.0149823759 1.23805206305e-25)
(-0.150901165484 -0.0181634211596 3.99065850873e-24)
(-0.154669868501 -0.021704566206 7.05147902394e-24)
(-0.158941121518 -0.025669049163 -1.13179642254e-23)
(-0.163714648027 -0.0301443157312 8.70111662497e-24)
(-0.169011618025 -0.0352392111004 2.74744598726e-24)
(-0.174842311106 -0.0410768873282 -1.12371967643e-22)
(-0.181215238947 -0.0478484874561 -2.2093905435e-22)
(-0.188189131027 -0.0557951358106 3.27274258573e-22)
(-0.195765964764 -0.0652397958562 -5.48168457194e-23)
(-0.203847336026 -0.0762052132815 1.11836784856e-20)
(-0.221150921921 -0.0898596252869 1.29531697988e-20)
(-0.385854093561 -0.119217170135 1.72414819524e-20)
(-0.428506562564 -0.193358121563 2.53227323008e-20)
)
;

boundaryField
{
    back
    {
        type            calculated;
        value           uniform (0 0 0);
    }
    sides
    {
        type            calculated;
        value           nonuniform List<vector> 0();
    }
    bottom
    {
        type            calculated;
        value           uniform (0 0 0);
    }
    front
    {
        type            calculated;
        value           uniform (0 0 0);
    }
    atmosphere
    {
        type            calculated;
        value           nonuniform List<vector> 9((0.160482663476 -0.0827623123186 1.61939267919e-19) (0.26469433642 -0.66503366373 -4.53125812694e-20) (-0.193986636974 0.247519984708 -3.17428855491e-19) (-1.64541891151 1.31953941482 -9.36904852679e-19) (-0.000830484259196 0.0416064850851 6.44007726882e-23) (1.27048464898e-05 -0.0919835037512 5.50270519602e-25) (0.000126307222563 -0.11798313999 5.99298272517e-24) (8.95317097308e-06 -0.17953299478 -1.32343907074e-23) (-0.00214688901898 -0.199765452522 3.71796658931e-22));
    }
    floatingObject
    {
        type            calculated;
        value           nonuniform List<vector> 0();
    }
    procBoundary0to1
    {
        type            processor;
        value           nonuniform List<vector> 10((-0.181432279397 0.0323572577271 1.76457468527e-23) (-0.191562609631 0.0346602238695 -5.2758628738e-23) (-0.203019674108 0.0365967183073 -1.67963421413e-23) (-0.215880255862 0.0380991337778 -4.23720682206e-23) (-0.230298697588 0.0393664921431 1.3369498852e-21) (-0.246561205818 0.0371556242014 -3.37527740936e-21) (-0.255865202977 0.0303495313069 -4.9032657579e-21) (-0.246701756015 0.0128871625456 -6.55877100837e-21) (-0.275107532719 0.0569487624449 -3.37199724368e-20) (0.046678569636 -0.0738024695019 3.18699661065e-20));
    }
    procBoundary0to2
    {
        type            processor;
        value           nonuniform List<vector> 
14
(
(-0.158081320777 0.0241243137701 -5.77739329708e-24)
(-0.164777300056 0.0270344749338 -5.80955085949e-24)
(-0.172549710893 0.0297942938661 -3.52151525997e-23)
(-0.150234748845 0.0136719508138 -1.06290740638e-23)
(-0.156502540938 0.0197537644829 -1.59720735708e-23)
(-0.15496055842 0.0158996619767 -1.69030009265e-23)
(-0.140886478534 0.000839599216215 -6.10590637553e-23)
(-0.141610145315 0.00276788866805 -4.94960634203e-23)
(-0.149267007604 0.0105905984354 -8.98349815223e-24)
(-0.148343871235 0.00792930419204 -1.94465030862e-23)
(-0.143071773732 0.00292310867887 -6.22012533258e-23)
(-0.144503635055 0.00274728641017 -4.54557824564e-23)
(-0.147480642991 0.00563772174444 -4.08092870829e-23)
(-0.146663695786 0.00373999810019 -4.97903283623e-23)
)
;
    }
    procBoundary0to4
    {
        type            processor;
        value           nonuniform List<vector> 8((-0.137448007417 -0.00131325302917 8.7179379699e-25) (-0.137871561263 -0.00374824383228 -2.25101182547e-23) (-0.138913213278 -0.00632372465952 -3.14427370747e-24) (-0.14039122518 -0.0090073797712 -1.44678779889e-23) (-0.142302388473 -0.011826155654 -5.97142746901e-24) (-0.144689615109 -0.0148400682652 5.93183921625e-24) (-0.147547953818 -0.0181066557826 4.23852980235e-27) (-0.150881946738 -0.0216934121873 5.38968168505e-24));
    }
    procBoundary0to5
    {
        type            processor;
        value           nonuniform List<vector> 
12
(
(-0.154693432007 -0.025671099302 -9.08081412299e-25)
(-0.158962598172 -0.0301198045736 -1.25708588932e-23)
(-0.163684037702 -0.0351245411127 2.69609172016e-23)
(-0.168881109383 -0.0408090453963 -4.4313122453e-23)
(-0.174510645834 -0.0473300111097 -1.78953732001e-22)
(-0.180578011542 -0.0548767897893 -2.5377735685e-22)
(-0.18711526762 -0.0635998593619 6.86841136537e-22)
(-0.194122677526 -0.0751466477945 -1.34342404002e-21)
(-0.201109090074 -0.0873938392479 1.03141827929e-20)
(-0.220532018851 -0.0843026142563 3.5619268027e-21)
(-0.501864735824 -0.135799305103 2.15983395404e-20)
(-0.314856684384 -0.195131401646 1.30756749213e-20)
)
;
    }
}


// ************************************************************************* //
