/*--------------------------------*- C++ -*----------------------------------*\
| =========                 |                                                 |
| \\      /  F ield         | OpenFOAM: The Open Source CFD Toolbox           |
|  \\    /   O peration     | Version:  v2012                                 |
|   \\  /    A nd           | Website:  www.openfoam.com                      |
|    \\/     M anipulation  |                                                 |
\*---------------------------------------------------------------------------*/
FoamFile
{
    version     2.0;
    format      ascii;
    class       volScalarField;
    location    "5.6";
    object      epsilon_0;
}
// * * * * * * * * * * * * * * * * * * * * * * * * * * * * * * * * * * * * * //

dimensions      [0 2 -3 0 0 0 0];


internalField   nonuniform List<scalar> 
166
(
0.000546328975039
0.000549452681302
0.000553517367253
0.000559685069123
0.000571028135059
0.000596300620257
0.000662281702172
0.00085868959876
0.0015394272331
0.00432216456597
0.0154408855797
0.0486780830469
0.141434215239
0.000542799033654
0.000545451770349
0.000548069714935
0.000551095971788
0.000554992503189
0.000560814549307
0.000571359027164
0.000594583180151
0.000654840165478
0.000833162650962
0.00144620604952
0.00394843478918
0.0141456856251
0.0448504906247
0.122323661344
0.000450319837216
0.000468887416901
0.000540855397226
0.000544500950851
0.000547110753864
0.000549670952804
0.000552610989798
0.000556359697689
0.000561871434041
0.000571713605269
0.000593219454941
0.000649080388147
0.000814928035574
0.00137926323332
0.00363920809438
0.0128495798528
0.043375332107
0.132396440002
0.00045145808916
0.000470192077852
0.000516833510576
0.000535041518135
0.000542410480855
0.000546035531636
0.000548610534846
0.000551124364925
0.000553995271032
0.000557623727911
0.000562882862152
0.000572149916751
0.000592332767387
0.000645114402347
0.000803511080744
0.00133928759487
0.00340746461358
0.0117072739693
0.0431047016312
0.158765776509
0.000452518299509
0.000471305205325
0.000518112539303
0.000536389391237
0.000543775306066
0.000547387876904
0.000549940593835
0.000552421870426
0.000555240939852
0.000558774093314
0.000563832338484
0.000572651425604
0.000591864570256
0.000642757086077
0.000798008775396
0.00132296668543
0.00326551950853
0.0108500210989
0.0426336186281
0.160159362327
0.000453460564912
0.000472213812271
0.000519171248804
0.000537524465589
0.000544938992565
0.00054855297117
0.000551094114706
0.000553554882846
0.000556338882523
0.000559799499572
0.000564700404874
0.000573178254113
0.000591713774712
0.000641630187954
0.000796990645452
0.00132201474928
0.00317927743062
0.0102708777483
0.0423421036933
0.161019974176
0.000454247799346
0.000472922796334
0.000520015642945
0.000538448598428
0.000545900338171
0.000549528318658
0.000552067827786
0.000554517716527
0.000557279228086
0.000560686703958
0.000565465294195
0.00057367939092
0.000591749978117
0.000641193998399
0.000797584267175
0.00132354346636
0.00309680526013
0.00963461025432
0.0412344092907
0.161255556699
0.000454854966342
0.000473430091967
0.000520647696538
0.000539163163113
0.000546660858909
0.000550310139646
0.000552856596358
0.000555303971697
0.000558051833169
0.0005614215784
0.000566105267183
0.000574114544736
0.000591829031395
0.00064093352271
0.000798065111219
0.00132373439947
0.00301518688738
0.00889805743609
0.0381966154821
0.160230108278
0.000455264160047
0.000473741015693
0.000521069183475
0.000539667224367
0.000547215984182
0.000550891864572
0.00055345282399
0.000555907150988
0.000558651780585
0.000561997284779
0.000566608229866
0.000574451833117
0.000591848893776
0.0006405593512
0.000797757102391
0.00132208742264
0.00295288033924
0.00821351977031
0.033928532922
0.157091588492
)
;

boundaryField
{
    back
    {
        lowReCorrection 0;
        blending        stepwise;
        n               2;
        type            epsilonWallFunction;
        value           nonuniform List<scalar> 
166
(
0.000546328975039
0.000549452681302
0.000553517367253
0.000559685069123
0.000571028135059
0.000596300620257
0.000662281702172
0.00085868959876
0.0015394272331
0.00432216456597
0.0154408855797
0.0486780830469
0.141434215239
0.000542799033654
0.000545451770349
0.000548069714935
0.000551095971788
0.000554992503189
0.000560814549307
0.000571359027164
0.000594583180151
0.000654840165478
0.000833162650962
0.00144620604952
0.00394843478918
0.0141456856251
0.0448504906247
0.122323661344
0.000450319837216
0.000468887416901
0.000540855397226
0.000544500950851
0.000547110753864
0.000549670952804
0.000552610989798
0.000556359697689
0.000561871434041
0.000571713605269
0.000593219454941
0.000649080388147
0.000814928035574
0.00137926323332
0.00363920809438
0.0128495798528
0.043375332107
0.132396440002
0.00045145808916
0.000470192077852
0.000516833510576
0.000535041518135
0.000542410480855
0.000546035531636
0.000548610534846
0.000551124364925
0.000553995271032
0.000557623727911
0.000562882862152
0.000572149916751
0.000592332767387
0.000645114402347
0.000803511080744
0.00133928759487
0.00340746461358
0.0117072739693
0.0431047016312
0.158765776509
0.000452518299509
0.000471305205325
0.000518112539303
0.000536389391237
0.000543775306066
0.000547387876904
0.000549940593835
0.000552421870426
0.000555240939852
0.000558774093314
0.000563832338484
0.000572651425604
0.000591864570256
0.000642757086077
0.000798008775396
0.00132296668543
0.00326551950853
0.0108500210989
0.0426336186281
0.160159362327
0.000453460564912
0.000472213812271
0.000519171248804
0.000537524465589
0.000544938992565
0.00054855297117
0.000551094114706
0.000553554882846
0.000556338882523
0.000559799499572
0.000564700404874
0.000573178254113
0.000591713774712
0.000641630187954
0.000796990645452
0.00132201474928
0.00317927743062
0.0102708777483
0.0423421036933
0.161019974176
0.000454247799346
0.000472922796334
0.000520015642945
0.000538448598428
0.000545900338171
0.000549528318658
0.000552067827786
0.000554517716527
0.000557279228086
0.000560686703958
0.000565465294195
0.00057367939092
0.000591749978117
0.000641193998399
0.000797584267175
0.00132354346636
0.00309680526013
0.00963461025432
0.0412344092907
0.161255556699
0.000454854966342
0.000473430091967
0.000520647696538
0.000539163163113
0.000546660858909
0.000550310139646
0.000552856596358
0.000555303971697
0.000558051833169
0.0005614215784
0.000566105267183
0.000574114544736
0.000591829031395
0.00064093352271
0.000798065111219
0.00132373439947
0.00301518688738
0.00889805743609
0.0381966154821
0.160230108278
0.000455264160047
0.000473741015693
0.000521069183475
0.000539667224367
0.000547215984182
0.000550891864572
0.00055345282399
0.000555907150988
0.000558651780585
0.000561997284779
0.000566608229866
0.000574451833117
0.000591848893776
0.0006405593512
0.000797757102391
0.00132208742264
0.00295288033924
0.00821351977031
0.033928532922
0.157091588492
)
;
    }
    sides
    {
        lowReCorrection 0;
        blending        stepwise;
        n               2;
        type            epsilonWallFunction;
        value           nonuniform List<scalar> 0();
    }
    bottom
    {
        lowReCorrection 0;
        blending        stepwise;
        n               2;
        type            epsilonWallFunction;
        value           nonuniform List<scalar> 7(0.000450319837216 0.00045145808916 0.000452518299509 0.000453460564912 0.000454247799346 0.000454854966342 0.000455264160047);
    }
    front
    {
        lowReCorrection 0;
        blending        stepwise;
        n               2;
        type            epsilonWallFunction;
        value           nonuniform List<scalar> 
166
(
0.000546328975039
0.000549452681302
0.000553517367253
0.000559685069123
0.000571028135059
0.000596300620257
0.000662281702172
0.00085868959876
0.0015394272331
0.00432216456597
0.0154408855797
0.0486780830469
0.141434215239
0.000542799033654
0.000545451770349
0.000548069714935
0.000551095971788
0.000554992503189
0.000560814549307
0.000571359027164
0.000594583180151
0.000654840165478
0.000833162650962
0.00144620604952
0.00394843478918
0.0141456856251
0.0448504906247
0.122323661344
0.000450319837216
0.000468887416901
0.000540855397226
0.000544500950851
0.000547110753864
0.000549670952804
0.000552610989798
0.000556359697689
0.000561871434041
0.000571713605269
0.000593219454941
0.000649080388147
0.000814928035574
0.00137926323332
0.00363920809438
0.0128495798528
0.043375332107
0.132396440002
0.00045145808916
0.000470192077852
0.000516833510576
0.000535041518135
0.000542410480855
0.000546035531636
0.000548610534846
0.000551124364925
0.000553995271032
0.000557623727911
0.000562882862152
0.000572149916751
0.000592332767387
0.000645114402347
0.000803511080744
0.00133928759487
0.00340746461358
0.0117072739693
0.0431047016312
0.158765776509
0.000452518299509
0.000471305205325
0.000518112539303
0.000536389391237
0.000543775306066
0.000547387876904
0.000549940593835
0.000552421870426
0.000555240939852
0.000558774093314
0.000563832338484
0.000572651425604
0.000591864570256
0.000642757086077
0.000798008775396
0.00132296668543
0.00326551950853
0.0108500210989
0.0426336186281
0.160159362327
0.000453460564912
0.000472213812271
0.000519171248804
0.000537524465589
0.000544938992565
0.00054855297117
0.000551094114706
0.000553554882846
0.000556338882523
0.000559799499572
0.000564700404874
0.000573178254113
0.000591713774712
0.000641630187954
0.000796990645452
0.00132201474928
0.00317927743062
0.0102708777483
0.0423421036933
0.161019974176
0.000454247799346
0.000472922796334
0.000520015642945
0.000538448598428
0.000545900338171
0.000549528318658
0.000552067827786
0.000554517716527
0.000557279228086
0.000560686703958
0.000565465294195
0.00057367939092
0.000591749978117
0.000641193998399
0.000797584267175
0.00132354346636
0.00309680526013
0.00963461025432
0.0412344092907
0.161255556699
0.000454854966342
0.000473430091967
0.000520647696538
0.000539163163113
0.000546660858909
0.000550310139646
0.000552856596358
0.000555303971697
0.000558051833169
0.0005614215784
0.000566105267183
0.000574114544736
0.000591829031395
0.00064093352271
0.000798065111219
0.00132373439947
0.00301518688738
0.00889805743609
0.0381966154821
0.160230108278
0.000455264160047
0.000473741015693
0.000521069183475
0.000539667224367
0.000547215984182
0.000550891864572
0.00055345282399
0.000555907150988
0.000558651780585
0.000561997284779
0.000566608229866
0.000574451833117
0.000591848893776
0.0006405593512
0.000797757102391
0.00132208742264
0.00295288033924
0.00821351977031
0.033928532922
0.157091588492
)
;
    }
    atmosphere
    {
        type            inletOutlet;
        inletValue      uniform 0.1;
        value           nonuniform List<scalar> 9(0.1 0.122323661344 0.132396440002 0.158765776509 0.1 0.1 0.1 0.1 0.1);
    }
    floatingObject
    {
        lowReCorrection 0;
        blending        stepwise;
        n               2;
        type            epsilonWallFunction;
        value           nonuniform List<scalar> 0();
    }
    procBoundary0to1
    {
        type            processor;
        value           nonuniform List<scalar> 10(0.000558470227613 0.000570678043537 0.000598227108757 0.000670861897632 0.000889142735914 0.00165262281557 0.00472805511215 0.0165715733962 0.0529508515482 0.162099688674);
    }
    procBoundary0to2
    {
        type            processor;
        value           nonuniform List<scalar> 
14
(
0.000544455025469
0.00054768181986
0.000551929268239
0.000540941595441
0.000543643736563
0.000543643736563
0.00044906544905
0.000467401406585
0.000539126584323
0.000539126584323
0.000515345289197
0.000515345289197
0.00053349174635
0.00053349174635
)
;
    }
    procBoundary0to4
    {
        type            processor;
        value           nonuniform List<scalar> 8(0.000455461649896 0.000473851172727 0.000521277993662 0.000539957629053 0.000547560950154 0.000551270400154 0.000553853167027 0.000556323621227);
    }
    procBoundary0to5
    {
        type            processor;
        value           nonuniform List<scalar> 
12
(
0.00055907679841
0.000562411130331
0.000566966243936
0.000574660440114
0.000591741077999
0.00063994839639
0.000796766999634
0.00131932729882
0.00290279072811
0.00756492841123
0.0285004021646
0.146285513562
)
;
    }
}


// ************************************************************************* //
