/*--------------------------------*- C++ -*----------------------------------*\
| =========                 |                                                 |
| \\      /  F ield         | OpenFOAM: The Open Source CFD Toolbox           |
|  \\    /   O peration     | Version:  v2012                                 |
|   \\  /    A nd           | Website:  www.openfoam.com                      |
|    \\/     M anipulation  |                                                 |
\*---------------------------------------------------------------------------*/
FoamFile
{
    version     2.0;
    format      ascii;
    class       volScalarField;
    location    "4.3";
    object      k_0;
}
// * * * * * * * * * * * * * * * * * * * * * * * * * * * * * * * * * * * * * //

dimensions      [0 2 -2 0 0 0 0];


internalField   nonuniform List<scalar> 
164
(
0.00263631668919
0.00264573233636
0.00265805642885
0.00267736565356
0.00271575472884
0.00281021923705
0.00308100031367
0.00391021722332
0.00630296266232
0.0129217284621
0.0323883031772
0.0747616268061
0.00263908503478
0.00264865351645
0.00266103797624
0.00268016144984
0.00271787726605
0.00281085898809
0.00307841904516
0.00390811455298
0.00639214037001
0.0134801315485
0.0333600279319
0.0750335681804
0.00266360243025
0.00268265976517
0.00271997829601
0.00281239987863
0.00307958849316
0.00391324302809
0.00646805600632
0.0139200369175
0.0342074011456
0.0752995248943
0.00266578479797
0.00268493226117
0.00272229891473
0.00281556597056
0.00308699320013
0.0039380291354
0.00658438711426
0.0143448048759
0.0345544858975
0.0753738465507
0.00266759781884
0.00268712176704
0.00272531472056
0.00282120032109
0.00309882097513
0.00395626425693
0.00661773313656
0.0144617097899
0.0346684321356
0.0753407156384
0.00266909363044
0.00268948105086
0.00272993656448
0.00283170442031
0.00311868596043
0.00397155842565
0.00659286539683
0.0146167372157
0.0357757043271
0.075629845308
0.00267033994978
0.00269232598273
0.00273735028006
0.00285065277414
0.0031556984611
0.00400830362003
0.00658906119786
0.0146688014222
0.0357077567864
0.0753891226003
0.00267136651012
0.00269583493541
0.00274819240539
0.00288010304427
0.00321787263414
0.0041040056088
0.006719796445
0.0147449110175
0.0349893243476
0.0749761938762
0.00267211941611
0.00269976491211
0.00276144701766
0.00291655596384
0.00329663027451
0.00424134394258
0.00695211321452
0.0150372041783
0.0346990691666
0.0746878265613
0.00267240428863
0.00270331059184
0.00277419867604
0.00295165166403
0.00337393258737
0.00438930617304
0.0072252689195
0.0153461187671
0.0345749262751
0.0745047175182
0.00267198262586
0.00270550657304
0.0027831921489
0.00297643505418
0.00342964734445
0.0045058034716
0.00746364557305
0.0156652094508
0.034477149451
0.0743728226521
0.00267081898676
0.00270617673678
0.00278780004387
0.00298920038291
0.00346074748076
0.00458652263346
0.00767319568896
0.0160986097828
0.0352377886321
0.0746614278101
0.00266921492576
0.00270625277313
0.00279073540162
0.00299682902
0.00347943917361
0.00464713301149
0.00786796292147
0.0165995735026
0.0364986235869
0.0751609493603
0.00266728849073
0.00270596713747
0.00279283761291
0.00300241719566
0.00349461207005
0.00470944668358
0.00809351727587
0.0171544637201
0.03707059139
0.0753402326465
0.00266469256173
0.00270389874278
0.00279011224217
0.00299851042689
0.00349986288209
0.00478076767765
0.00838998685827
0.0178153125434
0.0374362625684
0.0752951994679
0.0026613600824
0.00269949595577
0.00278095463635
0.00298203192656
0.00349386385482
0.00486897305634
0.00873640358212
0.018374648047
0.0371671103962
0.0748950225733
)
;

boundaryField
{
    back
    {
        type            kqRWallFunction;
        value           nonuniform List<scalar> 
164
(
0.00263631668919
0.00264573233636
0.00265805642885
0.00267736565356
0.00271575472884
0.00281021923705
0.00308100031367
0.00391021722332
0.00630296266232
0.0129217284621
0.0323883031772
0.0747616268061
0.00263908503478
0.00264865351645
0.00266103797624
0.00268016144984
0.00271787726605
0.00281085898809
0.00307841904516
0.00390811455298
0.00639214037001
0.0134801315485
0.0333600279319
0.0750335681804
0.00266360243025
0.00268265976517
0.00271997829601
0.00281239987863
0.00307958849316
0.00391324302809
0.00646805600632
0.0139200369175
0.0342074011456
0.0752995248943
0.00266578479797
0.00268493226117
0.00272229891473
0.00281556597056
0.00308699320013
0.0039380291354
0.00658438711426
0.0143448048759
0.0345544858975
0.0753738465507
0.00266759781884
0.00268712176704
0.00272531472056
0.00282120032109
0.00309882097513
0.00395626425693
0.00661773313656
0.0144617097899
0.0346684321356
0.0753407156384
0.00266909363044
0.00268948105086
0.00272993656448
0.00283170442031
0.00311868596043
0.00397155842565
0.00659286539683
0.0146167372157
0.0357757043271
0.075629845308
0.00267033994978
0.00269232598273
0.00273735028006
0.00285065277414
0.0031556984611
0.00400830362003
0.00658906119786
0.0146688014222
0.0357077567864
0.0753891226003
0.00267136651012
0.00269583493541
0.00274819240539
0.00288010304427
0.00321787263414
0.0041040056088
0.006719796445
0.0147449110175
0.0349893243476
0.0749761938762
0.00267211941611
0.00269976491211
0.00276144701766
0.00291655596384
0.00329663027451
0.00424134394258
0.00695211321452
0.0150372041783
0.0346990691666
0.0746878265613
0.00267240428863
0.00270331059184
0.00277419867604
0.00295165166403
0.00337393258737
0.00438930617304
0.0072252689195
0.0153461187671
0.0345749262751
0.0745047175182
0.00267198262586
0.00270550657304
0.0027831921489
0.00297643505418
0.00342964734445
0.0045058034716
0.00746364557305
0.0156652094508
0.034477149451
0.0743728226521
0.00267081898676
0.00270617673678
0.00278780004387
0.00298920038291
0.00346074748076
0.00458652263346
0.00767319568896
0.0160986097828
0.0352377886321
0.0746614278101
0.00266921492576
0.00270625277313
0.00279073540162
0.00299682902
0.00347943917361
0.00464713301149
0.00786796292147
0.0165995735026
0.0364986235869
0.0751609493603
0.00266728849073
0.00270596713747
0.00279283761291
0.00300241719566
0.00349461207005
0.00470944668358
0.00809351727587
0.0171544637201
0.03707059139
0.0753402326465
0.00266469256173
0.00270389874278
0.00279011224217
0.00299851042689
0.00349986288209
0.00478076767765
0.00838998685827
0.0178153125434
0.0374362625684
0.0752951994679
0.0026613600824
0.00269949595577
0.00278095463635
0.00298203192656
0.00349386385482
0.00486897305634
0.00873640358212
0.018374648047
0.0371671103962
0.0748950225733
)
;
    }
    sides
    {
        type            kqRWallFunction;
        value           nonuniform List<scalar> 0();
    }
    bottom
    {
        type            kqRWallFunction;
        value           nonuniform List<scalar> 0();
    }
    front
    {
        type            kqRWallFunction;
        value           nonuniform List<scalar> 
164
(
0.00263631668919
0.00264573233636
0.00265805642885
0.00267736565356
0.00271575472884
0.00281021923705
0.00308100031367
0.00391021722332
0.00630296266232
0.0129217284621
0.0323883031772
0.0747616268061
0.00263908503478
0.00264865351645
0.00266103797624
0.00268016144984
0.00271787726605
0.00281085898809
0.00307841904516
0.00390811455298
0.00639214037001
0.0134801315485
0.0333600279319
0.0750335681804
0.00266360243025
0.00268265976517
0.00271997829601
0.00281239987863
0.00307958849316
0.00391324302809
0.00646805600632
0.0139200369175
0.0342074011456
0.0752995248943
0.00266578479797
0.00268493226117
0.00272229891473
0.00281556597056
0.00308699320013
0.0039380291354
0.00658438711426
0.0143448048759
0.0345544858975
0.0753738465507
0.00266759781884
0.00268712176704
0.00272531472056
0.00282120032109
0.00309882097513
0.00395626425693
0.00661773313656
0.0144617097899
0.0346684321356
0.0753407156384
0.00266909363044
0.00268948105086
0.00272993656448
0.00283170442031
0.00311868596043
0.00397155842565
0.00659286539683
0.0146167372157
0.0357757043271
0.075629845308
0.00267033994978
0.00269232598273
0.00273735028006
0.00285065277414
0.0031556984611
0.00400830362003
0.00658906119786
0.0146688014222
0.0357077567864
0.0753891226003
0.00267136651012
0.00269583493541
0.00274819240539
0.00288010304427
0.00321787263414
0.0041040056088
0.006719796445
0.0147449110175
0.0349893243476
0.0749761938762
0.00267211941611
0.00269976491211
0.00276144701766
0.00291655596384
0.00329663027451
0.00424134394258
0.00695211321452
0.0150372041783
0.0346990691666
0.0746878265613
0.00267240428863
0.00270331059184
0.00277419867604
0.00295165166403
0.00337393258737
0.00438930617304
0.0072252689195
0.0153461187671
0.0345749262751
0.0745047175182
0.00267198262586
0.00270550657304
0.0027831921489
0.00297643505418
0.00342964734445
0.0045058034716
0.00746364557305
0.0156652094508
0.034477149451
0.0743728226521
0.00267081898676
0.00270617673678
0.00278780004387
0.00298920038291
0.00346074748076
0.00458652263346
0.00767319568896
0.0160986097828
0.0352377886321
0.0746614278101
0.00266921492576
0.00270625277313
0.00279073540162
0.00299682902
0.00347943917361
0.00464713301149
0.00786796292147
0.0165995735026
0.0364986235869
0.0751609493603
0.00266728849073
0.00270596713747
0.00279283761291
0.00300241719566
0.00349461207005
0.00470944668358
0.00809351727587
0.0171544637201
0.03707059139
0.0753402326465
0.00266469256173
0.00270389874278
0.00279011224217
0.00299851042689
0.00349986288209
0.00478076767765
0.00838998685827
0.0178153125434
0.0374362625684
0.0752951994679
0.0026613600824
0.00269949595577
0.00278095463635
0.00298203192656
0.00349386385482
0.00486897305634
0.00873640358212
0.018374648047
0.0371671103962
0.0748950225733
)
;
    }
    atmosphere
    {
        type            inletOutlet;
        inletValue      uniform 0.1;
        value           uniform 0.1;
    }
    floatingObject
    {
        type            kqRWallFunction;
        value           nonuniform List<scalar> 0();
    }
    procBoundary5to0
    {
        type            processor;
        value           nonuniform List<scalar> 
12
(
0.00263310316817
0.00264237780109
0.002654678619
0.00267425256856
0.00271344930257
0.00280967253256
0.00308427882428
0.0039146231834
0.0062128841285
0.012306445131
0.0310720135244
0.0745447170545
)
;
    }
    procBoundary5to3
    {
        type            processor;
        value           nonuniform List<scalar> 10(0.00265801663159 0.00269510488559 0.00277191119827 0.00296769967899 0.00350238591343 0.00500861149872 0.00915656458546 0.0189970112691 0.0378566834949 0.075089418401);
    }
    procBoundary5to4
    {
        type            processor;
        value           nonuniform List<scalar> 
18
(
0.0026284627782
0.0026310513456
0.00264133275546
0.00265109594753
0.00265109594753
0.00265308069446
0.0026545699036
0.00265557366845
0.00265610277481
0.00265614880891
0.00265568922786
0.00265467946747
0.00265307456077
0.00265089267709
0.00264819964797
0.00264508600873
0.0026415493855
0.00263761923855
)
;
    }
}


// ************************************************************************* //
