/*--------------------------------*- C++ -*----------------------------------*\
| =========                 |                                                 |
| \\      /  F ield         | OpenFOAM: The Open Source CFD Toolbox           |
|  \\    /   O peration     | Version:  v2012                                 |
|   \\  /    A nd           | Website:  www.openfoam.com                      |
|    \\/     M anipulation  |                                                 |
\*---------------------------------------------------------------------------*/
FoamFile
{
    version     2.0;
    format      ascii;
    class       surfaceVectorField;
    location    "4.3";
    object      Uf_0;
}
// * * * * * * * * * * * * * * * * * * * * * * * * * * * * * * * * * * * * * //

dimensions      [0 1 -1 0 0 0 0];


internalField   nonuniform List<vector> 
300
(
(-0.0583055701423 -0.0117950708057 2.72494741244e-24)
(-0.0564567676783 -0.0116409794364 8.24513700108e-24)
(-0.0602008960167 -0.0139457248442 4.82949884426e-24)
(-0.0581194298446 -0.0137287733207 1.40395511098e-23)
(-0.0622861854703 -0.0164450672224 2.72971451047e-23)
(-0.0599353024149 -0.0161167751093 1.98480363879e-23)
(-0.0645620123002 -0.0193947607981 6.38852945297e-23)
(-0.0618874575764 -0.0188857464997 7.09611705927e-23)
(-0.0670490420433 -0.0229317347822 6.34458828235e-23)
(-0.0639664177972 -0.0221538806415 1.1443453004e-22)
(-0.0696417973721 -0.0272822009638 -5.48185744209e-22)
(-0.0661475482504 -0.0260909146847 -3.33118889636e-23)
(-0.0718872149509 -0.0327909693885 -1.01597808254e-23)
(-0.0681425083469 -0.0309668090593 -8.39170401332e-22)
(-0.0736192884959 -0.0399844301563 -2.35844602055e-21)
(-0.0691752301772 -0.0371794428288 8.77818435109e-22)
(-0.0769150145843 -0.0495913235368 -7.24362834829e-21)
(-0.0694966943142 -0.0484647070428 -3.89080750795e-21)
(-0.0781123163889 -0.0617728834555 -1.24433359199e-20)
(-0.0731283098815 -0.0410660151924 -1.04624789627e-20)
(-0.0723704381091 -0.0869772538482 -1.33025716064e-20)
(-0.0637283132888 -0.0732162846116 -2.50016162642e-20)
(-0.0600831431325 -0.0992141320294 -1.54343330509e-20)
(-0.056214342424 -0.0134458666316 1.95597406984e-23)
(-0.057806395098 -0.0157442794398 2.90580886534e-23)
(-0.0595033091972 -0.0183678559034 6.35120618758e-23)
(-0.0573110563924 -0.0177792945731 3.69006262203e-23)
(-0.0612718265371 -0.0214123151382 1.21510406103e-22)
(-0.0588422607851 -0.0206030418212 1.03907752549e-22)
(-0.0630665200361 -0.0250203081799 1.76767582532e-23)
(-0.0603576309265 -0.0238706593723 1.6256414417e-22)
(-0.0646793205174 -0.0294116047764 -3.24296546087e-22)
(-0.0617554629409 -0.0277369115127 -1.58286751305e-22)
(-0.0655113374631 -0.0349535987186 4.88078146021e-23)
(-0.0625998270746 -0.0324173823252 -1.07892463432e-21)
(-0.0652366835703 -0.0422258583353 -6.54543052297e-22)
(-0.0619025165859 -0.0385893652064 -1.06794329833e-21)
(-0.0662144165075 -0.0517744172078 -7.10965812238e-21)
(-0.0599479631124 -0.0490262634784 -2.11136059075e-21)
(-0.0608917877215 -0.063182881993 -2.3020759307e-20)
(-0.0617198545192 -0.0427622597136 -1.18037178591e-20)
(-0.0522748120842 -0.0809253739531 -2.71333777087e-20)
(-0.0459901428274 -0.0719638369091 -3.97361550521e-20)
(-0.0457416144187 -0.0897670248626 -2.41639348197e-20)
(-0.0566642674956 -0.019847227706 7.72963168938e-23)
(-0.0546544343876 -0.0190893593525 4.11722329569e-23)
(-0.057975238909 -0.0228597786981 1.44961490616e-22)
(-0.0558292642997 -0.0218641300894 1.03911598131e-22)
(-0.0591404554772 -0.0263399531573 -1.33993653883e-23)
(-0.0568769856015 -0.0249825776675 1.5607566243e-22)
(-0.0598518491413 -0.0304828785294 -9.12914839536e-22)
(-0.0576120731548 -0.0285570344015 -4.0566275883e-22)
(-0.0593308654926 -0.0356079984088 -2.19567574725e-21)
(-0.0574743039386 -0.0327734415834 -2.2865162443e-21)
(-0.0572148917585 -0.0422430760895 -2.52476083678e-21)
(-0.0552671729076 -0.038491695406 -2.90572104232e-21)
(-0.0562078532201 -0.0505648105331 -6.80542032745e-21)
(-0.0516261415403 -0.047829097531 -3.66556182685e-21)
(-0.0466944407914 -0.0604509746225 -2.85191136042e-20)
(-0.0518336883077 -0.042676540179 -1.18873155188e-20)
(-0.0390686616917 -0.0763805000372 -3.67667121631e-20)
(-0.0300570277315 -0.0662135621517 -3.70803287608e-20)
(-0.0368169795639 -0.0756730274102 -2.37845433073e-20)
(-0.0538833779658 -0.0209732382092 6.77875141943e-23)
(-0.0520508469821 -0.0201261337795 4.73724722769e-23)
(-0.0548339640853 -0.0238313366546 1.15025769945e-22)
(-0.0529709344095 -0.0227775476213 9.32326178597e-23)
(-0.0554985227078 -0.0270213643278 -2.36187731011e-22)
(-0.0536867090987 -0.0256405152063 6.76532537242e-23)
(-0.0554459027087 -0.030712156376 -1.7792641636e-21)
(-0.0539210288984 -0.0287636768308 -8.75393612111e-22)
(-0.0536678020458 -0.0352791295101 -2.99656153937e-21)
(-0.0529071043245 -0.0323094402704 -2.57373128177e-21)
(-0.0500937460103 -0.0414855805651 -4.04652203239e-21)
(-0.0490605657174 -0.037323686607 -1.9225301657e-21)
(-0.0480991309367 -0.0488229056726 -8.74745701819e-21)
(-0.044288750921 -0.0455226215356 -5.81943634114e-21)
(-0.0374981566966 -0.0559502283881 -2.04485306754e-20)
(-0.0447063124576 -0.0411144420421 -1.63783641851e-20)
(-0.0288002523675 -0.0603508190371 -2.4098159905e-20)
(-0.0256610781112 -0.0587283210833 -3.01690413e-20)
(-0.0288679766579 -0.0625303198646 -2.13589391056e-20)
(-0.0512374627878 -0.0218364827717 7.28175759424e-23)
(-0.0495447201826 -0.0209805643652 5.82113463987e-23)
(-0.0519706826979 -0.0244854027901 4.58601016388e-23)
(-0.0503219085377 -0.0234904457609 8.44239269793e-23)
(-0.0523270460902 -0.0272832783638 -5.71552627376e-22)
(-0.0508887067357 -0.0260714804864 -4.50367882096e-23)
(-0.0516874704358 -0.0303372355527 -1.66986073029e-21)
(-0.0508669266887 -0.0286907198352 -1.05508541299e-21)
(-0.0487485240156 -0.0340805047091 -1.49969990811e-21)
(-0.0491636888728 -0.0314910821602 -2.00699937135e-21)
(-0.0438925094813 -0.0390986274601 -3.69544447446e-21)
(-0.0440423290227 -0.0354270829169 -2.67029022262e-21)
(-0.0417755991044 -0.0450346636208 -1.3450343508e-20)
(-0.038352659742 -0.041733706825 -6.3898374562e-21)
(-0.033489452306 -0.0500563175339 -2.60988748097e-20)
(-0.0396845969143 -0.037597984233 -1.5821248335e-20)
(-0.0261920590548 -0.0533445825607 -2.74298205005e-20)
(-0.0223771361368 -0.0526763682423 -2.21328733482e-20)
(-0.0214650163177 -0.0636469725331 -1.47259402839e-20)
(-0.0487506518472 -0.022584308647 6.98176974357e-23)
(-0.0471255129226 -0.0217584848301 5.9326437552e-23)
(-0.0494222698619 -0.0250360023122 -6.47296286916e-24)
(-0.0478701414262 -0.0241718114236 7.01353497098e-23)
(-0.0496983292928 -0.0274694040738 -5.28569573825e-22)
(-0.048455203309 -0.0265599201764 -4.56670611789e-24)
(-0.0487480315435 -0.0299237544209 -1.39222405406e-21)
(-0.0484124433854 -0.0288214704125 -4.52491410993e-22)
(-0.045014385784 -0.0327422738458 -3.17758968587e-21)
(-0.0463450212278 -0.0311100710226 -9.29056319807e-23)
(-0.0393399106893 -0.0363416335198 -5.36468320436e-21)
(-0.040442844001 -0.0340636197073 -2.4881974443e-21)
(-0.0368214496241 -0.0399951786487 -8.76074228315e-21)
(-0.0346990627625 -0.0382680387573 -8.33355566741e-22)
(-0.0257344672618 -0.0449796472474 -1.18552468735e-20)
(-0.0347001224942 -0.0341966412764 -3.91365100103e-21)
(-0.0159366431295 -0.0603686461554 -9.42899313155e-21)
(-0.00698463543794 -0.0471308136869 -9.37457599222e-22)
(-0.0153040413293 -0.0614878769268 7.41271950296e-22)
(-0.0463652492389 -0.0233479254063 5.96440898262e-23)
(-0.0447290862358 -0.0225348939436 1.1929543541e-23)
(-0.0470818716159 -0.0257165302518 7.20416064611e-23)
(-0.0455014160567 -0.0249492793472 1.8880445096e-23)
(-0.0474359569556 -0.0279980733009 7.15114567142e-23)
(-0.0461735043579 -0.0273341151408 2.6920192832e-22)
(-0.0464080780582 -0.0301845098815 8.46827011083e-22)
(-0.0462258124906 -0.0295786990367 1.50581373496e-21)
(-0.04231952712 -0.0324775676392 5.96486609589e-22)
(-0.0440517544099 -0.031850196178 6.21164571571e-21)
(-0.0363822457255 -0.034861074519 2.04313019332e-21)
(-0.0380591653265 -0.0343513844293 1.0873901364e-20)
(-0.033015394312 -0.0368517446428 4.01373571538e-21)
(-0.0327083119094 -0.0369611015792 1.73476597647e-20)
(-0.0173688419637 -0.0401857431351 7.00413827321e-21)
(-0.0313660917516 -0.0324468225908 2.15174718622e-20)
(-0.00686391958793 -0.0482707856002 9.23280748262e-21)
(0.00109858262508 -0.0416275575153 2.48757281884e-20)
(-0.00930206450716 -0.0505975678977 1.67150030589e-20)
(-0.0439624442468 -0.0241875803831 -2.88341011891e-23)
(-0.0422729991183 -0.0233235902509 5.70702872476e-24)
(-0.0447330241581 -0.0266449888031 2.16040766955e-22)
(-0.0430437926138 -0.0258393160222 1.10703299741e-22)
(-0.0451603664954 -0.0290672622879 1.70350420657e-21)
(-0.0437509739472 -0.0284040164447 1.32412917075e-21)
(-0.0441373220391 -0.0314809255146 6.87063243959e-21)
(-0.043811853432 -0.0309481455438 6.52293783201e-21)
(-0.0401144580281 -0.0337679196431 1.64890604701e-20)
(-0.0417644617877 -0.0335533251241 2.10664361467e-20)
(-0.0346424107127 -0.0353781973024 2.61784309353e-20)
(-0.0364486549455 -0.0358266437594 4.12758278656e-20)
(-0.0313247231254 -0.03605846008 3.48513959115e-20)
(-0.0320279464364 -0.0371052140633 5.28983539933e-20)
(-0.0130234367753 -0.0369135769782 3.93890617774e-20)
(-0.0305109552211 -0.0318100097262 5.95219813168e-20)
(-0.00118222148074 -0.0415754509362 3.23579237646e-20)
(0.00576006476358 -0.0386261579308 5.71368227119e-20)
(-0.00521050838562 -0.0446911587161 3.45236149486e-20)
(-0.0414325125862 -0.0250470090165 1.45244429655e-22)
(-0.0397061444186 -0.0240748380729 7.56106167048e-23)
(-0.0421609426318 -0.0277027837136 1.21879170353e-21)
(-0.0403877023791 -0.0267330295772 5.2636947386e-22)
(-0.0425325816822 -0.0304608449036 6.14356279619e-21)
(-0.0409925475277 -0.0295367144323 3.37428141898e-21)
(-0.0415709665575 -0.0332546694705 2.07187415391e-20)
(-0.0410176277999 -0.0324570372215 1.45829221968e-20)
(-0.0381803931858 -0.035649969567 4.58532035421e-20)
(-0.0393687750746 -0.0353800659375 4.23124242964e-20)
(-0.0338788304717 -0.0365418214116 6.79957509235e-20)
(-0.0355565141814 -0.0374767218143 8.08846138402e-20)
(-0.031167644914 -0.0360437893498 7.75689393986e-20)
(-0.0325258584859 -0.0377981433388 1.04302087224e-19)
(-0.0115553129407 -0.0359201433453 7.72697422512e-20)
(-0.0306345829359 -0.0318885964762 1.09694379824e-19)
(0.00170263118763 -0.0393293099088 5.93025138959e-20)
(0.00916934282124 -0.0380152167134 1.01084285834e-19)
(-0.00291480983073 -0.0446978270013 5.24252328654e-20)
(-0.0387267180061 -0.0258271469365 4.5673566091e-22)
(-0.0370271221733 -0.0247065415656 1.87546502438e-22)
(-0.0392984915221 -0.0286681209239 2.6818591893e-21)
(-0.0375463439313 -0.0274539743415 9.31200207323e-22)
(-0.0395485313687 -0.0316972932764 1.18136408196e-20)
(-0.037962928817 -0.030399322197 4.91207060649e-21)
(-0.0388398055867 -0.0347903127953 3.61766049541e-20)
(-0.0379241277434 -0.0335212361313 2.02090117782e-20)
(-0.0366787797577 -0.037260030801 7.73438345945e-20)
(-0.0368986052726 -0.0365340387312 5.58009417454e-20)
(-0.0340580505486 -0.0377952699852 1.17190950141e-19)
(-0.0350209468608 -0.0385079749497 1.04022159239e-19)
(-0.031877255323 -0.0368703330354 1.36427527649e-19)
(-0.0334506652288 -0.0385941440114 1.37154648559e-19)
(-0.009283978468 -0.0362947445415 1.33508923406e-19)
(-0.0312101503935 -0.0325709435481 1.43522650771e-19)
(0.00511441691958 -0.0434011735135 9.42070048034e-20)
(0.0162756030444 -0.038566376216 1.31302753813e-19)
(-0.00277981403438 -0.0458593664421 6.48019410486e-20)
(-0.0359112904839 -0.0264020631116 6.62011048851e-22)
(-0.0343045659903 -0.0251606692417 3.37011422363e-22)
(-0.0362758721266 -0.029275905471 3.16141162451e-21)
(-0.0346721009267 -0.0278833669354 9.01519645632e-22)
(-0.0364171565354 -0.0323468762033 1.33074415651e-20)
(-0.0348914768311 -0.0307895514758 4.24554391959e-21)
(-0.0360861283329 -0.0354734007857 3.98333485694e-20)
(-0.0347970835461 -0.0338226926078 1.68116241611e-20)
(-0.0353278108608 -0.0377925295103 8.247926639e-20)
(-0.0345789916193 -0.0366776952815 4.68801285926e-20)
(-0.0344083715359 -0.0383169057955 1.23985857658e-19)
(-0.0344962260847 -0.0386065768968 8.6642296017e-20)
(-0.0326952094917 -0.0377137310112 1.44249771681e-19)
(-0.0340537105447 -0.0390129323338 1.17356995934e-19)
(-0.00637827124799 -0.0373450672845 1.41316481177e-19)
(-0.0315787971976 -0.0335822676594 1.22009830814e-19)
(0.00751864258773 -0.0432637520684 1.01897690058e-19)
(0.0221946582673 -0.0399380284688 1.13914249961e-19)
(-0.00463843099121 -0.0482666871633 5.32945921091e-20)
(-0.0331225734361 -0.0267088098163 5.76520019144e-22)
(-0.0316762982049 -0.0254640911394 2.72769340137e-22)
(-0.0333171387534 -0.0294778153346 1.98565194071e-21)
(-0.0319027276708 -0.0280957588065 4.38517927316e-22)
(-0.033377613591 -0.0323841209936 7.7497265156e-21)
(-0.0319846975222 -0.0308420913357 2.05831504523e-21)
(-0.0334213998201 -0.0352305124494 2.38584041843e-20)
(-0.0319501693687 -0.0336178799868 8.14833386785e-21)
(-0.0338274474747 -0.0374509866271 5.10431582197e-20)
(-0.0323580277888 -0.0361824137259 2.46999403681e-20)
(-0.0342187212214 -0.0383291019611 8.00134342929e-20)
(-0.0336177685137 -0.0381446434742 4.871663923e-20)
(-0.0328548529852 -0.0384679048422 9.5117055067e-20)
(-0.0339147851205 -0.0393685515997 6.67832874429e-20)
(-0.00309682939883 -0.0392068500601 9.46075995975e-20)
(-0.0308398181781 -0.034971020684 6.95676818109e-20)
(0.00926806808497 -0.0483319388512 6.53111520116e-20)
(0.031320675987 -0.0424269485781 6.72259673378e-20)
(-0.00707671552854 -0.0558938684438 3.23115962515e-20)
(-0.0304788398568 -0.026912380718 1.34767248309e-22)
(-0.0291065666498 -0.0256975729944 2.51530486802e-22)
(-0.0306114696209 -0.029519528261 5.11181031835e-22)
(-0.0292952653484 -0.0282336841811 2.19498849344e-22)
(-0.0306536941692 -0.0322012627083 2.45692239749e-21)
(-0.0293025185653 -0.0308153293955 9.64695560122e-22)
(-0.0309591002524 -0.0347613358721 8.98987005167e-21)
(-0.0293895853725 -0.0333800322605 3.38018015736e-21)
(-0.0321593447365 -0.0369098356702 2.23734213784e-20)
(-0.0302090420891 -0.0356968780941 1.03359244315e-20)
(-0.0333403913595 -0.038269407888 3.54864923799e-20)
(-0.0322578548881 -0.0376918268071 1.97200914266e-20)
(-0.0318144044766 -0.0395049476238 4.12339141869e-20)
(-0.0326791320858 -0.040056128999 2.44176854989e-20)
(0.00343340331406 -0.0420992182887 4.21860495512e-20)
(-0.0282454898062 -0.0367586027372 2.48921847784e-20)
(0.0140058190657 -0.056733377576 3.42264115777e-20)
(0.0459601915197 -0.0435985244492 2.467417613e-20)
(-0.0108369451595 -0.0456651150581 1.419349676e-20)
(-0.0279347516604 -0.0270793296973 3.36262087837e-22)
(-0.0266180928583 -0.0258819798324 3.83559278633e-22)
(-0.0280610317905 -0.0295733902183 6.7301337763e-22)
(-0.0268008609215 -0.0282876496238 4.28148522158e-22)
(-0.0281488853451 -0.0320871538098 1.88795331999e-21)
(-0.0267882407817 -0.0306610255807 1.06760207373e-21)
(-0.0287014094077 -0.034494705445 4.7262345372e-21)
(-0.0269814312483 -0.033030587797 2.43161681335e-21)
(-0.0303177137952 -0.0365845433095 7.68259447964e-21)
(-0.0281186036876 -0.0352377567009 5.37958572666e-21)
(-0.0316300810652 -0.038559161203 8.65128454554e-21)
(-0.0302827982417 -0.0374880689278 8.22610642231e-21)
(-0.029228398417 -0.0410660299232 8.07595609048e-21)
(-0.0301721007022 -0.0410100867876 9.50138740945e-21)
(0.00847459399341 -0.0450722425893 7.38031135722e-21)
(-0.024239182183 -0.0388433430301 2.18165174175e-21)
(0.0187914631626 -0.0310447267776 4.6412613123e-21)
(0.0319400370022 -0.0423741725089 2.4463517109e-21)
(-0.000626750430168 -0.0259948392508 2.99692853365e-23)
(-0.0254977226164 -0.0271396624653 4.75445712955e-22)
(-0.0242574315951 -0.026051058292 1.01730974722e-21)
(-0.0256182502291 -0.0294359845236 8.22737218262e-22)
(-0.0245040651144 -0.0282373966553 1.21122675255e-21)
(-0.0257113929588 -0.0316638074295 1.61126556709e-21)
(-0.0245597378389 -0.0302316615422 1.79247852588e-21)
(-0.0264480226668 -0.033939664918 3.08496800281e-21)
(-0.0247047304012 -0.0322328010185 2.39865272939e-21)
(-0.028200425983 -0.0361420010781 5.92309766932e-21)
(-0.0259154672574 -0.0343338130344 3.51052597932e-21)
(-0.0289565826936 -0.0387531188376 9.07620928621e-21)
(-0.0276710984479 -0.0371657298856 5.46653515387e-21)
(-0.0252027388976 -0.0426846805295 3.60708306072e-21)
(-0.0262403766682 -0.0420043037132 9.6875673285e-21)
(0.00147451998706 -0.0477674630262 -2.75230790457e-21)
(-0.0191526213826 -0.0410968269991 9.03486508218e-22)
(0.014760982873 -0.0209304362907 -2.16494031606e-21)
(0.005098484907 -0.0433057137586 1.77969489874e-21)
(0.0096322415078 -0.0201925744516 4.68898743439e-21)
(-0.0232959560997 -0.0271907272247 1.75309078681e-21)
(-0.0235133832477 -0.0291202004373 2.18096806016e-21)
(-0.0235852390152 -0.0308437054821 2.57986568818e-21)
(-0.0241812244597 -0.0327558271223 2.8242107059e-21)
(-0.0254367593815 -0.035196494109 3.05396346386e-21)
(-0.0249713184513 -0.0388050307143 6.07789319616e-21)
(-0.0201773699984 -0.0440496108478 6.983970776e-21)
(-0.0169417069372 -0.049110272256 5.43548931153e-21)
(-0.00502607126435 -0.0276188559838 8.63362264919e-21)
)
;

boundaryField
{
    back
    {
        type            calculated;
        value           uniform (0 0 0);
    }
    sides
    {
        type            calculated;
        value           nonuniform List<vector> 0();
    }
    bottom
    {
        type            calculated;
        value           nonuniform List<vector> 0();
    }
    front
    {
        type            calculated;
        value           uniform (0 0 0);
    }
    atmosphere
    {
        type            calculated;
        value           nonuniform List<vector> 
16
(
(0 -0.102535056188 0)
(0 -0.09526311203 0)
(0 -0.0853076207917 0)
(0 -0.0682957030156 0)
(0 -0.0607437069347 0)
(0 -0.0665321281463 0)
(0 -0.0542713073788 0)
(0 -0.0456664387012 0)
(0 -0.0416248918531 0)
(0 -0.0435358858831 0)
(0 -0.0414053387113 0)
(0 -0.045894762325 0)
(0 -0.0529777030672 0)
(0 -0.0412598781917 0)
(0 -0.0311889049056 0)
(0 -0.0184117440535 0)
)
;
    }
    floatingObject
    {
        type            calculated;
        value           nonuniform List<vector> 0();
    }
    procBoundary5to0
    {
        type            processor;
        value           nonuniform List<vector> 
12
(
(-0.0583355671419 -0.00995146060791 -2.81893340201e-24)
(-0.0602712562726 -0.0118533167878 2.82951762107e-24)
(-0.0624360765801 -0.0140611151441 6.06033495504e-24)
(-0.0648388955435 -0.0166645397258 3.95425214486e-23)
(-0.0675053820824 -0.0197689926759 4.66716959891e-23)
(-0.0705000755749 -0.0235254673299 -9.9140542649e-23)
(-0.073653152785 -0.0282831865381 -1.24156254983e-21)
(-0.0763700589912 -0.0338891936479 1.04146334894e-21)
(-0.0791042199078 -0.045029501565 -4.11065511267e-21)
(-0.0853098631245 -0.0365170793453 -8.93093796707e-21)
(-0.0889354718416 -0.0681014032763 -1.86729132465e-20)
(-0.0756395969244 -0.103230395834 -1.14224519547e-20)
)
;
    }
    procBoundary5to3
    {
        type            processor;
        value           nonuniform List<vector> 10((-0.0220754219075 -0.0264065712244 5.17583853717e-21) (-0.0225740199669 -0.0283442530159 5.86357629738e-21) (-0.0228353731714 -0.0298088109263 6.4735775052e-21) (-0.022791636025 -0.0312482662996 5.7567946517e-21) (-0.0234738485906 -0.0331352458103 3.74142899505e-21) (-0.0240619027093 -0.0368808450176 3.13311734103e-21) (-0.0209955640121 -0.0431587328522 8.84829324941e-21) (-0.014090597069 -0.0431718063833 4.26618405209e-21) (-0.0163932832084 -0.0468918284619 4.50582161291e-21) (0.000425803412749 -0.034186225927 8.86073379477e-21));
    }
    procBoundary5to4
    {
        type            processor;
        value           nonuniform List<vector> 
18
(
(-0.0566033826476 -0.00991755895505 -1.09975397647e-24)
(-0.0547538716156 -0.0114093848349 7.4619636902e-24)
(-0.0544194329107 -0.0130891330689 2.13116450665e-23)
(-0.0558204093675 -0.015297212689 2.44102266291e-23)
(-0.0553178151467 -0.017191273566 3.2252764196e-23)
(-0.0528190811673 -0.0183700086041 3.54182230678e-23)
(-0.0503582738112 -0.0193305159575 3.88616749478e-23)
(-0.0479554604093 -0.0201651994233 4.75853457951e-23)
(-0.045588011236 -0.0209516534232 5.2831028666e-23)
(-0.0431888527664 -0.0217317728091 2.87267255672e-23)
(-0.0407042758241 -0.0224805598302 6.68977736795e-23)
(-0.0381163160374 -0.0231485953584 9.81829424151e-23)
(-0.0354648190813 -0.023679946912 1.79135086313e-22)
(-0.0328251933668 -0.0240808636693 2.97388834366e-22)
(-0.0302390087785 -0.0243428224452 1.80971983677e-22)
(-0.0277047394386 -0.0245909733826 2.83123861499e-22)
(-0.0252504943636 -0.024779025256 3.92787469864e-22)
(-0.02291041205 -0.02500901931 1.5508860368e-21)
)
;
    }
}


// ************************************************************************* //
