/*--------------------------------*- C++ -*----------------------------------*\
| =========                 |                                                 |
| \\      /  F ield         | OpenFOAM: The Open Source CFD Toolbox           |
|  \\    /   O peration     | Version:  v2012                                 |
|   \\  /    A nd           | Website:  www.openfoam.com                      |
|    \\/     M anipulation  |                                                 |
\*---------------------------------------------------------------------------*/
FoamFile
{
    version     2.0;
    format      ascii;
    class       volVectorField;
    location    "4.7";
    object      ddtCorrDdt0(U);
}
// * * * * * * * * * * * * * * * * * * * * * * * * * * * * * * * * * * * * * //

dimensions      [0 1 -2 0 0 0 0];


internalField   nonuniform List<vector> 
166
(
(0.201838568207 -0.0130087410258 -1.30960936316e-23)
(0.211667402514 -0.0137300554265 4.13278459524e-26)
(0.223080008029 -0.0140067622105 -3.55311360912e-24)
(0.236224616011 -0.0137065639062 -1.59290994044e-23)
(0.251268806569 -0.0127052641527 -3.47287705875e-23)
(0.268452870998 -0.0107666513142 -1.29411776334e-22)
(0.28808080617 -0.00782639956259 -7.40104873159e-22)
(0.310792534951 -0.00262726971961 -6.57859041072e-22)
(0.337888842565 0.00339090665241 -1.84641238426e-21)
(0.368625833079 0.00945008295545 -7.80726309457e-21)
(0.427480421919 -0.00276341290675 -1.22048546964e-21)
(0.757178712008 0.00965213066925 -1.31181627067e-20)
(0.51135165954 0.101020061405 -1.94545171022e-20)
(0.187343010508 -0.00427921507829 8.08951898916e-24)
(0.194063979642 -0.00436533840245 2.27568910629e-24)
(0.20207126705 -0.0040705423891 2.58704779237e-24)
(0.211432015272 -0.00330875807404 -6.74288841119e-24)
(0.222261427974 -0.00197327373629 1.18829914342e-24)
(0.234673378318 8.27057776102e-05 -9.37698877084e-24)
(0.248794583564 0.003039411572 5.49102467304e-23)
(0.26478454302 0.00716592524745 -1.71235385381e-22)
(0.282785058706 0.012721854932 -6.72592582223e-22)
(0.30316995437 0.0210143960035 -1.45098106033e-22)
(0.325651651204 0.0336793924865 3.246642227e-23)
(0.356111580036 0.0502951040226 1.8978570956e-21)
(0.423060863864 0.0380211976349 7.05199594644e-21)
(0.691307123009 0.0733738487854 9.86038863624e-20)
(0.482632072292 0.189439359984 8.20283681421e-20)
(0.171688829057 -9.38090623719e-05 -1.07625301157e-23)
(0.172762231089 -2.3811108475e-05 -1.24925959949e-22)
(0.181759989482 0.000916528633764 5.02305401501e-24)
(0.187003264065 0.00167177247919 3.99549481887e-24)
(0.1933663145 0.0027887587821 -1.6760213532e-24)
(0.200896828551 0.00436940467778 -2.44722581511e-24)
(0.209679850636 0.00650011948855 9.7560939418e-24)
(0.21979767178 0.00930362180521 -4.86822554283e-24)
(0.231330306477 0.012930417459 -2.56658793916e-23)
(0.244377030769 0.0175725958878 -7.02874074959e-23)
(0.258984719489 0.023454075997 -1.84350719503e-22)
(0.275121123043 0.0308346364234 -6.06743805969e-22)
(0.292690673248 0.0398657873988 1.17470945392e-21)
(0.308010074598 0.0573667205265 7.96857475996e-22)
(0.327518170048 0.0890550041664 -8.13983346152e-21)
(0.410148579905 0.0799255731769 1.32731359689e-20)
(0.594295393824 0.132842452229 2.11343764589e-20)
(0.462710674605 0.305930887732 3.91142892822e-20)
(0.171271141825 0.000432476225965 -8.45908706151e-24)
(0.172116476607 0.00146596180815 -8.67525972095e-23)
(0.173867051245 0.00260950252708 1.13409707841e-23)
(0.176739259666 0.00388572489596 -2.15898593732e-23)
(0.180625440491 0.00540462017045 4.02428590972e-24)
(0.185517649686 0.00724906027242 2.29037284134e-23)
(0.191444268651 0.00948976739878 1.01111046184e-23)
(0.198439061255 0.0122438022988 -1.33816177191e-23)
(0.206563555524 0.0156187208963 4.14060627761e-23)
(0.215876673487 0.0197230070143 7.11227516389e-23)
(0.226433673821 0.0247363511921 -6.63841129519e-23)
(0.23832019409 0.0308267216682 6.64548590887e-23)
(0.251564452079 0.0381176390145 -3.91865743314e-22)
(0.266174216186 0.0466643971739 -4.39672646747e-22)
(0.282099955599 0.0531994484852 -1.11424643497e-21)
(0.293496879722 0.067513633259 -2.71153905019e-21)
(0.308107471814 0.125738683764 -1.73348002264e-20)
(0.381501118089 0.130752811326 -8.92276825601e-21)
(0.427325456529 0.137145803477 7.6527075736e-21)
(0.401282521938 0.407313870501 -1.0146658849e-19)
(0.169858292965 0.000910256037312 7.71924608132e-23)
(0.170599928078 0.0028508279698 1.43542008366e-23)
(0.17222025526 0.00489525637677 2.07533438857e-23)
(0.17487972498 0.00711472796909 -1.21252865109e-23)
(0.178476000111 0.00959782840862 1.93940994215e-23)
(0.18297901845 0.012421101873 5.70984512629e-24)
(0.188418863467 0.0156844964149 4.92279362445e-24)
(0.194828312984 0.0194956782534 9.41163394555e-25)
(0.202228040183 0.0239620968634 2.29123098658e-25)
(0.210666409185 0.0292159097144 4.49489349516e-23)
(0.220196903451 0.035441861958 -3.17628204713e-23)
(0.230847119126 0.0428200475091 -3.59552528167e-23)
(0.242680501506 0.0514840749093 -2.64206754775e-22)
(0.255947274598 0.0615372944012 -2.36522967712e-22)
(0.270863518516 0.0663492747071 1.74940475168e-25)
(0.28147395406 0.0808897207188 2.22166880172e-22)
(0.299702391404 0.146987680459 5.09929643137e-21)
(0.339140985385 0.154530471224 -1.71007429219e-20)
(0.227732363047 0.168595666645 6.20030937194e-21)
(0.373294562549 0.416012723806 -3.10391268252e-20)
(0.167564597822 0.00134328962054 1.03730172364e-22)
(0.168213275403 0.00412654680095 3.18484390102e-23)
(0.169684894987 0.00701263202264 -3.36287033875e-24)
(0.17211403773 0.0100891405343 -1.08696119135e-23)
(0.175390759293 0.013445576145 -8.73419913937e-24)
(0.179488660808 0.0171564423789 3.18499735326e-23)
(0.184422753275 0.0213189294895 -9.32970076938e-26)
(0.190200884086 0.0260519753533 -1.75066393746e-23)
(0.196835957719 0.0314754184976 9.01390087261e-24)
(0.204351149895 0.0377295484294 -6.96295804953e-24)
(0.212772157025 0.0449786150345 -8.33465698336e-23)
(0.222057675992 0.0534127284043 7.17535407604e-23)
(0.232406856824 0.0633534008898 -1.6929727561e-22)
(0.244058027155 0.0749534837761 -1.45569512424e-22)
(0.256885544073 0.0778742557869 -8.47143195565e-22)
(0.265105885838 0.0934528014804 -1.81990429065e-21)
(0.280760325735 0.15210446909 2.13528597598e-21)
(0.301908562142 0.149695903821 5.71686426663e-21)
(0.0814087646882 0.123703415975 1.10000149655e-19)
(0.404874458897 0.0205991426161 -2.27011077585e-19)
(0.164458586612 0.00173266249063 8.39452293609e-23)
(0.165024650288 0.00528291553162 2.53013341032e-23)
(0.16633149309 0.00893620490531 -6.80452190367e-23)
(0.168527911704 0.0127870519317 -2.22003483017e-23)
(0.171482789174 0.0169274134815 1.32542514725e-23)
(0.17516633322 0.0214250680638 5.34103354428e-24)
(0.179574803883 0.0263779860793 3.2661595533e-23)
(0.184707687121 0.0319025238495 3.39778187369e-23)
(0.190553366095 0.0381250887401 1.35970105455e-23)
(0.19710751751 0.0451850028361 6.41854423966e-23)
(0.204340390341 0.0532078185144 -1.07681941117e-23)
(0.212227734815 0.0625463343657 8.73281227416e-23)
(0.220887867545 0.0735720345183 -2.45103293243e-23)
(0.230383231953 0.0860635814957 -7.1102093261e-23)
(0.239657025412 0.0866184356803 -7.00665390748e-22)
(0.246586040514 0.10337344912 -4.55524302406e-22)
(0.255172754956 0.160970864632 -1.49715701332e-20)
(0.257365197013 0.159450961956 2.02885405907e-21)
(0.326519203082 0.0812401691103 4.08981531863e-20)
(0.163778846254 0.16138804199 6.27254987384e-21)
(0.16062337861 0.00208794270949 6.66832517642e-23)
(0.16110387244 0.0063222018632 -1.00314337908e-23)
(0.162250453271 0.0106610027211 -2.36655030708e-23)
(0.164212611702 0.0152042201323 -2.75287559472e-23)
(0.16684678271 0.0200308470692 4.79725737184e-24)
(0.170116129544 0.0252205732252 3.14068398186e-25)
(0.174003626084 0.0308619033171 1.69108751315e-24)
(0.17849323794 0.0370510892067 6.6597898893e-24)
(0.183556517129 0.0439074498307 6.61629617271e-23)
(0.189145246234 0.0515577341026 3.66544693366e-24)
(0.195198314194 0.0601559415344 3.92972421984e-23)
(0.201691212028 0.0700365406499 9.07931769751e-23)
(0.208427817347 0.0815594480965 -6.39158886384e-23)
(0.215327846756 0.0937025507142 -1.39915933433e-22)
(0.221484236707 0.0935418560155 5.65661035089e-22)
(0.228259490818 0.10983417331 -5.60036151672e-21)
(0.232458413096 0.166355630133 9.05216666752e-23)
(0.215194850019 0.177597369809 -9.02453116807e-21)
(0.318396625375 0.119782111908 -7.73456645858e-21)
(-0.0425014477152 0.328269701485 1.58349439324e-19)
(0.156134834443 0.00239625306926 2.36303331099e-23)
(0.156533396937 0.00724166381141 2.27426190761e-23)
(0.157526957861 0.012193177059 -3.62249871396e-24)
(0.159252696738 0.0173435405398 3.8023421548e-25)
(0.161571264736 0.022773319596 -5.25369513589e-25)
(0.16443385791 0.028557567404 2.07195308192e-24)
(0.167820444111 0.0347749614174 3.32834637304e-23)
(0.171704022239 0.0415055956873 -1.33973831797e-23)
(0.176033529038 0.0488394034199 4.38511547581e-24)
(0.180727333916 0.0568863813877 2.94991072644e-23)
(0.185692240809 0.0658112345977 -7.63616658834e-23)
(0.190787510028 0.0758324104344 1.43703173978e-22)
(0.195682516597 0.0872190722224 -5.77027756564e-23)
(0.19997067663 0.0990415046208 -7.4787669095e-23)
(0.20334385478 0.0994001075053 2.40638070601e-22)
(0.211755667182 0.117677472257 -1.33944146596e-21)
(0.211317689263 0.165933236938 -7.66860892691e-21)
(0.191505063347 0.178764181815 1.36656871206e-20)
(0.364485595855 0.13839968016 9.09266840076e-21)
(-0.0620534512511 0.228575122148 -2.11775015747e-20)
)
;

boundaryField
{
    back
    {
        type            calculated;
        value           uniform (0 0 0);
    }
    sides
    {
        type            calculated;
        value           nonuniform List<vector> 0();
    }
    bottom
    {
        type            calculated;
        value           uniform (0 0 0);
    }
    front
    {
        type            calculated;
        value           uniform (0 0 0);
    }
    atmosphere
    {
        type            calculated;
        value           nonuniform List<vector> 9((0.000482227823797 0.101020061405 1.57168116543e-22) (0.000544286783324 0.189439359984 1.86177114061e-22) (-0.000262277175819 0.305930887732 -1.24620902818e-22) (0.000103949608661 0.407313870501 2.04408813965e-23) (-5.26197145169e-05 0.416012723806 2.68437369987e-25) (0.437397117888 0.0205991426161 -2.35666235282e-19) (0.150734168326 0.16138804199 6.99476429631e-22) (-0.0359562899764 0.328269701485 1.60671905453e-19) (-0.00632274490333 0.228575122148 1.07135692815e-19));
    }
    floatingObject
    {
        type            calculated;
        value           nonuniform List<vector> 0();
    }
    procBoundary0to1
    {
        type            processor;
        value           nonuniform List<vector> 10((0.235818200126 -0.0281918366652 3.81152826331e-23) (0.251556983023 -0.0293227405665 -3.96557059962e-23) (0.269569923449 -0.0298286610216 7.1610014133e-23) (0.290184810115 -0.029818236784 -1.26542182743e-22) (0.313954877968 -0.0286010846919 1.15454140169e-22) (0.342137543697 -0.028852238254 6.5139285783e-21) (0.369284519023 -0.0310254823868 -9.35414077365e-21) (0.420800580748 -0.04363119073 -3.27951861155e-21) (0.758050793969 -0.062224432138 4.6193735031e-20) (0.537568512024 -0.0713903825897 2.61644784841e-20));
    }
    procBoundary0to2
    {
        type            processor;
        value           nonuniform List<vector> 
14
(
(0.200142225092 -0.0223110107085 -1.15636297976e-25)
(0.210270326171 -0.0245895947868 -1.2141588227e-23)
(0.222127650254 -0.0265918754282 -5.67033282111e-23)
(0.186463518611 -0.0105504222618 -1.65237462331e-23)
(0.19345847826 -0.0119234795409 -1.21060571222e-23)
(0.19345847826 -0.0119234795409 -1.21060571222e-23)
(0.171164838765 -0.000793909181041 8.15381365049e-23)
(0.172341829081 -0.00167019427796 -4.13657594635e-23)
(0.181811476948 -0.00389459192491 1.32879975697e-23)
(0.181811476948 -0.00389459192491 1.32879975697e-23)
(0.174552701334 0.000162916585166 -4.65318162103e-23)
(0.174552701334 0.000162916585166 -4.65318162103e-23)
(0.177614307083 0.000428318671007 -3.55061383013e-23)
(0.177614307083 0.000428318671007 -3.55061383013e-23)
)
;
    }
    procBoundary0to4
    {
        type            processor;
        value           nonuniform List<vector> 8((0.151064901602 0.00267259939084 3.71170440292e-23) (0.151396032848 0.00805310743819 -2.430043409e-23) (0.152237031433 0.0135306698753 9.99036120244e-24) (0.153736774882 0.0192080908367 -2.35515844311e-24) (0.155750749133 0.0251519149575 -8.83532534399e-24) (0.158225851989 0.0314296196708 -1.43792286982e-24) (0.161137733291 0.0381125601346 4.5456705794e-25) (0.164457588643 0.0452707324685 9.31509999219e-25));
    }
    procBoundary0to5
    {
        type            processor;
        value           nonuniform List<vector> 
12
(
(0.168124882237 0.0529657208245 1.59386938245e-23)
(0.172040734163 0.0612686344869 3.20883114108e-24)
(0.176084598126 0.0702731755116 -1.53209733862e-23)
(0.180050518263 0.0800723901463 1.83847569711e-23)
(0.183600440912 0.0907257006423 -1.51304442696e-22)
(0.186130625382 0.101234038889 -2.26331205144e-22)
(0.18717190998 0.105459636248 6.62831362489e-22)
(0.194360235796 0.123555057829 -1.63219120966e-21)
(0.185350096359 0.161417830933 4.70931300427e-21)
(0.17562832492 0.173565610905 2.29519353078e-21)
(0.314914920377 0.159477615175 -1.83713764794e-22)
(-0.0461010548444 0.278091657782 -6.42674366205e-20)
)
;
    }
}


// ************************************************************************* //
