/*--------------------------------*- C++ -*----------------------------------*\
| =========                 |                                                 |
| \\      /  F ield         | OpenFOAM: The Open Source CFD Toolbox           |
|  \\    /   O peration     | Version:  v2012                                 |
|   \\  /    A nd           | Website:  www.openfoam.com                      |
|    \\/     M anipulation  |                                                 |
\*---------------------------------------------------------------------------*/
FoamFile
{
    version     2.0;
    format      ascii;
    class       surfaceScalarField;
    location    "2";
    object      alphaPhi0.water;
}
// * * * * * * * * * * * * * * * * * * * * * * * * * * * * * * * * * * * * * //

dimensions      [0 3 -1 0 0 0 0];
oriented        oriented;


internalField   nonuniform List<scalar> 
300
(
-1.3270960558e-05
4.06194088054e-05
-2.48853238224e-05
3.35577408011e-05
-3.56367972093e-05
2.93786590675e-05
-4.65067503451e-05
2.69218070456e-05
-5.92333765774e-05
2.43359822256e-05
-7.63124008183e-05
2.12600788302e-05
-0.000109969791292
4.47706888088e-06
-0.000175370204792
-5.19232855978e-06
-0.000210457537971
3.50897352986e-05
-0.000229349737631
1.88948756567e-05
-0.000227687039694
-1.65949202346e-06
-0.000226886060339
-7.96642965824e-07
-7.15185585353e-05
0.000128726882823
1.6359962551e-05
-1.34058315993e-05
5.40247912242e-05
-2.54574807932e-05
4.56089682887e-05
-3.67678368253e-05
4.06886863285e-05
-4.78262097119e-05
3.7980003575e-05
-5.91084034678e-05
3.56183176865e-05
-7.14463706228e-05
3.35986758671e-05
-9.51510150538e-05
2.81829644243e-05
-0.000129746003683
2.94045315462e-05
-0.000130709528839
3.60560390437e-05
-0.000134386909026
2.25752738719e-05
-0.000142816465483
6.77332339621e-06
-0.0001439187172
3.09447054878e-07
-6.04635472066e-05
4.52759433255e-05
-2.03038705998e-05
-1.36220888081e-05
6.76465347345e-05
-2.60399566692e-05
5.80265246836e-05
-3.78168708008e-05
5.24653581405e-05
-4.93004321178e-05
4.94635107138e-05
-6.06730383041e-05
4.69911753467e-05
-7.19626900386e-05
4.48890292367e-05
-8.51199525465e-05
4.13415090194e-05
-9.81188577264e-05
4.24054144178e-05
-0.000103865959629
4.18058588783e-05
-0.000110120731619
2.883299005e-05
-0.000116128386999
1.27841098766e-05
-0.000115978007332
1.62625748678e-07
-7.52024756641e-05
4.50441189446e-06
-4.1221423507e-05
-1.40187647398e-05
8.16650405373e-05
-2.68719623824e-05
7.08794341854e-05
-3.91840749027e-05
6.47773091146e-05
-5.14636595586e-05
6.17431411034e-05
-6.37779688915e-05
5.9305800636e-05
-7.59297415138e-05
5.70415996498e-05
-8.83044415371e-05
5.37175208996e-05
-9.79166618898e-05
5.20196637775e-05
-0.000103323747948
4.72152164066e-05
-0.000110418354877
3.59303184018e-05
-0.000118328111285
2.06966926582e-05
-0.000122546012419
4.38377227232e-06
-0.00010711348532
-1.0924403049e-05
-4.97436451331e-05
-1.44590227701e-05
9.61238108093e-05
-2.77794391442e-05
8.41997205127e-05
-4.07158028972e-05
7.77136449622e-05
-5.35545403078e-05
7.45820296992e-05
-6.64739262091e-05
7.22257394398e-05
-7.93178417354e-05
6.98861932259e-05
-9.22668196382e-05
6.66677828617e-05
-0.000103419811612
6.31741982932e-05
-0.000113450097173
5.7247584502e-05
-0.00012384691836
4.63294464991e-05
-0.000134830604512
3.16827978847e-05
-0.000143399994405
1.29559521412e-05
-0.000143448723846
-1.08725312448e-05
-5.01046828004e-05
-1.48241294051e-05
0.000110947831737
-2.85767154095e-05
9.79522508306e-05
-4.20457865602e-05
9.11827188762e-05
-5.55431808362e-05
8.80795348097e-05
-6.92013179149e-05
8.58842224082e-05
-8.31288174717e-05
8.38144129819e-05
-9.72750161343e-05
8.0814906132e-05
-0.0001110225586
7.69230179795e-05
-0.000124435001242
7.06617118307e-05
-0.000138603886002
6.05002922541e-05
-0.000153637510056
4.67184102967e-05
-0.000168315174979
2.76358532678e-05
-0.00018052479082
1.33948709108e-06
-4.02826533625e-05
-1.50667196546e-05
0.000126014549054
-2.92109897956e-05
0.000112096556418
-4.31575540037e-05
0.000105129381925
-5.71468310025e-05
0.00010206903562
-7.17513256571e-05
0.000100489021746
-8.67107667537e-05
9.87743327972e-05
-0.000102114528343
9.62194004602e-05
-0.000117917807944
9.27273496481e-05
-0.000134748508023
8.74937522898e-05
-0.00015337101083
7.91243467035e-05
-0.000173802270431
6.71512344804e-05
-0.000195955076282
4.97903666736e-05
-0.000220282936618
2.56690747394e-05
-1.46635612667e-05
-1.51411757276e-05
0.000141155783487
-2.95579867275e-05
0.00012651345611
-4.37900464788e-05
0.000119361565368
-5.85184689068e-05
0.000116797645899
-7.35640951069e-05
0.0001155348917
-8.93403990649e-05
0.000114551018827
-0.000106149477974
0.000113029084194
-0.000124139676626
0.000110718389937
-0.000143752072979
0.000107107216257
-0.000166125206645
0.000101498611712
-0.00019219228051
9.32194393713e-05
-0.000222968558487
8.05679433047e-05
-0.000259580481039
6.22822463034e-05
3.44613014001e-05
-1.51886443016e-05
0.000156344616236
-2.96945056068e-05
0.000141019523457
-4.42476290979e-05
0.000133914913231
-5.91365606635e-05
0.000131686778396
-7.47555308498e-05
0.000131154116196
-9.11583083094e-05
0.00013095418961
-0.000108819810169
0.000130691129788
-0.000128138647028
0.000130037915499
-0.000149763954513
0.000128733341218
-0.000174915812889
0.000126651313905
-0.000205668687207
0.000123973183765
-0.000246107820421
0.000121008085262
-0.00030373757063
0.00011991295507
0.000122478266036
-1.49768156135e-05
0.000171321793065
-2.94678234004e-05
0.000155510900105
-4.40198131155e-05
0.000148467272679
-5.91175119891e-05
0.000146784823022
-7.48611365895e-05
0.000146898169521
-9.17397195196e-05
0.000147833209592
-0.000109699646322
0.000148651519719
-0.00012964435478
0.00014998316256
-0.000152070370852
0.000151160055183
-0.000177673416479
0.000152255165002
-0.000208002882638
0.000154303348279
-0.000244406709912
0.000157412715986
-0.000288514562234
0.000164021503853
0.000174080741514
-1.46113667063e-05
-2.88510893513e-05
-4.33448897205e-05
-5.8296938013e-05
-7.40485393743e-05
-9.06959848522e-05
-0.000108901837898
-0.000128665040046
-0.000150742360919
0.00017323810673
-0.000176036145162
0.000177549597259
-0.000204907851214
0.000183176050668
-0.000238290524176
0.0001907962811
-0.00027649336916
0.000202225073448
0.000216747769829
-0.000146653112136
-0.000170614898963
-0.000197515016559
-0.000227292450012
0.000220574834181
-0.000260158573816
0.000235092687118
0.000253503292935
-0.000217710297708
-0.000251491943959
0.000292339331621
)
;

boundaryField
{
    back
    {
        type            calculated;
        value           uniform 0;
    }
    sides
    {
        type            calculated;
        value           nonuniform List<scalar> 0();
    }
    bottom
    {
        type            calculated;
        value           uniform 0;
    }
    front
    {
        type            calculated;
        value           uniform 0;
    }
    atmosphere
    {
        type            calculated;
        value           nonuniform List<scalar> 0();
    }
    floatingObject
    {
        type            calculated;
        value           uniform 0;
    }
    procBoundary8to3
    {
        type            processor;
        value           nonuniform List<scalar> 8(-2.73493684096e-05 -2.19442860122e-05 -1.86279743232e-05 -1.60524095243e-05 -1.16094582374e-05 -4.18046884871e-06 2.91819636374e-05 7.0594768657e-05);
    }
    procBoundary8to6
    {
        type            processor;
        value           nonuniform List<scalar> 
16
(
-0.000284087857934
-6.0754495034e-05
-2.71174503611e-05
-2.37955341832e-05
-5.42809069144e-05
-9.85874143203e-05
-0.000143084197607
-0.000190344233678
-0.000245900243411
-0.000308704112369
-0.000391753792108
-0.000340116398328
-0.000319159588109
-0.000296913010378
-0.000290326613519
-0.00024050622984
)
;
    }
    procBoundary8to7
    {
        type            processor;
        value           nonuniform List<scalar> 
17
(
0.000185933611567
0.000169751076971
0.000162961510012
0.000161737301655
0.000162650146915
0.000164481066741
0.000166857868877
0.000169746993804
0.000125293410769
0.000194599133318
0.000201512547229
0.000210077325892
0.000187941217514
0.000250346134851
0.00026887591436
0.000217023446868
0.000315824309737
)
;
    }
}


// ************************************************************************* //
