/*--------------------------------*- C++ -*----------------------------------*\
| =========                 |                                                 |
| \\      /  F ield         | OpenFOAM: The Open Source CFD Toolbox           |
|  \\    /   O peration     | Version:  v2012                                 |
|   \\  /    A nd           | Website:  www.openfoam.com                      |
|    \\/     M anipulation  |                                                 |
\*---------------------------------------------------------------------------*/
FoamFile
{
    version     2.0;
    format      ascii;
    class       volScalarField;
    location    "2";
    object      epsilon;
}
// * * * * * * * * * * * * * * * * * * * * * * * * * * * * * * * * * * * * * //

dimensions      [0 2 -3 0 0 0 0];


internalField   nonuniform List<scalar> 
164
(
0.00494844141677
0.0051448218112
0.00563711343541
0.00583662681712
0.00592035588379
0.00593418607165
0.00582562887917
0.00544108234146
0.0062846133152
0.00615639749143
0.00628562257689
0.00660738461569
0.00561746879446
0.00619900131683
0.00498766385238
0.00517544618519
0.00567013253832
0.00587442247458
0.00596937352295
0.00601890069056
0.00603169454619
0.00598898250837
0.00592834036362
0.0059870619454
0.00608508839095
0.00621113783445
0.00635627071564
0.00658333994695
0.00503211126767
0.00521354865466
0.00571033592334
0.00591685560117
0.00601595024705
0.00607773428997
0.00612678441336
0.00617024411419
0.00622313319319
0.00629805936958
0.00638633746284
0.0064844851337
0.00658722110794
0.00670935135575
0.00507958119292
0.00525684979238
0.00575528273151
0.0059620134522
0.00606117510943
0.00612432580937
0.00617910613191
0.00623565661002
0.00630001961339
0.00637376472401
0.00645462998622
0.0065404584357
0.00662922430721
0.00672841011202
0.00512777813381
0.00530274313408
0.00580233158434
0.00600760892522
0.00610466145938
0.00616551331456
0.00621797893808
0.00627237317366
0.00633292937407
0.00640038967814
0.00647373745965
0.00655165536031
0.00663370168952
0.00672496903359
0.00517478575703
0.00534885701675
0.00584909907873
0.00605177537714
0.00614551481194
0.0062029089363
0.00625157814607
0.00630169167652
0.00635691281845
0.00641811892406
0.00648482429712
0.00655623505542
0.00663273203668
0.00671946354025
0.00521928538537
0.00539347115585
0.00589386895991
0.00609313925419
0.00618290542004
0.00623646729375
0.00628123676713
0.00632711351497
0.00637753316824
0.00643338679717
0.0064944770029
0.00656044902277
0.00663253346168
0.0067182458262
0.00526047631344
0.0054354228026
0.00593549430672
0.00613084121706
0.00621628940869
0.00626594345628
0.00630702369508
0.00634910351091
0.0063953461331
0.00644666249192
0.0065031464544
0.00656492649775
0.00663451545897
0.00672684463062
0.00529807597407
0.00547405927749
0.00597337319637
0.00616440366371
0.0062454730416
0.00629135174872
0.00632898979588
0.00636764258865
0.00641026214354
0.00645771856968
0.00651034358725
0.00656889703444
0.00663786776959
0.00674868266533
0.00533152625963
0.00550893127024
0.0060070905614
0.0061937184277
0.00627045859177
0.00631279361409
0.00634732261635
0.00638290591045
0.00642232543059
0.00646636830059
0.00651546062718
0.00657052562957
0.00663572324639
0.00673273216703
0.0053610435516
0.005539939943
0.00603664706076
0.00621880218661
0.00629140626617
0.00633044582335
0.00636218883932
0.00639504896587
0.00643161041187
0.00647266922819
0.00651869502361
0.00657097123845
0.00663560890815
0.00674220382292
0.00643826245029
0.00647664015064
0.00652000084076
0.00657031045623
0.00663841360325
0.00678335307419
0.00656850761613
0.00664379117784
0.00685538724187
0.00676783396831
)
;

boundaryField
{
    back
    {
        lowReCorrection 0;
        blending        stepwise;
        n               2;
        type            epsilonWallFunction;
        value           nonuniform List<scalar> 
164
(
0.00494844141677
0.0051448218112
0.00563711343541
0.00583662681712
0.00592035588379
0.00593418607165
0.00582562887917
0.00544108234146
0.0062846133152
0.00615639749143
0.00628562257689
0.00660738461569
0.00561746879446
0.00619900131683
0.00498766385238
0.00517544618519
0.00567013253832
0.00587442247458
0.00596937352295
0.00601890069056
0.00603169454619
0.00598898250837
0.00592834036362
0.0059870619454
0.00608508839095
0.00621113783445
0.00635627071564
0.00658333994695
0.00503211126767
0.00521354865466
0.00571033592334
0.00591685560117
0.00601595024705
0.00607773428997
0.00612678441336
0.00617024411419
0.00622313319319
0.00629805936958
0.00638633746284
0.0064844851337
0.00658722110794
0.00670935135575
0.00507958119292
0.00525684979238
0.00575528273151
0.0059620134522
0.00606117510943
0.00612432580937
0.00617910613191
0.00623565661002
0.00630001961339
0.00637376472401
0.00645462998622
0.0065404584357
0.00662922430721
0.00672841011202
0.00512777813381
0.00530274313408
0.00580233158434
0.00600760892522
0.00610466145938
0.00616551331456
0.00621797893808
0.00627237317366
0.00633292937407
0.00640038967814
0.00647373745965
0.00655165536031
0.00663370168952
0.00672496903359
0.00517478575703
0.00534885701675
0.00584909907873
0.00605177537714
0.00614551481194
0.0062029089363
0.00625157814607
0.00630169167652
0.00635691281845
0.00641811892406
0.00648482429712
0.00655623505542
0.00663273203668
0.00671946354025
0.00521928538537
0.00539347115585
0.00589386895991
0.00609313925419
0.00618290542004
0.00623646729375
0.00628123676713
0.00632711351497
0.00637753316824
0.00643338679717
0.0064944770029
0.00656044902277
0.00663253346168
0.0067182458262
0.00526047631344
0.0054354228026
0.00593549430672
0.00613084121706
0.00621628940869
0.00626594345628
0.00630702369508
0.00634910351091
0.0063953461331
0.00644666249192
0.0065031464544
0.00656492649775
0.00663451545897
0.00672684463062
0.00529807597407
0.00547405927749
0.00597337319637
0.00616440366371
0.0062454730416
0.00629135174872
0.00632898979588
0.00636764258865
0.00641026214354
0.00645771856968
0.00651034358725
0.00656889703444
0.00663786776959
0.00674868266533
0.00533152625963
0.00550893127024
0.0060070905614
0.0061937184277
0.00627045859177
0.00631279361409
0.00634732261635
0.00638290591045
0.00642232543059
0.00646636830059
0.00651546062718
0.00657052562957
0.00663572324639
0.00673273216703
0.0053610435516
0.005539939943
0.00603664706076
0.00621880218661
0.00629140626617
0.00633044582335
0.00636218883932
0.00639504896587
0.00643161041187
0.00647266922819
0.00651869502361
0.00657097123845
0.00663560890815
0.00674220382292
0.00643826245029
0.00647664015064
0.00652000084076
0.00657031045623
0.00663841360325
0.00678335307419
0.00656850761613
0.00664379117784
0.00685538724187
0.00676783396831
)
;
    }
    sides
    {
        lowReCorrection 0;
        blending        stepwise;
        n               2;
        type            epsilonWallFunction;
        value           nonuniform List<scalar> 0();
    }
    bottom
    {
        lowReCorrection 0;
        blending        stepwise;
        n               2;
        type            epsilonWallFunction;
        value           nonuniform List<scalar> 
11
(
0.00494844141677
0.00498766385238
0.00503211126767
0.00507958119292
0.00512777813381
0.00517478575703
0.00521928538537
0.00526047631344
0.00529807597407
0.00533152625963
0.0053610435516
)
;
    }
    front
    {
        lowReCorrection 0;
        blending        stepwise;
        n               2;
        type            epsilonWallFunction;
        value           nonuniform List<scalar> 
164
(
0.00494844141677
0.0051448218112
0.00563711343541
0.00583662681712
0.00592035588379
0.00593418607165
0.00582562887917
0.00544108234146
0.0062846133152
0.00615639749143
0.00628562257689
0.00660738461569
0.00561746879446
0.00619900131683
0.00498766385238
0.00517544618519
0.00567013253832
0.00587442247458
0.00596937352295
0.00601890069056
0.00603169454619
0.00598898250837
0.00592834036362
0.0059870619454
0.00608508839095
0.00621113783445
0.00635627071564
0.00658333994695
0.00503211126767
0.00521354865466
0.00571033592334
0.00591685560117
0.00601595024705
0.00607773428997
0.00612678441336
0.00617024411419
0.00622313319319
0.00629805936958
0.00638633746284
0.0064844851337
0.00658722110794
0.00670935135575
0.00507958119292
0.00525684979238
0.00575528273151
0.0059620134522
0.00606117510943
0.00612432580937
0.00617910613191
0.00623565661002
0.00630001961339
0.00637376472401
0.00645462998622
0.0065404584357
0.00662922430721
0.00672841011202
0.00512777813381
0.00530274313408
0.00580233158434
0.00600760892522
0.00610466145938
0.00616551331456
0.00621797893808
0.00627237317366
0.00633292937407
0.00640038967814
0.00647373745965
0.00655165536031
0.00663370168952
0.00672496903359
0.00517478575703
0.00534885701675
0.00584909907873
0.00605177537714
0.00614551481194
0.0062029089363
0.00625157814607
0.00630169167652
0.00635691281845
0.00641811892406
0.00648482429712
0.00655623505542
0.00663273203668
0.00671946354025
0.00521928538537
0.00539347115585
0.00589386895991
0.00609313925419
0.00618290542004
0.00623646729375
0.00628123676713
0.00632711351497
0.00637753316824
0.00643338679717
0.0064944770029
0.00656044902277
0.00663253346168
0.0067182458262
0.00526047631344
0.0054354228026
0.00593549430672
0.00613084121706
0.00621628940869
0.00626594345628
0.00630702369508
0.00634910351091
0.0063953461331
0.00644666249192
0.0065031464544
0.00656492649775
0.00663451545897
0.00672684463062
0.00529807597407
0.00547405927749
0.00597337319637
0.00616440366371
0.0062454730416
0.00629135174872
0.00632898979588
0.00636764258865
0.00641026214354
0.00645771856968
0.00651034358725
0.00656889703444
0.00663786776959
0.00674868266533
0.00533152625963
0.00550893127024
0.0060070905614
0.0061937184277
0.00627045859177
0.00631279361409
0.00634732261635
0.00638290591045
0.00642232543059
0.00646636830059
0.00651546062718
0.00657052562957
0.00663572324639
0.00673273216703
0.0053610435516
0.005539939943
0.00603664706076
0.00621880218661
0.00629140626617
0.00633044582335
0.00636218883932
0.00639504896587
0.00643161041187
0.00647266922819
0.00651869502361
0.00657097123845
0.00663560890815
0.00674220382292
0.00643826245029
0.00647664015064
0.00652000084076
0.00657031045623
0.00663841360325
0.00678335307419
0.00656850761613
0.00664379117784
0.00685538724187
0.00676783396831
)
;
    }
    atmosphere
    {
        type            inletOutlet;
        inletValue      nonuniform List<scalar> 0();
        value           nonuniform List<scalar> 0();
    }
    floatingObject
    {
        lowReCorrection 0;
        blending        stepwise;
        n               2;
        type            epsilonWallFunction;
        value           nonuniform List<scalar> 4(0.0062846133152 0.00615639749143 0.00628562257689 0.00660738461569);
    }
    procBoundary8to3
    {
        type            processor;
        value           nonuniform List<scalar> 8(0.00491774197878 0.00512381955731 0.00561386093822 0.00580620854232 0.00587181019389 0.00582948762086 0.0055408013165 0.00580639499417);
    }
    procBoundary8to6
    {
        type            processor;
        value           nonuniform List<scalar> 
16
(
0.00629394488812
0.0058129425047
0.0065590771872
0.00677349432589
0.0068467581366
0.0068527223141
0.00685145102091
0.00685702024752
0.00688157853425
0.00696650362504
0.0071747789908
0.0069993851573
0.00705191783001
0.00731918164859
0.00777058952705
0.0072735743543
)
;
    }
    procBoundary8to7
    {
        type            processor;
        value           nonuniform List<scalar> 
17
(
0.00538657296274
0.00556711370005
0.00606206175248
0.00623983864719
0.00630854497094
0.00634459092005
0.00637380871406
0.00640424546168
0.00640424546168
0.00644239728393
0.00647832850293
0.00651933522648
0.00651933522648
0.00656122040171
0.00662578304238
0.00662578304238
0.00674651548894
)
;
    }
}


// ************************************************************************* //
