/*--------------------------------*- C++ -*----------------------------------*\
| =========                 |                                                 |
| \\      /  F ield         | OpenFOAM: The Open Source CFD Toolbox           |
|  \\    /   O peration     | Version:  v2012                                 |
|   \\  /    A nd           | Website:  www.openfoam.com                      |
|    \\/     M anipulation  |                                                 |
\*---------------------------------------------------------------------------*/
FoamFile
{
    version     2.0;
    format      ascii;
    class       volScalarField;
    location    "1.6";
    object      alpha.water;
}
// * * * * * * * * * * * * * * * * * * * * * * * * * * * * * * * * * * * * * //

dimensions      [0 0 0 0 0 0 0];


internalField   nonuniform List<scalar> 
166
(
1.00000061808
1.00000027161
1.00000010785
0.999999810388
0.999999481634
0.999999117507
0.999999075137
0.999999656583
0.999999690383
0.995672346729
0.503659051555
9.02457707746e-10
-1.08468374468e-27
1.00000073575
1.00000053814
1.00000047251
1.00000035288
1.00000026845
1.00000011501
0.999999905991
0.999999662543
0.999999419023
0.99999970073
0.999999735609
0.998985745607
0.558462523935
0.00027775292601
0
1.00000043504
1.00000047144
1.00000067519
1.00000052849
1.00000039436
1.00000035192
1.00000031937
1.00000027691
1.00000020303
1.00000005875
0.9999998872
0.999999695952
0.999999722855
0.999999778122
0.999999735617
0.599090752425
0.0103596120266
-5.64487906771e-48
1.00000040042
1.00000044101
1.00000056901
1.0000005248
1.00000051047
1.00000038419
1.00000031161
1.00000029746
1.00000029403
1.00000028055
1.00000024738
1.00000016407
1.00000000014
0.999999809051
0.999999789122
0.999999796891
0.999999778126
0.637591930761
0.0195956595274
-6.93863312723e-33
1.00000033579
1.00000037479
1.00000048224
1.00000042482
1.00000038367
1.00000030792
1.00000027842
1.00000028183
1.00000029303
1.00000030073
1.00000029733
1.00000025513
1.00000013252
0.999999908177
0.999999812664
0.999999816085
0.999999790559
0.671647378401
0.0295839202676
-8.31473042414e-32
1.00000028099
1.00000031281
1.00000037745
1.00000033764
1.00000030473
1.00000027031
1.00000026486
1.00000028053
1.00000030356
1.00000033
1.00000035011
1.00000033773
1.00000024512
0.99999999778
0.999999839849
0.999999841586
0.999999802753
0.701754815904
0.0397000502044
-8.54416305208e-31
1.00000025536
1.00000027687
1.00000030648
1.00000028308
1.00000026409
1.00000025211
1.00000026046
1.00000028625
1.00000032122
1.00000036526
1.00000040609
1.00000041815
1.00000035038
1.00000010387
0.999999859657
0.999999861505
0.999999803024
0.727786102817
0.0491136143788
-7.93559613703e-30
1.00000026012
1.00000027078
1.00000027829
1.00000026124
1.00000024837
1.00000024549
1.00000026336
1.00000030437
1.00000034908
1.00000041001
1.00000047329
1.00000051041
1.00000046832
1.00000023608
0.999999898191
0.999999900304
0.999999819817
0.749423514893
0.0569097634152
0
1.00000027672
1.00000027664
1.00000026867
1.00000024832
1.00000023264
1.00000023193
1.00000026526
1.00000031228
1.00000037746
1.0000004523
1.00000053761
1.0000006028
1.00000059029
1.00000037357
0.999999977661
0.999999979738
0.99999987796
0.766568751139
0.0625127500245
0
)
;

boundaryField
{
    back
    {
        type            zeroGradient;
    }
    sides
    {
        type            zeroGradient;
    }
    bottom
    {
        type            zeroGradient;
    }
    front
    {
        type            zeroGradient;
    }
    atmosphere
    {
        type            inletOutlet;
        inletValue      uniform 0;
        value           nonuniform List<scalar> 9(-1.08468374468e-27 0 0 0 0 0 0 0 0);
    }
    floatingObject
    {
        type            zeroGradient;
    }
    procBoundary0to1
    {
        type            processor;
        value           nonuniform List<scalar> 10(0.999999792714 0.999999544475 0.999999316708 0.999999075141 0.999999604988 0.999999651031 0.990929945061 0.4515124688 1.54447188689e-10 2.3769261972e-14);
    }
    procBoundary0to2
    {
        type            processor;
        value           nonuniform List<scalar> 
14
(
1.00000033646
1.00000025638
1.00000001464
1.000000499
1.00000049183
1.00000049183
1.00000036515
1.00000038669
1.00000056369
1.00000056369
1.00000051549
1.00000051549
1.00000051528
1.00000051528
)
;
    }
    procBoundary0to4
    {
        type            processor;
        value           nonuniform List<scalar> 8(1.00000030904 1.00000029982 1.00000028301 1.00000025851 1.00000023717 1.00000024062 1.00000027957 1.00000034909);
    }
    procBoundary0to5
    {
        type            processor;
        value           nonuniform List<scalar> 
12
(
1.00000048134
1.00000052073
1.00000062064
1.00000070922
1.00000072211
1.00000050523
0.999999987663
0.999999990884
0.999999872008
0.779500281749
0.0659995298608
-3.76410017161e-25
)
;
    }
}


// ************************************************************************* //
