/*--------------------------------*- C++ -*----------------------------------*\
| =========                 |                                                 |
| \\      /  F ield         | OpenFOAM: The Open Source CFD Toolbox           |
|  \\    /   O peration     | Version:  v2012                                 |
|   \\  /    A nd           | Website:  www.openfoam.com                      |
|    \\/     M anipulation  |                                                 |
\*---------------------------------------------------------------------------*/
FoamFile
{
    version     2.0;
    format      ascii;
    class       surfaceVectorField;
    location    "5.5";
    object      ddtCorrDdt0(Uf);
}
// * * * * * * * * * * * * * * * * * * * * * * * * * * * * * * * * * * * * * //

dimensions      [0 1 -2 0 0 0 0];


internalField   nonuniform List<vector> 
300
(
(0.112098877718 -0.00379089143805 9.75840377466e-24)
(0.113869361769 -0.00181768466465 3.19829899908e-23)
(0.112603830109 -0.00737611649234 3.05094513852e-24)
(0.114049399636 -0.00525668493787 -2.38299872754e-25)
(0.113533930525 -0.011178652247 -1.22971797842e-23)
(0.114898596265 -0.00878636527953 -2.0570655619e-25)
(0.114813150962 -0.0151008437859 -2.35474680786e-23)
(0.116086260758 -0.0124667710435 -3.37429137306e-23)
(0.116414421114 -0.0191890653017 -7.96748429522e-24)
(0.117605592399 -0.0162875084598 -1.51853669904e-23)
(0.118346448923 -0.0234814835716 -3.84307674297e-25)
(0.11948267205 -0.0203013240055 -3.72792549136e-24)
(0.120595484274 -0.0280170358613 1.98737485572e-24)
(0.121704625388 -0.0245500799624 1.25449992737e-24)
(0.12313481712 -0.0328297693766 5.15537867473e-24)
(0.124247960193 -0.0290752224263 3.7045734292e-24)
(0.125930046898 -0.037951639105 5.06679522199e-24)
(0.127081258462 -0.033915083479 5.76749544047e-24)
(0.128935860327 -0.0434123823804 -1.37691676362e-23)
(0.130165617809 -0.0391105460745 -3.03881640843e-24)
(0.132087318226 -0.0492579966794 -2.57027185597e-23)
(0.133455843215 -0.0446872644168 -3.16121008924e-23)
(0.135267558517 -0.0555395054628 -1.88987605499e-22)
(0.136877617843 -0.0507339722896 -3.31118081991e-23)
(0.13835828156 -0.0623916201837 -4.24155979681e-22)
(0.14032236128 -0.057347824016 -3.27814097115e-22)
(0.141023218623 -0.0698502006511 -2.71513134248e-23)
(0.143670089045 -0.0646346639219 -3.61789346219e-22)
(0.142461984054 -0.078581185051 -7.21428286398e-22)
(0.146641757096 -0.0729805756908 1.04806042119e-22)
(0.141954417348 -0.0905223353093 -2.19938150816e-21)
(0.148812971817 -0.0836065109007 -1.76146674628e-21)
(0.148034737446 -0.108635377942 -4.39464012468e-22)
(0.15027447026 -0.0954786044534 -9.45900657435e-22)
(0.284817742517 -0.127257828145 -2.33949178007e-21)
(0.165168517557 -0.0827582620825 -4.44114045428e-22)
(0.399328427596 -0.228465371744 -1.79983391144e-22)
(0.467935733369 -0.13551751206 9.8451920784e-23)
(0.380986933067 -0.290977654557 -3.09514851911e-21)
(0.11561190772 -0.00331302912978 2.19862863434e-23)
(0.117194764317 -0.00159934741056 3.50889308671e-23)
(0.116149491262 -0.00661865605381 -3.49495156747e-24)
(0.117370864137 -0.00462329547672 -1.69651368888e-23)
(0.117229715345 -0.010030197239 -2.16514405025e-23)
(0.118329544646 -0.00777384752799 -1.63101966478e-23)
(0.118664172646 -0.0135769563254 -2.53808126424e-23)
(0.119656408065 -0.0110509951524 -2.92394280365e-23)
(0.120464088019 -0.0173030724462 -1.09458081866e-23)
(0.121359178145 -0.0144810743834 -1.54529090455e-23)
(0.122636271428 -0.021252901617 -2.08911788969e-24)
(0.123463410196 -0.0181198353616 -4.58828860538e-24)
(0.125163914785 -0.0254715222898 2.97169850085e-24)
(0.125956326534 -0.0220150612864 -1.09961007516e-24)
(0.128019188919 -0.0300033904507 4.31669019494e-24)
(0.12881336484 -0.0262144646866 4.34928889121e-24)
(0.131166918882 -0.0348967301744 -2.33811618995e-24)
(0.132006824265 -0.0307697216075 4.52263251469e-24)
(0.134568328831 -0.0401964448221 -2.08817496646e-23)
(0.13549495951 -0.0357318655131 -7.08892216925e-24)
(0.138164456377 -0.045960979543 -3.90211905318e-23)
(0.139246862227 -0.0411445160936 -3.25775049044e-23)
(0.1418938257 -0.0522420164972 -1.71938299815e-22)
(0.143182567008 -0.0470919032587 -7.19250850089e-23)
(0.145702783366 -0.0592156316803 -2.65447463653e-22)
(0.14731876267 -0.0536830135271 -3.06932555784e-22)
(0.149478494865 -0.0671714635672 -2.29831990675e-22)
(0.151650601419 -0.0610924954217 -3.08120422322e-22)
(0.153041906147 -0.07665220852 -9.35232417764e-22)
(0.156147559954 -0.069611756236 -6.84371549156e-22)
(0.156480198721 -0.0886360109941 -5.07985895555e-22)
(0.160816859505 -0.0799579422113 -1.34209610146e-21)
(0.167349185833 -0.104673921617 -9.50550690395e-22)
(0.166321196599 -0.0889403922444 4.56562700305e-21)
(0.346932323842 -0.128653866092 1.99382965542e-21)
(0.189143960874 -0.0765752113245 -1.83761174069e-21)
(0.444257364698 -0.238174308851 -2.81671320718e-21)
(0.577246556226 -0.132917788689 2.82797527206e-20)
(0.405164907001 -0.242835647246 1.06551848201e-20)
(0.11872103814 -0.0028594896173 -3.86249236506e-24)
(0.120069636366 -0.00137423682011 3.01900221774e-23)
(0.119319014571 -0.00575533283339 -2.97803819691e-23)
(0.120285189463 -0.00392994250354 -2.19786601921e-23)
(0.120521891237 -0.00874277655373 -2.38981841818e-23)
(0.121338538663 -0.0066383024295 -1.53500541352e-23)
(0.12212211149 -0.0118745504802 -1.93115244396e-23)
(0.122813028808 -0.00947234971893 -1.9010081907e-23)
(0.12413372691 -0.0151953659916 -9.09538946432e-24)
(0.124708063181 -0.012466763165 -1.65462373975e-23)
(0.126563571334 -0.018756697821 -3.59878079085e-24)
(0.127055285875 -0.0156844201569 -1.86965764067e-24)
(0.129395205041 -0.0226085106342 2.77980315203e-25)
(0.129839760388 -0.0191781056406 -5.39207562564e-25)
(0.132604626424 -0.0268038465618 4.55523121097e-24)
(0.133039706464 -0.0229960824732 1.47081564389e-24)
(0.136155899965 -0.0314038584808 -2.28173464605e-25)
(0.136635451818 -0.0272034125957 6.69052742501e-24)
(0.140011373524 -0.0364594674078 -1.8784677409e-23)
(0.140575619361 -0.031863474151 -2.7414364448e-24)
(0.144130485957 -0.0420241209719 -6.54813993815e-23)
(0.144832531096 -0.0370281228931 -3.6262545681e-23)
(0.148493748122 -0.0482118533575 -2.06919340978e-22)
(0.149388012534 -0.0427773748167 -1.01545338757e-22)
(0.153127948655 -0.0551224866126 -3.49605514454e-22)
(0.154245222298 -0.0491885911043 -3.62473784738e-22)
(0.158031842219 -0.0629372582536 -7.62659980803e-22)
(0.159481531983 -0.056435357843 -3.95712383405e-22)
(0.163133418609 -0.0718472637601 -1.09123523285e-21)
(0.165073366392 -0.0644707326412 -7.01677109773e-22)
(0.16861645357 -0.0818214745348 3.73151679714e-21)
(0.170803172065 -0.0741125271151 -1.2169013021e-21)
(0.185516505248 -0.0926949629804 3.67856595275e-21)
(0.177199751392 -0.0820646084465 8.87531995128e-21)
(0.407239775903 -0.113074277181 2.44483113245e-20)
(0.209518527244 -0.0728649439494 -1.95740325459e-22)
(0.507639995785 -0.198922567454 4.17516507478e-20)
(0.66322942164 -0.11703540779 4.15713729489e-20)
(0.390638119034 -0.204911982395 2.43622418879e-20)
(0.121377358239 -0.00237244882941 1.20738543504e-23)
(0.122459302429 -0.00112815721405 3.78502446914e-23)
(0.122046122716 -0.00479579823667 -7.54833235822e-24)
(0.122728417612 -0.00316865038183 1.8650086124e-23)
(0.123371899224 -0.00731406774234 -1.04619518605e-23)
(0.123879285977 -0.00538134761456 1.14368353019e-23)
(0.125146143268 -0.0099806681177 -1.62447948649e-23)
(0.125504784834 -0.00772289534354 1.34714831306e-24)
(0.127382605762 -0.0128472641822 -9.32050557386e-24)
(0.127602376657 -0.0102333610956 -6.63347862356e-24)
(0.130088642997 -0.0159723530934 1.18991558762e-24)
(0.130209932011 -0.0129794944388 -7.48435636077e-24)
(0.133249185913 -0.0194081304526 6.5362776612e-25)
(0.133305378053 -0.016019857257 -4.99050410841e-24)
(0.136842237833 -0.0232184372746 3.60611185794e-24)
(0.136878563963 -0.0194070013611 3.07544186247e-24)
(0.140838152887 -0.0274508402533 4.17726444482e-24)
(0.140893212979 -0.0232103111107 -5.48063748027e-24)
(0.145197921078 -0.0321889402965 -2.02193047168e-23)
(0.145334936541 -0.0275059678494 -1.14169479303e-23)
(0.149899554514 -0.0374919418692 -7.23264850561e-23)
(0.150152056389 -0.0323423542117 -5.13437366285e-23)
(0.154940051809 -0.0434399412677 -2.57099782517e-22)
(0.155348848581 -0.0377989062865 -1.36028383488e-22)
(0.160357667697 -0.0501101216039 -4.0858065369e-22)
(0.160925870899 -0.0439014796956 -4.43173935308e-22)
(0.166177784145 -0.0575783324678 -3.34729512375e-22)
(0.166959942658 -0.0508759641621 -1.36506265592e-22)
(0.172156032187 -0.0659045748105 -8.27343179028e-22)
(0.173409197 -0.0582887877221 5.11345324355e-22)
(0.17841533277 -0.0748143360672 3.92690185204e-21)
(0.179720269848 -0.0673961886622 -1.54234791104e-21)
(0.199521938028 -0.0841668962926 5.00101367308e-21)
(0.186555477185 -0.074602444345 1.29040285192e-20)
(0.460566803662 -0.0986153753303 1.6927321299e-20)
(0.223964642951 -0.0691974889585 3.54500074915e-21)
(0.549191229421 -0.176048194771 2.4181964089e-20)
(0.740635141972 -0.100394718688 2.46537566265e-20)
(0.386841839909 -0.202722660707 3.23603942252e-21)
(0.123529182194 -0.00183844913268 4.4426476465e-23)
(0.124315198682 -0.000859295223335 6.41396398258e-23)
(0.124277082509 -0.00373707942144 3.76352537841e-23)
(0.124646759834 -0.0023346737063 5.8632624787e-23)
(0.125729972776 -0.00573450201741 2.32459354754e-23)
(0.12589859485 -0.00399856867058 4.76462805018e-23)
(0.127688761201 -0.00788806497257 1.09584645544e-23)
(0.127682216149 -0.00579236134389 1.87690537158e-23)
(0.130161680993 -0.010250701436 -4.79732941047e-24)
(0.129990967498 -0.007767090171 6.5953714876e-24)
(0.133158505905 -0.0128846562919 -1.36647760568e-23)
(0.132871341564 -0.00998836358076 -1.21596466663e-23)
(0.136673246983 -0.0158518386884 -2.56869001206e-24)
(0.136299979885 -0.0125169761339 -8.56971551628e-24)
(0.140679999144 -0.0192140447341 -6.01130747574e-24)
(0.140266596174 -0.0154213850222 5.663534189e-24)
(0.145152213506 -0.0230447737801 -2.10748498554e-23)
(0.144746240121 -0.0187684487644 -1.46344350103e-23)
(0.150062391433 -0.0274033047876 -4.2541379842e-23)
(0.149711318298 -0.0226327415347 -1.87626654217e-23)
(0.155375439835 -0.0323683084192 -1.15045635061e-22)
(0.155129925916 -0.0270742391517 -3.95318634392e-23)
(0.161086034816 -0.0379801893136 -3.2210253628e-22)
(0.160969663305 -0.0321753122195 -1.2911990847e-22)
(0.167241405778 -0.0442899313249 -1.7109954721e-22)
(0.167241946253 -0.0378979524073 -3.41039773041e-22)
(0.173851421101 -0.0512968819984 7.09568571138e-22)
(0.173972951249 -0.0445678731226 2.07570206031e-23)
(0.180484824575 -0.0590545338497 -2.03659407658e-22)
(0.181172429372 -0.0513829714442 1.11242189123e-21)
(0.186955916083 -0.0671915318192 7.43477875617e-21)
(0.187861849721 -0.0600410500967 -2.39778022058e-21)
(0.209093700337 -0.0747923531577 1.14480155953e-20)
(0.194158787692 -0.0667852988095 7.0843779778e-21)
(0.510182418442 -0.0826832029414 1.12714360767e-20)
(0.231850666407 -0.0649424522999 4.54251856439e-21)
(0.585934101195 -0.187333519839 3.70783196007e-21)
(0.845132205525 -0.0865844078592 1.59257168637e-20)
(0.364911522812 -0.203580764022 3.48754802539e-21)
(0.125124980049 -0.00126158878132 7.83457881478e-23)
(0.125593230902 -0.00056587543543 8.41656619336e-23)
(0.125956923739 -0.00257847809155 6.86436515047e-23)
(0.12598203716 -0.00142215441242 6.50237934762e-23)
(0.127541909848 -0.00399989893314 4.31693987422e-23)
(0.127339853989 -0.00248175657691 5.80673963782e-23)
(0.129690893812 -0.00558122644507 1.4405960649e-23)
(0.129286704359 -0.00367250888251 9.27644484778e-24)
(0.132414029165 -0.00738942372796 -7.66945768185e-25)
(0.131824138274 -0.00505143284442 1.25150496816e-23)
(0.13572089026 -0.00947690741466 -7.06458612574e-24)
(0.134986174706 -0.00668666669561 -1.3948604149e-23)
(0.139607580554 -0.0119163928058 -3.37491315223e-25)
(0.138766353988 -0.00863997650525 -2.17544550237e-24)
(0.144054911825 -0.0147744656243 -2.95959334561e-24)
(0.143150763028 -0.0109900653936 9.16043900437e-24)
(0.149039412342 -0.0181268150561 -1.23222505767e-23)
(0.148120060803 -0.0138075941277 1.81359957009e-24)
(0.154529606605 -0.0220525328908 -1.57531490189e-23)
(0.153653681405 -0.0171760298596 -1.33799020805e-23)
(0.16048168804 -0.0266100633002 -5.36061368486e-23)
(0.159695261629 -0.0211664219144 1.43853240271e-24)
(0.166887939667 -0.0318581728831 -1.48057145231e-22)
(0.166226738342 -0.0258681925422 -9.22571141864e-23)
(0.173746181086 -0.0378346526749 -1.49183205227e-22)
(0.173224840045 -0.0312109854886 -2.26079040498e-22)
(0.181009512876 -0.0444810655275 4.23610340698e-22)
(0.180624703868 -0.0375908262259 -3.66026004251e-22)
(0.188194308349 -0.0516247459832 -1.08169892169e-21)
(0.188320457856 -0.0438670784983 6.46218069733e-23)
(0.194682507748 -0.0591855909559 -2.74818099895e-21)
(0.195426680519 -0.0523931592228 -3.66780467322e-21)
(0.216578343675 -0.0667497273832 1.78880946872e-22)
(0.201725837136 -0.0594940707832 -5.9495258149e-22)
(0.563304269125 -0.0761168727939 9.19679935146e-21)
(0.241211036082 -0.0616366591347 1.73761270839e-21)
(0.614105541377 -0.191194519893 1.57054329291e-20)
(0.960056718219 -0.0782081825427 2.04217349089e-20)
(0.307754310967 -0.171952805984 -9.57505380187e-21)
(0.126116250615 -0.000624538705579 7.0843667262e-23)
(0.126232669236 -0.000241589365294 5.14312990658e-23)
(0.127030826891 -0.00131032449767 5.44475383498e-23)
(0.126684974891 -0.000425640384918 4.26479829526e-23)
(0.128750957826 -0.00209745370512 2.41744424838e-23)
(0.128151447269 -0.000825754741552 2.49082917848e-23)
(0.1310928813 -0.00305029548181 7.3855338804e-24)
(0.130261425753 -0.00135742609271 -9.48629052473e-24)
(0.13407612457 -0.00423121373951 -6.66608699264e-25)
(0.133032810475 -0.0020756478265 -4.88139574839e-25)
(0.137711648077 -0.00570391944384 -9.05946352565e-24)
(0.136485796868 -0.00305521842318 -1.20995879421e-23)
(0.141991412793 -0.00753841024382 7.32248481722e-24)
(0.140632446358 -0.00436368825347 -1.58154928628e-24)
(0.146907089502 -0.00982032614051 1.39336319201e-23)
(0.145458315167 -0.00607968184874 9.13616757467e-24)
(0.152437260573 -0.0126298826986 7.55948066277e-25)
(0.150953933946 -0.00828790829256 -4.83872451902e-24)
(0.158544215608 -0.0160465156248 3.81177934114e-24)
(0.15707931349 -0.0110867022559 -2.1655232127e-23)
(0.165184031009 -0.0201526563056 -3.72124449351e-23)
(0.163823219291 -0.0145617708217 -1.906279026e-24)
(0.172339185027 -0.0250092644029 -1.70279009453e-22)
(0.171087458079 -0.0188133981061 -1.3820256794e-22)
(0.179905415465 -0.0306719772412 -4.42921839522e-22)
(0.178894075455 -0.0238109989887 -3.65555441444e-22)
(0.187754591273 -0.0369969913316 -7.25014537976e-22)
(0.186952097989 -0.0299336041618 -1.05523629959e-21)
(0.19546008346 -0.0438660522851 -2.52148394456e-21)
(0.195196634673 -0.0358561997872 -1.51879549095e-21)
(0.202305272418 -0.0512080753765 -1.51457625576e-21)
(0.202772160034 -0.044842987292 -1.46748662874e-21)
(0.226256497865 -0.0591806931635 9.63779180031e-22)
(0.209702483463 -0.0521915444499 1.09301187018e-21)
(0.622444544989 -0.0722438533079 1.29625482659e-20)
(0.254265623874 -0.0591001877814 3.53774352104e-22)
(0.63013711672 -0.177222328628 -4.85875182199e-21)
(1.06492864698 -0.0537950795339 2.39849178813e-20)
(0.20822362163 0.00245679233139 -4.38855452232e-21)
(0.12644273412 6.9274082116e-05 2.32356147563e-23)
(0.12618069645 0.000112018420751 -1.48066962884e-23)
(0.127444706916 7.3104593672e-05 1.31087363876e-23)
(0.126705856055 0.000652945312165 1.28067648886e-23)
(0.129299318765 -2.74064368822e-05 -8.75244122378e-24)
(0.128269505203 0.000967534578075 -6.20244644765e-24)
(0.131839291284 -0.000286742078535 -1.735996398e-23)
(0.135084858779 -0.000776587049159 -1.19211188177e-23)
(0.139053470133 -0.0015603781073 -4.62167370272e-24)
(0.143746696492 -0.00271693851692 2.32133471163e-25)
(0.149157094314 -0.00432563070207 -9.63618886442e-24)
(0.155264591366 -0.00649969355322 -2.72499047123e-23)
(0.162043445031 -0.00932105115478 -2.73732904942e-23)
(0.169452791839 -0.0129118054237 -1.02896402031e-22)
(0.177432981851 -0.0173618684075 -3.33478999931e-22)
(0.185793098167 -0.0227275074914 -9.77869901514e-22)
(0.194358193647 -0.0289366394692 -1.84901725256e-21)
(0.202517640268 -0.0360057903322 -4.64798175133e-22)
(0.209559698005 -0.0433983536162 1.1401014972e-21)
(0.234843976063 -0.0495541772122 4.83007042253e-22)
(0.646096644125 -0.0524800924462 1.13761439675e-20)
(0.586898200057 0.0219136128344 2.4455115181e-20)
(0.126055158367 0.00081289366877 -2.52355461562e-23)
(0.125389487505 0.000489372780064 -4.68145647801e-23)
(0.127140945831 0.00156017344567 -6.50441794667e-24)
(0.123809677233 0.000891557355381 4.07740669355e-23)
(0.12137023827 0.00132072918691 4.88595774683e-23)
)
;

boundaryField
{
    back
    {
        type            calculated;
        value           uniform (0 0 0);
    }
    sides
    {
        type            calculated;
        value           nonuniform List<vector> 0();
    }
    bottom
    {
        type            calculated;
        value           uniform (0 0 0);
    }
    front
    {
        type            calculated;
        value           uniform (0 0 0);
    }
    atmosphere
    {
        type            calculated;
        value           nonuniform List<vector> 8((0.928824161043 -0.245037050696 4.16807527313e-20) (0.37521139609 -0.262186892359 4.28882086931e-20) (0.175788175374 -0.184478406156 4.19156646615e-20) (0.260774455638 -0.172210158357 5.63900262399e-20) (-0.123440022888 -0.165248927789 -1.84338211105e-20) (-0.0341778543578 -0.133866118527 -6.00475578581e-21) (-0.0405469747839 -0.0775457839468 -8.97691080376e-21) (0.0106110444623 0.186986058817 4.000466667e-22));
    }
    floatingObject
    {
        type            calculated;
        value           nonuniform List<vector> 0();
    }
    procBoundary9to6
    {
        type            processor;
        value           nonuniform List<vector> 4((0.132124547566 -0.102568941495 5.58388867571e-21) (0.146542224241 -0.0939272562372 3.37886484227e-21) (0.366813162294 -0.125843582217 -3.44476117953e-20) (0.36422967636 -0.342086298931 -3.76568386878e-20));
    }
    procBoundary9to7
    {
        type            processor;
        value           nonuniform List<vector> 
16
(
(0.110066645682 -0.00208822332076 1.26629777939e-23)
(0.110447770184 -0.00585776979878 -1.43246207733e-23)
(0.111074066705 -0.00964836724398 3.09165186849e-24)
(0.112135280712 -0.0137306297572 -3.02727907673e-23)
(0.113480821866 -0.0178996747622 -8.1952239793e-24)
(0.11514648492 -0.0222463177769 -1.90450317675e-24)
(0.117119266775 -0.0268081779183 4.70396694715e-24)
(0.119381617937 -0.0316168812097 3.08772191632e-24)
(0.121903919476 -0.0367001590934 9.14655590523e-24)
(0.124648959037 -0.0420832712929 1.24600935405e-23)
(0.127554504183 -0.0477739028961 -1.94912120165e-23)
(0.130539629369 -0.0538194231209 -1.05613145301e-23)
(0.133411134384 -0.0603251466928 -2.59972593331e-22)
(0.136143694039 -0.067134859356 -3.44182126899e-22)
(0.137836517463 -0.0740872536784 6.67643144532e-22)
(0.136795963933 -0.0831151362825 -1.63680136045e-21)
)
;
    }
    procBoundary9to10
    {
        type            processor;
        value           nonuniform List<vector> 
15
(
(0.130546864399 0.00115671860705 -3.2711672577e-23)
(0.133546278318 0.00116457059672 -1.26116821799e-23)
(0.13730047207 0.000912080579087 -1.39031816452e-25)
(0.14181572105 0.000327518164314 -1.68980957902e-24)
(0.147096822881 -0.000672853318873 -8.81020529226e-24)
(0.153145266006 -0.00218864559097 -3.39634114798e-23)
(0.159931191605 -0.00432644065944 -2.65662592669e-23)
(0.167411914129 -0.00719760428236 -1.4334407646e-23)
(0.125972324713 0.00180937974517 4.23139975376e-23)
(0.129130229089 0.00220727668134 -3.01616778008e-23)
(0.127643341327 0.00289669475621 -2.26711954026e-24)
(0.124901399678 0.00160032336137 2.07349789137e-23)
(0.122923821522 0.00243478309196 6.58550654031e-23)
(0.120074241073 0.003324338619 1.69950198591e-23)
(0.118062917992 0.00176770403195 -6.96446526879e-25)
)
;
    }
    procBoundary9to11
    {
        type            processor;
        value           nonuniform List<vector> 9((0.175562251797 -0.0109297916131 -1.85421765074e-22) (0.184264177016 -0.0155808488677 -4.88112030316e-22) (0.193170783403 -0.0214485919456 -1.3384888968e-21) (0.202270204676 -0.0275267726494 -8.4563419145e-22) (0.210172690583 -0.0377565231316 1.80027711931e-22) (0.215862657862 -0.0459971402087 -2.20513691116e-21) (0.257180592389 -0.0591904709263 2.14602187799e-22) (0.990457379722 0.045988611062 2.27733766434e-20) (0.0432579418046 0.834832919117 9.23998856025e-20));
    }
}


// ************************************************************************* //
