/*--------------------------------*- C++ -*----------------------------------*\
| =========                 |                                                 |
| \\      /  F ield         | OpenFOAM: The Open Source CFD Toolbox           |
|  \\    /   O peration     | Version:  v2012                                 |
|   \\  /    A nd           | Website:  www.openfoam.com                      |
|    \\/     M anipulation  |                                                 |
\*---------------------------------------------------------------------------*/
FoamFile
{
    version     2.0;
    format      ascii;
    class       volVectorField;
    location    "0.2";
    object      ddt0(rho,U);
}
// * * * * * * * * * * * * * * * * * * * * * * * * * * * * * * * * * * * * * //

dimensions      [1 -2 -2 0 0 0 0];


internalField   nonuniform List<vector> 
167
(
(-94.6764692025 -76.1135031389 7.84461840447e-22)
(-93.3817279058 -83.7052310646 -1.41328216533e-21)
(-91.6671015725 -91.4023232675 -3.10376152243e-21)
(-89.4821515907 -99.1567821636 -2.54705532203e-20)
(-86.7788932039 -106.911481559 1.63957398211e-20)
(-83.5186321604 -114.61281559 3.4988812588e-19)
(-79.6698441945 -122.251251928 1.17198499222e-18)
(-73.3013565379 -125.512040454 2.05162797516e-19)
(-38.2921304688 -95.5058190871 2.18319355677e-18)
(-85.9131280728 -82.1530870821 -1.09771987186e-20)
(-84.1485525678 -89.4294445995 1.20416780756e-20)
(-81.9644156691 -96.7195079319 -2.81595196487e-20)
(-79.3229021965 -103.969980733 5.3264817089e-20)
(-76.1922979353 -111.13246959 7.00616250448e-19)
(-72.5395657122 -118.210931102 5.95574808449e-19)
(-66.6183558148 -121.284363599 6.4664277058e-19)
(-35.1024455018 -94.9512730497 5.7091985891e-19)
(-78.8247668298 -80.5549951631 -9.70007372941e-21)
(-77.0535782456 -87.4548103359 -7.52044377392e-21)
(-74.9075682637 -94.3316531287 -1.29796923125e-20)
(-72.356922139 -101.137803923 1.20178815914e-20)
(-69.3763888829 -107.829015898 2.65700147359e-19)
(-65.9321402298 -114.419549358 8.42578719509e-19)
(-60.4484490319 -117.332343434 -8.27740447315e-20)
(-32.0971703329 -94.136095069 -1.95874764584e-18)
(-73.5218344225 -72.3663994953 -2.55470844819e-22)
(-72.0783991969 -78.9477618218 4.32330576584e-21)
(-70.3338052304 -85.5132744488 1.27859495955e-20)
(-68.2557249396 -92.0232801689 -5.401542417e-21)
(-65.8200220701 -98.4377756983 -1.47243491441e-20)
(-63.0060871089 -104.716211619 1.86102703197e-19)
(-59.7802505643 -110.880747911 1.76014080533e-19)
(-54.724070132 -113.654678995 1.09062043117e-18)
(-29.2570069065 -93.1368107012 3.30636502487e-19)
(-67.0557914061 -71.0582455547 1.55215799158e-21)
(-65.6373967015 -77.3677453717 2.71890353244e-21)
(-63.9472982245 -83.633033765 1.31921621477e-20)
(-61.9612592708 -89.81823188 1.54312049363e-20)
(-59.6595642661 -95.8876933224 4.30005127003e-20)
(-57.0250496896 -101.804353593 2.0036658043e-19)
(-54.0248960849 -107.596531424 6.79106670155e-19)
(-49.3864579319 -110.249536708 6.93563882511e-19)
(-26.5642280267 -92.0168522657 4.32783419336e-19)
(-60.8377933819 -69.7737803593 3.41340693006e-21)
(-59.4682059898 -75.8399726838 6.0330769002e-21)
(-57.8560279777 -81.8379498199 1.99198838287e-21)
(-55.9816964368 -87.7358664378 -2.04104903856e-20)
(-53.82926671 -93.5016362727 1.65969342213e-20)
(-51.3842091618 -99.1012940746 2.08102138188e-19)
(-48.6151721562 -104.567901399 8.37868865612e-19)
(-44.3852558039 -107.114935991 -2.33627997116e-19)
(-24.0030073621 -90.8289363275 -1.88116799322e-19)
(-55.9465338959 -62.6253836855 2.76601249052e-21)
(-54.8416967245 -68.5369461808 -5.18403564882e-21)
(-53.5415418717 -74.3865991698 1.58523842316e-21)
(-52.0260219694 -80.1472524898 5.22138401367e-21)
(-50.2792334024 -85.7917635207 4.05061496815e-22)
(-48.2883240501 -91.2908083617 3.76313856426e-20)
(-46.040650585 -96.6130903052 4.93164319745e-19)
(-43.5069275633 -101.795290975 1.03335570688e-18)
(-39.6770256896 -104.248851605 -1.36424950203e-18)
(-21.5592372127 -89.6169151481 -1.21502888357e-18)
(-50.964846085 -55.8384599567 9.46709237734e-21)
(-50.0834960516 -61.6330610475 1.46808896898e-21)
(-49.0444333792 -67.3693395712 3.48971520457e-21)
(-47.8301996773 -73.0248597827 3.44637033815e-21)
(-46.4263809654 -78.5763063029 1.5261383069e-20)
(-44.8199444449 -83.9984520651 3.96695053716e-21)
(-43.0004334799 -89.2641940259 4.4161080716e-20)
(-40.9565597598 -94.3445588777 3.81346054359e-19)
(-38.6615631908 -99.2788344795 1.04108956711e-18)
(-35.2241548887 -101.649418756 2.5562394436e-19)
(-19.2204701891 -88.4171647519 -2.82498730146e-19)
(-45.2029725778 -55.0532157331 1.95121975824e-21)
(-44.3839114679 -60.705468552 -3.84173597726e-22)
(-43.4228623899 -66.2841784343 -1.23572051667e-21)
(-42.3083845849 -71.7690920409 5.58507510162e-21)
(-41.0286143252 -77.1376255565 4.74636174519e-21)
(-39.5729243382 -82.3661164599 4.38059279492e-21)
(-37.9329184498 -87.4291401455 1.20552356509e-20)
(-36.0981583341 -92.2997097711 4.37363541219e-20)
(-34.0451179428 -97.0187770291 9.16084086598e-19)
(-30.9940672379 -99.3151849126 2.39689831801e-19)
(-16.9760471539 -87.2596397737 -4.68625285675e-19)
(-38.8252934148 -59.8535107544 5.82580239784e-21)
(-37.9550775146 -65.2943698892 4.53640207366e-21)
(-36.9518237133 -70.6311417326 2.4910739818e-21)
(-35.8061461685 -75.8414633552 3.53840556907e-21)
(-34.5096543121 -80.9031111775 1.08123260579e-20)
(-33.0558223419 -85.7918028942 5.3926215989e-20)
(-31.4349033009 -90.482223424 2.60592256463e-19)
(-29.6274150021 -95.0159764736 4.16049065387e-19)
(-26.9586472973 -97.2456427609 -8.82978098726e-19)
(-14.8175814611 -86.1686903494 2.17414714944e-19)
(-33.3900650069 -59.0895538346 4.78709976969e-21)
(-32.6206220693 -64.4112287276 -2.33021990078e-21)
(-31.7376053145 -69.6206786089 6.3721961454e-22)
(-30.7339442023 -74.6960871305 1.14330776432e-20)
(-29.6033226083 -79.6162528546 7.36268318224e-21)
(-28.3411282233 -84.3575304232 -1.88615397249e-20)
(-26.9385967917 -88.895861273 9.22095656747e-20)
(-25.3808549876 -93.2728791617 4.4278922849e-19)
(-23.0939605523 -95.4424927561 5.39841297388e-19)
(-12.7403275316 -85.1640366328 1.45935183306e-18)
(-28.0615755795 -58.4209358512 2.89968041576e-21)
(-27.3999042087 -63.6423889943 -2.50168675272e-22)
(-26.6438798508 -68.7449841227 2.34633554874e-21)
(-25.7881445364 -73.7078543402 3.2208281995e-21)
(-24.8282812279 -78.5109110272 2.86330160084e-21)
(-23.7618348824 -83.1310421498 1.98670647555e-20)
(-22.5817775603 -87.5449196061 1.8739468454e-19)
(-21.2776978885 -91.7952558492 6.2275485806e-19)
(-19.3797109405 -93.9121391824 5.81676584086e-19)
(-10.7453105466 -84.2625110504 4.82355243779e-19)
(-22.8226845783 -57.8551861499 4.13086042831e-21)
(-22.2747672229 -62.9941326829 3.60765243138e-21)
(-21.6507416312 -68.0095692285 4.38620683514e-21)
(-20.9468374851 -72.8813326912 4.30577804693e-21)
(-20.1604374218 -77.5908228877 6.26985033749e-21)
(-19.2916522657 -82.1158960197 3.80734010721e-20)
(-18.3364368984 -86.4338301507 2.07994471964e-19)
(-17.2879827253 -90.5926159385 7.25051350367e-19)
(-15.7922491049 -92.6703657346 -2.03250270896e-19)
(-8.8354254449 -83.4798053833 3.68703364197e-19)
(-17.6559140178 -57.3970546917 3.23119860459e-20)
(-17.226203282 -62.471338399 2.97514319535e-20)
(-16.7375940953 -67.4180397114 4.31422843943e-21)
(-16.1875085625 -72.2187764314 1.41338126317e-20)
(-15.5746799905 -76.8570463021 5.68468692757e-20)
(-14.9016991234 -81.3129450612 1.22451779715e-19)
(-14.1687708268 -85.5644879499 7.31370616558e-20)
(-13.3687694703 -89.6771970993 3.14648589091e-19)
(-12.295188671 -91.7424658653 3.54122146149e-19)
(-7.02352503233 -82.8413667362 7.39419236265e-20)
(-12.7436615616 -51.9038914872 -4.96063201804e-20)
(-12.4774823653 -57.0434417558 3.49138726005e-20)
(-12.1730285529 -62.0692817038 7.58528727178e-20)
(-11.8265628978 -66.9641034787 3.77198796306e-20)
(-11.4357589533 -71.7115847009 4.60272592739e-21)
(-10.9993653213 -76.2979962773 1.31278406888e-19)
(-10.5209738312 -80.7077380506 2.84613571637e-19)
(-10.0104118085 -84.9200874922 1.73541709786e-19)
(-9.51001726004 -89.0550608656 4.92068765767e-19)
(-9.19628716626 -91.1353049923 -7.37534289227e-20)
(-5.98098994814 -82.3566577882 1.3585603562e-19)
(-7.4863961551 -51.5933789493 -3.17108263212e-19)
(-7.33453154542 -56.6939728128 9.14770287217e-20)
(-7.15933860138 -61.6789608612 -1.92399453913e-20)
(-6.9581948959 -66.5312367075 -6.44393104893e-20)
(-6.72730298329 -71.2351125973 -8.37043218652e-20)
(-6.45947275223 -75.7798241759 1.00173879197e-19)
(-6.13868987467 -80.1618307881 1.18969266797e-19)
(-5.72643155698 -84.4182169506 1.98342600881e-19)
(-5.13454093097 -88.9747027882 6.46472681234e-19)
(-4.28598445708 -91.5453154714 -1.27424705143e-18)
(-2.30103278461 -82.0840325143 2.5096820525e-18)
(-3.01046931232 -50.5054063535 1.37231427229e-19)
(-2.93429414042 -55.5039022845 6.08533585484e-20)
(-2.84779260636 -60.3895986015 4.69055093976e-19)
(-2.74958672074 -65.144522625 7.03424934506e-20)
(-2.63685499492 -69.7485134443 6.38259081899e-19)
(-2.50239331718 -74.1768233364 4.89777366644e-19)
(-2.32620474396 -78.3922706467 5.70217703261e-19)
(-2.05776928517 -82.303708258 7.38513716506e-19)
(-1.57699534685 -85.6871139795 6.83063524684e-19)
(-1.37858719825 -86.9076580091 -5.25223999773e-18)
(-9.60762177184 -82.0948234536 1.81884102683e-19)
)
;

boundaryField
{
    back
    {
        type            calculated;
        value           uniform (0 0 0);
    }
    sides
    {
        type            calculated;
        value           uniform (0 0 0);
    }
    bottom
    {
        type            calculated;
        value           nonuniform List<vector> 0();
    }
    front
    {
        type            calculated;
        value           uniform (0 0 0);
    }
    atmosphere
    {
        type            calculated;
        value           nonuniform List<vector> 
17
(
(0 -0.141266157173 0)
(0 -0.135702349805 0)
(0 -0.130589949105 0)
(0 -0.125902225622 0)
(0 -0.121616720272 0)
(0 -0.117714423843 0)
(0 -0.114179119094 0)
(0 -0.110996775141 0)
(0 -0.10815500527 0)
(0 -0.105642588127 0)
(0 -0.103449405319 0)
(0 -0.101567341748 0)
(0 -0.0999913159348 0)
(0 -0.0987305680663 0)
(0 -0.097789251251 0)
(0 -0.0971059144706 0)
(0 -0.0971647416248 0)
)
;
    }
    floatingObject
    {
        type            calculated;
        value           nonuniform List<vector> 0();
    }
    procBoundary11to9
    {
        type            processor;
        value           nonuniform List<vector> 9((-102.412210176 -77.1598186551 6.3922360241e-21) (-101.266208993 -85.1611508404 6.11866702122e-21) (-99.6568994834 -93.3275762371 8.16532161339e-22) (-97.5188107155 -101.607048481 3.61566672433e-20) (-94.7929935068 -109.935645451 9.48067852633e-20) (-91.4307855729 -118.25414071 1.60776381095e-19) (-87.4044686108 -126.535860276 5.52010325248e-19) (-80.5798749534 -130.015073641 -2.73554570677e-19) (-41.6888017371 -95.704965525 9.91647069201e-19));
    }
    procBoundary11to10
    {
        type            processor;
        value           nonuniform List<vector> 
23
(
(-95.6085341291 -68.6598938043 1.44676839062e-21)
(-87.2998315703 -74.934311741 5.88577728252e-21)
(-87.2998315703 -74.934311741 5.88577728252e-21)
(-80.2597620872 -73.6709737399 -4.77107817744e-22)
(-80.2597620872 -73.6709737399 -4.77107817744e-22)
(-74.6919844911 -65.7934872273 2.53817385651e-21)
(-68.2307333405 -64.7280624609 1.6296554474e-21)
(-61.9901547001 -63.6643489237 -4.67012193893e-22)
(-61.9901547001 -63.6643489237 -4.67012193893e-22)
(-56.8736148365 -56.670252482 -3.97343197465e-21)
(-56.8736148365 -56.670252482 -3.97343197465e-21)
(-51.7010707993 -49.9979590462 -1.43922844902e-22)
(-45.8945897281 -49.3418653905 -3.81595612036e-22)
(-39.5714948483 -54.3282766437 2.11395481247e-21)
(-39.5714948483 -54.3282766437 2.11395481247e-21)
(-34.0536042944 -53.6731754403 4.99950133624e-21)
(-28.6348214631 -53.0974407099 -1.01555260596e-21)
(-23.2994624601 -52.60837076 3.42604388181e-21)
(-18.0317482077 -52.2114982931 2.65429668426e-20)
(-18.0317482077 -52.2114982931 2.65429668426e-20)
(-12.973028568 -46.6643974214 1.876477861e-20)
(-7.61745212949 -46.3909426359 1.67429692004e-19)
(-3.07756329634 -45.4083709012 2.49461316411e-19)
)
;
    }
}


// ************************************************************************* //
