/*--------------------------------*- C++ -*----------------------------------*\
| =========                 |                                                 |
| \\      /  F ield         | OpenFOAM: The Open Source CFD Toolbox           |
|  \\    /   O peration     | Version:  v2012                                 |
|   \\  /    A nd           | Website:  www.openfoam.com                      |
|    \\/     M anipulation  |                                                 |
\*---------------------------------------------------------------------------*/
FoamFile
{
    version     2.0;
    format      ascii;
    class       volVectorField;
    location    "0.2";
    object      ddtCorrDdt0(U);
}
// * * * * * * * * * * * * * * * * * * * * * * * * * * * * * * * * * * * * * //

dimensions      [0 1 -2 0 0 0 0];


internalField   nonuniform List<vector> 
167
(
(-0.094847161432 -0.0762507159452 7.85872240244e-25)
(-0.0935500933895 -0.0838561388039 -1.41582917876e-24)
(-0.0918323848874 -0.0915671204298 -3.10935988746e-24)
(-0.0896435025153 -0.0993355722828 -2.55164808022e-23)
(-0.0869353787977 -0.107104272219 1.64253055353e-23)
(-0.0836692431484 -0.114819505461 3.50519074564e-22)
(-0.0798135140632 -0.122471716454 1.1740984464e-21)
(-0.0734335436257 -0.125738392684 2.05533192233e-22)
(-0.0474545438828 -0.141266157173 3.08397489989e-21)
(-0.0860680300747 -0.0823012007275 -1.0996992155e-23)
(-0.0843002869794 -0.0895906979524 1.2063391189e-23)
(-0.082112216606 -0.0968939147973 -2.82102978544e-23)
(-0.0794659442157 -0.104157471032 5.33608666398e-23)
(-0.0763296966851 -0.111332882053 7.01879667263e-22)
(-0.0726703769332 -0.118424108246 5.96648941611e-22)
(-0.0667384903464 -0.12150308877 6.47809415358e-22)
(-0.0428788272149 -0.135702349805 1.23659291107e-21)
(-0.0789668922838 -0.0807002339237 -9.71756456828e-24)
(-0.0771925207212 -0.0876125060229 -7.53400471656e-24)
(-0.0750426452924 -0.0945017566669 -1.30030979403e-23)
(-0.0724874030351 -0.101320188095 1.20395519608e-23)
(-0.0695014965502 -0.108023471189 2.66179280679e-22)
(-0.0660510365057 -0.11462589 8.44098191845e-22)
(-0.0605574571245 -0.117543940934 -8.2923115518e-23)
(-0.0387053068532 -0.130589949105 -2.10033760396e-21)
(-0.0736543903929 -0.072496864914 -2.55935866852e-25)
(-0.0722083674927 -0.0790901137974 4.33110138227e-24)
(-0.0704606316482 -0.0856674711208 1.28090051503e-23)
(-0.0683788074856 -0.0921892220696 -5.41128276839e-24)
(-0.0659387151889 -0.0986152911328 -1.47509015801e-23)
(-0.0631197070059 -0.104905052866 1.86438299985e-22)
(-0.0598880528329 -0.111080705696 1.76331531045e-22)
(-0.0548227549734 -0.113859642357 1.09258718588e-21)
(-0.0348758931009 -0.125902225622 6.80844675459e-22)
(-0.0671766938356 -0.0711863594007 1.55495581752e-24)
(-0.0657557515008 -0.0775072495821 2.72380621201e-24)
(-0.0640626085828 -0.0837838403589 1.32159502686e-23)
(-0.0620729912776 -0.0899801974558 1.54590313269e-23)
(-0.059767147855 -0.0960606089985 4.3078054779e-23)
(-0.0571278835274 -0.101987942376 2.00727900234e-22)
(-0.0541223193198 -0.107790565027 6.80331309044e-22)
(-0.0494755169675 -0.110448357128 6.94814801787e-22)
(-0.0313416125246 -0.121616720272 5.48826762177e-22)
(-0.0609474872518 -0.0698995825682 3.41956250202e-24)
(-0.0595754369274 -0.075976722595 6.04395645431e-24)
(-0.0579603544587 -0.0819855195085 1.99558018252e-24)
(-0.0560826453227 -0.0878940759383 -2.04472955633e-23)
(-0.0539263360727 -0.0936702476615 1.66268626269e-23)
(-0.0514768701704 -0.0992800060376 2.08477404115e-22)
(-0.0487028396073 -0.104756471562 8.39379784729e-22)
(-0.0444652956611 -0.107308101071 -2.34049132837e-22)
(-0.0280612919027 -0.117714423843 -2.63856286004e-22)
(-0.0560474044737 -0.0627382924164 2.77100211492e-24)
(-0.0549405837317 -0.0686605256316 -5.19338417753e-24)
(-0.0536380863052 -0.0745207290176 1.58809766841e-24)
(-0.0521198355003 -0.0802917730932 5.23079885051e-24)
(-0.0503698989243 -0.085946466305 4.05792052745e-25)
(-0.0483754009113 -0.0914554311127 3.76992445811e-23)
(-0.046123675026 -0.0967873132326 4.94053631662e-22)
(-0.0435853829116 -0.101978859249 1.03521918682e-21)
(-0.0397485747742 -0.104436845708 -1.36670932876e-21)
(-0.0250000950339 -0.114179119094 -1.82955660641e-21)
(-0.0510567344824 -0.0559391327665 9.4841640027e-24)
(-0.050173803039 -0.061744191933 1.4707362726e-24)
(-0.0491328677947 -0.0674908149673 3.49600713715e-24)
(-0.0479164457703 -0.0731565346605 3.45258479854e-24)
(-0.0465100970505 -0.0787179939109 1.52889023256e-23)
(-0.044900765163 -0.084149920048 3.97410391096e-24)
(-0.0430779743415 -0.0894251606114 4.42407143694e-23)
(-0.041030415637 -0.0945146890414 3.82033722651e-22)
(-0.0387312805662 -0.0994578629081 1.04296693776e-21)
(-0.0352876737873 -0.101832722986 2.56085053197e-22)
(-0.0221285035585 -0.110996775141 -3.33651458962e-22)
(-0.0452844781479 -0.0551524810825 1.95473692281e-24)
(-0.0444639414225 -0.060814927108 -3.84866710152e-25)
(-0.0435011605805 -0.0664036978296 -1.23794940848e-24)
(-0.0423846740034 -0.0718985029068 5.59514600524e-24)
(-0.0411025970543 -0.0772767187716 4.75492039681e-24)
(-0.0396442831507 -0.0825146400962 4.38849191675e-24)
(-0.0380013208685 -0.0875867962662 1.20769741334e-23)
(-0.0361632527265 -0.0924661506294 4.38152218599e-23)
(-0.0341065102439 -0.0971937281437 9.17736017299e-22)
(-0.0310499577787 -0.0994942777064 2.40122084281e-22)
(-0.01942172999 -0.10815500527 -6.45365532456e-22)
(-0.0388952993479 -0.0599614312593 5.83630679053e-24)
(-0.0380235166912 -0.0654121051432 4.54458167877e-24)
(-0.0370184544323 -0.0707585010541 2.49556583547e-24)
(-0.0358707116546 -0.0759782191511 3.54478573436e-24)
(-0.0345718827048 -0.0810489960632 1.0831823024e-23)
(-0.0331154297856 -0.0859465051513 5.40234580108e-23)
(-0.0314915882751 -0.0906453853155 2.61062169565e-22)
(-0.0296808407214 -0.0951873143804 4.16799307739e-22)
(-0.0270072606368 -0.0974210017958 -8.8457031951e-22)
(-0.0168597022604 -0.105642588127 2.5877244238e-22)
(-0.0334502712264 -0.0591960981034 4.79573143896e-24)
(-0.0326794425707 -0.0645273721279 -2.33442163195e-24)
(-0.0317948338946 -0.0697462160437 6.38368787299e-25)
(-0.0307893634469 -0.0748307774557 1.14536939383e-23)
(-0.0296567036021 -0.0797598165375 7.37595984362e-24)
(-0.0283922336999 -0.0845096452971 -1.88955516276e-23)
(-0.026987173514 -0.0890561611499 9.23758421073e-23)
(-0.0254266227868 -0.0934410720199 4.43587684501e-22)
(-0.0231356046443 -0.0956145985407 5.40814753491e-22)
(-0.0144281745924 -0.103449405319 1.6467559614e-21)
(-0.0281121743301 -0.0585262756265 2.90490898665e-24)
(-0.0274493109918 -0.0637571464421 -2.50620198472e-25)
(-0.0266919235561 -0.0688689426718 2.35056644203e-24)
(-0.0258346454471 -0.0738407624045 3.22663567301e-24)
(-0.0248730516691 -0.0786524809798 2.86846477327e-24)
(-0.0238046826524 -0.0832809444623 1.99028897967e-23)
(-0.0226224976914 -0.0877027822667 1.87732601713e-22)
(-0.021316066506 -0.0919607828246 6.23877829392e-22)
(-0.0194146571686 -0.0940814840174 5.82725437657e-22)
(-0.0121207962832 -0.101567341748 5.52404686808e-22)
(-0.0228638364527 -0.0579595045667 4.13830899124e-24)
(-0.0223149324833 -0.0631077212326 3.6141571788e-24)
(-0.0216897817619 -0.0681322015724 4.39411600265e-24)
(-0.0209846085331 -0.0730127501471 4.31354177087e-24)
(-0.0201967906501 -0.0777307330934 6.28115625755e-24)
(-0.0193264391802 -0.082263967026 3.81420562231e-23)
(-0.0183695017918 -0.086589690017 2.08369535115e-22)
(-0.0173191570416 -0.0907559751465 7.26358786895e-22)
(-0.0158207262994 -0.0928374717157 -2.03616844053e-22)
(-0.00993494483835 -0.0999913159348 4.3312359642e-22)
(-0.0176877501143 -0.0575005489032 3.23702512831e-23)
(-0.017257265082 -0.0625839841985 2.98050794682e-23)
(-0.0167677749199 -0.0675396053351 4.32200757963e-24)
(-0.0162166975683 -0.0723489987586 1.41592988268e-23)
(-0.0156027641149 -0.0769956328936 5.69493772002e-23)
(-0.0149285699131 -0.0814595673848 1.22672587995e-22)
(-0.0141943206052 -0.0857187817701 7.32689457594e-23)
(-0.0133928766487 -0.0898389071372 3.15215977854e-22)
(-0.0123173598935 -0.0919078996204 3.54760706969e-22)
(-0.00787659896593 -0.0987305680663 2.01764657766e-23)
(-0.0127666398106 -0.051997479396 -4.96957680151e-23)
(-0.0124999814063 -0.0571463003671 3.49768297988e-23)
(-0.0121949786114 -0.0621812025681 7.59896487248e-23)
(-0.0118478882253 -0.0670848503302 3.77878964576e-23)
(-0.0114563796519 -0.0718408921921 4.61102204851e-24)
(-0.0110191992129 -0.0764355742669 1.31515129493e-22)
(-0.0105399452333 -0.0808532685946 2.85126794198e-22)
(-0.0100284630419 -0.0850732192867 1.73854648153e-22)
(-0.00952716615918 -0.0892156490345 4.92956086728e-22)
(-0.00921287030824 -0.0912996437858 -7.38864432986e-23)
(-0.00672359158867 -0.097789251251 1.63583782388e-22)
(-0.00749989507144 -0.0516864077975 -3.17680061382e-22)
(-0.00734775694425 -0.0567962011254 9.1641975699e-23)
(-0.00717224809166 -0.0617901776879 -1.92746477675e-23)
(-0.00697074170436 -0.0666512028961 -6.45555157175e-23)
(-0.00673943347904 -0.071363560663 -8.38552564441e-23)
(-0.00647112036529 -0.0759164676627 1.00354517725e-22)
(-0.00614975913431 -0.0803063767286 1.19183787379e-22)
(-0.00573675772087 -0.0845704437492 1.98700261352e-22)
(-0.00514379977059 -0.0891351460518 6.47638430413e-22)
(-0.00429371312959 -0.0917103936061 -1.27654484927e-21)
(-0.00252607855455 -0.0971059144706 2.63225149099e-21)
(-0.00301589772953 -0.0505964762422 1.37478883064e-22)
(-0.00293958527971 -0.0556039869553 6.09630911489e-23)
(-0.00285292776672 -0.0604984931194 4.69900908097e-22)
(-0.00275454479714 -0.065261991174 7.04693371259e-23)
(-0.00264160980224 -0.0698742841065 6.39410010396e-22)
(-0.00250690567377 -0.0743105794678 4.90660549053e-22)
(-0.00233039941248 -0.078533628779 5.71245940928e-22)
(-0.00206147994908 -0.0824521220777 7.39845438295e-22)
(-0.00157983905716 -0.0858416289119 6.84295256147e-22)
(-0.00138107313026 -0.0870643738583 -5.26171108435e-21)
(-0.0110400837579 -0.0971647416248 2.31531484593e-22)
)
;

boundaryField
{
    back
    {
        type            calculated;
        value           uniform (0 0 0);
    }
    sides
    {
        type            calculated;
        value           uniform (0 0 0);
    }
    bottom
    {
        type            calculated;
        value           nonuniform List<vector> 0();
    }
    front
    {
        type            calculated;
        value           uniform (0 0 0);
    }
    atmosphere
    {
        type            calculated;
        value           nonuniform List<vector> 
17
(
(0 -0.141266157173 0)
(0 -0.135702349805 0)
(0 -0.130589949105 0)
(0 -0.125902225622 0)
(0 -0.121616720272 0)
(0 -0.117714423843 0)
(0 -0.114179119094 0)
(0 -0.110996775141 0)
(0 -0.10815500527 0)
(0 -0.105642588127 0)
(0 -0.103449405319 0)
(0 -0.101567341748 0)
(0 -0.0999913159348 0)
(0 -0.0987305680663 0)
(0 -0.097789251251 0)
(0 -0.0971059144706 0)
(0 -0.0971647416248 0)
)
;
    }
    floatingObject
    {
        type            calculated;
        value           nonuniform List<vector> 0();
    }
    procBoundary11to9
    {
        type            processor;
        value           nonuniform List<vector> 9((-0.102596858267 -0.0772989271667 6.40375415144e-24) (-0.101448799673 -0.085314694801 6.12969953574e-24) (-0.0998365925129 -0.0934958492446 8.180017943e-25) (-0.0976946564098 -0.101790262171 3.6221865331e-23) (-0.0949639289766 -0.110133886487 9.49777457887e-23) (-0.0915956634363 -0.118467394672 1.61066310414e-22) (-0.0875620859669 -0.126764050932 5.53005774168e-22) (-0.0807251875318 -0.130249546883 -2.74047632162e-22) (-0.0525038076376 -0.147311029814 1.30035936961e-21));
    }
    procBoundary11to10
    {
        type            processor;
        value           nonuniform List<vector> 
23
(
(-0.0957809048259 -0.0687836690062 1.44937941709e-24)
(-0.0874572257867 -0.0750694018307 5.89638696651e-24)
(-0.0874572257867 -0.0750694018307 5.89638696651e-24)
(-0.0804044738806 -0.073803800166 -4.77969060625e-25)
(-0.0804044738806 -0.073803800166 -4.77969060625e-25)
(-0.074826656954 -0.065912111248 2.54275042819e-24)
(-0.0683537598207 -0.064844770617 1.63259388169e-24)
(-0.0621019257687 -0.0637791355374 -4.67854164112e-25)
(-0.0621019257687 -0.0637791355374 -4.67854164112e-25)
(-0.0569761604923 -0.0567724292768 -3.98059809712e-24)
(-0.0569761604923 -0.0567724292768 -3.98059809712e-24)
(-0.0517942937721 -0.0500881101376 -1.44182952241e-25)
(-0.0459773423585 -0.0494308328771 -3.82284600423e-25)
(-0.0396428442341 -0.0544262317705 2.11776543522e-24)
(-0.0396428442341 -0.0544262317705 2.11776543522e-24)
(-0.03411500808 -0.053769955627 5.00851580707e-24)
(-0.0286864543714 -0.0531931828349 -1.01738432789e-24)
(-0.0233414755889 -0.0527032327591 3.43222160747e-24)
(-0.018064262043 -0.0523056426115 2.65908284183e-23)
(-0.018064262043 -0.0523056426115 2.65908284183e-23)
(-0.0129964209373 -0.0467485402255 1.87986116311e-23)
(-0.00763118775957 -0.0464745936131 1.67731593574e-22)
(-0.00308311275548 -0.0454902509935 2.49911150168e-22)
)
;
    }
}


// ************************************************************************* //
