/*--------------------------------*- C++ -*----------------------------------*\
| =========                 |                                                 |
| \\      /  F ield         | OpenFOAM: The Open Source CFD Toolbox           |
|  \\    /   O peration     | Version:  v2012                                 |
|   \\  /    A nd           | Website:  www.openfoam.com                      |
|    \\/     M anipulation  |                                                 |
\*---------------------------------------------------------------------------*/
FoamFile
{
    version     2.0;
    format      ascii;
    class       volScalarField;
    location    "0.2";
    object      epsilon_0;
}
// * * * * * * * * * * * * * * * * * * * * * * * * * * * * * * * * * * * * * //

dimensions      [0 2 -3 0 0 0 0];


internalField   nonuniform List<scalar> 
167
(
0.13657861896
0.136586432316
0.136593850259
0.136600780695
0.136608430776
0.136639053522
0.137007239303
0.141333745288
0.181986376242
0.136551269853
0.136558708008
0.136565637776
0.13657316262
0.136602224327
0.136955053294
0.141186791864
0.181793509672
0.136519034572
0.136526595035
0.136533611849
0.136541104324
0.136568868634
0.136908110938
0.141054013467
0.18161843701
0.13648128934
0.136489533559
0.13649729838
0.136504475042
0.136512012314
0.13653870449
0.136865932688
0.140934234077
0.181459832532
0.136454044347
0.136462602861
0.136470634801
0.136478030533
0.136485675662
0.136511488053
0.136828106987
0.140826437048
0.181316542196
0.136429160548
0.136438092802
0.136446445951
0.136454108737
0.136461912405
0.136487009613
0.136794281209
0.140729742901
0.181187559841
0.136396696231
0.136406519332
0.136415879185
0.136424597211
0.136432564355
0.136440566244
0.136465088883
0.136764153185
0.140643390105
0.181072007198
0.136364976967
0.136375676042
0.136386036767
0.136395860643
0.13640497578
0.136413274284
0.13642150369
0.136445571582
0.136737464296
0.140566719516
0.180969116978
0.136345366164
0.136356713916
0.136367641199
0.136377955756
0.136387489053
0.136396135591
0.136404611915
0.136428326525
0.136713994078
0.140499162063
0.180878218367
0.136339770143
0.136351283208
0.136362102583
0.136372063138
0.136381063713
0.136389796724
0.136413243225
0.136693556062
0.140440229641
0.180798723695
0.136324823254
0.136336932352
0.136348256397
0.13635864014
0.136367989637
0.136376979428
0.136400228966
0.136675993395
0.140389508978
0.18073011375
0.136311863934
0.13632455434
0.136336365436
0.136347154231
0.136356836028
0.136366073416
0.136389185663
0.136661156888
0.140346646399
0.180671910319
0.136300436031
0.136313674005
0.136325940052
0.136337105089
0.136347095482
0.136356567106
0.13637959821
0.136648504459
0.140310999258
0.180623485908
0.136282193543
0.136295966094
0.136308682828
0.136320230314
0.136330546573
0.136340286039
0.136363345209
0.136629987384
0.140274955178
0.180580861184
0.136116210355
0.136131786306
0.13614637842
0.136159869477
0.136172159664
0.136183197367
0.136193640257
0.136217269319
0.136483104375
0.14012077114
0.180483932825
0.134316315871
0.134334010378
0.134350787248
0.13436653869
0.134381172777
0.134394653264
0.134407669288
0.134433872539
0.134701602598
0.138373082749
0.179467370917
0.153857492249
0.153881123899
0.153903079137
0.1539232193
0.153941414444
0.15395755634
0.1539719764
0.153995191809
0.154250211283
0.158630320583
0.221193750968
)
;

boundaryField
{
    back
    {
        lowReCorrection 0;
        blending        stepwise;
        n               2;
        type            epsilonWallFunction;
        value           nonuniform List<scalar> 
167
(
0.13657861896
0.136586432316
0.136593850259
0.136600780695
0.136608430776
0.136639053522
0.137007239303
0.141333745288
0.181986376242
0.136551269853
0.136558708008
0.136565637776
0.13657316262
0.136602224327
0.136955053294
0.141186791864
0.181793509672
0.136519034572
0.136526595035
0.136533611849
0.136541104324
0.136568868634
0.136908110938
0.141054013467
0.18161843701
0.13648128934
0.136489533559
0.13649729838
0.136504475042
0.136512012314
0.13653870449
0.136865932688
0.140934234077
0.181459832532
0.136454044347
0.136462602861
0.136470634801
0.136478030533
0.136485675662
0.136511488053
0.136828106987
0.140826437048
0.181316542196
0.136429160548
0.136438092802
0.136446445951
0.136454108737
0.136461912405
0.136487009613
0.136794281209
0.140729742901
0.181187559841
0.136396696231
0.136406519332
0.136415879185
0.136424597211
0.136432564355
0.136440566244
0.136465088883
0.136764153185
0.140643390105
0.181072007198
0.136364976967
0.136375676042
0.136386036767
0.136395860643
0.13640497578
0.136413274284
0.13642150369
0.136445571582
0.136737464296
0.140566719516
0.180969116978
0.136345366164
0.136356713916
0.136367641199
0.136377955756
0.136387489053
0.136396135591
0.136404611915
0.136428326525
0.136713994078
0.140499162063
0.180878218367
0.136339770143
0.136351283208
0.136362102583
0.136372063138
0.136381063713
0.136389796724
0.136413243225
0.136693556062
0.140440229641
0.180798723695
0.136324823254
0.136336932352
0.136348256397
0.13635864014
0.136367989637
0.136376979428
0.136400228966
0.136675993395
0.140389508978
0.18073011375
0.136311863934
0.13632455434
0.136336365436
0.136347154231
0.136356836028
0.136366073416
0.136389185663
0.136661156888
0.140346646399
0.180671910319
0.136300436031
0.136313674005
0.136325940052
0.136337105089
0.136347095482
0.136356567106
0.13637959821
0.136648504459
0.140310999258
0.180623485908
0.136282193543
0.136295966094
0.136308682828
0.136320230314
0.136330546573
0.136340286039
0.136363345209
0.136629987384
0.140274955178
0.180580861184
0.136116210355
0.136131786306
0.13614637842
0.136159869477
0.136172159664
0.136183197367
0.136193640257
0.136217269319
0.136483104375
0.14012077114
0.180483932825
0.134316315871
0.134334010378
0.134350787248
0.13436653869
0.134381172777
0.134394653264
0.134407669288
0.134433872539
0.134701602598
0.138373082749
0.179467370917
0.153857492249
0.153881123899
0.153903079137
0.1539232193
0.153941414444
0.15395755634
0.1539719764
0.153995191809
0.154250211283
0.158630320583
0.221193750968
)
;
    }
    sides
    {
        lowReCorrection 0;
        blending        stepwise;
        n               2;
        type            epsilonWallFunction;
        value           nonuniform List<scalar> 
11
(
0.153857492249
0.153881123899
0.153903079137
0.1539232193
0.153941414444
0.15395755634
0.1539719764
0.153995191809
0.154250211283
0.158630320583
0.221193750968
)
;
    }
    bottom
    {
        lowReCorrection 0;
        blending        stepwise;
        n               2;
        type            epsilonWallFunction;
        value           nonuniform List<scalar> 0();
    }
    front
    {
        lowReCorrection 0;
        blending        stepwise;
        n               2;
        type            epsilonWallFunction;
        value           nonuniform List<scalar> 
167
(
0.13657861896
0.136586432316
0.136593850259
0.136600780695
0.136608430776
0.136639053522
0.137007239303
0.141333745288
0.181986376242
0.136551269853
0.136558708008
0.136565637776
0.13657316262
0.136602224327
0.136955053294
0.141186791864
0.181793509672
0.136519034572
0.136526595035
0.136533611849
0.136541104324
0.136568868634
0.136908110938
0.141054013467
0.18161843701
0.13648128934
0.136489533559
0.13649729838
0.136504475042
0.136512012314
0.13653870449
0.136865932688
0.140934234077
0.181459832532
0.136454044347
0.136462602861
0.136470634801
0.136478030533
0.136485675662
0.136511488053
0.136828106987
0.140826437048
0.181316542196
0.136429160548
0.136438092802
0.136446445951
0.136454108737
0.136461912405
0.136487009613
0.136794281209
0.140729742901
0.181187559841
0.136396696231
0.136406519332
0.136415879185
0.136424597211
0.136432564355
0.136440566244
0.136465088883
0.136764153185
0.140643390105
0.181072007198
0.136364976967
0.136375676042
0.136386036767
0.136395860643
0.13640497578
0.136413274284
0.13642150369
0.136445571582
0.136737464296
0.140566719516
0.180969116978
0.136345366164
0.136356713916
0.136367641199
0.136377955756
0.136387489053
0.136396135591
0.136404611915
0.136428326525
0.136713994078
0.140499162063
0.180878218367
0.136339770143
0.136351283208
0.136362102583
0.136372063138
0.136381063713
0.136389796724
0.136413243225
0.136693556062
0.140440229641
0.180798723695
0.136324823254
0.136336932352
0.136348256397
0.13635864014
0.136367989637
0.136376979428
0.136400228966
0.136675993395
0.140389508978
0.18073011375
0.136311863934
0.13632455434
0.136336365436
0.136347154231
0.136356836028
0.136366073416
0.136389185663
0.136661156888
0.140346646399
0.180671910319
0.136300436031
0.136313674005
0.136325940052
0.136337105089
0.136347095482
0.136356567106
0.13637959821
0.136648504459
0.140310999258
0.180623485908
0.136282193543
0.136295966094
0.136308682828
0.136320230314
0.136330546573
0.136340286039
0.136363345209
0.136629987384
0.140274955178
0.180580861184
0.136116210355
0.136131786306
0.13614637842
0.136159869477
0.136172159664
0.136183197367
0.136193640257
0.136217269319
0.136483104375
0.14012077114
0.180483932825
0.134316315871
0.134334010378
0.134350787248
0.13436653869
0.134381172777
0.134394653264
0.134407669288
0.134433872539
0.134701602598
0.138373082749
0.179467370917
0.153857492249
0.153881123899
0.153903079137
0.1539232193
0.153941414444
0.15395755634
0.1539719764
0.153995191809
0.154250211283
0.158630320583
0.221193750968
)
;
    }
    atmosphere
    {
        type            inletOutlet;
        inletValue      uniform 0.1;
        value           uniform 0.1;
    }
    floatingObject
    {
        lowReCorrection 0;
        blending        stepwise;
        n               2;
        type            epsilonWallFunction;
        value           nonuniform List<scalar> 0();
    }
    procBoundary11to9
    {
        type            processor;
        value           nonuniform List<scalar> 9(0.136616849324 0.136624743566 0.136632256427 0.136639297945 0.136647190996 0.136679690121 0.137065239466 0.141496248035 0.182198569559);
    }
    procBoundary11to10
    {
        type            processor;
        value           nonuniform List<scalar> 
23
(
0.13657056335
0.136543405024
0.136543405024
0.136511016603
0.136511016603
0.136472707795
0.136445112685
0.136419809159
0.136419809159
0.136386580813
0.136386580813
0.136354133741
0.136333807293
0.136327742198
0.136327742198
0.136312098139
0.136298451976
0.136286366977
0.13626749191
0.13626749191
0.136099772295
0.134297816107
0.153832327792
)
;
    }
}


// ************************************************************************* //
