/*--------------------------------*- C++ -*----------------------------------*\
| =========                 |                                                 |
| \\      /  F ield         | OpenFOAM: The Open Source CFD Toolbox           |
|  \\    /   O peration     | Version:  v2012                                 |
|   \\  /    A nd           | Website:  www.openfoam.com                      |
|    \\/     M anipulation  |                                                 |
\*---------------------------------------------------------------------------*/
FoamFile
{
    version     2.0;
    format      ascii;
    class       surfaceVectorField;
    location    "3.4";
    object      ddtCorrDdt0(Uf);
}
// * * * * * * * * * * * * * * * * * * * * * * * * * * * * * * * * * * * * * //

dimensions      [0 1 -2 0 0 0 0];


internalField   nonuniform List<vector> 
300
(
(0.119835202201 -0.00305598084241 -1.84428416663e-24)
(0.120767860528 -0.000985443800022 1.19379530389e-22)
(0.1218011076 -0.00601282905011 -1.00888748315e-23)
(0.121831788756 -0.00354894722851 -1.95902129919e-23)
(0.125292083946 -0.00884508204247 4.89632235413e-23)
(0.124718449419 -0.0057374853335 6.20715238069e-23)
(0.130145376591 -0.0114875554945 -2.76681152744e-23)
(0.128836102911 -0.00771010475583 1.54963865253e-23)
(0.136578786195 -0.0139043776565 -2.54706456173e-23)
(0.134427281117 -0.00947454378681 -2.96521864765e-23)
(0.144755196437 -0.0160621275238 4.21446112672e-23)
(0.141651847527 -0.0109404581101 2.24782991869e-24)
(0.154847803641 -0.0179822423585 4.30764764657e-23)
(0.150638688322 -0.0120778771394 5.80596670092e-23)
(0.161581536903 -0.0128588523446 -2.5828313021e-23)
(0.122035799281 -0.00167693031859 1.01633601564e-22)
(0.122337561952 -0.000326068618101 1.18594095758e-22)
(0.123960783011 -0.00324523867702 5.25701856465e-23)
(0.123330021126 -0.00151602319225 6.25891216007e-23)
(0.127393177334 -0.00464848131222 2.86046867909e-23)
(0.126116538374 -0.0023237710228 -1.33426118206e-23)
(0.132139217006 -0.00579952961306 1.35123153233e-23)
(0.130064025642 -0.00287512364809 6.02875117397e-24)
(0.138400056076 -0.00662480653092 -1.9337109405e-24)
(0.135411565505 -0.00313376136497 -1.73298744051e-23)
(0.146317491071 -0.00705540809472 1.81628856607e-23)
(0.142306549498 -0.00298218346538 -1.6727434997e-23)
(0.156038851179 -0.00704174971704 -1.08451224775e-23)
(0.150877747984 -0.00233915225999 1.78532610752e-23)
(0.167794968025 -0.00650363676262 5.72292571902e-23)
(0.161283621697 -0.00109765656899 -5.97991011848e-23)
(0.181898571636 -0.0052473910068 8.34458956423e-23)
(0.173786004704 0.000897781516364 1.11342954567e-22)
(0.19879155095 -0.00324072028125 -1.65293627263e-22)
(0.188629065138 0.00379916136485 -7.02994293626e-25)
(0.206340648015 0.00786035836229 -2.12451358696e-22)
(0.122916894517 -0.000362512969867 7.95496157941e-23)
(0.122614445266 0.000291561060395 4.93617070197e-23)
(0.124732220808 -0.000602695957407 -3.32367586639e-24)
(0.12351150427 0.000406188667529 -6.89271788316e-23)
(0.127993104065 -0.000638871472881 -3.59185474375e-23)
(0.12613928526 0.000904011003722 -5.4564548745e-23)
(0.132485500548 -0.000367543930847 -2.48134385545e-23)
(0.129836414568 0.00169308742472 -3.42314322848e-24)
(0.138396519298 0.000316428085783 -3.21235984616e-23)
(0.134830425759 0.00284558460009 -2.91431173944e-23)
(0.14585455698 0.00151594059507 -1.70370595825e-23)
(0.141258908513 0.00450770177142 -1.44785956114e-23)
(0.154989751242 0.00335492255126 -3.11007176321e-23)
(0.149220252564 0.00680671582736 3.73881856113e-23)
(0.165981414656 0.00597500850831 -5.68540380849e-24)
(0.158847192201 0.00989627190237 -6.24264812492e-24)
(0.179056247954 0.00958497557795 2.71940646307e-23)
(0.170310100033 0.013971724545 1.60367802545e-23)
(0.194540807949 0.0144194823001 -4.78607257272e-23)
(0.183852539692 0.0192740314565 9.99550224592e-23)
(0.212857893898 0.0208871987609 9.48170467569e-23)
(0.199781774243 0.0261424671554 1.00713980238e-22)
(0.234459940837 0.0294914907822 -3.2379408437e-22)
(0.218388666413 0.0350178006967 3.22248879069e-22)
(0.240115486555 0.0465418140934 1.37082740805e-22)
(0.122534313439 0.000863809079096 -9.91150876059e-23)
(0.121688443799 0.00086180114278 -1.24696380788e-23)
(0.124204302207 0.00186900456395 -1.2016805171e-22)
(0.122464124136 0.00218702180586 -1.44684613024e-22)
(0.127233105833 0.00310920486375 -2.2069144536e-23)
(0.124888845005 0.00389015752764 -2.72665745077e-23)
(0.13138632268 0.00470357992347 -7.75282206842e-24)
(0.128272135269 0.00591330139209 9.37783326833e-24)
(0.136835473689 0.0067804360845 -1.14981145442e-23)
(0.132826911852 0.00835813065351 -1.66767582028e-23)
(0.143687301536 0.00947924597247 3.99466495824e-23)
(0.138672689184 0.0113899769476 -5.26697784432e-24)
(0.152039163287 0.0129649216416 6.22462551185e-23)
(0.145876462736 0.0151704726007 4.16153670538e-23)
(0.162022373964 0.017422100745 1.54795359381e-23)
(0.154545702016 0.0198853120954 1.02272356814e-23)
(0.173815333938 0.023090577737 8.8797738083e-23)
(0.164784681935 0.0257667681877 2.66111847666e-23)
(0.187629345656 0.030270015858 2.48529728424e-22)
(0.176780166048 0.0330876239905 1.27489703254e-22)
(0.203691772326 0.0393860688877 3.2814581255e-22)
(0.190693819455 0.0421936700065 2.05345514813e-22)
(0.222276555643 0.0509800595204 7.83125704244e-22)
(0.206686079488 0.0535429009718 3.4269996876e-22)
(0.243747209646 0.0658863897508 7.51438303804e-22)
(0.22495289594 0.0677981575693 9.08661820545e-22)
(0.245662090164 0.0857568880538 1.0905481238e-21)
(0.12098739678 0.00199396231357 -5.80391634973e-23)
(0.119653581641 0.00138110158968 -1.9010348571e-24)
(0.122482764612 0.00413785642608 -5.17831358219e-23)
(0.120293317087 0.00379937138065 -9.43425853889e-23)
(0.125232794794 0.00653217933102 4.18040329662e-24)
(0.122489101374 0.00658773676886 4.81670756684e-26)
(0.128977439338 0.00931997624276 4.53897133985e-25)
(0.125506379353 0.00971625071605 4.31909840395e-24)
(0.133874485666 0.0126548583729 -1.04456215029e-23)
(0.129545049139 0.0133133312289 -1.46695950088e-23)
(0.140008870614 0.0166920395897 -3.59826037285e-24)
(0.134719591692 0.0175534710738 -1.88950420763e-24)
(0.147443226055 0.0216123552989 -1.04036523833e-23)
(0.141067913516 0.0226175192508 -3.50956967591e-24)
(0.156265956815 0.0276453086922 2.13588845099e-23)
(0.148644094423 0.0287147211175 1.56364797938e-23)
(0.16659521399 0.0350413532129 6.53031499381e-23)
(0.15752488936 0.0360983796825 4.20597902967e-23)
(0.178557380337 0.0441500752841 8.43054896429e-23)
(0.167793318689 0.0450490827255 4.18509548642e-23)
(0.192269543238 0.0553570043749 2.19899671022e-22)
(0.179565843394 0.0559069112766 7.10619989455e-23)
(0.207833797655 0.0691211994681 4.68236085061e-22)
(0.192916793776 0.0691192226763 2.05521181838e-22)
(0.225295724934 0.0861056844293 1.24777164054e-21)
(0.207878281322 0.0852226602685 4.6550569039e-22)
(0.224276170108 0.104926021378 1.24701969683e-21)
(0.118386084188 0.00301085367793 -3.82044567487e-23)
(0.11661804869 0.00182819832134 5.24869911563e-23)
(0.119687316233 0.00616466565377 -4.25112824913e-23)
(0.11712335584 0.00521731862746 -2.0618216167e-23)
(0.122124204113 0.00958627185317 1.86862182996e-25)
(0.119064135999 0.00896028998503 2.83080263576e-23)
(0.125407045907 0.0134332261378 -1.08043937388e-23)
(0.121673012233 0.0130504398696 6.21889680884e-24)
(0.12968336902 0.0178603960178 -6.11347771347e-24)
(0.12515219675 0.017644499653 -5.30434225456e-24)
(0.135019815164 0.0230454080582 -1.80081351069e-24)
(0.129592210138 0.0229165038935 2.15397695933e-24)
(0.141442551604 0.029186118858 2.25305625012e-23)
(0.135008736447 0.0290512923281 -6.90270274283e-24)
(0.149000648985 0.0365325354559 3.63373855806e-23)
(0.141400372231 0.036277219807 1.60441752715e-23)
(0.157750548821 0.0453255002451 1.86075952228e-23)
(0.148847243546 0.0448513975949 -5.9763186694e-24)
(0.167759760942 0.0558972689395 2.86074641668e-23)
(0.157334702454 0.0550576578582 -1.00020709549e-23)
(0.179092830975 0.0685897205609 5.66835097608e-23)
(0.166963875446 0.0672340177969 2.14627580574e-23)
(0.191733764535 0.0838466516277 2.02790787167e-22)
(0.177702609303 0.0817673008958 -2.37218042108e-24)
(0.20553222432 0.102242692556 4.64753746683e-22)
(0.189473702336 0.0990394140166 1.8790077624e-22)
(0.202043548022 0.11938047648 5.9577191868e-22)
(0.114836230331 0.00388696458119 7.0073231738e-23)
(0.112716958119 0.00219453164334 7.24951803491e-23)
(0.115944289878 0.00791463928688 5.02010926819e-23)
(0.113085475952 0.00642825456129 6.08246026619e-23)
(0.118039323234 0.012241972211 3.43400609834e-23)
(0.114732403506 0.0109869968387 4.70140322821e-23)
(0.120830510435 0.0169977987329 1.17189482931e-23)
(0.116921285772 0.015889767067 -1.40146345141e-25)
(0.124448548455 0.0223419530408 2.96311241823e-24)
(0.119824327137 0.0213131711398 3.07970291967e-24)
(0.128932732582 0.0284694673202 -2.94791227281e-24)
(0.123497113387 0.0274249004657 -8.54258197243e-24)
(0.134285613508 0.0355926940282 -1.33890899726e-23)
(0.127937142746 0.0344134182456 -3.65369017945e-24)
(0.140519370075 0.0439206474626 -2.62695289786e-23)
(0.133143885917 0.0425140860757 -1.8539996364e-23)
(0.147647697004 0.0537682027212 -3.45859848471e-23)
(0.139086815966 0.0519797021531 -3.634694097e-23)
(0.155690113814 0.0653940125361 -1.71467770643e-23)
(0.145801640024 0.063097305801 -3.10289545818e-23)
(0.164664227685 0.0791803739684 -3.75929321245e-23)
(0.153260638906 0.0762006474876 2.47001078146e-23)
(0.174547214786 0.0954669009317 -1.72621913484e-23)
(0.161474430305 0.0916451756256 -7.5850417654e-23)
(0.185241822611 0.114503813846 3.18918948236e-22)
(0.170465532557 0.109728693313 1.87168947325e-23)
(0.180166042719 0.130519580548 3.61155878527e-22)
(0.110505079871 0.00461350579774 6.32465512729e-23)
(0.108095316141 0.00249501423652 4.2325917273e-24)
(0.111389865432 0.00938480794582 5.76375422621e-23)
(0.108306504155 0.00744324690359 7.21441110684e-24)
(0.113130036105 0.0144496105312 1.25338249535e-23)
(0.109660530051 0.0126654281326 2.16364659169e-23)
(0.1154193595 0.0199322512782 -8.77939171854e-24)
(0.111433741034 0.0182229986396 -1.81580670156e-23)
(0.118358410895 0.0260203070379 -8.42599147099e-24)
(0.113736904579 0.0242980058173 -1.99513305831e-23)
(0.121973004158 0.032893360026 -9.24835987907e-24)
(0.116634761064 0.031060435328 -1.79661525862e-23)
(0.126240848689 0.0407429515773 -8.80459657093e-24)
(0.12011288035 0.0386877828955 -6.74379033443e-24)
(0.13113127366 0.0498299967639 -2.86174083555e-23)
(0.124099669084 0.0474057362451 -2.40139092107e-24)
(0.136631671102 0.0604047828181 -3.27899107048e-23)
(0.128571436977 0.0574770219561 -2.21242902503e-23)
(0.142721197952 0.0727741003573 1.0817930297e-23)
(0.133502302091 0.069179782397 -3.0563214844e-24)
(0.149377050526 0.0872683668931 -1.3557377715e-23)
(0.138835679634 0.0828448769451 4.79031679325e-23)
(0.15659492711 0.104256838608 -3.98713315731e-23)
(0.144545168004 0.0988523780142 -5.83143099787e-23)
(0.164425376807 0.124160943339 6.09538250235e-23)
(0.150605105724 0.117563481571 -2.62606507375e-24)
(0.157266908702 0.139376156613 2.68689249007e-22)
(0.105496490133 0.00521571437865 -5.17995484388e-23)
(0.1028745784 0.00278000999896 -6.49592233453e-24)
(0.106177642388 0.0105856497409 -2.87866652384e-23)
(0.102929619376 0.00826333908432 -6.78740302093e-23)
(0.107564539492 0.0162247256851 -9.05542605225e-24)
(0.104011574413 0.0139897921323 -3.51293343763e-23)
(0.109353556021 0.0222790810385 -2.93300058802e-23)
(0.105367387313 0.0200454176698 -5.20732390736e-24)
(0.111619158966 0.0289028258535 -2.94914916984e-23)
(0.107102004339 0.0266008094718 -1.53440238401e-23)
(0.114365328208 0.0362873811311 -1.54615830416e-23)
(0.109244538042 0.033821873275 -1.99497370758e-23)
(0.117549910788 0.0446725382723 -3.40584684572e-25)
(0.111732854253 0.0418752034089 -4.93320614249e-24)
(0.121119539307 0.0542456565955 4.0917271841e-24)
(0.114546827339 0.0509724770652 8.69064774403e-24)
(0.125016503416 0.0652649790898 7.60929897007e-24)
(0.11758891997 0.0613683786787 1.73133519783e-23)
(0.129174990544 0.0780425847129 3.40289161511e-23)
(0.120775041079 0.0733285719 3.92897698885e-23)
(0.133522655557 0.0929282880122 3.14623566878e-24)
(0.124005686981 0.0871778145933 2.60310386147e-23)
(0.138001677954 0.110354180784 -2.10690434793e-23)
(0.127174046121 0.10331285177 -3.52550693616e-23)
(0.142654565291 0.130807585028 2.0510935891e-22)
(0.130194744018 0.122216327052 5.08924380724e-23)
(0.133073227706 0.144693722401 3.23875815554e-22)
(0.0999846186405 0.00567021651456 -2.2570404105e-23)
(0.097199662016 0.00296382201405 2.02017262335e-23)
(0.100436487715 0.0115030789618 -7.42166993472e-23)
(0.097088326571 0.00885525044837 -7.05144658064e-23)
(0.101493765794 0.0175763337459 -3.12812322315e-23)
(0.0979245634429 0.0149571557346 -5.7028771991e-23)
(0.10279727435 0.0240483901595 8.77865813269e-24)
(0.0988761564573 0.0213636483622 -2.00352145947e-24)
(0.104412155435 0.0310760748703 -5.80226921752e-24)
(0.100052050529 0.0282426812193 1.08175760839e-23)
(0.106318934713 0.0388302979904 -9.42136017664e-24)
(0.101469477522 0.0357387558622 -1.01072024114e-23)
(0.108462819121 0.0474849358795 4.09802628612e-24)
(0.103065028013 0.0440184888363 -7.05185387031e-24)
(0.110767976868 0.0572688896953 2.19122725382e-23)
(0.104763339151 0.0532726316341 1.27919360921e-23)
(0.113127584999 0.0684254153378 4.89938228967e-23)
(0.106450598007 0.0637206524457 -2.49475416567e-23)
(0.115421670333 0.0812386595032 3.12918923521e-23)
(0.107997638131 0.0756130703608 1.82128546348e-23)
(0.11750204275 0.0960541869129 -1.23702664156e-23)
(0.109238180588 0.0892448304973 -7.16120422753e-23)
(0.1192036718 0.113333022863 3.67064121901e-23)
(0.109947801292 0.104993774099 -7.20410634886e-23)
(0.120330140121 0.133701761754 1.69658894717e-22)
(0.109874250828 0.123341239113 1.36973102376e-22)
(0.120620081464 0.158262848745 4.96539539088e-22)
(0.108544062586 0.145181047401 3.88511559098e-22)
(0.119510770085 0.189434986008 2.04992641725e-21)
(0.105054535491 0.172740853268 2.09519434434e-21)
(0.0973664232011 0.215765838889 5.02538545582e-21)
(0.0940598458512 0.00602577784799 -2.7742335468e-23)
(0.0911677020099 0.003035099247 -1.84210519964e-24)
(0.0943324374984 0.0121403500773 -5.33265384502e-23)
(0.0909616674905 0.00923462198171 -4.30912606267e-23)
(0.0950657211175 0.0185101535426 -2.7751061219e-23)
(0.0915345470527 0.0155904620668 -5.01644359689e-24)
(0.0959036286347 0.0252507493333 3.53964917647e-26)
(0.0921067111907 0.0222096002151 -6.22962861625e-23)
(0.0969024399203 0.0325024026735 6.51264289004e-24)
(0.09276491004 0.0292643297639 8.54354338019e-24)
(0.0980334343838 0.0404176898345 -7.73769610506e-24)
(0.0935175235211 0.0368778129283 -5.14688483137e-24)
(0.0992172425948 0.0491644455235 1.64205593567e-24)
(0.094288041921 0.0452016148203 -2.57528637481e-23)
(0.100350648961 0.0589421667354 -3.40678781028e-23)
(0.0949706043266 0.0544021281219 8.49787131658e-24)
(0.101296355697 0.0699543614485 -5.57285099187e-23)
(0.0954452711423 0.064661111013 -5.14491490502e-23)
(0.101880470521 0.0824530885511 -8.46910799927e-23)
(0.0955300403758 0.0761906984975 -4.10618284291e-23)
(0.101874382536 0.0967337757777 -1.31282839348e-22)
(0.0950082805964 0.0892282705064 -4.4096936473e-23)
(0.100965691421 0.11317425666 2.82256266974e-23)
(0.0935672752669 0.104060896123 -8.04560558004e-23)
(0.0986811087346 0.132361557986 3.55825766757e-22)
(0.0907425391718 0.121039983907 -1.09772150621e-23)
(0.0940673881013 0.155110471508 1.98716636435e-21)
(0.0858319567353 0.140825998356 8.46701983363e-23)
(0.0851736781004 0.182968720665 5.07065338291e-21)
(0.0772029313287 0.164933491083 2.7796076548e-21)
(0.062137397774 0.197433613894 9.96812505107e-21)
(0.0879058361359 0.00621458214101 -1.71910303584e-23)
(0.0879899361591 0.012528503965 5.21883422667e-24)
(0.0884148106972 0.019066598761 -3.95616685403e-23)
(0.0888265280831 0.0259378066996 -5.37881392741e-23)
(0.0892660615417 0.0332662788264 -3.11598434122e-24)
(0.0896946900522 0.0411876802608 -2.31620524744e-23)
(0.0900175919685 0.0498473179753 -1.88970483672e-23)
(0.090113181549 0.0594005401643 -8.88339963082e-24)
(0.0898223805124 0.0700301396613 -3.67824675606e-23)
(0.0889332606345 0.0819147626596 -4.67684909403e-25)
(0.0871649401233 0.0952764851928 6.72984707488e-24)
(0.0841169279604 0.110347523336 -1.1965889756e-22)
(0.0791681530068 0.127425620465 -2.82132783483e-22)
(0.0711151125462 0.14680286543 8.77111488782e-22)
(0.0578994742086 0.168836157551 7.67707932296e-21)
)
;

boundaryField
{
    back
    {
        type            calculated;
        value           uniform (0 0 0);
    }
    sides
    {
        type            calculated;
        value           nonuniform List<vector> 0();
    }
    bottom
    {
        type            calculated;
        value           uniform (0 0 0);
    }
    front
    {
        type            calculated;
        value           uniform (0 0 0);
    }
    atmosphere
    {
        type            calculated;
        value           nonuniform List<vector> 0();
    }
    floatingObject
    {
        type            calculated;
        value           nonuniform List<vector> 0();
    }
    procBoundary7to6
    {
        type            processor;
        value           nonuniform List<vector> 
11
(
(0.268628310904 0.0850153805882 1.18338682616e-21)
(0.245255880638 0.10735405275 1.51864086156e-21)
(0.220521379681 0.124431190229 2.71002025978e-21)
(0.196716215606 0.136384515306 -3.71246925625e-22)
(0.173341579212 0.147083029422 3.16329525671e-22)
(0.147899664401 0.155030395926 -3.8947671302e-22)
(0.136212152313 0.172791502685 -2.16812989486e-22)
(0.140432070376 0.221993762363 -1.16557843929e-21)
(0.11135864693 0.23248871808 -1.19526257793e-21)
(0.0667048749887 0.218186839832 1.17377100427e-20)
(0.0369953057451 0.193372871802 2.09985710959e-21)
)
;
    }
    procBoundary7to8
    {
        type            processor;
        value           nonuniform List<vector> 
17
(
(0.117881330902 -0.00165828039663 1.0599128181e-22)
(0.118964766413 -0.00562149160105 1.16688727211e-22)
(0.121822327158 -0.00922147868597 6.36710531022e-23)
(0.125928543471 -0.0126589247511 5.07803414966e-23)
(0.131540943467 -0.0159908715473 -7.52533444395e-23)
(0.138853565658 -0.0191589457418 3.30608777788e-23)
(0.148035775309 -0.0221862789104 8.04650761833e-23)
(0.159306126258 -0.0251286607039 -2.11795727145e-23)
(0.167114953741 -0.0196856173994 -2.87370306058e-23)
(0.174770147747 -0.0132013233369 5.43205396055e-23)
(0.190658052396 -0.0130835840208 5.1042435969e-23)
(0.209800378575 -0.0123680159382 3.04722152197e-23)
(0.219023491826 -0.000161157835662 -1.35823963131e-22)
(0.227478628582 0.0134930721773 1.71444442322e-22)
(0.25252295679 0.0212660496419 -3.93182103643e-22)
(0.259832627085 0.0409257595171 -8.58251741574e-22)
(0.265487493164 0.0616530906049 -2.43896178575e-22)
)
;
    }
    procBoundary7to9
    {
        type            processor;
        value           nonuniform List<vector> 
16
(
(0.0849445608003 0.00309224940337 -7.36782473766e-24)
(0.0846307907591 0.00945136866577 1.09431823147e-23)
(0.0849701313308 0.0159229149403 3.3314939467e-23)
(0.0851992156657 0.0226295072984 -9.74058352384e-23)
(0.0853925747622 0.0297262220796 6.76018881416e-24)
(0.0855500552272 0.0373153927963 3.36694406658e-23)
(0.0855889242621 0.0455254924589 -1.71804567079e-23)
(0.0853939791652 0.0544964401125 7.23268071845e-24)
(0.0848164589344 0.0643689333104 -2.27794841581e-23)
(0.0836735290174 0.0753001664922 -2.30021418503e-23)
(0.0816974761621 0.0874543765102 4.39279542748e-23)
(0.0785583226968 0.100986113614 -7.75276445701e-23)
(0.0737214251162 0.116040545524 -2.11147409482e-22)
(0.066491026058 0.13296792608 -7.49538637544e-22)
(0.0551768632596 0.152345403228 5.56126440441e-22)
(0.0375950346426 0.174363628893 4.05682886993e-21)
)
;
    }
}


// ************************************************************************* //
