/*--------------------------------*- C++ -*----------------------------------*\
| =========                 |                                                 |
| \\      /  F ield         | OpenFOAM: The Open Source CFD Toolbox           |
|  \\    /   O peration     | Version:  v2012                                 |
|   \\  /    A nd           | Website:  www.openfoam.com                      |
|    \\/     M anipulation  |                                                 |
\*---------------------------------------------------------------------------*/
FoamFile
{
    version     2.0;
    format      ascii;
    class       volScalarField;
    location    "3.4";
    object      p_rgh;
}
// * * * * * * * * * * * * * * * * * * * * * * * * * * * * * * * * * * * * * //

dimensions      [1 -1 -2 0 0 0 0];


internalField   nonuniform List<scalar> 
164
(
8689.75515258
8689.93040367
8690.2421116
8690.70379934
8691.32526291
8692.10923666
8693.05401198
8694.15218323
8683.35808655
8683.46135844
8683.63180318
8683.87769704
8684.20237856
8684.60068515
8685.06190889
8685.56731191
8686.08719738
8686.58409274
8686.99568442
8676.86704988
8676.90058122
8676.93432758
8676.97169009
8677.00997408
8677.03684705
8677.03325218
8676.97017557
8676.80651047
8676.49382838
8675.95961911
8675.08698154
8673.7785921
8670.3509981
8670.31796062
8670.22193789
8670.06176385
8669.82942514
8669.5067468
8669.06691351
8668.47246003
8667.67339602
8666.60521665
8665.1858553
8663.3093251
8660.82630101
8657.5678625
8663.87559663
8663.78083189
8663.56456811
8663.22189378
8662.74028704
8662.09669817
8661.2577697
8660.17956135
8658.80452418
8657.05882932
8654.85016394
8652.06213873
8648.54726161
8644.13390567
8657.50205529
8657.35134981
8657.026551
8656.51970312
8655.81457804
8654.88400335
8653.69029963
8652.18450477
8650.30367061
8647.96785965
8645.07708161
8641.5063218
8637.10782742
8631.70996442
8651.28515203
8651.0851287
8650.66510452
8650.01462057
8649.11474028
8647.93533162
8646.43636586
8644.56544947
8642.25596236
8639.42457151
8635.96786961
8631.75619692
8626.64209624
8620.44406881
8645.2730956
8645.030333
8644.5294811
8643.75743201
8642.69347897
8641.30617478
8639.554267
8637.38395104
8634.72748928
8631.49958201
8627.59985737
8622.89840328
8617.23525714
8610.39720725
8639.50639724
8639.22782736
8638.66092771
8637.79004745
8636.59380184
8635.0404973
8633.08898034
8630.68623478
8627.76617023
8624.23991839
8620.0185662
8614.9724171
8608.9537176
8601.79171361
8634.01974747
8633.70999349
8633.09273927
8632.14547558
8630.84872787
8629.17098522
8627.07236881
8624.50190372
8621.39592022
8617.67590214
8613.24948533
8608.00004927
8601.7857526
8594.43504758
8585.73914877
8575.28032358
8628.83282247
8628.50519183
8627.84970978
8626.8486692
8625.48175496
8623.71946212
8621.52407063
8618.84822369
8615.63340877
8611.80887005
8607.28902406
8601.9692081
8595.71841494
8588.37356485
8579.70697486
8569.252589
8623.96881592
8623.62758397
8622.94849451
8621.91470517
8620.50675288
8618.69716497
8616.4515117
8613.72749032
8610.47302192
8606.62610186
8602.11223995
8596.84201504
8590.70652091
8583.57277549
8575.26132971
8565.39534613
)
;

boundaryField
{
    back
    {
        type            fixedFluxPressure;
        gradient        uniform 0;
        value           nonuniform List<scalar> 
164
(
8689.75515258
8689.93040367
8690.2421116
8690.70379934
8691.32526291
8692.10923666
8693.05401198
8694.15218323
8683.35808655
8683.46135844
8683.63180318
8683.87769704
8684.20237856
8684.60068515
8685.06190889
8685.56731191
8686.08719738
8686.58409274
8686.99568442
8676.86704988
8676.90058122
8676.93432758
8676.97169009
8677.00997408
8677.03684705
8677.03325218
8676.97017557
8676.80651047
8676.49382838
8675.95961911
8675.08698154
8673.7785921
8670.3509981
8670.31796062
8670.22193789
8670.06176385
8669.82942514
8669.5067468
8669.06691351
8668.47246003
8667.67339602
8666.60521665
8665.1858553
8663.3093251
8660.82630101
8657.5678625
8663.87559663
8663.78083189
8663.56456811
8663.22189378
8662.74028704
8662.09669817
8661.2577697
8660.17956135
8658.80452418
8657.05882932
8654.85016394
8652.06213873
8648.54726161
8644.13390567
8657.50205529
8657.35134981
8657.026551
8656.51970312
8655.81457804
8654.88400335
8653.69029963
8652.18450477
8650.30367061
8647.96785965
8645.07708161
8641.5063218
8637.10782742
8631.70996442
8651.28515203
8651.0851287
8650.66510452
8650.01462057
8649.11474028
8647.93533162
8646.43636586
8644.56544947
8642.25596236
8639.42457151
8635.96786961
8631.75619692
8626.64209624
8620.44406881
8645.2730956
8645.030333
8644.5294811
8643.75743201
8642.69347897
8641.30617478
8639.554267
8637.38395104
8634.72748928
8631.49958201
8627.59985737
8622.89840328
8617.23525714
8610.39720725
8639.50639724
8639.22782736
8638.66092771
8637.79004745
8636.59380184
8635.0404973
8633.08898034
8630.68623478
8627.76617023
8624.23991839
8620.0185662
8614.9724171
8608.9537176
8601.79171361
8634.01974747
8633.70999349
8633.09273927
8632.14547558
8630.84872787
8629.17098522
8627.07236881
8624.50190372
8621.39592022
8617.67590214
8613.24948533
8608.00004927
8601.7857526
8594.43504758
8585.73914877
8575.28032358
8628.83282247
8628.50519183
8627.84970978
8626.8486692
8625.48175496
8623.71946212
8621.52407063
8618.84822369
8615.63340877
8611.80887005
8607.28902406
8601.9692081
8595.71841494
8588.37356485
8579.70697486
8569.252589
8623.96881592
8623.62758397
8622.94849451
8621.91470517
8620.50675288
8618.69716497
8616.4515117
8613.72749032
8610.47302192
8606.62610186
8602.11223995
8596.84201504
8590.70652091
8583.57277549
8575.26132971
8565.39534613
)
;
    }
    sides
    {
        type            fixedFluxPressure;
        gradient        nonuniform List<scalar> 0();
        value           nonuniform List<scalar> 0();
    }
    bottom
    {
        type            fixedFluxPressure;
        gradient        uniform 0;
        value           nonuniform List<scalar> 
12
(
8689.75515258
8683.35808655
8676.86704988
8670.3509981
8663.87559663
8657.50205529
8651.28515203
8645.2730956
8639.50639724
8634.01974747
8628.83282247
8623.96881592
)
;
    }
    front
    {
        type            fixedFluxPressure;
        gradient        uniform 0;
        value           nonuniform List<scalar> 
164
(
8689.75515258
8689.93040367
8690.2421116
8690.70379934
8691.32526291
8692.10923666
8693.05401198
8694.15218323
8683.35808655
8683.46135844
8683.63180318
8683.87769704
8684.20237856
8684.60068515
8685.06190889
8685.56731191
8686.08719738
8686.58409274
8686.99568442
8676.86704988
8676.90058122
8676.93432758
8676.97169009
8677.00997408
8677.03684705
8677.03325218
8676.97017557
8676.80651047
8676.49382838
8675.95961911
8675.08698154
8673.7785921
8670.3509981
8670.31796062
8670.22193789
8670.06176385
8669.82942514
8669.5067468
8669.06691351
8668.47246003
8667.67339602
8666.60521665
8665.1858553
8663.3093251
8660.82630101
8657.5678625
8663.87559663
8663.78083189
8663.56456811
8663.22189378
8662.74028704
8662.09669817
8661.2577697
8660.17956135
8658.80452418
8657.05882932
8654.85016394
8652.06213873
8648.54726161
8644.13390567
8657.50205529
8657.35134981
8657.026551
8656.51970312
8655.81457804
8654.88400335
8653.69029963
8652.18450477
8650.30367061
8647.96785965
8645.07708161
8641.5063218
8637.10782742
8631.70996442
8651.28515203
8651.0851287
8650.66510452
8650.01462057
8649.11474028
8647.93533162
8646.43636586
8644.56544947
8642.25596236
8639.42457151
8635.96786961
8631.75619692
8626.64209624
8620.44406881
8645.2730956
8645.030333
8644.5294811
8643.75743201
8642.69347897
8641.30617478
8639.554267
8637.38395104
8634.72748928
8631.49958201
8627.59985737
8622.89840328
8617.23525714
8610.39720725
8639.50639724
8639.22782736
8638.66092771
8637.79004745
8636.59380184
8635.0404973
8633.08898034
8630.68623478
8627.76617023
8624.23991839
8620.0185662
8614.9724171
8608.9537176
8601.79171361
8634.01974747
8633.70999349
8633.09273927
8632.14547558
8630.84872787
8629.17098522
8627.07236881
8624.50190372
8621.39592022
8617.67590214
8613.24948533
8608.00004927
8601.7857526
8594.43504758
8585.73914877
8575.28032358
8628.83282247
8628.50519183
8627.84970978
8626.8486692
8625.48175496
8623.71946212
8621.52407063
8618.84822369
8615.63340877
8611.80887005
8607.28902406
8601.9692081
8595.71841494
8588.37356485
8579.70697486
8569.252589
8623.96881592
8623.62758397
8622.94849451
8621.91470517
8620.50675288
8618.69716497
8616.4515117
8613.72749032
8610.47302192
8606.62610186
8602.11223995
8596.84201504
8590.70652091
8583.57277549
8575.26132971
8565.39534613
)
;
    }
    atmosphere
    {
        type            totalPressure;
        rho             rho;
        psi             none;
        gamma           1;
        p0              nonuniform List<scalar> 0();
        value           nonuniform List<scalar> 0();
    }
    floatingObject
    {
        type            fixedFluxPressure;
        gradient        nonuniform List<scalar> 0();
        value           nonuniform List<scalar> 0();
    }
    procBoundary7to6
    {
        type            processor;
        value           nonuniform List<scalar> 
11
(
8653.40447025
8638.61600824
8625.07223398
8612.97160094
8602.10249012
8593.35242553
8593.35242553
8583.67487055
8525.18489586
8517.68049918
8515.0198808
)
;
    }
    procBoundary7to8
    {
        type            processor;
        value           nonuniform List<scalar> 
17
(
8695.98444121
8696.23291351
8696.6886567
8697.37023098
8698.29393431
8699.47046222
8700.90751839
8702.60980861
8695.39292666
8695.39292666
8696.74571551
8698.17275996
8687.24529205
8687.24529205
8687.27439765
8671.91734335
8671.91734335
)
;
    }
    procBoundary7to9
    {
        type            processor;
        value           nonuniform List<scalar> 
16
(
8619.43960283
8619.09072811
8618.40099554
8617.35354728
8615.93030336
8614.10654431
8611.85217173
8609.13036102
8605.89666384
8602.09872943
8597.67558475
8592.55600787
8586.65873871
8579.89363094
8572.15097251
8563.17175191
)
;
    }
}


// ************************************************************************* //
