/*--------------------------------*- C++ -*----------------------------------*\
| =========                 |                                                 |
| \\      /  F ield         | OpenFOAM: The Open Source CFD Toolbox           |
|  \\    /   O peration     | Version:  v2012                                 |
|   \\  /    A nd           | Website:  www.openfoam.com                      |
|    \\/     M anipulation  |                                                 |
\*---------------------------------------------------------------------------*/
FoamFile
{
    version     2.0;
    format      ascii;
    class       volScalarField;
    location    "4.2";
    object      nut;
}
// * * * * * * * * * * * * * * * * * * * * * * * * * * * * * * * * * * * * * //

dimensions      [0 2 -1 0 0 0 0];


internalField   nonuniform List<scalar> 
167
(
0.000562362535632
0.000564744958428
0.000565852006571
0.000566606386663
0.000567329337418
0.000568150023246
0.000569187203628
0.000570712278811
0.000538304779392
0.000555402193647
0.000561625949175
0.000564017309985
0.000565133248189
0.000565895977107
0.000566627230522
0.00056745657243
0.000568510879698
0.000570072455882
0.00057282715048
0.000537526293362
0.000554623636711
0.000560853348591
0.000563255732163
0.000564383664542
0.000565158327082
0.000565901724451
0.000566744972496
0.000567824039747
0.000569425891395
0.000572263798575
0.000536716433261
0.000553810453742
0.000560047879934
0.000562464215159
0.000563607672994
0.000564398132006
0.000565157464032
0.000566020075662
0.00056712593625
0.000568782325738
0.000360208493726
0.000535868431835
0.000552963459132
0.000559213218588
0.000561647202002
0.000562809971902
0.00056362004502
0.000564399309618
0.000565285311027
0.0005664235625
0.000568139950993
0.000359561880911
0.000534991721155
0.000552089417603
0.000558353543043
0.000560808943342
0.000561995150632
0.000562829229864
0.000563633227355
0.000564545524119
0.000565721457755
0.000567504240829
0.000358886362297
0.0005340855676
0.000551191177238
0.000557473674624
0.000559954229894
0.000561168523277
0.000562031359548
0.000562863539577
0.00056380843361
0.000565026226045
0.000358186363247
0.000533161841119
0.000550272884335
0.000556576761654
0.000559087397687
0.000560335060861
0.000561231557465
0.000562098046892
0.000563078754865
0.000357464739753
0.000532209215862
0.000549333730706
0.000555664353431
0.000558210861592
0.000559497724047
0.000560433638359
0.000561339938158
0.000562361502927
0.000356718093119
0.000531228574807
0.000548369133552
0.000554730985999
0.000557319174243
0.00055865145305
0.000559633011983
0.00056058309335
0.000561649094918
0.000563011994388
0.000355935578163
0.000530198675815
0.000547350706501
0.000553746022143
0.000556381426161
0.000557764998783
0.000558796938282
0.000559794996401
0.000560908587886
0.000562328200248
0.000355081049424
0.000529036012404
0.000546180606288
0.00055260618855
0.000555291951683
0.000556731295754
0.00055781723506
0.000558864866177
0.000560025261303
0.000561496656403
0.000354025790013
0.000527486726353
0.000544568082225
0.000551004898281
0.000553737349019
0.000555233372554
0.000556373573462
0.00055746880329
0.000558670564473
0.000560187238262
0.000352387439712
0.000524807059627
0.000541687616893
0.000548079971669
0.000550840668707
0.000552387348889
0.000553577801009
0.0005547137898
0.000555949779154
0.000557490621765
0.000349041513699
0.000518897437284
0.000535237865201
0.0005414538562
0.000544196637376
0.000545776910674
0.000547008113749
0.000548177485575
0.000549430752997
0.000340643438432
0.000503712967016
0.000518708820701
0.000524453249788
0.000527074407394
0.00052865368419
0.000529912043056
0.000531107415794
0.000532370995047
0.000279683030255
0.000340131225339
0.000348481559576
0.000351814585259
0.000353491346992
0.00035463269135
0.000355614909068
0.000356572355164
0.000357569344521
)
;

boundaryField
{
    back
    {
        type            nutkWallFunction;
        blending        stepwise;
        Cmu             0.09;
        kappa           0.41;
        E               9.8;
        value           nonuniform List<scalar> 
167
(
5.91793631232e-05
5.94017670433e-05
5.95038204053e-05
5.95729503085e-05
5.96391731396e-05
5.97144600335e-05
5.9810220927e-05
5.99530539189e-05
5.68911857399e-05
5.85234476697e-05
5.91110503752e-05
5.93338618613e-05
5.94365790884e-05
5.95064618981e-05
5.95735259483e-05
5.9649766967e-05
5.97473841353e-05
5.98942040449e-05
6.01586634865e-05
5.68206136975e-05
5.84520975349e-05
5.9039605706e-05
5.9263106382e-05
5.93668200899e-05
5.9437829821e-05
5.9506121087e-05
5.95838466959e-05
5.96840440536e-05
5.98354593775e-05
6.01095079209e-05
5.67472151311e-05
5.83776569259e-05
5.89653497769e-05
5.91898636611e-05
5.92949385758e-05
5.93674652095e-05
5.94373652468e-05
5.95170858933e-05
5.96201899409e-05
5.9777513763e-05
5.12651591847e-05
5.66701957757e-05
5.83002049818e-05
5.88885944485e-05
5.91145121504e-05
5.92213369501e-05
5.92957558092e-05
5.93676589787e-05
5.94497944718e-05
5.95563528322e-05
5.97201896199e-05
5.11852329234e-05
5.6590595009e-05
5.82203560022e-05
5.88096856643e-05
5.90374092269e-05
5.91463955221e-05
5.92231388369e-05
5.9297516661e-05
5.93823643294e-05
5.9492916539e-05
5.96637187544e-05
5.11018341708e-05
5.65082145305e-05
5.81383279129e-05
5.8729044937e-05
5.89589646943e-05
5.90705705906e-05
5.91500985841e-05
5.92272891006e-05
5.93154600777e-05
5.94303099066e-05
5.10155521861e-05
5.64241548418e-05
5.8054465463e-05
5.86469158879e-05
5.88795326449e-05
5.89942727611e-05
5.90770498101e-05
5.91576084378e-05
5.92493707012e-05
5.09267372176e-05
5.6337290295e-05
5.7968651796e-05
5.85633983758e-05
5.87992853763e-05
5.89177090396e-05
5.90042491996e-05
5.90886621492e-05
5.91844428421e-05
5.08348284376e-05
5.62476981843e-05
5.78803864472e-05
5.84778887275e-05
5.87176050851e-05
5.88402799521e-05
5.8931145049e-05
5.90197504515e-05
5.91198747878e-05
5.92494120915e-05
5.07383440104e-05
5.61531736805e-05
5.77868035666e-05
5.83873039235e-05
5.86313728953e-05
5.87588393696e-05
5.88544459479e-05
5.89475918438e-05
5.90522676241e-05
5.91873473487e-05
5.06325073916e-05
5.60454199687e-05
5.76782582395e-05
5.82814696122e-05
5.85301761819e-05
5.86628266059e-05
5.87634650888e-05
5.88612517959e-05
5.89703527448e-05
5.91104356109e-05
5.05002346369e-05
5.58996005617e-05
5.75263374832e-05
5.81304270784e-05
5.83833934099e-05
5.85212733338e-05
5.86269174396e-05
5.87290945291e-05
5.88420423927e-05
5.89864301469e-05
5.02913148526e-05
5.56431135095e-05
5.72506435778e-05
5.78503362345e-05
5.81058362193e-05
5.82483557504e-05
5.83585971065e-05
5.84644753113e-05
5.85805117796e-05
5.8727133925e-05
4.98584265311e-05
5.50717168425e-05
5.66279207633e-05
5.72109077461e-05
5.74647466612e-05
5.76103941846e-05
5.77243774803e-05
5.7833275311e-05
5.7950829422e-05
4.87639797966e-05
5.35971088262e-05
5.50266446285e-05
5.55658831828e-05
5.58089463581e-05
5.59549142627e-05
5.60716530149e-05
5.6183134046e-05
5.63017586226e-05
4.53586772291e-05
4.86977685406e-05
4.97675838969e-05
5.01869841547e-05
5.03952753592e-05
5.05367362558e-05
5.06589420937e-05
5.07786170543e-05
5.09040106137e-05
)
;
    }
    sides
    {
        type            nutkWallFunction;
        blending        stepwise;
        Cmu             0.09;
        kappa           0.41;
        E               9.8;
        value           nonuniform List<scalar> 9(2.40606741032e-05 2.58474827148e-05 2.64197769317e-05 2.66441103777e-05 2.67555186585e-05 2.68311797389e-05 2.68965409767e-05 2.69605475323e-05 2.70276114887e-05);
    }
    bottom
    {
        type            nutkWallFunction;
        blending        stepwise;
        Cmu             0.09;
        kappa           0.41;
        E               9.8;
        value           nonuniform List<scalar> 
13
(
2.72207574213e-05
2.71780128525e-05
2.71334107054e-05
2.70872660612e-05
2.70397661854e-05
2.69906110815e-05
2.69390081485e-05
2.68824025885e-05
2.68116568024e-05
2.66999139181e-05
2.64683689494e-05
2.58829047216e-05
2.40606741032e-05
)
;
    }
    front
    {
        type            nutkWallFunction;
        blending        stepwise;
        Cmu             0.09;
        kappa           0.41;
        E               9.8;
        value           nonuniform List<scalar> 
167
(
5.91793631232e-05
5.94017670433e-05
5.95038204053e-05
5.95729503085e-05
5.96391731396e-05
5.97144600335e-05
5.9810220927e-05
5.99530539189e-05
5.68911857399e-05
5.85234476697e-05
5.91110503752e-05
5.93338618613e-05
5.94365790884e-05
5.95064618981e-05
5.95735259483e-05
5.9649766967e-05
5.97473841353e-05
5.98942040449e-05
6.01586634865e-05
5.68206136975e-05
5.84520975349e-05
5.9039605706e-05
5.9263106382e-05
5.93668200899e-05
5.9437829821e-05
5.9506121087e-05
5.95838466959e-05
5.96840440536e-05
5.98354593775e-05
6.01095079209e-05
5.67472151311e-05
5.83776569259e-05
5.89653497769e-05
5.91898636611e-05
5.92949385758e-05
5.93674652095e-05
5.94373652468e-05
5.95170858933e-05
5.96201899409e-05
5.9777513763e-05
5.12651591847e-05
5.66701957757e-05
5.83002049818e-05
5.88885944485e-05
5.91145121504e-05
5.92213369501e-05
5.92957558092e-05
5.93676589787e-05
5.94497944718e-05
5.95563528322e-05
5.97201896199e-05
5.11852329234e-05
5.6590595009e-05
5.82203560022e-05
5.88096856643e-05
5.90374092269e-05
5.91463955221e-05
5.92231388369e-05
5.9297516661e-05
5.93823643294e-05
5.9492916539e-05
5.96637187544e-05
5.11018341708e-05
5.65082145305e-05
5.81383279129e-05
5.8729044937e-05
5.89589646943e-05
5.90705705906e-05
5.91500985841e-05
5.92272891006e-05
5.93154600777e-05
5.94303099066e-05
5.10155521861e-05
5.64241548418e-05
5.8054465463e-05
5.86469158879e-05
5.88795326449e-05
5.89942727611e-05
5.90770498101e-05
5.91576084378e-05
5.92493707012e-05
5.09267372176e-05
5.6337290295e-05
5.7968651796e-05
5.85633983758e-05
5.87992853763e-05
5.89177090396e-05
5.90042491996e-05
5.90886621492e-05
5.91844428421e-05
5.08348284376e-05
5.62476981843e-05
5.78803864472e-05
5.84778887275e-05
5.87176050851e-05
5.88402799521e-05
5.8931145049e-05
5.90197504515e-05
5.91198747878e-05
5.92494120915e-05
5.07383440104e-05
5.61531736805e-05
5.77868035666e-05
5.83873039235e-05
5.86313728953e-05
5.87588393696e-05
5.88544459479e-05
5.89475918438e-05
5.90522676241e-05
5.91873473487e-05
5.06325073916e-05
5.60454199687e-05
5.76782582395e-05
5.82814696122e-05
5.85301761819e-05
5.86628266059e-05
5.87634650888e-05
5.88612517959e-05
5.89703527448e-05
5.91104356109e-05
5.05002346369e-05
5.58996005617e-05
5.75263374832e-05
5.81304270784e-05
5.83833934099e-05
5.85212733338e-05
5.86269174396e-05
5.87290945291e-05
5.88420423927e-05
5.89864301469e-05
5.02913148526e-05
5.56431135095e-05
5.72506435778e-05
5.78503362345e-05
5.81058362193e-05
5.82483557504e-05
5.83585971065e-05
5.84644753113e-05
5.85805117796e-05
5.8727133925e-05
4.98584265311e-05
5.50717168425e-05
5.66279207633e-05
5.72109077461e-05
5.74647466612e-05
5.76103941846e-05
5.77243774803e-05
5.7833275311e-05
5.7950829422e-05
4.87639797966e-05
5.35971088262e-05
5.50266446285e-05
5.55658831828e-05
5.58089463581e-05
5.59549142627e-05
5.60716530149e-05
5.6183134046e-05
5.63017586226e-05
4.53586772291e-05
4.86977685406e-05
4.97675838969e-05
5.01869841547e-05
5.03952753592e-05
5.05367362558e-05
5.06589420937e-05
5.07786170543e-05
5.09040106137e-05
)
;
    }
    atmosphere
    {
        type            calculated;
        value           nonuniform List<scalar> 0();
    }
    floatingObject
    {
        type            nutkWallFunction;
        blending        stepwise;
        Cmu             0.09;
        kappa           0.41;
        E               9.8;
        value           nonuniform List<scalar> 0();
    }
    procBoundary10to9
    {
        type            processor;
        value           nonuniform List<scalar> 
15
(
0.000563061073774
0.00056543731961
0.000566538206874
0.00056728767637
0.000568005451202
0.000568817909659
0.000569842182119
0.000571328331192
0.00053904539361
0.000556144983811
0.000556144983811
0.000361979045154
0.000361418802733
0.000360828971018
0.000360828971018
)
;
    }
    procBoundary10to11
    {
        type            processor;
        value           nonuniform List<scalar> 
23
(
0.000573393242567
0.000573393242567
0.000578418558817
0.000578006836945
0.000571735184016
0.000571735184016
0.000571215432154
0.000570704278524
0.000566877543023
0.000566877543023
0.000564341022277
0.000564341022277
0.000563672380487
0.000563672380487
0.000565081358914
0.000564472743458
0.000563716138303
0.00056246858225
0.000559805806691
0.000550970064993
0.000550970064993
0.000533885516022
0.000358704512739
)
;
    }
}


// ************************************************************************* //
