/*--------------------------------*- C++ -*----------------------------------*\
| =========                 |                                                 |
| \\      /  F ield         | OpenFOAM: The Open Source CFD Toolbox           |
|  \\    /   O peration     | Version:  v2012                                 |
|   \\  /    A nd           | Website:  www.openfoam.com                      |
|    \\/     M anipulation  |                                                 |
\*---------------------------------------------------------------------------*/
FoamFile
{
    version     2.0;
    format      ascii;
    class       volVectorField;
    location    "4.2";
    object      U_0;
}
// * * * * * * * * * * * * * * * * * * * * * * * * * * * * * * * * * * * * * //

dimensions      [0 1 -1 0 0 0 0];


internalField   nonuniform List<vector> 
167
(
(0.0488876215054 0.00612229887768 4.93907303541e-23)
(0.0497142797716 0.00788200481557 -1.46599270335e-23)
(0.0509019816418 0.009697277047 -1.09422225223e-23)
(0.0523993448569 0.0115871624108 9.76878800503e-25)
(0.0542033809731 0.0135773233848 3.11038355695e-23)
(0.0563450799917 0.0156839101533 5.7934781452e-23)
(0.0588412870242 0.0179216410362 1.50067393176e-23)
(0.0617391862965 0.0203075889184 -1.28244450919e-23)
(0.0468979384939 0.00301490062092 1.60128225085e-22)
(0.0466941090511 0.00496030004187 1.70517826498e-23)
(0.0470254424917 0.00694171853518 5.28250995029e-24)
(0.0478042936107 0.00895049975284 -2.4513573893e-23)
(0.0489212907425 0.011026754083 -3.83814222556e-24)
(0.0503280269303 0.0131958989698 -2.89870600746e-24)
(0.0520238423624 0.0154826193526 -2.20702220455e-23)
(0.0540164356156 0.0179079600651 2.70788332772e-23)
(0.0563387891618 0.0204972473589 7.72325020471e-24)
(0.059027692405 0.0233054016041 -5.3194243719e-23)
(0.0621813679993 0.0263612978231 -6.15764162522e-23)
(0.0448183241153 0.00333822557529 1.54597742103e-22)
(0.0446241892577 0.00550229106266 5.59569238531e-23)
(0.0449285770188 0.00770508715731 6.00548017587e-23)
(0.0456496745205 0.00994619382694 -3.35987279889e-24)
(0.0466808899274 0.0122641652799 -1.20454341094e-23)
(0.0479773640479 0.0146898983927 -6.51674184703e-24)
(0.0495372432131 0.0172470531094 -4.42812897302e-24)
(0.0513620647471 0.0199648577996 4.51460820335e-24)
(0.0534830826977 0.0228783304274 -1.21994203106e-24)
(0.055929863429 0.0260511305884 -3.62824269756e-23)
(0.0587492568309 0.0295199619838 -6.46441082859e-23)
(0.0425337551421 0.00363818351111 3.66067435201e-22)
(0.0423414590859 0.0059997031415 2.06050683206e-22)
(0.0426141815417 0.00840653840489 1.21961032906e-22)
(0.0432680947784 0.0108564164114 2.10881977274e-23)
(0.0442052703123 0.013392056778 -5.19602912802e-24)
(0.0453787375242 0.0160504986299 -7.78795513333e-24)
(0.0467799506161 0.0188487462187 -1.95013084637e-24)
(0.04841692804 0.0218211964662 -5.32496122099e-24)
(0.0503073122702 0.0250151199627 -7.20871253913e-24)
(0.0524687792639 0.0284847915744 -1.62084962857e-23)
(0.0405423287288 0.00134502330954 5.72871625124e-22)
(0.0400551322609 0.00391114968012 5.72039698446e-22)
(0.0398670124984 0.00645279377093 3.10900836752e-22)
(0.0401041476978 0.00903986707575 1.38690438404e-22)
(0.0406858626285 0.0116782415367 2.47691872849e-23)
(0.0415219262359 0.0144079162746 -7.12403641422e-24)
(0.0425641675746 0.0172603796995 -5.19910633467e-24)
(0.0437973911466 0.0202637109538 8.27450428342e-24)
(0.0452316070158 0.0234561978722 -8.6176918153e-24)
(0.0468678227945 0.0268791002606 -2.69763301364e-24)
(0.0487219503568 0.0305852252679 -1.08945611415e-23)
(0.0378630251836 0.00142401038117 5.91151455319e-22)
(0.0374053129719 0.00415581345889 6.2161986247e-22)
(0.0372206129801 0.00685843233522 3.11898279297e-22)
(0.0374180185438 0.00960440557165 1.4793174647e-22)
(0.037928094148 0.0124050787822 2.49262172912e-23)
(0.0386578847553 0.0153007251866 -5.41773786831e-24)
(0.0395633961012 0.0183200105914 -3.93673358083e-24)
(0.0406285634875 0.0214916176606 -2.91757605323e-24)
(0.0418518962388 0.0248535542461 -8.71566337519e-24)
(0.0432281866986 0.0284560476524 -8.89748198417e-24)
(0.0447728819728 0.0323479055163 -1.86596461864e-23)
(0.0350307462192 0.00149184211416 3.9583776519e-22)
(0.0346088826167 0.00436825280191 6.39256839929e-22)
(0.0344243204898 0.00720993975298 3.29566440528e-22)
(0.0345823119882 0.0100971345742 1.5784636211e-22)
(0.0350179928413 0.0130396177562 2.99985342624e-23)
(0.0356423037128 0.0160712800656 -4.80462617107e-24)
(0.0364107602817 0.0192245899715 -7.15549476508e-24)
(0.0373065042958 0.022528957274 1.68229965963e-23)
(0.0383220325797 0.0260220598139 1.71286371487e-24)
(0.0394483380848 0.0297584329639 -2.70683634785e-24)
(0.0320705429869 0.00155411209754 5.63444571017e-22)
(0.0316797850312 0.00455315639162 7.96054444287e-22)
(0.0314986681937 0.00751184242755 5.25174261055e-22)
(0.0316210703183 0.0105181801945 2.42474721907e-22)
(0.0319817013667 0.0135773928251 6.27529699347e-23)
(0.0325022536288 0.0167210874288 5.14136781002e-24)
(0.0331386459215 0.0199809632342 2.80544643907e-24)
(0.033872279084 0.0233866722819 6.58208464724e-24)
(0.0346871395399 0.0269727706695 -4.40224279036e-24)
(0.0289993897682 0.00160116484309 8.82963008997e-22)
(0.0286361225366 0.00470562434514 1.02662203251e-21)
(0.0284611722398 0.00776768346438 6.79260114828e-22)
(0.0285491271358 0.0108713191952 3.28590884988e-22)
(0.0288407086485 0.0140242990108 7.69983681045e-23)
(0.0292640879517 0.0172563053774 2.27775680078e-23)
(0.0297798139016 0.0205982700534 1.51113400523e-23)
(0.0303605237753 0.0240735351499 9.38890790774e-24)
(0.0309875937935 0.0277115645919 2.48578633649e-24)
(0.0258296594122 0.00163645783259 8.54265736069e-22)
(0.0255029199783 0.00482878171197 1.21264444408e-21)
(0.0253324774299 0.00797691543657 8.13415955004e-22)
(0.02538862302 0.011159746096 3.99000841068e-22)
(0.0256177687252 0.0143874462583 1.3265999719e-22)
(0.0259551990776 0.0176897444348 4.0257590279e-23)
(0.0263594841539 0.0210874439744 1.17983006751e-23)
(0.0268029072665 0.0245996696381 4.33320123998e-24)
(0.0272639656439 0.0282550102822 5.60569717473e-24)
(0.0277195207399 0.0320823135502 -1.25300225613e-23)
(0.0225821722564 0.00166463416655 6.22169392484e-22)
(0.0222955087254 0.00492652489201 9.45298175509e-22)
(0.0221291026157 0.00814113778089 7.48570326389e-22)
(0.0221574736001 0.0113896911281 4.01316335393e-22)
(0.0223322562809 0.0146780937931 1.53549161722e-22)
(0.022593146028 0.018028773312 5.26935291882e-23)
(0.0228979827869 0.0214608028872 1.679254641e-23)
(0.0232262671413 0.0249914259895 1.87411806893e-23)
(0.0235491461961 0.0286421132245 1.61861722329e-23)
(0.0238403479337 0.0324316960037 -1.18168830076e-24)
(0.0192807781515 0.00168207693268 4.29094627521e-22)
(0.0190304043211 0.00499906251665 9.39648189915e-22)
(0.0188642323237 0.00826582730001 7.46684071325e-22)
(0.0188683772864 0.0115705369869 4.14151002751e-22)
(0.0189983601531 0.0149054809363 1.87344573778e-22)
(0.0191933781637 0.0182902341253 8.87085791873e-23)
(0.0194183585286 0.0217432330302 5.4491413389e-23)
(0.0196498412713 0.0252739847678 4.92532053259e-23)
(0.0198634294713 0.0288969842861 3.52968627144e-23)
(0.020028543166 0.0326275653411 2.8945487444e-23)
(0.0159483212008 0.00168831916263 4.24786300201e-22)
(0.0157125403018 0.00505063264259 9.32685814706e-22)
(0.0155477786572 0.00835771258502 7.48440364029e-22)
(0.0155340068038 0.0117180107302 4.16224861229e-22)
(0.0156277467942 0.0150934501146 2.1137915808e-22)
(0.0157715684913 0.0185021348751 1.47448625261e-22)
(0.0159347767374 0.0219641155724 1.1605614564e-22)
(0.0160911533508 0.0254871232964 1.24491593243e-22)
(0.0162222221884 0.0290782076986 1.03405096641e-22)
(0.0163006707732 0.0327442086638 7.88117181027e-23)
(0.0125976333687 0.00167975032201 8.08219598423e-22)
(0.0123412523666 0.00509771615772 1.12503111623e-21)
(0.0121814230449 0.00845592035603 7.59603713377e-22)
(0.0121596453598 0.0118677527626 4.22896597853e-22)
(0.0122280826387 0.015280643225 2.52249401273e-22)
(0.0123344966523 0.0187141287741 2.40000454433e-22)
(0.012451743704 0.0221865227964 2.19967519369e-22)
(0.0125551725399 0.0257030636066 2.70153401056e-22)
(0.0126277478529 0.0292679484025 2.16438532088e-22)
(0.0126479731123 0.0328761989584 1.75558803919e-22)
(0.00921114027299 0.00169721342252 1.0836260822e-21)
(0.00890898784641 0.0051933545107 1.44235959501e-21)
(0.00875047561072 0.00861905691167 8.54859137557e-22)
(0.00872993869831 0.0120797555546 4.62171954378e-22)
(0.00878793793127 0.0155314594868 3.66538572548e-22)
(0.00887260337025 0.0189982048659 4.27798199774e-22)
(0.00895551659216 0.0224945969651 3.47026677802e-22)
(0.00902289333561 0.0260202692883 4.61573367732e-22)
(0.00906020517777 0.0295774919557 4.38180698861e-22)
(0.00576108889514 0.00179923777077 6.78982809648e-22)
(0.00544655290779 0.00540376522137 8.67218049674e-22)
(0.00530938578645 0.00889650734702 6.02587209652e-22)
(0.00530272424922 0.0123999443153 3.84608492229e-22)
(0.00535321740655 0.0158979896487 4.34687720969e-22)
(0.00541287365428 0.0194124264157 6.45129632488e-22)
(0.00546228907548 0.0229558540642 3.27423546606e-22)
(0.00549972882185 0.0265251253596 6.5812553773e-22)
(0.00551553250807 0.0301138432119 7.06530972647e-22)
(0.00206861311878 0.00205009839019 2.91335801521e-22)
(0.00182770960652 0.00577599532298 4.49996669747e-22)
(0.00174363364584 0.00928567746831 4.02673245864e-22)
(0.0017541681928 0.012784882017 4.26479977272e-22)
(0.00179616611685 0.0163106794359 4.71451352812e-22)
(0.00182726278554 0.0198831094918 6.53374368721e-22)
(0.00184873542736 0.0235040774603 5.41466389521e-22)
(0.00186351846241 0.027154048077 9.75393338927e-22)
(0.00186648774181 0.0308196222188 9.60364500437e-22)
)
;

boundaryField
{
    back
    {
        type            noSlip;
    }
    sides
    {
        type            noSlip;
    }
    bottom
    {
        type            noSlip;
    }
    front
    {
        type            noSlip;
    }
    atmosphere
    {
        type            pressureInletOutletVelocity;
        value           nonuniform List<vector> 0();
    }
    floatingObject
    {
        type            movingWallVelocity;
        value           nonuniform List<vector> 0();
    }
    procBoundary10to9
    {
        type            processor;
        value           nonuniform List<vector> 
15
(
(0.050499757614 0.00526173156076 7.29253478217e-23)
(0.0513634316608 0.00675877203939 -5.60538939735e-25)
(0.0526078866452 0.00829802849625 -8.46173076239e-24)
(0.0541791081271 0.00989508241962 4.61448106107e-25)
(0.0560727564309 0.0115520740602 1.18477150427e-23)
(0.0583175342119 0.0132958594936 6.1864271808e-23)
(0.0609468068415 0.0151447475995 3.11487934793e-23)
(0.0639996228105 0.0170940094526 -1.86295603258e-23)
(0.0487590050415 0.00267090402326 1.60898899748e-22)
(0.0485370356304 0.00438234258296 9.55829124506e-23)
(0.0485370356304 0.00438234258296 9.55829124506e-23)
(0.0474665771181 0.00105734531074 -5.44583912413e-24)
(0.0453563841228 0.00115859286751 1.02151619796e-22)
(0.0430447361994 0.0012576245353 2.54629271728e-22)
(0.0430447361994 0.0012576245353 2.54629271728e-22)
)
;
    }
    procBoundary10to11
    {
        type            processor;
        value           nonuniform List<vector> 
23
(
(0.0651258894307 0.0228767910505 -5.66984806287e-23)
(0.0651258894307 0.0228767910505 -5.66984806287e-23)
(0.0658755348361 0.0296993387241 -2.51217960409e-22)
(0.0620327012762 0.0333484525714 -2.8628638118e-22)
(0.0549197303107 0.0322850262099 -6.07968028847e-23)
(0.0549197303107 0.0322850262099 -6.07968028847e-23)
(0.0508020386151 0.0346360498945 -9.68640604141e-23)
(0.0464700175194 0.0365755504168 -1.61582325239e-22)
(0.0406750356067 0.0337679503398 -3.31451446286e-23)
(0.0406750356067 0.0337679503398 -3.31451446286e-23)
(0.0355695231282 0.0307822346143 -2.13246574331e-23)
(0.0355695231282 0.0307822346143 -2.13246574331e-23)
(0.0316415293695 0.0315498024258 -1.60086609361e-23)
(0.0316415293695 0.0315498024258 -1.60086609361e-23)
(0.0281414548995 0.0361098394813 -6.23696310374e-23)
(0.0240702313866 0.0363776502392 -4.89880297387e-23)
(0.0201165301174 0.0364727588038 -7.05776388299e-24)
(0.0162925555804 0.0364862497726 6.44160624524e-23)
(0.0125863247186 0.0365199544158 1.90205935159e-22)
(0.00905063831802 0.0331580767964 2.99095162108e-22)
(0.00905063831802 0.0331580767964 2.99095162108e-22)
(0.0055010972269 0.0337073772552 4.24705574178e-22)
(0.0018592011614 0.0344837233774 7.55141553684e-22)
)
;
    }
}


// ************************************************************************* //
