/*--------------------------------*- C++ -*----------------------------------*\
| =========                 |                                                 |
| \\      /  F ield         | OpenFOAM: The Open Source CFD Toolbox           |
|  \\    /   O peration     | Version:  v2012                                 |
|   \\  /    A nd           | Website:  www.openfoam.com                      |
|    \\/     M anipulation  |                                                 |
\*---------------------------------------------------------------------------*/
FoamFile
{
    version     2.0;
    format      ascii;
    class       volScalarField;
    location    "4.9";
    object      k;
}
// * * * * * * * * * * * * * * * * * * * * * * * * * * * * * * * * * * * * * //

dimensions      [0 2 -2 0 0 0 0];


internalField   nonuniform List<scalar> 
164
(
0.00140299123434
0.001761057947
0.00187830852289
0.00192381968282
0.00193761879015
0.00192595487101
0.00187693382919
0.00177370084206
0.00162507464792
0.00163294971237
0.00167498076667
0.001845805664
0.00224614505795
0.00271275575187
0.00141075767468
0.00176870165392
0.00188646476178
0.00193394471582
0.00195365790567
0.00195847468215
0.00195061600124
0.00193299855337
0.00192746181743
0.00194933350854
0.00197938087423
0.00203859696525
0.0022288470905
0.00255750401818
0.00141911638019
0.00177724624897
0.00189535746031
0.0019439384244
0.00196680350552
0.00197942864746
0.0019872928163
0.0019943398396
0.00200742020604
0.00202958744586
0.00205726313851
0.00210248247846
0.00221726639456
0.00248097999965
0.00142775371538
0.00178637499664
0.00190468072903
0.00195360969841
0.00197752923917
0.00199272053803
0.00200527769584
0.0020181086609
0.00203402262657
0.00205437311642
0.00207982225714
0.00211966249999
0.00220845976179
0.00243702311494
0.001436484608
0.00179576514226
0.00191419168098
0.00196305658267
0.00198699794606
0.00200255596742
0.00201597678577
0.00202972392043
0.00204519501871
0.00206342614293
0.00208627951846
0.0021221935149
0.00220026155521
0.002410808196
0.00144503012398
0.00180513742857
0.00192365884042
0.00197224920781
0.00199577855199
0.00201089097645
0.00202386745786
0.0020370764706
0.0020515454074
0.00206815380023
0.00208909298005
0.00212258035095
0.00219633124204
0.0023981546724
0.00145315591703
0.00181424447836
0.00193287237424
0.00198110258631
0.00200404469265
0.00201846617852
0.00203065357072
0.00204296654706
0.00205637969008
0.00207180616786
0.00209181334932
0.00212523172404
0.00220027875811
0.00240252488725
0.00146072383326
0.00182289643396
0.00194165330163
0.00198950163118
0.00201181780011
0.00202549492675
0.00203686791114
0.00204829332039
0.00206077499957
0.00207537489334
0.00209518086961
0.00213025796802
0.00221065497291
0.00242154490522
0.00146777852777
0.00183100529632
0.00194990202854
0.00199737290148
0.00201907645238
0.0020320401487
0.0020426498992
0.00205328601314
0.00206498560918
0.00207895937149
0.00209878233036
0.00213569551679
0.00222128944397
0.00243911645713
0.00147415768344
0.0018384867781
0.00195754394412
0.00200465497925
0.00202577983622
0.00203808767736
0.00204801067648
0.00205795078087
0.00206896467157
0.00208232472614
0.00210184921514
0.00213935197214
0.00222692307257
0.00244532368743
0.00147995689193
0.00184530754297
0.00196452929621
0.00201130484301
0.00203189200328
0.0020436036167
0.00205291480858
0.00206223734222
0.00207263311056
0.00208536755791
0.00210427461908
0.0021412777691
0.00222857041362
0.00244538653411
0.00207593704294
0.00208808431799
0.0021063198811
0.00214254938348
0.00222932488925
0.00244629599687
0.00214280347837
0.00222748884717
0.00244141023423
0.00242152523542
)
;

boundaryField
{
    back
    {
        type            kqRWallFunction;
        value           nonuniform List<scalar> 
164
(
0.00140299123434
0.001761057947
0.00187830852289
0.00192381968282
0.00193761879015
0.00192595487101
0.00187693382919
0.00177370084206
0.00162507464792
0.00163294971237
0.00167498076667
0.001845805664
0.00224614505795
0.00271275575187
0.00141075767468
0.00176870165392
0.00188646476178
0.00193394471582
0.00195365790567
0.00195847468215
0.00195061600124
0.00193299855337
0.00192746181743
0.00194933350854
0.00197938087423
0.00203859696525
0.0022288470905
0.00255750401818
0.00141911638019
0.00177724624897
0.00189535746031
0.0019439384244
0.00196680350552
0.00197942864746
0.0019872928163
0.0019943398396
0.00200742020604
0.00202958744586
0.00205726313851
0.00210248247846
0.00221726639456
0.00248097999965
0.00142775371538
0.00178637499664
0.00190468072903
0.00195360969841
0.00197752923917
0.00199272053803
0.00200527769584
0.0020181086609
0.00203402262657
0.00205437311642
0.00207982225714
0.00211966249999
0.00220845976179
0.00243702311494
0.001436484608
0.00179576514226
0.00191419168098
0.00196305658267
0.00198699794606
0.00200255596742
0.00201597678577
0.00202972392043
0.00204519501871
0.00206342614293
0.00208627951846
0.0021221935149
0.00220026155521
0.002410808196
0.00144503012398
0.00180513742857
0.00192365884042
0.00197224920781
0.00199577855199
0.00201089097645
0.00202386745786
0.0020370764706
0.0020515454074
0.00206815380023
0.00208909298005
0.00212258035095
0.00219633124204
0.0023981546724
0.00145315591703
0.00181424447836
0.00193287237424
0.00198110258631
0.00200404469265
0.00201846617852
0.00203065357072
0.00204296654706
0.00205637969008
0.00207180616786
0.00209181334932
0.00212523172404
0.00220027875811
0.00240252488725
0.00146072383326
0.00182289643396
0.00194165330163
0.00198950163118
0.00201181780011
0.00202549492675
0.00203686791114
0.00204829332039
0.00206077499957
0.00207537489334
0.00209518086961
0.00213025796802
0.00221065497291
0.00242154490522
0.00146777852777
0.00183100529632
0.00194990202854
0.00199737290148
0.00201907645238
0.0020320401487
0.0020426498992
0.00205328601314
0.00206498560918
0.00207895937149
0.00209878233036
0.00213569551679
0.00222128944397
0.00243911645713
0.00147415768344
0.0018384867781
0.00195754394412
0.00200465497925
0.00202577983622
0.00203808767736
0.00204801067648
0.00205795078087
0.00206896467157
0.00208232472614
0.00210184921514
0.00213935197214
0.00222692307257
0.00244532368743
0.00147995689193
0.00184530754297
0.00196452929621
0.00201130484301
0.00203189200328
0.0020436036167
0.00205291480858
0.00206223734222
0.00207263311056
0.00208536755791
0.00210427461908
0.0021412777691
0.00222857041362
0.00244538653411
0.00207593704294
0.00208808431799
0.0021063198811
0.00214254938348
0.00222932488925
0.00244629599687
0.00214280347837
0.00222748884717
0.00244141023423
0.00242152523542
)
;
    }
    sides
    {
        type            kqRWallFunction;
        value           nonuniform List<scalar> 0();
    }
    bottom
    {
        type            kqRWallFunction;
        value           nonuniform List<scalar> 
11
(
0.00140299123434
0.00141075767468
0.00141911638019
0.00142775371538
0.001436484608
0.00144503012398
0.00145315591703
0.00146072383326
0.00146777852777
0.00147415768344
0.00147995689193
)
;
    }
    front
    {
        type            kqRWallFunction;
        value           nonuniform List<scalar> 
164
(
0.00140299123434
0.001761057947
0.00187830852289
0.00192381968282
0.00193761879015
0.00192595487101
0.00187693382919
0.00177370084206
0.00162507464792
0.00163294971237
0.00167498076667
0.001845805664
0.00224614505795
0.00271275575187
0.00141075767468
0.00176870165392
0.00188646476178
0.00193394471582
0.00195365790567
0.00195847468215
0.00195061600124
0.00193299855337
0.00192746181743
0.00194933350854
0.00197938087423
0.00203859696525
0.0022288470905
0.00255750401818
0.00141911638019
0.00177724624897
0.00189535746031
0.0019439384244
0.00196680350552
0.00197942864746
0.0019872928163
0.0019943398396
0.00200742020604
0.00202958744586
0.00205726313851
0.00210248247846
0.00221726639456
0.00248097999965
0.00142775371538
0.00178637499664
0.00190468072903
0.00195360969841
0.00197752923917
0.00199272053803
0.00200527769584
0.0020181086609
0.00203402262657
0.00205437311642
0.00207982225714
0.00211966249999
0.00220845976179
0.00243702311494
0.001436484608
0.00179576514226
0.00191419168098
0.00196305658267
0.00198699794606
0.00200255596742
0.00201597678577
0.00202972392043
0.00204519501871
0.00206342614293
0.00208627951846
0.0021221935149
0.00220026155521
0.002410808196
0.00144503012398
0.00180513742857
0.00192365884042
0.00197224920781
0.00199577855199
0.00201089097645
0.00202386745786
0.0020370764706
0.0020515454074
0.00206815380023
0.00208909298005
0.00212258035095
0.00219633124204
0.0023981546724
0.00145315591703
0.00181424447836
0.00193287237424
0.00198110258631
0.00200404469265
0.00201846617852
0.00203065357072
0.00204296654706
0.00205637969008
0.00207180616786
0.00209181334932
0.00212523172404
0.00220027875811
0.00240252488725
0.00146072383326
0.00182289643396
0.00194165330163
0.00198950163118
0.00201181780011
0.00202549492675
0.00203686791114
0.00204829332039
0.00206077499957
0.00207537489334
0.00209518086961
0.00213025796802
0.00221065497291
0.00242154490522
0.00146777852777
0.00183100529632
0.00194990202854
0.00199737290148
0.00201907645238
0.0020320401487
0.0020426498992
0.00205328601314
0.00206498560918
0.00207895937149
0.00209878233036
0.00213569551679
0.00222128944397
0.00243911645713
0.00147415768344
0.0018384867781
0.00195754394412
0.00200465497925
0.00202577983622
0.00203808767736
0.00204801067648
0.00205795078087
0.00206896467157
0.00208232472614
0.00210184921514
0.00213935197214
0.00222692307257
0.00244532368743
0.00147995689193
0.00184530754297
0.00196452929621
0.00201130484301
0.00203189200328
0.0020436036167
0.00205291480858
0.00206223734222
0.00207263311056
0.00208536755791
0.00210427461908
0.0021412777691
0.00222857041362
0.00244538653411
0.00207593704294
0.00208808431799
0.0021063198811
0.00214254938348
0.00222932488925
0.00244629599687
0.00214280347837
0.00222748884717
0.00244141023423
0.00242152523542
)
;
    }
    atmosphere
    {
        type            inletOutlet;
        inletValue      nonuniform List<scalar> 0();
        value           nonuniform List<scalar> 0();
    }
    floatingObject
    {
        type            kqRWallFunction;
        value           nonuniform List<scalar> 4(0.00162507464792 0.00163294971237 0.00167498076667 0.001845805664);
    }
    procBoundary8to3
    {
        type            processor;
        value           nonuniform List<scalar> 8(0.00139611383094 0.00175453851327 0.00187127840156 0.00191463893197 0.00192339483863 0.00190090859092 0.00182048284815 0.00154223487834);
    }
    procBoundary8to6
    {
        type            processor;
        value           nonuniform List<scalar> 
16
(
0.00226794468834
0.00299130263913
0.00349960988844
0.00327810412682
0.00315398729772
0.0030787492417
0.00302936554778
0.00299456094842
0.00298600600305
0.0030049864095
0.00301703848011
0.00300965088057
0.00299949113421
0.00299789283303
0.00298655341783
0.00294448877571
)
;
    }
    procBoundary8to7
    {
        type            processor;
        value           nonuniform List<scalar> 
17
(
0.00148510560623
0.00185143555078
0.00197083119713
0.00201730057168
0.0020373939224
0.00204856666922
0.00205733294082
0.0020661025742
0.0020661025742
0.00207884720645
0.00209042388242
0.00210787451884
0.00210787451884
0.00214115786776
0.00221987894547
0.00221987894547
0.00238719089641
)
;
    }
}


// ************************************************************************* //
