/*--------------------------------*- C++ -*----------------------------------*\
| =========                 |                                                 |
| \\      /  F ield         | OpenFOAM: The Open Source CFD Toolbox           |
|  \\    /   O peration     | Version:  v2012                                 |
|   \\  /    A nd           | Website:  www.openfoam.com                      |
|    \\/     M anipulation  |                                                 |
\*---------------------------------------------------------------------------*/
FoamFile
{
    version     2.0;
    format      ascii;
    class       volVectorField;
    location    "3.3";
    object      U_0;
}
// * * * * * * * * * * * * * * * * * * * * * * * * * * * * * * * * * * * * * //

dimensions      [0 1 -1 0 0 0 0];


internalField   nonuniform List<vector> 
164
(
(-0.0436638185621 0.00120830364717 -3.08178446643e-22)
(-0.0459094201799 0.00349575173568 -3.36690038448e-22)
(-0.0478388146421 0.00585336545569 -1.52943867966e-22)
(-0.0495140166999 0.00827396284934 5.52211851933e-23)
(-0.0511708040219 0.0107417838878 1.64740926689e-22)
(-0.0530867406083 0.0132500869185 1.42142623371e-22)
(-0.0554058898018 0.0158056248019 1.09650331182e-22)
(-0.0582103762803 0.0184072390303 9.91302431597e-23)
(-0.0458044492349 0.00103492498711 -8.46825265692e-23)
(-0.0480829809155 0.00299469085891 -1.54865743255e-22)
(-0.0500464739297 0.00499336349117 1.58632559136e-24)
(-0.0517502210336 0.0070327150889 7.98484456511e-23)
(-0.0534346265259 0.00908574814347 1.09787765038e-22)
(-0.055374364253 0.0111486590818 8.78731602391e-23)
(-0.0577171458318 0.0132246510345 6.47245339494e-23)
(-0.0605363241102 0.0152979202477 4.94080193645e-23)
(-0.0638906080969 0.0173500034539 -3.45460840959e-24)
(-0.0678345445623 0.0193634426598 2.17886213784e-23)
(-0.0724388150086 0.021289659563 1.84070306119e-24)
(-0.0476186635249 0.000863144246242 1.01727193418e-22)
(-0.0499073009996 0.00248447463104 1.1116569061e-23)
(-0.0518812680664 0.00411753350746 6.90368795572e-23)
(-0.0535894859018 0.00577268706406 7.86885079043e-23)
(-0.0552760164213 0.00741807383186 8.48763618002e-23)
(-0.0572065706295 0.00904413127886 5.7815688001e-23)
(-0.0595314720677 0.0106475892406 4.9557452009e-23)
(-0.0623189723825 0.0122123577801 4.4592451955e-23)
(-0.0656105390502 0.0137130702551 2.98645247512e-23)
(-0.0694486869793 0.0151215548111 -7.75068021125e-24)
(-0.0738839688435 0.016391674332 -9.8324877275e-23)
(-0.0789671090111 0.0174576570577 -3.57046793452e-22)
(-0.0848392651844 0.0181765965825 -1.50076903793e-21)
(-0.0490947715463 0.000687696732266 2.69892079958e-23)
(-0.0513773570647 0.00197229090343 3.82166065952e-23)
(-0.0533432041584 0.00324333298739 3.08030597752e-24)
(-0.0550363596673 0.00452000049543 2.89116948154e-23)
(-0.0566998428036 0.00576578345458 5.95133258734e-23)
(-0.0585972599535 0.00696869877121 4.25427363587e-23)
(-0.0608707788698 0.0081189448022 4.96745286859e-23)
(-0.0635839931593 0.00920190175895 6.10416402144e-23)
(-0.0667769709627 0.0101876464915 2.79358645332e-23)
(-0.070486526305 0.0110516027445 -1.76119482431e-23)
(-0.0747324597201 0.0117617414037 -1.47892153102e-22)
(-0.0795317418008 0.012272037188 -4.99647556237e-22)
(-0.0849762679863 0.0124755144957 -1.33883596848e-21)
(-0.0915303140251 0.012339054981 -3.02077893836e-21)
(-0.0502377194525 0.000509030581538 -1.42862510481e-22)
(-0.0524979506003 0.00146701674662 -7.3804106007e-23)
(-0.0544422615086 0.00238544288671 -8.29283984139e-23)
(-0.0561004763126 0.00329297209637 -1.4406721463e-23)
(-0.05771839114 0.00415042437134 4.76859176044e-23)
(-0.0595603909061 0.0049471666008 4.69753437454e-23)
(-0.0617607128869 0.00566916349664 5.18462954815e-23)
(-0.0643765163617 0.00629436612395 3.83036366261e-23)
(-0.0674486476803 0.00679204937659 -1.35968908502e-23)
(-0.0710029631157 0.00714729540865 3.61227865857e-23)
(-0.0750651109621 0.00734001766091 -4.44386092496e-23)
(-0.0796498159989 0.00732822549917 -2.86784745731e-22)
(-0.0848055239072 0.00707621049404 -8.95087167153e-22)
(-0.0908456687306 0.00665118146231 -3.04010475805e-21)
(-0.0510485768617 0.000336503460326 -2.39076146079e-22)
(-0.053277022334 0.0009785861559 -1.11782787978e-22)
(-0.0551882233795 0.00155745966664 -9.80356727417e-23)
(-0.0567954130782 0.00211134168252 -2.30256773718e-23)
(-0.0583500708678 0.00259389284618 1.57891732511e-23)
(-0.0601146369035 0.00299921223297 2.77860128647e-23)
(-0.0622201354733 0.00331322185634 4.04327491239e-23)
(-0.0647161495942 0.00350710723005 7.31527014559e-24)
(-0.0676454263871 0.00354981228787 4.05859180399e-23)
(-0.0710185130725 0.00342156430362 8.13490607783e-23)
(-0.074889360295 0.00309999012774 5.04807636966e-23)
(-0.0792902951019 0.00255461039467 3.69715143898e-24)
(-0.0842611539532 0.001805717783 -2.7949507768e-22)
(-0.0900783363115 0.00094578214352 -1.4491043699e-21)
(-0.0515312945237 0.000190418625407 -2.61902547222e-22)
(-0.0537287231343 0.00051617183704 -1.74344384243e-22)
(-0.0555887643461 0.000765866966143 -1.15929771975e-22)
(-0.057134373274 0.000981916665298 -2.94734020678e-25)
(-0.0586153698584 0.00110953051016 2.3120388536e-24)
(-0.0602861147022 0.00114740093507 1.63108893136e-23)
(-0.0622706956601 0.00107776501623 2.39212786304e-23)
(-0.0646252285947 0.000862463699638 2.19543596612e-23)
(-0.0673800503346 0.000473745190431 3.7009253683e-23)
(-0.0705632936815 -0.000118661551526 3.72074317805e-23)
(-0.0742172526539 -0.000952170182078 4.16087230712e-23)
(-0.0783909209247 -0.0020449439052 4.38253280154e-23)
(-0.0831501694129 -0.00340649639635 -1.25723708772e-22)
(-0.0887850059288 -0.00501565317485 -7.2419616822e-22)
(-0.0517325012756 3.61905792229e-05 -2.27390704897e-22)
(-0.0538689839706 7.06475575363e-05 -1.39512145877e-22)
(-0.0556632125958 1.15577908235e-05 -7.2868397252e-23)
(-0.0571425961057 -8.89965206608e-05 2.06117535754e-23)
(-0.0585368006828 -0.000289953934018 1.63288144159e-23)
(-0.0600975424436 -0.000591168718155 5.3267725324e-24)
(-0.0619448093322 -0.00102069366929 -1.28676672491e-24)
(-0.0641366515704 -0.00161445004922 -3.09051040452e-24)
(-0.0666890250217 -0.00240765644486 1.19525834989e-23)
(-0.0696443827417 -0.00344116712952 1.36335983094e-23)
(-0.0730274629983 -0.00476033342873 2.31626669924e-23)
(-0.0768952149385 -0.00641255327193 2.05276530772e-23)
(-0.0813248951254 -0.00845023583074 -3.83361695224e-23)
(-0.0865291373806 -0.0109410620387 -8.20014717115e-22)
(-0.0516309681594 -0.00012246885066 -2.58761614787e-22)
(-0.0537166347363 -0.000349550529861 -3.2725769647e-23)
(-0.0554443103783 -0.000694555056814 -4.18479892949e-23)
(-0.0568442107635 -0.00108838732239 9.48443814845e-24)
(-0.0581386396427 -0.00158949474477 2.98495463289e-24)
(-0.0595766460863 -0.00220345094696 -3.93049896034e-24)
(-0.0612733577772 -0.00296097806255 -6.52100948689e-24)
(-0.0632753308821 -0.00389846653912 -1.49838570125e-23)
(-0.0656023243039 -0.00505736178925 -2.29379946855e-23)
(-0.0682780533596 -0.00648663192934 -6.1793559718e-24)
(-0.0713304040826 -0.00824503092928 1.69747321849e-23)
(-0.074796207324 -0.0104062544071 2.87419917748e-23)
(-0.0787344260024 -0.0130672297494 3.48195110515e-23)
(-0.0832600715448 -0.0163591778735 -5.38772715645e-22)
(-0.0512821126774 -0.000251124314973 -3.48518307874e-22)
(-0.0532990047547 -0.000730041061406 -8.51782886594e-23)
(-0.0549512752422 -0.00134141129173 -2.01694082625e-23)
(-0.0562606497452 -0.00200467638238 -7.03423343612e-24)
(-0.0574482331015 -0.00278044222555 -1.56422461438e-23)
(-0.0587537470261 -0.00367644247583 -9.13187605257e-24)
(-0.0602853266712 -0.00472522526538 -1.13749593689e-23)
(-0.0620824313916 -0.00596486864282 -1.63978549302e-23)
(-0.0641590456951 -0.00743959308717 -9.85116053425e-24)
(-0.066525529219 -0.00920540069855 4.82722576316e-24)
(-0.0691972297037 -0.0113283567189 1.17094655669e-23)
(-0.0721856348628 -0.0138992836937 4.6053263979e-23)
(-0.0755077199016 -0.0170353722607 1.49626047169e-22)
(-0.0791772078552 -0.0208793300344 -1.11263757805e-22)
(-0.0834176804769 -0.0256643858406 -2.19469931524e-21)
(-0.0891163437478 -0.0331430553378 -7.02518070471e-21)
(-0.0506935698049 -0.000364543290392 -3.66398983566e-22)
(-0.0526346506176 -0.00107569559571 -1.69870902642e-22)
(-0.0542030912359 -0.00193055676096 -1.10845440973e-22)
(-0.0554189794791 -0.00283569817461 2.98374054137e-23)
(-0.0564959442632 -0.00385612047781 -1.41820865399e-23)
(-0.057664050312 -0.0050004012982 -1.12421766762e-23)
(-0.0590237184918 -0.00630130453824 -1.36198639214e-23)
(-0.060606114447 -0.00779763265267 -7.06786615793e-24)
(-0.0624199235076 -0.00953245449363 1.0364790408e-24)
(-0.0644616983304 -0.0115639239063 8.83992671583e-25)
(-0.0667309678737 -0.0139595929083 1.03740768787e-23)
(-0.0692154529927 -0.0168120215675 3.87846921802e-23)
(-0.0718767654942 -0.0202367239773 3.13026567195e-22)
(-0.0746540213476 -0.0243521454447 4.34154912306e-22)
(-0.0776244320759 -0.0293720523997 -6.64691657482e-22)
(-0.0815870964795 -0.036976000075 -4.26331691306e-21)
(-0.0498786664723 -0.000480291716229 -4.42854103902e-22)
(-0.051744940233 -0.00139379409828 -2.21622809867e-22)
(-0.0532277236585 -0.00246158631955 -1.80780839282e-22)
(-0.0543490933478 -0.00358048717677 7.67192746082e-23)
(-0.0553150160594 -0.00481436941169 1.28313608745e-23)
(-0.0563451866052 -0.00617162558904 -1.45076845212e-23)
(-0.0575326896559 -0.00768327615816 -2.52570055405e-23)
(-0.0588997780036 -0.00938870760681 7.65185521448e-24)
(-0.0604497693549 -0.0113273284032 2.53861875341e-24)
(-0.0621706409651 -0.0135537276985 -1.81794796911e-23)
(-0.0640435849487 -0.0161321462344 1.28143028299e-23)
(-0.0660402011498 -0.0191391644333 7.03017773215e-23)
(-0.0680863633292 -0.0226777581634 3.73461013605e-22)
(-0.0700457848117 -0.0268238972812 8.98383935485e-22)
(-0.0719000190355 -0.0316991928903 2.00090127346e-24)
(-0.0743555144572 -0.0389269823726 -1.06938991706e-21)
)
;

boundaryField
{
    back
    {
        type            noSlip;
    }
    sides
    {
        type            noSlip;
    }
    bottom
    {
        type            noSlip;
    }
    front
    {
        type            noSlip;
    }
    atmosphere
    {
        type            pressureInletOutletVelocity;
        value           nonuniform List<vector> 0();
    }
    floatingObject
    {
        type            movingWallVelocity;
        value           nonuniform List<vector> 0();
    }
    procBoundary7to6
    {
        type            processor;
        value           nonuniform List<vector> 
11
(
(-0.10111590214 0.0110609331997 -6.63352818855e-21)
(-0.0996833504288 0.00551708691254 -8.62064394436e-21)
(-0.0982948892353 -0.000214864527021 -4.07216713722e-21)
(-0.0963855042545 -0.00699735299925 -2.6534328041e-21)
(-0.0932137517525 -0.0140235832152 -2.28940311787e-21)
(-0.0887951642472 -0.0204672455514 -2.64206227621e-21)
(-0.0887951642472 -0.0204672455514 -2.64206227621e-21)
(-0.0964194433035 -0.0269233636003 -7.36071819539e-21)
(-0.0970793941042 -0.0436973188065 -2.18495257669e-22)
(-0.0872013829296 -0.0464353982914 8.97996692604e-22)
(-0.0780613008431 -0.0475570269619 9.61232822024e-21)
)
;
    }
    procBoundary7to8
    {
        type            processor;
        value           nonuniform List<vector> 
17
(
(-0.0412061143992 0.00136794869754 -1.68891014753e-22)
(-0.0433948069794 0.00398148954319 -5.81146966716e-22)
(-0.0452648660565 0.00669272631993 -2.38192880907e-22)
(-0.0468855925019 0.00949032499736 1.13193225476e-23)
(-0.0484852709531 0.0123671157606 2.20646831037e-22)
(-0.0503358492036 0.015316896329 1.93795789647e-22)
(-0.0525864689011 0.0183524225207 1.46677646844e-22)
(-0.0553247248279 0.0214842846533 1.21353985892e-22)
(-0.0615680679927 0.0210468384752 1.01521056827e-22)
(-0.0615680679927 0.0210468384752 1.01521056827e-22)
(-0.0655503484281 0.0237232760941 1.67595941325e-22)
(-0.0702432060811 0.0264257948722 1.73874029023e-22)
(-0.0778102984538 0.0230570888069 -2.2046287924e-22)
(-0.0778102984538 0.0230570888069 -2.2046287924e-22)
(-0.0841282258997 0.0245402098734 -8.54117556928e-22)
(-0.091994512375 0.0185360180006 -1.75617846572e-21)
(-0.091994512375 0.0185360180006 -1.75617846572e-21)
)
;
    }
    procBoundary7to9
    {
        type            processor;
        value           nonuniform List<vector> 
16
(
(-0.048861769456 -0.000584550466613 -5.14238198706e-22)
(-0.0506497595279 -0.00167684929529 -2.30773654331e-22)
(-0.0520514890542 -0.00293002640878 -1.37941356697e-22)
(-0.0530801928504 -0.00423490334439 4.96445314859e-23)
(-0.0539367659251 -0.00565213413303 1.90396797855e-23)
(-0.0548314742884 -0.00718854434763 4.1275306511e-24)
(-0.0558518193415 -0.00887167191623 -1.92409955877e-24)
(-0.0570123612556 -0.0107405390479 -9.05562956443e-25)
(-0.0583102742054 -0.0128318177648 3.03548605702e-24)
(-0.0597284154127 -0.0151897907571 1.07432502588e-23)
(-0.0612339198193 -0.0178731981199 8.82693459449e-24)
(-0.0627822418506 -0.0209441145943 1.74446097322e-24)
(-0.0642879731994 -0.0244662754675 1.65212080721e-23)
(-0.065574995512 -0.028488143384 1.34863537037e-23)
(-0.0665325562562 -0.0330753149281 -5.15505197257e-22)
(-0.0676094190028 -0.0397559077511 -2.4679023253e-21)
)
;
    }
}


// ************************************************************************* //
