/*--------------------------------*- C++ -*----------------------------------*\
| =========                 |                                                 |
| \\      /  F ield         | OpenFOAM: The Open Source CFD Toolbox           |
|  \\    /   O peration     | Version:  v2012                                 |
|   \\  /    A nd           | Website:  www.openfoam.com                      |
|    \\/     M anipulation  |                                                 |
\*---------------------------------------------------------------------------*/
FoamFile
{
    version     2.0;
    format      ascii;
    class       volScalarField;
    location    "4.1";
    object      alpha.water;
}
// * * * * * * * * * * * * * * * * * * * * * * * * * * * * * * * * * * * * * //

dimensions      [0 0 0 0 0 0 0];


internalField   nonuniform List<scalar> 
164
(
0.999991257301
0.999992587417
0.999994120492
0.999995675961
0.999997278008
0.999998051201
0.999999048452
1
0.999999980267
0.808115812601
0.109393287148
-2.94702349376e-10
0.999990985251
0.999991976595
0.999993343494
0.999994107246
0.999995284682
0.999995611664
0.999995834206
0.999998859187
0.999999289649
0.811607203309
0.110291611248
-8.80615115934e-13
0.999985161172
0.999991587169
0.999992791379
0.99999189503
0.999991875286
0.999996788707
0.999996507807
0.804888041786
0.104083497517
-2.23908244154e-11
0.99998148113
0.999988857789
0.999989925509
0.999988593061
0.999988855337
0.999994382944
0.99999209503
0.796708526746
0.0954451051748
-5.22136656058e-18
0.99998148113
0.999986822257
0.999987905141
0.999985527908
0.999987662936
0.999991358712
0.999988519361
0.783049703813
0.0853897019366
-5.60719027886e-18
0.999981573264
0.999983344215
0.999986885836
0.999982518652
0.999985854881
0.999988518011
0.999986318521
0.764931269887
0.0762247085594
-1.66032086007e-16
0.999981706795
0.999983192846
0.99998510589
0.999980549263
0.999980549263
0.999986230809
0.999983933086
0.752407615031
0.068123028502
-1.41962087073e-16
0.999984475363
0.999988113461
0.999983166176
0.999983156614
0.999985258786
0.999989452086
0.999987144876
0.742570310539
0.0597723908032
-1.82443022039e-17
0.999988122493
0.999988119852
0.999983188484
0.99998549653
0.99999090956
0.999991309729
0.999989853661
0.734669166077
0.0536302434024
-5.66884678984e-19
0.999988542486
0.999988103103
0.999988814238
0.999989064712
0.999993218572
0.99999254637
0.999991509067
0.728335650171
0.0488434507991
-6.25166669874e-20
0.999991747156
0.99999149742
0.999992805503
0.999993260256
0.999995005381
0.999993798175
0.999993308976
0.723782035457
0.0450816941987
-1.18032240243e-21
0.999995843119
0.999996062486
0.999996358678
0.999996175949
0.999996350307
0.999996154207
0.99999522568
0.719995729087
0.0425472706914
-2.46413481428e-22
0.999997583252
0.999998463023
0.999998668131
0.999998314558
0.999997764005
0.999997733369
0.999996773252
0.716400808972
0.0406835641104
-5.07794993072e-24
0.99999772356
0.999998976532
0.999998976532
0.999998190387
0.999997184608
0.999997503377
0.999996258241
0.713416466742
0.0382563201059
-1.97859280465e-22
0.999997935484
0.999998419762
0.99999700243
0.999992887778
0.999994464354
0.999994167992
0.999993261437
0.710592956216
0.0349532924261
-1.55410268639e-21
0.999999142567
0.999994374575
0.999989616198
0.999988455974
0.999988539592
0.99999091304
0.999989040166
0.706886161602
0.0308842370652
0
)
;

boundaryField
{
    back
    {
        type            zeroGradient;
    }
    sides
    {
        type            zeroGradient;
    }
    bottom
    {
        type            zeroGradient;
    }
    front
    {
        type            zeroGradient;
    }
    atmosphere
    {
        type            inletOutlet;
        inletValue      uniform 0;
        value           uniform 0;
    }
    floatingObject
    {
        type            zeroGradient;
    }
    procBoundary5to0
    {
        type            processor;
        value           nonuniform List<scalar> 
12
(
0.99999470394
0.999995411506
0.999996909958
0.999998527796
0.999999902793
1.00000049123
1.00000142482
1.00000248231
1
0.799444943506
0.104401795351
-7.96211549512e-11
)
;
    }
    procBoundary5to3
    {
        type            processor;
        value           nonuniform List<scalar> 10(1.00000076015 1.00000020907 0.999996597296 0.99999250888 0.999994789127 0.999993686415 0.999991796402 0.700605756774 0.02723560771 -1.61865856814e-24);
    }
    procBoundary5to4
    {
        type            processor;
        value           nonuniform List<scalar> 
18
(
0.999993647477
0.999996504503
0.999990991721
0.999986217017
0.999986217017
0.999989831237
0.999989278932
0.999988577819
0.999989614569
0.999991529077
0.999993008117
0.999993876458
0.999995039466
0.999997347509
0.999998842179
0.999999331475
0.999999589503
0.999999986671
)
;
    }
}


// ************************************************************************* //
