/*--------------------------------*- C++ -*----------------------------------*\
| =========                 |                                                 |
| \\      /  F ield         | OpenFOAM: The Open Source CFD Toolbox           |
|  \\    /   O peration     | Version:  v2012                                 |
|   \\  /    A nd           | Website:  www.openfoam.com                      |
|    \\/     M anipulation  |                                                 |
\*---------------------------------------------------------------------------*/
FoamFile
{
    version     2.0;
    format      ascii;
    class       volScalarField;
    location    "4.1";
    object      ddt0(epsilon);
}
// * * * * * * * * * * * * * * * * * * * * * * * * * * * * * * * * * * * * * //

dimensions      [0 2 -4 0 0 0 0];


internalField   nonuniform List<scalar> 
164
(
-0.000741094065306
-0.000743113030676
-0.000745973373501
-0.000751410526042
-0.000764441084323
-0.000798675018312
-0.000895424641904
-0.00124289847977
-0.00277531176908
-0.00681518477262
0.00103101680134
-0.589874409145
-0.000742813301058
-0.000744835969994
-0.000747582205519
-0.000752455210381
-0.000763735766282
-0.000792655776367
-0.000869327609703
-0.00112302194734
-0.00226512817985
-0.00577089938301
-0.0134052102528
0.00846337877932
-0.00074912067319
-0.000753448343345
-0.000762656360106
-0.000784726002378
-0.00083468694654
-0.000966431825611
-0.00154605348604
-0.00225985079413
0.0279361266019
0.683937991503
-0.000750526343109
-0.000753969532822
-0.000759885215811
-0.000771186353572
-0.000784382994322
-0.000757302143786
-0.000638286278249
0.00229399643383
0.0552100567912
0.241726041214
-0.000751941012627
-0.000754504126313
-0.000756970860317
-0.000757192389318
-0.000737612171755
-0.000597330908755
0.000171428414246
0.0067045368603
0.0756881325718
0.2860828019
-0.000753251916015
-0.000754791140415
-0.000753265761052
-0.00074146560162
-0.000692680597078
-0.00048003412361
0.000722522575905
0.012957399246
0.104547934171
0.13472390551
-0.000754391156474
-0.000754617218551
-0.000748369942078
-0.000724353080589
-0.00065405245894
-0.00041209388066
0.00112944381561
0.0171384565742
0.112013830929
0.0941838175178
-0.000755310394916
-0.000753913541384
-0.000742461952661
-0.000707582158631
-0.000623570813229
-0.000322219880957
0.00193281776052
0.0212115719865
0.0955428898761
0.0627636239992
-0.00075605605036
-0.000752975971712
-0.000736720638443
-0.000694896469295
-0.000608021593104
-0.000239890417334
0.00264078886054
0.0214155638553
0.0644957566728
0.0257279536522
-0.000756709029232
-0.000752286341058
-0.000732585868776
-0.000688150749534
-0.000605946245963
-0.000174008465272
0.00318137957104
0.019741431042
0.0296985840915
-0.00171859281576
-0.000757266336178
-0.000751973153783
-0.000730243170208
-0.000685418124792
-0.000609309967859
-0.000144010179209
0.00340540193336
0.018222448223
0.0159338694971
-0.0120836337812
-0.000757517915371
-0.000751472952509
-0.000728016631275
-0.000681982125398
-0.000605063570616
-0.000109121026136
0.00348811029151
0.0171531070233
0.0167991774884
-0.00971896861004
-0.000757255143661
-0.000750572015512
-0.000726017948148
-0.000679518347457
-0.000597242130042
-5.73603686926e-05
0.00356149732135
0.0164574696456
0.0232152173494
-0.00296545163518
-0.000756648684947
-0.000750027981652
-0.00072665112274
-0.000683287443631
-0.000594998262324
1.20792939628e-05
0.00387860706907
0.0171935362079
0.02529717085
-0.000214016590116
-0.000755920136606
-0.000750264268053
-0.000729235842013
-0.000687165884658
-0.000579598351571
0.000143997229584
0.00453687136702
0.0192736380312
0.0246865057467
-0.00049912748331
-0.00075483998144
-0.000750019434841
-0.000728641840778
-0.000674980175244
-0.000512094830853
0.000411560134158
0.00559567217392
0.0223362319303
0.0274525530023
0.00195856994138
)
;

boundaryField
{
    back
    {
        type            calculated;
        value           nonuniform List<scalar> 
164
(
-0.000741094065306
-0.000743113030676
-0.000745973373501
-0.000751410526042
-0.000764441084323
-0.000798675018312
-0.000895424641904
-0.00124289847977
-0.00277531176908
-0.00681518477262
0.00103101680134
-0.589874409145
-0.000742813301058
-0.000744835969994
-0.000747582205519
-0.000752455210381
-0.000763735766282
-0.000792655776367
-0.000869327609703
-0.00112302194734
-0.00226512817985
-0.00577089938301
-0.0134052102528
0.00846337877932
-0.00074912067319
-0.000753448343345
-0.000762656360106
-0.000784726002378
-0.00083468694654
-0.000966431825611
-0.00154605348604
-0.00225985079413
0.0279361266019
0.683937991503
-0.000750526343109
-0.000753969532822
-0.000759885215811
-0.000771186353572
-0.000784382994322
-0.000757302143786
-0.000638286278249
0.00229399643383
0.0552100567912
0.241726041214
-0.000751941012627
-0.000754504126313
-0.000756970860317
-0.000757192389318
-0.000737612171755
-0.000597330908755
0.000171428414246
0.0067045368603
0.0756881325718
0.2860828019
-0.000753251916015
-0.000754791140415
-0.000753265761052
-0.00074146560162
-0.000692680597078
-0.00048003412361
0.000722522575905
0.012957399246
0.104547934171
0.13472390551
-0.000754391156474
-0.000754617218551
-0.000748369942078
-0.000724353080589
-0.00065405245894
-0.00041209388066
0.00112944381561
0.0171384565742
0.112013830929
0.0941838175178
-0.000755310394916
-0.000753913541384
-0.000742461952661
-0.000707582158631
-0.000623570813229
-0.000322219880957
0.00193281776052
0.0212115719865
0.0955428898761
0.0627636239992
-0.00075605605036
-0.000752975971712
-0.000736720638443
-0.000694896469295
-0.000608021593104
-0.000239890417334
0.00264078886054
0.0214155638553
0.0644957566728
0.0257279536522
-0.000756709029232
-0.000752286341058
-0.000732585868776
-0.000688150749534
-0.000605946245963
-0.000174008465272
0.00318137957104
0.019741431042
0.0296985840915
-0.00171859281576
-0.000757266336178
-0.000751973153783
-0.000730243170208
-0.000685418124792
-0.000609309967859
-0.000144010179209
0.00340540193336
0.018222448223
0.0159338694971
-0.0120836337812
-0.000757517915371
-0.000751472952509
-0.000728016631275
-0.000681982125398
-0.000605063570616
-0.000109121026136
0.00348811029151
0.0171531070233
0.0167991774884
-0.00971896861004
-0.000757255143661
-0.000750572015512
-0.000726017948148
-0.000679518347457
-0.000597242130042
-5.73603686926e-05
0.00356149732135
0.0164574696456
0.0232152173494
-0.00296545163518
-0.000756648684947
-0.000750027981652
-0.00072665112274
-0.000683287443631
-0.000594998262324
1.20792939628e-05
0.00387860706907
0.0171935362079
0.02529717085
-0.000214016590115
-0.000755920136606
-0.000750264268053
-0.000729235842013
-0.000687165884658
-0.000579598351571
0.000143997229584
0.00453687136702
0.0192736380312
0.0246865057467
-0.000499127483311
-0.00075483998144
-0.000750019434841
-0.000728641840778
-0.000674980175244
-0.000512094830853
0.000411560134158
0.00559567217392
0.0223362319303
0.0274525530023
0.00195856994138
)
;
    }
    sides
    {
        type            calculated;
        value           nonuniform List<scalar> 0();
    }
    bottom
    {
        type            calculated;
        value           nonuniform List<scalar> 0();
    }
    front
    {
        type            calculated;
        value           nonuniform List<scalar> 
164
(
-0.000741094065306
-0.000743113030676
-0.000745973373501
-0.000751410526042
-0.000764441084323
-0.000798675018312
-0.000895424641904
-0.00124289847977
-0.00277531176908
-0.00681518477262
0.00103101680134
-0.589874409145
-0.000742813301058
-0.000744835969994
-0.000747582205519
-0.000752455210381
-0.000763735766282
-0.000792655776367
-0.000869327609703
-0.00112302194734
-0.00226512817985
-0.00577089938301
-0.0134052102528
0.00846337877932
-0.00074912067319
-0.000753448343345
-0.000762656360106
-0.000784726002378
-0.00083468694654
-0.000966431825611
-0.00154605348604
-0.00225985079413
0.0279361266019
0.683937991503
-0.000750526343109
-0.000753969532822
-0.000759885215811
-0.000771186353572
-0.000784382994322
-0.000757302143786
-0.000638286278249
0.00229399643383
0.0552100567912
0.241726041214
-0.000751941012627
-0.000754504126313
-0.000756970860317
-0.000757192389318
-0.000737612171755
-0.000597330908755
0.000171428414246
0.0067045368603
0.0756881325718
0.2860828019
-0.000753251916015
-0.000754791140415
-0.000753265761052
-0.00074146560162
-0.000692680597078
-0.00048003412361
0.000722522575905
0.012957399246
0.104547934171
0.13472390551
-0.000754391156474
-0.000754617218551
-0.000748369942078
-0.000724353080589
-0.00065405245894
-0.00041209388066
0.00112944381561
0.0171384565742
0.112013830929
0.0941838175178
-0.000755310394916
-0.000753913541384
-0.000742461952661
-0.000707582158631
-0.000623570813229
-0.000322219880957
0.00193281776052
0.0212115719865
0.0955428898761
0.0627636239992
-0.00075605605036
-0.000752975971712
-0.000736720638443
-0.000694896469295
-0.000608021593104
-0.000239890417334
0.00264078886054
0.0214155638553
0.0644957566728
0.0257279536522
-0.000756709029232
-0.000752286341058
-0.000732585868776
-0.000688150749534
-0.000605946245963
-0.000174008465272
0.00318137957104
0.019741431042
0.0296985840915
-0.00171859281576
-0.000757266336178
-0.000751973153783
-0.000730243170208
-0.000685418124792
-0.000609309967859
-0.000144010179209
0.00340540193336
0.018222448223
0.0159338694971
-0.0120836337812
-0.000757517915371
-0.000751472952509
-0.000728016631275
-0.000681982125398
-0.000605063570616
-0.000109121026136
0.00348811029151
0.0171531070233
0.0167991774884
-0.00971896861004
-0.000757255143661
-0.000750572015512
-0.000726017948148
-0.000679518347457
-0.000597242130042
-5.73603686926e-05
0.00356149732135
0.0164574696456
0.0232152173494
-0.00296545163518
-0.000756648684947
-0.000750027981652
-0.00072665112274
-0.000683287443631
-0.000594998262324
1.20792939628e-05
0.00387860706907
0.0171935362079
0.02529717085
-0.000214016590115
-0.000755920136606
-0.000750264268053
-0.000729235842013
-0.000687165884658
-0.000579598351571
0.000143997229584
0.00453687136702
0.0192736380312
0.0246865057467
-0.000499127483311
-0.00075483998144
-0.000750019434841
-0.000728641840778
-0.000674980175244
-0.000512094830853
0.000411560134158
0.00559567217392
0.0223362319303
0.0274525530023
0.00195856994138
)
;
    }
    atmosphere
    {
        type            calculated;
        value           nonuniform List<scalar> 
16
(
-2.00864057384
0.227357172321
0.113833409451
-0.0230362223995
0.279092420747
-0.0111990533964
0.000324905402597
-0.00246094229588
0.000249502129018
0.000295853721346
-0.000200448947585
-3.9735908864e-05
2.86122082293e-05
-2.93916394677e-05
9.00454067195e-06
-5.28216485676e-06
)
;
    }
    floatingObject
    {
        type            calculated;
        value           nonuniform List<scalar> 0();
    }
    procBoundary5to0
    {
        type            processor;
        value           nonuniform List<scalar> 
12
(
-0.000739526197021
-0.000741539705078
-0.000744581545819
-0.000750658023777
-0.000765524092913
-0.000804823909602
-0.000918997447465
-0.00134606790954
-0.00322943085657
-0.00889327614434
0.0239585190692
0.581026931188
)
;
    }
    procBoundary5to3
    {
        type            processor;
        value           nonuniform List<scalar> 10(-0.000753069626716 -0.00074831143171 -0.000723303124692 -0.000646273363447 -0.0003924722487 0.000809374159582 0.00668774861385 0.0248390594665 0.0397048460369 0.0100957646142);
    }
    procBoundary5to4
    {
        type            processor;
        value           nonuniform List<scalar> 
18
(
-0.000739441110154
-0.000741116014002
-0.000744471791661
-0.000746491806965
-0.000746491806965
-0.000748129404197
-0.000749711730906
-0.000751210067018
-0.000752578065844
-0.000753794466776
-0.000754845650909
-0.000755700414309
-0.000756299687394
-0.00075655379101
-0.000756342390082
-0.000755645320036
-0.000754534601515
-0.000752928656661
)
;
    }
}


// ************************************************************************* //
