/*--------------------------------*- C++ -*----------------------------------*\
| =========                 |                                                 |
| \\      /  F ield         | OpenFOAM: The Open Source CFD Toolbox           |
|  \\    /   O peration     | Version:  v2012                                 |
|   \\  /    A nd           | Website:  www.openfoam.com                      |
|    \\/     M anipulation  |                                                 |
\*---------------------------------------------------------------------------*/
FoamFile
{
    version     2.0;
    format      ascii;
    class       volScalarField;
    location    "4.1";
    object      k_0;
}
// * * * * * * * * * * * * * * * * * * * * * * * * * * * * * * * * * * * * * //

dimensions      [0 2 -2 0 0 0 0];


internalField   nonuniform List<scalar> 
164
(
0.00284514550299
0.00285462884586
0.00286694508875
0.00288600064918
0.00292303991889
0.00301055123491
0.00324886019083
0.00396552209643
0.00600861720315
0.0106840220595
0.0219689184717
0.0570582787404
0.0028486672713
0.00285833343914
0.00287070689936
0.00288942889368
0.00292514520438
0.00300883494628
0.00323443687535
0.00390776829431
0.0058689515564
0.0105718142215
0.0218050484897
0.0560391429951
0.00287406764484
0.00289263861615
0.00292741557456
0.0030086353965
0.00322712998854
0.00387365358011
0.00577490681927
0.0105432535758
0.0227873487476
0.0623777763867
0.00287706198935
0.00289563023513
0.00292993111339
0.00301032115076
0.00322843595699
0.00387156927239
0.00576313509083
0.0107796797277
0.0250672995446
0.0692110127468
0.00287964347035
0.00289844610161
0.00293295054709
0.00301445875542
0.00323778730065
0.00389127649798
0.00579125193664
0.0109765455
0.0264055531737
0.0706354026508
0.00288181283471
0.0029012167741
0.0029370929425
0.00302289443784
0.00325714525498
0.00392405826397
0.00580965220995
0.011186474294
0.0286491335003
0.0732339706279
0.0028836037243
0.00290416524988
0.00294333170036
0.00303873861216
0.00329275238363
0.00397140606736
0.00580635273628
0.0112889270162
0.0301551525241
0.0742166366103
0.00288503769079
0.00290747306674
0.00295238525918
0.00306420634151
0.0033507514665
0.00405825900356
0.00591504102437
0.0118042888887
0.0315558414744
0.0747084978465
0.00288609995942
0.00291105926991
0.00296376696879
0.0030971531379
0.00342578221365
0.00418248064124
0.00613632914334
0.0125759713607
0.0327253536856
0.0748947084267
0.00288665745859
0.00291435095554
0.00297516545241
0.00313012035484
0.0035008865274
0.0043188306815
0.00642174033456
0.0133437385331
0.0332623943439
0.0746778471525
0.0028865029919
0.00291649636784
0.00298354107626
0.00315414278585
0.00355596362495
0.00442812996628
0.00666342979158
0.013896293479
0.0336342237869
0.0745544134214
0.00288555670642
0.00291719474165
0.00298789445608
0.00316647382906
0.00358508929992
0.00449724555166
0.00684663684506
0.0142646597083
0.0339727088939
0.0746084651465
0.00288406559182
0.00291728915966
0.00299083053212
0.00317410433585
0.0036008133355
0.00453946525789
0.00698288146965
0.0144907399462
0.034038075606
0.0746225288185
0.00288220235406
0.0029171836342
0.00299359282731
0.0031807663532
0.00361241342335
0.00457233442011
0.00710530647704
0.014790621993
0.0343728300539
0.0747226868066
0.00287969661409
0.00291557436492
0.00299200077808
0.00317741276861
0.00360890919417
0.00459555827291
0.00726000550107
0.0153021465959
0.0353092760444
0.0749731403273
0.00287638802717
0.00291155524686
0.00298321418399
0.00315759535477
0.00358218537049
0.00461227802831
0.00745659652356
0.0158608954258
0.0360515690873
0.0752068241104
)
;

boundaryField
{
    back
    {
        type            kqRWallFunction;
        value           nonuniform List<scalar> 
164
(
0.00284514550299
0.00285462884586
0.00286694508875
0.00288600064918
0.00292303991889
0.00301055123491
0.00324886019083
0.00396552209643
0.00600861720315
0.0106840220595
0.0219689184717
0.0570582787404
0.0028486672713
0.00285833343914
0.00287070689936
0.00288942889368
0.00292514520438
0.00300883494628
0.00323443687535
0.00390776829431
0.0058689515564
0.0105718142215
0.0218050484897
0.0560391429951
0.00287406764484
0.00289263861615
0.00292741557456
0.0030086353965
0.00322712998854
0.00387365358011
0.00577490681927
0.0105432535758
0.0227873487476
0.0623777763867
0.00287706198935
0.00289563023513
0.00292993111339
0.00301032115076
0.00322843595699
0.00387156927239
0.00576313509083
0.0107796797277
0.0250672995446
0.0692110127468
0.00287964347035
0.00289844610161
0.00293295054709
0.00301445875542
0.00323778730065
0.00389127649798
0.00579125193664
0.0109765455
0.0264055531737
0.0706354026508
0.00288181283471
0.0029012167741
0.0029370929425
0.00302289443784
0.00325714525498
0.00392405826397
0.00580965220995
0.011186474294
0.0286491335003
0.0732339706279
0.0028836037243
0.00290416524988
0.00294333170036
0.00303873861216
0.00329275238363
0.00397140606736
0.00580635273628
0.0112889270162
0.0301551525241
0.0742166366103
0.00288503769079
0.00290747306674
0.00295238525918
0.00306420634151
0.0033507514665
0.00405825900356
0.00591504102437
0.0118042888887
0.0315558414744
0.0747084978465
0.00288609995942
0.00291105926991
0.00296376696879
0.0030971531379
0.00342578221365
0.00418248064124
0.00613632914334
0.0125759713607
0.0327253536856
0.0748947084267
0.00288665745859
0.00291435095554
0.00297516545241
0.00313012035484
0.0035008865274
0.0043188306815
0.00642174033456
0.0133437385331
0.0332623943439
0.0746778471525
0.0028865029919
0.00291649636784
0.00298354107626
0.00315414278585
0.00355596362495
0.00442812996628
0.00666342979158
0.013896293479
0.0336342237869
0.0745544134214
0.00288555670642
0.00291719474165
0.00298789445608
0.00316647382906
0.00358508929992
0.00449724555166
0.00684663684506
0.0142646597083
0.0339727088939
0.0746084651465
0.00288406559182
0.00291728915966
0.00299083053212
0.00317410433585
0.0036008133355
0.00453946525789
0.00698288146965
0.0144907399462
0.034038075606
0.0746225288185
0.00288220235406
0.0029171836342
0.00299359282731
0.0031807663532
0.00361241342335
0.00457233442011
0.00710530647704
0.014790621993
0.0343728300539
0.0747226868066
0.00287969661409
0.00291557436492
0.00299200077808
0.00317741276861
0.00360890919417
0.00459555827291
0.00726000550107
0.0153021465959
0.0353092760444
0.0749731403273
0.00287638802717
0.00291155524686
0.00298321418399
0.00315759535477
0.00358218537049
0.00461227802831
0.00745659652356
0.0158608954258
0.0360515690873
0.0752068241104
)
;
    }
    sides
    {
        type            kqRWallFunction;
        value           nonuniform List<scalar> 0();
    }
    bottom
    {
        type            kqRWallFunction;
        value           nonuniform List<scalar> 0();
    }
    front
    {
        type            kqRWallFunction;
        value           nonuniform List<scalar> 
164
(
0.00284514550299
0.00285462884586
0.00286694508875
0.00288600064918
0.00292303991889
0.00301055123491
0.00324886019083
0.00396552209643
0.00600861720315
0.0106840220595
0.0219689184717
0.0570582787404
0.0028486672713
0.00285833343914
0.00287070689936
0.00288942889368
0.00292514520438
0.00300883494628
0.00323443687535
0.00390776829431
0.0058689515564
0.0105718142215
0.0218050484897
0.0560391429951
0.00287406764484
0.00289263861615
0.00292741557456
0.0030086353965
0.00322712998854
0.00387365358011
0.00577490681927
0.0105432535758
0.0227873487476
0.0623777763867
0.00287706198935
0.00289563023513
0.00292993111339
0.00301032115076
0.00322843595699
0.00387156927239
0.00576313509083
0.0107796797277
0.0250672995446
0.0692110127468
0.00287964347035
0.00289844610161
0.00293295054709
0.00301445875542
0.00323778730065
0.00389127649798
0.00579125193664
0.0109765455
0.0264055531737
0.0706354026508
0.00288181283471
0.0029012167741
0.0029370929425
0.00302289443784
0.00325714525498
0.00392405826397
0.00580965220995
0.011186474294
0.0286491335003
0.0732339706279
0.0028836037243
0.00290416524988
0.00294333170036
0.00303873861216
0.00329275238363
0.00397140606736
0.00580635273628
0.0112889270162
0.0301551525241
0.0742166366103
0.00288503769079
0.00290747306674
0.00295238525918
0.00306420634151
0.0033507514665
0.00405825900356
0.00591504102437
0.0118042888887
0.0315558414744
0.0747084978465
0.00288609995942
0.00291105926991
0.00296376696879
0.0030971531379
0.00342578221365
0.00418248064124
0.00613632914334
0.0125759713607
0.0327253536856
0.0748947084267
0.00288665745859
0.00291435095554
0.00297516545241
0.00313012035484
0.0035008865274
0.0043188306815
0.00642174033456
0.0133437385331
0.0332623943439
0.0746778471525
0.0028865029919
0.00291649636784
0.00298354107626
0.00315414278585
0.00355596362495
0.00442812996628
0.00666342979158
0.013896293479
0.0336342237869
0.0745544134214
0.00288555670642
0.00291719474165
0.00298789445608
0.00316647382906
0.00358508929992
0.00449724555166
0.00684663684506
0.0142646597083
0.0339727088939
0.0746084651465
0.00288406559182
0.00291728915966
0.00299083053212
0.00317410433585
0.0036008133355
0.00453946525789
0.00698288146965
0.0144907399462
0.034038075606
0.0746225288185
0.00288220235406
0.0029171836342
0.00299359282731
0.0031807663532
0.00361241342335
0.00457233442011
0.00710530647704
0.014790621993
0.0343728300539
0.0747226868066
0.00287969661409
0.00291557436492
0.00299200077808
0.00317741276861
0.00360890919417
0.00459555827291
0.00726000550107
0.0153021465959
0.0353092760444
0.0749731403273
0.00287638802717
0.00291155524686
0.00298321418399
0.00315759535477
0.00358218537049
0.00461227802831
0.00745659652356
0.0158608954258
0.0360515690873
0.0752068241104
)
;
    }
    atmosphere
    {
        type            inletOutlet;
        inletValue      uniform 0.1;
        value           uniform 0.1;
    }
    floatingObject
    {
        type            kqRWallFunction;
        value           nonuniform List<scalar> 0();
    }
    procBoundary5to0
    {
        type            processor;
        value           nonuniform List<scalar> 
12
(
0.00284120537119
0.00285051232021
0.00286282676362
0.00288234387213
0.00292097054554
0.00301297826668
0.0032658439083
0.00402853666464
0.00614856267878
0.010735182851
0.0209531824955
0.0617861850909
)
;
    }
    procBoundary5to3
    {
        type            processor;
        value           nonuniform List<scalar> 10(0.00287286843662 0.00290709169293 0.002973205962 0.00313587329449 0.0035597051735 0.00466938619717 0.00776326347599 0.0164185983393 0.0366117641892 0.0754510724759);
    }
    procBoundary5to4
    {
        type            processor;
        value           nonuniform List<scalar> 
18
(
0.00283721137098
0.002840527378
0.00285167567708
0.00286156608294
0.00286156608294
0.00286435765394
0.0028666101195
0.00286831847608
0.00286947645439
0.0028700707234
0.00287008401044
0.00286947929912
0.00286820982825
0.00286627840212
0.00286372164778
0.00286063494214
0.00285704103972
0.00285295154212
)
;
    }
}


// ************************************************************************* //
