/*--------------------------------*- C++ -*----------------------------------*\
| =========                 |                                                 |
| \\      /  F ield         | OpenFOAM: The Open Source CFD Toolbox           |
|  \\    /   O peration     | Version:  v2012                                 |
|   \\  /    A nd           | Website:  www.openfoam.com                      |
|    \\/     M anipulation  |                                                 |
\*---------------------------------------------------------------------------*/
FoamFile
{
    version     2.0;
    format      ascii;
    class       volScalarField;
    location    "4.1";
    object      rAU;
}
// * * * * * * * * * * * * * * * * * * * * * * * * * * * * * * * * * * * * * //

dimensions      [-1 3 1 0 0 0 0];


internalField   nonuniform List<scalar> 
164
(
2.17920404026e-05
2.17895187139e-05
2.17868215529e-05
2.17838104025e-05
2.17791850903e-05
2.17693594093e-05
2.17525267739e-05
2.16722191981e-05
2.15662295617e-05
2.65647280869e-05
0.000182058099203
0.0102682009492
2.17952085711e-05
2.17917511773e-05
2.1787740221e-05
2.17828933208e-05
2.17758781083e-05
2.17588171415e-05
2.17443532087e-05
2.16369513356e-05
2.15131923861e-05
2.6290197698e-05
0.000176444721882
0.00980831291732
2.17902111674e-05
2.17832267333e-05
2.17729345572e-05
2.17483774924e-05
2.17383159516e-05
2.16138008758e-05
2.14220270951e-05
2.62476915269e-05
0.000181435100995
0.00980083467185
2.17925271778e-05
2.17849147345e-05
2.17729070679e-05
2.17408137745e-05
2.17474450653e-05
2.15911781777e-05
2.12871244402e-05
2.62923626465e-05
0.00019457651724
0.00981376803778
2.17962401555e-05
2.17894742223e-05
2.17779014908e-05
2.17497539438e-05
2.17683871038e-05
2.15763070073e-05
2.12239463385e-05
2.67008562148e-05
0.000215617034674
0.0104064628889
2.18005215567e-05
2.17954593916e-05
2.17838606391e-05
2.17742879607e-05
2.18004749109e-05
2.15764941774e-05
2.12065084224e-05
2.73481069376e-05
0.000241859117075
0.0102439986599
2.18035611689e-05
2.17994384036e-05
2.17828046949e-05
2.1798114521e-05
2.18204441401e-05
2.15555565145e-05
2.11671592127e-05
2.78031056596e-05
0.000274599759612
0.0105530971005
2.1803868636e-05
2.17986744953e-05
2.17766126131e-05
2.17904265066e-05
2.17835078751e-05
2.14888171254e-05
2.09896368773e-05
2.78835047765e-05
0.000305295717159
0.0113063045248
2.18004804774e-05
2.17918168084e-05
2.1766239802e-05
2.1752193423e-05
2.17045492632e-05
2.13781022022e-05
2.10119334044e-05
2.80810905342e-05
0.000325492040986
0.0112967651604
2.17952422475e-05
2.17831048557e-05
2.17553343793e-05
2.17123786846e-05
2.16349109455e-05
2.12151277027e-05
2.11855890156e-05
2.86133240045e-05
0.000356680221152
0.0112537576451
2.1791222504e-05
2.17776623238e-05
2.17474597989e-05
2.16834835732e-05
2.1563509936e-05
2.12839099575e-05
2.11440042095e-05
2.88984609669e-05
0.00038286478837
0.0123930685275
2.17913052345e-05
2.17790866452e-05
2.1753644656e-05
2.17024554128e-05
2.15892806505e-05
2.13425839586e-05
2.11216721492e-05
2.89847606636e-05
0.000396872886205
0.0126726973179
2.17913501653e-05
2.17804174046e-05
2.17641952235e-05
2.17492193956e-05
2.1680767968e-05
2.14142350343e-05
2.12220635341e-05
2.91861649838e-05
0.000426868091376
0.0126338829222
2.17898202828e-05
2.17773548256e-05
2.17648345277e-05
2.17674929282e-05
2.17192367334e-05
2.15617990308e-05
2.12919399372e-05
2.94040451679e-05
0.000461078858928
0.0128109478708
2.17912655583e-05
2.17793860235e-05
2.17741582869e-05
2.1781081897e-05
2.17349669253e-05
2.15262144485e-05
2.12693712585e-05
2.94346412854e-05
0.000487543170771
0.0128443641459
2.17936310787e-05
2.17875761037e-05
2.1799061636e-05
2.18117876065e-05
2.17593731441e-05
2.15095969951e-05
2.11793999966e-05
2.93710179626e-05
0.000517641952993
0.0133999637896
)
;

boundaryField
{
    back
    {
        type            calculated;
        value           nonuniform List<scalar> 
164
(
2.17920404026e-05
2.17895187139e-05
2.17868215529e-05
2.17838104025e-05
2.17791850903e-05
2.17693594093e-05
2.17525267739e-05
2.16722191981e-05
2.15662295617e-05
2.65647280869e-05
0.000182058099203
0.0102682009492
2.17952085711e-05
2.17917511773e-05
2.1787740221e-05
2.17828933208e-05
2.17758781083e-05
2.17588171415e-05
2.17443532087e-05
2.16369513356e-05
2.15131923861e-05
2.6290197698e-05
0.000176444721882
0.00980831291732
2.17902111674e-05
2.17832267333e-05
2.17729345572e-05
2.17483774924e-05
2.17383159516e-05
2.16138008758e-05
2.14220270951e-05
2.62476915269e-05
0.000181435100995
0.00980083467185
2.17925271778e-05
2.17849147345e-05
2.17729070679e-05
2.17408137745e-05
2.17474450653e-05
2.15911781777e-05
2.12871244402e-05
2.62923626465e-05
0.00019457651724
0.00981376803778
2.17962401555e-05
2.17894742223e-05
2.17779014908e-05
2.17497539438e-05
2.17683871038e-05
2.15763070073e-05
2.12239463385e-05
2.67008562148e-05
0.000215617034674
0.0104064628889
2.18005215567e-05
2.17954593916e-05
2.17838606391e-05
2.17742879607e-05
2.18004749109e-05
2.15764941774e-05
2.12065084224e-05
2.73481069376e-05
0.000241859117075
0.0102439986599
2.18035611689e-05
2.17994384036e-05
2.17828046949e-05
2.1798114521e-05
2.18204441401e-05
2.15555565145e-05
2.11671592127e-05
2.78031056596e-05
0.000274599759612
0.0105530971005
2.1803868636e-05
2.17986744953e-05
2.17766126131e-05
2.17904265066e-05
2.17835078751e-05
2.14888171254e-05
2.09896368773e-05
2.78835047765e-05
0.000305295717159
0.0113063045248
2.18004804774e-05
2.17918168084e-05
2.1766239802e-05
2.1752193423e-05
2.17045492632e-05
2.13781022022e-05
2.10119334044e-05
2.80810905342e-05
0.000325492040986
0.0112967651604
2.17952422475e-05
2.17831048557e-05
2.17553343793e-05
2.17123786846e-05
2.16349109455e-05
2.12151277027e-05
2.11855890156e-05
2.86133240045e-05
0.000356680221152
0.0112537576451
2.1791222504e-05
2.17776623238e-05
2.17474597989e-05
2.16834835732e-05
2.1563509936e-05
2.12839099575e-05
2.11440042095e-05
2.88984609669e-05
0.00038286478837
0.0123930685275
2.17913052345e-05
2.17790866452e-05
2.1753644656e-05
2.17024554128e-05
2.15892806505e-05
2.13425839586e-05
2.11216721492e-05
2.89847606636e-05
0.000396872886205
0.0126726973179
2.17913501653e-05
2.17804174046e-05
2.17641952235e-05
2.17492193956e-05
2.1680767968e-05
2.14142350343e-05
2.12220635341e-05
2.91861649838e-05
0.000426868091376
0.0126338829222
2.17898202828e-05
2.17773548256e-05
2.17648345277e-05
2.17674929282e-05
2.17192367334e-05
2.15617990308e-05
2.12919399372e-05
2.94040451679e-05
0.000461078858928
0.0128109478708
2.17912655583e-05
2.17793860235e-05
2.17741582869e-05
2.1781081897e-05
2.17349669253e-05
2.15262144485e-05
2.12693712585e-05
2.94346412854e-05
0.000487543170771
0.0128443641459
2.17936310787e-05
2.17875761037e-05
2.1799061636e-05
2.18117876065e-05
2.17593731441e-05
2.15095969951e-05
2.11793999966e-05
2.93710179626e-05
0.000517641952993
0.0133999637896
)
;
    }
    sides
    {
        type            calculated;
        value           nonuniform List<scalar> 0();
    }
    bottom
    {
        type            calculated;
        value           nonuniform List<scalar> 0();
    }
    front
    {
        type            calculated;
        value           nonuniform List<scalar> 
164
(
2.17920404026e-05
2.17895187139e-05
2.17868215529e-05
2.17838104025e-05
2.17791850903e-05
2.17693594093e-05
2.17525267739e-05
2.16722191981e-05
2.15662295617e-05
2.65647280869e-05
0.000182058099203
0.0102682009492
2.17952085711e-05
2.17917511773e-05
2.1787740221e-05
2.17828933208e-05
2.17758781083e-05
2.17588171415e-05
2.17443532087e-05
2.16369513356e-05
2.15131923861e-05
2.6290197698e-05
0.000176444721882
0.00980831291732
2.17902111674e-05
2.17832267333e-05
2.17729345572e-05
2.17483774924e-05
2.17383159516e-05
2.16138008758e-05
2.14220270951e-05
2.62476915269e-05
0.000181435100995
0.00980083467185
2.17925271778e-05
2.17849147345e-05
2.17729070679e-05
2.17408137745e-05
2.17474450653e-05
2.15911781777e-05
2.12871244402e-05
2.62923626465e-05
0.00019457651724
0.00981376803778
2.17962401555e-05
2.17894742223e-05
2.17779014908e-05
2.17497539438e-05
2.17683871038e-05
2.15763070073e-05
2.12239463385e-05
2.67008562148e-05
0.000215617034674
0.0104064628889
2.18005215567e-05
2.17954593916e-05
2.17838606391e-05
2.17742879607e-05
2.18004749109e-05
2.15764941774e-05
2.12065084224e-05
2.73481069376e-05
0.000241859117075
0.0102439986599
2.18035611689e-05
2.17994384036e-05
2.17828046949e-05
2.1798114521e-05
2.18204441401e-05
2.15555565145e-05
2.11671592127e-05
2.78031056596e-05
0.000274599759612
0.0105530971005
2.1803868636e-05
2.17986744953e-05
2.17766126131e-05
2.17904265066e-05
2.17835078751e-05
2.14888171254e-05
2.09896368773e-05
2.78835047765e-05
0.000305295717159
0.0113063045248
2.18004804774e-05
2.17918168084e-05
2.1766239802e-05
2.1752193423e-05
2.17045492632e-05
2.13781022022e-05
2.10119334044e-05
2.80810905342e-05
0.000325492040986
0.0112967651604
2.17952422475e-05
2.17831048557e-05
2.17553343793e-05
2.17123786846e-05
2.16349109455e-05
2.12151277027e-05
2.11855890156e-05
2.86133240045e-05
0.000356680221152
0.0112537576451
2.1791222504e-05
2.17776623238e-05
2.17474597989e-05
2.16834835732e-05
2.1563509936e-05
2.12839099575e-05
2.11440042095e-05
2.88984609669e-05
0.00038286478837
0.0123930685275
2.17913052345e-05
2.17790866452e-05
2.1753644656e-05
2.17024554128e-05
2.15892806505e-05
2.13425839586e-05
2.11216721492e-05
2.89847606636e-05
0.000396872886205
0.0126726973179
2.17913501653e-05
2.17804174046e-05
2.17641952235e-05
2.17492193956e-05
2.1680767968e-05
2.14142350343e-05
2.12220635341e-05
2.91861649838e-05
0.000426868091376
0.0126338829222
2.17898202828e-05
2.17773548256e-05
2.17648345277e-05
2.17674929282e-05
2.17192367334e-05
2.15617990308e-05
2.12919399372e-05
2.94040451679e-05
0.000461078858928
0.0128109478708
2.17912655583e-05
2.17793860235e-05
2.17741582869e-05
2.1781081897e-05
2.17349669253e-05
2.15262144485e-05
2.12693712585e-05
2.94346412854e-05
0.000487543170771
0.0128443641459
2.17936310787e-05
2.17875761037e-05
2.1799061636e-05
2.18117876065e-05
2.17593731441e-05
2.15095969951e-05
2.11793999966e-05
2.93710179626e-05
0.000517641952993
0.0133999637896
)
;
    }
    atmosphere
    {
        type            calculated;
        value           nonuniform List<scalar> 
16
(
0.0102682009492
0.00980831291732
0.00980083467185
0.00981376803778
0.0104064628889
0.0102439986599
0.0105530971005
0.0113063045248
0.0112967651604
0.0112537576451
0.0123930685275
0.0126726973179
0.0126338829222
0.0128109478708
0.0128443641459
0.0133999637896
)
;
    }
    floatingObject
    {
        type            calculated;
        value           nonuniform List<scalar> 0();
    }
    procBoundary5to0
    {
        type            processor;
        value           nonuniform List<scalar> 
12
(
2.17890141967e-05
2.17876010341e-05
2.17858456013e-05
2.17835869078e-05
2.17806293259e-05
2.17753315586e-05
2.17617922792e-05
2.1716053615e-05
2.16297810915e-05
2.68952738117e-05
0.000192601626158
0.0103177500165
)
;
    }
    procBoundary5to3
    {
        type            processor;
        value           nonuniform List<scalar> 10(2.17971950018e-05 2.1787270891e-05 2.18057938575e-05 2.18267932651e-05 2.17991690353e-05 2.14829599057e-05 2.10736111182e-05 2.9492984066e-05 0.00056906672866 0.0135274542853);
    }
    procBoundary5to4
    {
        type            processor;
        value           nonuniform List<scalar> 
18
(
2.17942694474e-05
2.17982253203e-05
2.1798830302e-05
2.17950607826e-05
2.17950607826e-05
2.17972200426e-05
2.18001837443e-05
2.18030423602e-05
2.1804741854e-05
2.18048020559e-05
2.18030596453e-05
2.17996927461e-05
2.17979334789e-05
2.17975155514e-05
2.1796667981e-05
2.17967850761e-05
2.17997733273e-05
2.18032240883e-05
)
;
    }
}


// ************************************************************************* //
