/*--------------------------------*- C++ -*----------------------------------*\
| =========                 |                                                 |
| \\      /  F ield         | OpenFOAM: The Open Source CFD Toolbox           |
|  \\    /   O peration     | Version:  v2012                                 |
|   \\  /    A nd           | Website:  www.openfoam.com                      |
|    \\/     M anipulation  |                                                 |
\*---------------------------------------------------------------------------*/
FoamFile
{
    version     2.0;
    format      ascii;
    class       volScalarField;
    location    "3.5";
    object      ddt0(k);
}
// * * * * * * * * * * * * * * * * * * * * * * * * * * * * * * * * * * * * * //

dimensions      [0 2 -3 0 0 0 0];


internalField   nonuniform List<scalar> 
167
(
-0.00168668140764
-0.0016867648907
-0.00166371331385
-0.00148576803802
-0.000805896008811
0.000168224212932
-0.00189421737122
-0.00973500036371
-0.0049804598163
-0.00168427493356
-0.00166614802233
-0.00150591818537
-0.000885069443065
-0.000129923372438
-0.0026348462297
-0.00874620022517
-0.00344542896415
-0.00168005617927
-0.00166368415623
-0.00151008845085
-0.000911821656546
-0.000284890667571
-0.00334323296203
-0.00914280124817
-0.00281191061357
-0.00167336840667
-0.00167395725729
-0.00165560802265
-0.00150147666501
-0.000936996936295
-0.000449218956562
-0.00382042154044
-0.00996079399937
-0.0026972517017
-0.00166774254563
-0.00166681222849
-0.00164423516828
-0.00148304413941
-0.000957793733204
-0.000711432805077
-0.00417210416558
-0.00997764798015
-0.0024108819807
-0.00166178393247
-0.00165939452114
-0.00163244912755
-0.00145375469868
-0.000895781124095
-0.000703272043314
-0.0039086277088
-0.00714709942885
0.00085442096538
-0.00165703683388
-0.00165545118036
-0.00165156094292
-0.0016209093299
-0.00142130347503
-0.000776573604227
-0.000460294006263
-0.0033781131481
-0.00146359510213
0.0150530727078
-0.00165223331044
-0.00165157375783
-0.00164868299382
-0.00164263034361
-0.00160613031397
-0.00137068290075
-0.000536172890532
0.000274369108052
-0.0020510637193
0.00377074431403
0.0315946294388
-0.00164759053033
-0.00164606373447
-0.00164139121098
-0.00163155013176
-0.001583727913
-0.00129851382387
-0.000253752304531
0.00108704765315
-0.000725354392747
0.00648270972613
0.0432406642926
-0.00164064279956
-0.00163369709188
-0.00161861317022
-0.00155451760701
-0.00120549080111
6.75312564051e-05
0.00200314981967
0.00110831720008
0.00599583094529
0.0292272736217
-0.00163549145783
-0.00162605917146
-0.00160469466972
-0.00152069347949
-0.00110056229284
0.000400199893289
0.00294093722406
0.00327633325848
0.00476227718437
0.00493491244542
-0.00163079465908
-0.00161874908425
-0.00159057112368
-0.00148671648892
-0.00100497736593
0.000683430815636
0.00393823342696
0.00628287993528
0.00652133082823
0.000453576476285
-0.00162616013213
-0.00161179639086
-0.00157738520135
-0.00145759247237
-0.000939280259776
0.000889598089047
0.00519611221734
0.0111837268943
0.0131107837161
0.00176407561718
-0.00161866139856
-0.00160296490448
-0.00156426921732
-0.00143368763854
-0.000890527677549
0.001104466382
0.00679662948629
0.0165296148272
0.0145589069555
7.79191621954e-05
-0.00160151181815
-0.00159656322373
-0.00158133624012
-0.00154207002191
-0.00140863074365
-0.000844189309641
0.00136586335923
0.00831457789369
0.0200734315461
0.0143375828126
-0.00116181179455
-0.00152255454706
-0.00151945605201
-0.00150673130123
-0.00147230146124
-0.00135139941512
-0.000793382341209
0.00161551060354
0.00931141658121
0.0202625584686
0.0114402385715
-0.00250324863137
-0.00120963014136
-0.00120555776022
-0.00119344083775
-0.00116651732985
-0.00108196080008
-0.000647865614027
0.0015547827579
0.00924826156957
0.0226726071821
0.0242780000774
0.00282837791702
)
;

boundaryField
{
    back
    {
        type            calculated;
        value           nonuniform List<scalar> 
167
(
-0.00168668140764
-0.0016867648907
-0.00166371331385
-0.00148576803802
-0.000805896008811
0.000168224212932
-0.00189421737122
-0.00973500036371
-0.0049804598163
-0.00168427493356
-0.00166614802233
-0.00150591818537
-0.000885069443065
-0.000129923372438
-0.0026348462297
-0.00874620022517
-0.00344542896415
-0.00168005617927
-0.00166368415623
-0.00151008845085
-0.000911821656546
-0.000284890667571
-0.00334323296203
-0.00914280124817
-0.00281191061357
-0.00167336840667
-0.00167395725729
-0.00165560802265
-0.00150147666501
-0.000936996936295
-0.000449218956562
-0.00382042154044
-0.00996079399937
-0.0026972517017
-0.00166774254563
-0.00166681222849
-0.00164423516828
-0.00148304413941
-0.000957793733204
-0.000711432805077
-0.00417210416558
-0.00997764798015
-0.0024108819807
-0.00166178393247
-0.00165939452114
-0.00163244912755
-0.00145375469868
-0.000895781124095
-0.000703272043314
-0.0039086277088
-0.00714709942885
0.00085442096538
-0.00165703683388
-0.00165545118036
-0.00165156094292
-0.0016209093299
-0.00142130347503
-0.000776573604227
-0.000460294006263
-0.0033781131481
-0.00146359510213
0.0150530727078
-0.00165223331044
-0.00165157375783
-0.00164868299382
-0.00164263034361
-0.00160613031397
-0.00137068290075
-0.000536172890532
0.000274369108052
-0.0020510637193
0.00377074431403
0.0315946294388
-0.00164759053033
-0.00164606373447
-0.00164139121098
-0.00163155013176
-0.001583727913
-0.00129851382387
-0.000253752304531
0.00108704765315
-0.000725354392747
0.00648270972613
0.0432406642926
-0.00164064279956
-0.00163369709188
-0.00161861317022
-0.00155451760701
-0.00120549080111
6.75312564051e-05
0.00200314981967
0.00110831720007
0.00599583094529
0.0292272736217
-0.00163549145783
-0.00162605917146
-0.00160469466972
-0.00152069347949
-0.00110056229284
0.000400199893289
0.00294093722406
0.00327633325848
0.00476227718437
0.00493491244542
-0.00163079465908
-0.00161874908425
-0.00159057112368
-0.00148671648892
-0.00100497736593
0.000683430815636
0.00393823342696
0.00628287993528
0.00652133082823
0.000453576476285
-0.00162616013213
-0.00161179639086
-0.00157738520135
-0.00145759247237
-0.000939280259776
0.000889598089047
0.00519611221734
0.0111837268943
0.0131107837161
0.00176407561718
-0.00161866139856
-0.00160296490448
-0.00156426921732
-0.00143368763854
-0.000890527677549
0.001104466382
0.00679662948629
0.0165296148272
0.0145589069555
7.79191621951e-05
-0.00160151181815
-0.00159656322373
-0.00158133624012
-0.00154207002191
-0.00140863074365
-0.000844189309641
0.00136586335923
0.00831457789369
0.0200734315461
0.0143375828126
-0.00116181179455
-0.00152255454706
-0.00151945605201
-0.00150673130123
-0.00147230146124
-0.00135139941512
-0.000793382341209
0.00161551060354
0.00931141658121
0.0202625584686
0.0114402385715
-0.00250324863137
-0.00120963014136
-0.00120555776022
-0.00119344083775
-0.00116651732985
-0.00108196080008
-0.000647865614027
0.0015547827579
0.00924826156957
0.0226726071821
0.0242780000774
0.00282837791702
)
;
    }
    sides
    {
        type            calculated;
        value           nonuniform List<scalar> 
11
(
-0.00120963014136
-0.00120555776022
-0.00119344083775
-0.00116651732985
-0.00108196080008
-0.000647865614027
0.0015547827579
0.00924826156957
0.0226726071821
0.0242780000774
0.00282837791702
)
;
    }
    bottom
    {
        type            calculated;
        value           nonuniform List<scalar> 0();
    }
    front
    {
        type            calculated;
        value           nonuniform List<scalar> 
167
(
-0.00168668140764
-0.0016867648907
-0.00166371331385
-0.00148576803802
-0.000805896008811
0.000168224212932
-0.00189421737122
-0.00973500036371
-0.0049804598163
-0.00168427493356
-0.00166614802233
-0.00150591818537
-0.000885069443065
-0.000129923372438
-0.0026348462297
-0.00874620022517
-0.00344542896415
-0.00168005617927
-0.00166368415623
-0.00151008845085
-0.000911821656546
-0.000284890667571
-0.00334323296203
-0.00914280124817
-0.00281191061357
-0.00167336840667
-0.00167395725729
-0.00165560802265
-0.00150147666501
-0.000936996936295
-0.000449218956562
-0.00382042154044
-0.00996079399937
-0.0026972517017
-0.00166774254563
-0.00166681222849
-0.00164423516828
-0.00148304413941
-0.000957793733204
-0.000711432805077
-0.00417210416558
-0.00997764798015
-0.0024108819807
-0.00166178393247
-0.00165939452114
-0.00163244912755
-0.00145375469868
-0.000895781124095
-0.000703272043314
-0.0039086277088
-0.00714709942885
0.00085442096538
-0.00165703683388
-0.00165545118036
-0.00165156094292
-0.0016209093299
-0.00142130347503
-0.000776573604227
-0.000460294006263
-0.0033781131481
-0.00146359510213
0.0150530727078
-0.00165223331044
-0.00165157375783
-0.00164868299382
-0.00164263034361
-0.00160613031397
-0.00137068290075
-0.000536172890532
0.000274369108052
-0.0020510637193
0.00377074431403
0.0315946294388
-0.00164759053033
-0.00164606373447
-0.00164139121098
-0.00163155013176
-0.001583727913
-0.00129851382387
-0.000253752304531
0.00108704765315
-0.000725354392747
0.00648270972613
0.0432406642926
-0.00164064279956
-0.00163369709188
-0.00161861317022
-0.00155451760701
-0.00120549080111
6.75312564051e-05
0.00200314981967
0.00110831720007
0.00599583094529
0.0292272736217
-0.00163549145783
-0.00162605917146
-0.00160469466972
-0.00152069347949
-0.00110056229284
0.000400199893289
0.00294093722406
0.00327633325848
0.00476227718437
0.00493491244542
-0.00163079465908
-0.00161874908425
-0.00159057112368
-0.00148671648892
-0.00100497736593
0.000683430815636
0.00393823342696
0.00628287993528
0.00652133082823
0.000453576476285
-0.00162616013213
-0.00161179639086
-0.00157738520135
-0.00145759247237
-0.000939280259776
0.000889598089047
0.00519611221734
0.0111837268943
0.0131107837161
0.00176407561718
-0.00161866139856
-0.00160296490448
-0.00156426921732
-0.00143368763854
-0.000890527677549
0.001104466382
0.00679662948629
0.0165296148272
0.0145589069555
7.79191621951e-05
-0.00160151181815
-0.00159656322373
-0.00158133624012
-0.00154207002191
-0.00140863074365
-0.000844189309641
0.00136586335923
0.00831457789369
0.0200734315461
0.0143375828126
-0.00116181179455
-0.00152255454706
-0.00151945605201
-0.00150673130123
-0.00147230146124
-0.00135139941512
-0.000793382341209
0.00161551060354
0.00931141658121
0.0202625584686
0.0114402385715
-0.00250324863137
-0.00120963014136
-0.00120555776022
-0.00119344083775
-0.00116651732985
-0.00108196080008
-0.000647865614027
0.0015547827579
0.00924826156957
0.0226726071821
0.0242780000774
0.00282837791702
)
;
    }
    atmosphere
    {
        type            calculated;
        value           nonuniform List<scalar> 
17
(
3.41148942345e-09
-5.80626057951e-11
-3.13258993417e-10
-3.06867955686e-09
2.21431670643e-09
2.50921954877e-08
0.0057175652658
-0.0167477046735
0.0276335267047
0.019469399485
-1.67608996793e-13
-1.76526860568e-13
1.08582849752e-05
5.45325991869e-05
5.76613913169e-05
-2.72504643495e-05
-6.39166537763e-11
)
;
    }
    floatingObject
    {
        type            calculated;
        value           nonuniform List<scalar> 0();
    }
    procBoundary11to9
    {
        type            processor;
        value           nonuniform List<scalar> 9(-0.00168993672897 -0.0016884877214 -0.00166079951854 -0.00146923388973 -0.000735385491846 0.000430049511412 -0.00123279921497 -0.00927642964884 -0.00541225536773);
    }
    procBoundary11to10
    {
        type            processor;
        value           nonuniform List<scalar> 
23
(
-0.00168492985777
-0.0016829285706
-0.0016829285706
-0.00167845813987
-0.00167845813987
-0.00167219732001
-0.00166734692879
-0.00166229903911
-0.00166229903911
-0.0016568885789
-0.0016568885789
-0.00165097084338
-0.00164678540847
-0.00164318711158
-0.00164318711158
-0.0016390754682
-0.00163542750191
-0.00163159483239
-0.00162434006901
-0.00162434006901
-0.00160127057159
-0.00152101776769
-0.00120961622599
)
;
    }
}


// ************************************************************************* //
