/*--------------------------------*- C++ -*----------------------------------*\
| =========                 |                                                 |
| \\      /  F ield         | OpenFOAM: The Open Source CFD Toolbox           |
|  \\    /   O peration     | Version:  v2012                                 |
|   \\  /    A nd           | Website:  www.openfoam.com                      |
|    \\/     M anipulation  |                                                 |
\*---------------------------------------------------------------------------*/
FoamFile
{
    version     2.0;
    format      ascii;
    class       volScalarField;
    location    "5.3";
    object      ddt0(epsilon);
}
// * * * * * * * * * * * * * * * * * * * * * * * * * * * * * * * * * * * * * //

dimensions      [0 2 -4 0 0 0 0];


internalField   nonuniform List<scalar> 
164
(
-0.000305232313682
-0.000306589837204
-0.000308512399004
-0.000311975123404
-0.000320187429949
-0.000344438361336
-0.000431051354639
-0.000804914993513
-0.00249122430937
-0.00804827640111
-0.0085787294064
0.402466153764
-0.000305848630062
-0.000307264112907
-0.000309257940362
-0.000312825438531
-0.000321339776636
-0.000346870448056
-0.000439977394783
-0.000848480458043
-0.00266815744524
-0.00871152703849
-0.0173648471966
0.146753661224
-0.000310009430982
-0.000313738481807
-0.00032272115373
-0.000350010072589
-0.000450661950814
-0.000895333670887
-0.00282633965621
-0.00861700300866
-0.0112076535578
0.559488216054
-0.000310801653535
-0.000314778214499
-0.000324498752469
-0.000354341063511
-0.000464775710437
-0.000950018667864
-0.00298664415804
-0.00826372735717
-0.0088346962372
0.0226066626929
-0.000311652942173
-0.00031603861257
-0.000326870689159
-0.000359657436683
-0.000477852468776
-0.000994185064647
-0.00316547257988
-0.00836396812524
-0.00873136108774
-0.121737808733
-0.000312592758473
-0.000317666631406
-0.000330364249992
-0.000367606600983
-0.000494776513541
-0.00103861948845
-0.00336521038045
-0.00921299061038
-0.0085479504663
-0.0918988844105
-0.000313635631679
-0.000319792397241
-0.000335585008301
-0.000380593677847
-0.000524030945496
-0.00110139931578
-0.00354017419665
-0.00996995596321
0.0024813206712
0.127426368377
-0.000314744629855
-0.000322364210047
-0.000342484312114
-0.000398877637562
-0.00056837544582
-0.00119626456863
-0.00373302346555
-0.0109301559067
-0.0113170563491
0.0345370370735
-0.000315809433158
-0.000325017141681
-0.000349849346661
-0.00041861547031
-0.000617307905605
-0.00130611849893
-0.00394836051317
-0.011609165325
-0.0107401680125
0.0313564986998
-0.000316670108366
-0.000327189899115
-0.000355832249786
-0.000434417651061
-0.000657113250952
-0.00140051254083
-0.00408610044428
-0.0107443450489
0.00868217563783
0.0923414183061
-0.000317214882523
-0.000328406499773
-0.00035885835697
-0.00044203027881
-0.000677321282482
-0.00145619274844
-0.00414608177465
-0.010519027625
-0.0114249523096
-0.0947005925953
-0.00031751214039
-0.000328838865314
-0.000359435893913
-0.000442949192114
-0.000682917554453
-0.00149009380683
-0.00425204944484
-0.0107040133785
-0.00529852275021
0.0151934722596
-0.000317780054029
-0.00032920688467
-0.000359610698508
-0.000442288033157
-0.00068349559411
-0.00151498754943
-0.00439479498902
-0.0111631816923
0.0022243588244
0.133552189794
-0.000318040813575
-0.000329557627426
-0.000359827349674
-0.00044214877098
-0.0006860551779
-0.00154382792743
-0.00453242012101
-0.011798121132
0.00429080936725
0.187478089695
-0.000318046857152
-0.000329135919857
-0.000358081045834
-0.000438719593967
-0.000686167644161
-0.00157188086385
-0.00463621149634
-0.0133191326253
-0.0288531461992
0.375211437028
-0.00031790603583
-0.000327988898567
-0.000354387758498
-0.000431908075019
-0.000685309555178
-0.00160895425046
-0.00471141482641
-0.0132549080681
-0.0343499051786
0.0854509846351
)
;

boundaryField
{
    back
    {
        type            calculated;
        value           nonuniform List<scalar> 
164
(
-0.000305232313682
-0.000306589837204
-0.000308512399004
-0.000311975123404
-0.000320187429949
-0.000344438361336
-0.000431051354639
-0.000804914993513
-0.00249122430937
-0.00804827640111
-0.0085787294064
0.402466153764
-0.000305848630062
-0.000307264112907
-0.000309257940362
-0.000312825438531
-0.000321339776636
-0.000346870448056
-0.000439977394783
-0.000848480458043
-0.00266815744524
-0.00871152703849
-0.0173648471966
0.146753661224
-0.000310009430982
-0.000313738481807
-0.00032272115373
-0.000350010072589
-0.000450661950814
-0.000895333670887
-0.00282633965621
-0.00861700300866
-0.0112076535578
0.559488216054
-0.000310801653535
-0.000314778214499
-0.000324498752469
-0.000354341063511
-0.000464775710437
-0.000950018667864
-0.00298664415804
-0.00826372735717
-0.0088346962372
0.0226066626929
-0.000311652942173
-0.00031603861257
-0.000326870689159
-0.000359657436683
-0.000477852468776
-0.000994185064647
-0.00316547257988
-0.00836396812524
-0.00873136108774
-0.121737808733
-0.000312592758473
-0.000317666631406
-0.000330364249992
-0.000367606600983
-0.000494776513541
-0.00103861948845
-0.00336521038045
-0.00921299061038
-0.0085479504663
-0.0918988844105
-0.000313635631679
-0.000319792397241
-0.000335585008301
-0.000380593677847
-0.000524030945496
-0.00110139931578
-0.00354017419665
-0.00996995596321
0.0024813206712
0.127426368377
-0.000314744629855
-0.000322364210047
-0.000342484312114
-0.000398877637562
-0.00056837544582
-0.00119626456863
-0.00373302346555
-0.0109301559067
-0.0113170563491
0.0345370370735
-0.000315809433158
-0.000325017141681
-0.000349849346661
-0.00041861547031
-0.000617307905605
-0.00130611849893
-0.00394836051317
-0.011609165325
-0.0107401680125
0.0313564986998
-0.000316670108366
-0.000327189899115
-0.000355832249786
-0.000434417651061
-0.000657113250952
-0.00140051254083
-0.00408610044428
-0.0107443450489
0.00868217563783
0.0923414183061
-0.000317214882523
-0.000328406499773
-0.00035885835697
-0.00044203027881
-0.000677321282482
-0.00145619274844
-0.00414608177465
-0.010519027625
-0.0114249523096
-0.0947005925953
-0.00031751214039
-0.000328838865314
-0.000359435893913
-0.000442949192114
-0.000682917554453
-0.00149009380683
-0.00425204944484
-0.0107040133785
-0.00529852275021
0.0151934722596
-0.000317780054029
-0.00032920688467
-0.000359610698508
-0.000442288033157
-0.00068349559411
-0.00151498754943
-0.00439479498902
-0.0111631816923
0.0022243588244
0.133552189794
-0.000318040813575
-0.000329557627426
-0.000359827349674
-0.00044214877098
-0.0006860551779
-0.00154382792743
-0.00453242012101
-0.011798121132
0.00429080936725
0.187478089695
-0.000318046857152
-0.000329135919857
-0.000358081045834
-0.000438719593967
-0.000686167644161
-0.00157188086385
-0.00463621149634
-0.0133191326253
-0.0288531461992
0.375211437028
-0.00031790603583
-0.000327988898567
-0.000354387758498
-0.000431908075019
-0.000685309555178
-0.00160895425046
-0.00471141482641
-0.0132549080681
-0.0343499051786
0.0854509846351
)
;
    }
    sides
    {
        type            calculated;
        value           nonuniform List<scalar> 0();
    }
    bottom
    {
        type            calculated;
        value           nonuniform List<scalar> 0();
    }
    front
    {
        type            calculated;
        value           nonuniform List<scalar> 
164
(
-0.000305232313682
-0.000306589837204
-0.000308512399004
-0.000311975123404
-0.000320187429949
-0.000344438361336
-0.000431051354639
-0.000804914993513
-0.00249122430937
-0.00804827640111
-0.0085787294064
0.402466153764
-0.000305848630062
-0.000307264112907
-0.000309257940362
-0.000312825438531
-0.000321339776636
-0.000346870448056
-0.000439977394783
-0.000848480458043
-0.00266815744524
-0.00871152703849
-0.0173648471966
0.146753661224
-0.000310009430982
-0.000313738481807
-0.00032272115373
-0.000350010072589
-0.000450661950814
-0.000895333670887
-0.00282633965621
-0.00861700300866
-0.0112076535578
0.559488216054
-0.000310801653535
-0.000314778214499
-0.000324498752469
-0.000354341063511
-0.000464775710437
-0.000950018667864
-0.00298664415804
-0.00826372735717
-0.0088346962372
0.0226066626929
-0.000311652942173
-0.00031603861257
-0.000326870689159
-0.000359657436683
-0.000477852468776
-0.000994185064647
-0.00316547257988
-0.00836396812524
-0.00873136108774
-0.121737808733
-0.000312592758473
-0.000317666631406
-0.000330364249992
-0.000367606600983
-0.000494776513541
-0.00103861948845
-0.00336521038045
-0.00921299061038
-0.0085479504663
-0.0918988844105
-0.000313635631679
-0.000319792397241
-0.000335585008301
-0.000380593677847
-0.000524030945496
-0.00110139931578
-0.00354017419665
-0.00996995596321
0.0024813206712
0.127426368377
-0.000314744629855
-0.000322364210047
-0.000342484312114
-0.000398877637562
-0.00056837544582
-0.00119626456863
-0.00373302346555
-0.0109301559067
-0.0113170563491
0.0345370370735
-0.000315809433158
-0.000325017141681
-0.000349849346661
-0.00041861547031
-0.000617307905605
-0.00130611849893
-0.00394836051317
-0.011609165325
-0.0107401680125
0.0313564986998
-0.000316670108366
-0.000327189899115
-0.000355832249786
-0.000434417651061
-0.000657113250952
-0.00140051254083
-0.00408610044428
-0.0107443450489
0.00868217563783
0.0923414183061
-0.000317214882523
-0.000328406499773
-0.00035885835697
-0.00044203027881
-0.000677321282482
-0.00145619274844
-0.00414608177465
-0.010519027625
-0.0114249523096
-0.0947005925953
-0.00031751214039
-0.000328838865314
-0.000359435893913
-0.000442949192114
-0.000682917554453
-0.00149009380683
-0.00425204944484
-0.0107040133785
-0.00529852275021
0.0151934722596
-0.000317780054029
-0.00032920688467
-0.000359610698508
-0.000442288033157
-0.00068349559411
-0.00151498754943
-0.00439479498902
-0.0111631816923
0.0022243588244
0.133552189794
-0.000318040813575
-0.000329557627426
-0.000359827349674
-0.00044214877098
-0.0006860551779
-0.00154382792743
-0.00453242012101
-0.011798121132
0.00429080936725
0.187478089695
-0.000318046857152
-0.000329135919857
-0.000358081045834
-0.000438719593967
-0.000686167644161
-0.00157188086385
-0.00463621149634
-0.0133191326253
-0.0288531461992
0.375211437028
-0.00031790603583
-0.000327988898567
-0.000354387758498
-0.000431908075019
-0.000685309555178
-0.00160895425046
-0.00471141482641
-0.0132549080681
-0.0343499051786
0.0854509846351
)
;
    }
    atmosphere
    {
        type            calculated;
        value           nonuniform List<scalar> 
16
(
-0.862386234889
0.146767482342
0.856922562957
-4.21861277865e-05
5.99543457976e-05
0.000603782348553
0.119703978737
0.463019167976
0.0312715687288
2.48025678603
0.000630534822804
0.0802757927755
-0.011009900581
0.0779695886325
-1.59182463662
0.0756739310292
)
;
    }
    floatingObject
    {
        type            calculated;
        value           nonuniform List<scalar> 0();
    }
    procBoundary5to0
    {
        type            processor;
        value           nonuniform List<scalar> 
12
(
-0.000304596911337
-0.00030589573849
-0.000307749725052
-0.000311122809081
-0.000319049799681
-0.000342030251473
-0.000421855056807
-0.000758690203132
-0.00224776317813
-0.00566563242314
0.0159283982087
0.670968243546
)
;
    }
    procBoundary5to3
    {
        type            processor;
        value           nonuniform List<scalar> 10(-0.000317947581582 -0.000327400284268 -0.000351964441866 -0.00042854555665 -0.000695119523546 -0.00167281208637 -0.00482782488773 -0.0125168282795 -0.0122286911233 0.315404663209);
    }
    procBoundary5to4
    {
        type            processor;
        value           nonuniform List<scalar> 
18
(
-0.000304151561402
-0.00030471449262
-0.000306444779772
-0.000307930283188
-0.000307930283188
-0.000308603329032
-0.000309271828884
-0.00030993901158
-0.000310600411501
-0.000311229764149
-0.000311781759475
-0.000312210592337
-0.000312500292117
-0.000312682205108
-0.000312809601334
-0.000312899615872
-0.000312938399203
-0.000312883970057
)
;
    }
}


// ************************************************************************* //
