/*--------------------------------*- C++ -*----------------------------------*\
| =========                 |                                                 |
| \\      /  F ield         | OpenFOAM: The Open Source CFD Toolbox           |
|  \\    /   O peration     | Version:  v2012                                 |
|   \\  /    A nd           | Website:  www.openfoam.com                      |
|    \\/     M anipulation  |                                                 |
\*---------------------------------------------------------------------------*/
FoamFile
{
    version     2.0;
    format      ascii;
    class       volScalarField;
    location    "5.3";
    object      k;
}
// * * * * * * * * * * * * * * * * * * * * * * * * * * * * * * * * * * * * * //

dimensions      [0 2 -2 0 0 0 0];


internalField   nonuniform List<scalar> 
164
(
0.00183146527361
0.00183858189377
0.00184823059589
0.00186431189906
0.00189929703548
0.00199525712534
0.00229316531476
0.00319627464422
0.00547066068089
0.010016992652
0.0197872700812
0.053706324943
0.00183197998602
0.00183913196233
0.00184875143939
0.00186467096828
0.0018993115554
0.00199492385149
0.00229415403762
0.00320444911555
0.0054869178785
0.00999758857161
0.018761964915
0.0413493759962
0.00184894254823
0.00186477394761
0.00189917324377
0.00199448330204
0.00229423241637
0.00320952016807
0.00551372196207
0.0102808770007
0.0217631965326
0.0594779853519
0.00184884005852
0.00186471659323
0.00189918144269
0.00199478858386
0.00229583110495
0.0032166747282
0.00554761962551
0.0105919835331
0.024319272532
0.0722488685543
0.00184849421342
0.00186464902513
0.00189971210179
0.00199639043689
0.00229854528524
0.00322288349232
0.00557753480521
0.010755322408
0.0251392878515
0.0727997027079
0.00184798343341
0.00186482604855
0.00190150525123
0.00200111392546
0.00230627548096
0.00323536230676
0.00561494923022
0.0108479198686
0.0252209967468
0.0736635372232
0.00184740650806
0.00186558181996
0.00190565207878
0.00201227463612
0.00232751803528
0.00326703474067
0.00565568312134
0.0107833687629
0.0243216331775
0.0728649044244
0.0018468329365
0.00186713043213
0.00191285093394
0.00203213767048
0.00236874752397
0.00332952580114
0.00570350636763
0.0105252411912
0.021492063371
0.0635317825772
0.00184622292741
0.00186926620055
0.00192233732869
0.00205838887204
0.00242452604968
0.00341477253218
0.00576497796321
0.0103527782067
0.0198856302619
0.0492821260978
0.00184538913731
0.00187126595056
0.00193172033767
0.00208432508953
0.00247963909045
0.00349855605162
0.0058321179785
0.0104673026058
0.0220445850523
0.061907851577
0.00184407195818
0.00187217912883
0.00193801301208
0.00210214720036
0.00251747259314
0.00355557670181
0.00587901210544
0.0106328525098
0.0237282613492
0.0734237680262
0.00184215666412
0.0018715745819
0.00193998023388
0.00210894600714
0.00253303533189
0.0035815991976
0.00589710585347
0.0106030629595
0.0233784718402
0.0718092783976
0.00183976555545
0.00186986416521
0.00193887073376
0.00210795520201
0.00253258241808
0.00358617057417
0.00590228808886
0.0104851506842
0.0224681832718
0.0705011208543
0.00183701130197
0.0018673878512
0.00193591454068
0.00210311182798
0.0025259710163
0.00358497938266
0.00591128100322
0.0104210251289
0.021716480834
0.0682632787951
0.00183378930867
0.00186371746894
0.00193024503635
0.00209357147156
0.00251407298615
0.0035807407083
0.0059254037494
0.0103986785017
0.0199576953695
0.0556106622029
0.0018300997658
0.00185883842187
0.00192181887817
0.0020797818527
0.00249959034142
0.00357836013975
0.00592430671194
0.0102896914485
0.0188059292637
0.042217459978
)
;

boundaryField
{
    back
    {
        type            kqRWallFunction;
        value           nonuniform List<scalar> 
164
(
0.00183146527361
0.00183858189377
0.00184823059589
0.00186431189906
0.00189929703548
0.00199525712534
0.00229316531476
0.00319627464422
0.00547066068089
0.010016992652
0.0197872700812
0.053706324943
0.00183197998602
0.00183913196233
0.00184875143939
0.00186467096828
0.0018993115554
0.00199492385149
0.00229415403762
0.00320444911555
0.0054869178785
0.00999758857161
0.018761964915
0.0413493759962
0.00184894254823
0.00186477394761
0.00189917324377
0.00199448330204
0.00229423241637
0.00320952016807
0.00551372196207
0.0102808770007
0.0217631965326
0.0594779853519
0.00184884005852
0.00186471659323
0.00189918144269
0.00199478858386
0.00229583110495
0.0032166747282
0.00554761962551
0.0105919835331
0.024319272532
0.0722488685543
0.00184849421342
0.00186464902513
0.00189971210179
0.00199639043689
0.00229854528524
0.00322288349232
0.00557753480521
0.010755322408
0.0251392878515
0.0727997027079
0.00184798343341
0.00186482604855
0.00190150525123
0.00200111392546
0.00230627548096
0.00323536230676
0.00561494923022
0.0108479198686
0.0252209967468
0.0736635372232
0.00184740650806
0.00186558181996
0.00190565207878
0.00201227463612
0.00232751803528
0.00326703474067
0.00565568312134
0.0107833687629
0.0243216331775
0.0728649044244
0.0018468329365
0.00186713043213
0.00191285093394
0.00203213767048
0.00236874752397
0.00332952580114
0.00570350636763
0.0105252411912
0.021492063371
0.0635317825772
0.00184622292741
0.00186926620055
0.00192233732869
0.00205838887204
0.00242452604968
0.00341477253218
0.00576497796321
0.0103527782067
0.0198856302619
0.0492821260978
0.00184538913731
0.00187126595056
0.00193172033767
0.00208432508953
0.00247963909045
0.00349855605162
0.0058321179785
0.0104673026058
0.0220445850523
0.061907851577
0.00184407195818
0.00187217912883
0.00193801301208
0.00210214720036
0.00251747259314
0.00355557670181
0.00587901210544
0.0106328525098
0.0237282613492
0.0734237680262
0.00184215666412
0.0018715745819
0.00193998023388
0.00210894600714
0.00253303533189
0.0035815991976
0.00589710585347
0.0106030629595
0.0233784718402
0.0718092783976
0.00183976555545
0.00186986416521
0.00193887073376
0.00210795520201
0.00253258241808
0.00358617057417
0.00590228808886
0.0104851506842
0.0224681832718
0.0705011208543
0.00183701130197
0.0018673878512
0.00193591454068
0.00210311182798
0.0025259710163
0.00358497938266
0.00591128100322
0.0104210251289
0.021716480834
0.0682632787951
0.00183378930867
0.00186371746894
0.00193024503635
0.00209357147156
0.00251407298615
0.0035807407083
0.0059254037494
0.0103986785017
0.0199576953695
0.0556106622029
0.0018300997658
0.00185883842187
0.00192181887817
0.0020797818527
0.00249959034142
0.00357836013975
0.00592430671194
0.0102896914485
0.0188059292637
0.042217459978
)
;
    }
    sides
    {
        type            kqRWallFunction;
        value           nonuniform List<scalar> 0();
    }
    bottom
    {
        type            kqRWallFunction;
        value           nonuniform List<scalar> 0();
    }
    front
    {
        type            kqRWallFunction;
        value           nonuniform List<scalar> 
164
(
0.00183146527361
0.00183858189377
0.00184823059589
0.00186431189906
0.00189929703548
0.00199525712534
0.00229316531476
0.00319627464422
0.00547066068089
0.010016992652
0.0197872700812
0.053706324943
0.00183197998602
0.00183913196233
0.00184875143939
0.00186467096828
0.0018993115554
0.00199492385149
0.00229415403762
0.00320444911555
0.0054869178785
0.00999758857161
0.018761964915
0.0413493759962
0.00184894254823
0.00186477394761
0.00189917324377
0.00199448330204
0.00229423241637
0.00320952016807
0.00551372196207
0.0102808770007
0.0217631965326
0.0594779853519
0.00184884005852
0.00186471659323
0.00189918144269
0.00199478858386
0.00229583110495
0.0032166747282
0.00554761962551
0.0105919835331
0.024319272532
0.0722488685543
0.00184849421342
0.00186464902513
0.00189971210179
0.00199639043689
0.00229854528524
0.00322288349232
0.00557753480521
0.010755322408
0.0251392878515
0.0727997027079
0.00184798343341
0.00186482604855
0.00190150525123
0.00200111392546
0.00230627548096
0.00323536230676
0.00561494923022
0.0108479198686
0.0252209967468
0.0736635372232
0.00184740650806
0.00186558181996
0.00190565207878
0.00201227463612
0.00232751803528
0.00326703474067
0.00565568312134
0.0107833687629
0.0243216331775
0.0728649044244
0.0018468329365
0.00186713043213
0.00191285093394
0.00203213767048
0.00236874752397
0.00332952580114
0.00570350636763
0.0105252411912
0.021492063371
0.0635317825772
0.00184622292741
0.00186926620055
0.00192233732869
0.00205838887204
0.00242452604968
0.00341477253218
0.00576497796321
0.0103527782067
0.0198856302619
0.0492821260978
0.00184538913731
0.00187126595056
0.00193172033767
0.00208432508953
0.00247963909045
0.00349855605162
0.0058321179785
0.0104673026058
0.0220445850523
0.061907851577
0.00184407195818
0.00187217912883
0.00193801301208
0.00210214720036
0.00251747259314
0.00355557670181
0.00587901210544
0.0106328525098
0.0237282613492
0.0734237680262
0.00184215666412
0.0018715745819
0.00193998023388
0.00210894600714
0.00253303533189
0.0035815991976
0.00589710585347
0.0106030629595
0.0233784718402
0.0718092783976
0.00183976555545
0.00186986416521
0.00193887073376
0.00210795520201
0.00253258241808
0.00358617057417
0.00590228808886
0.0104851506842
0.0224681832718
0.0705011208543
0.00183701130197
0.0018673878512
0.00193591454068
0.00210311182798
0.0025259710163
0.00358497938266
0.00591128100322
0.0104210251289
0.021716480834
0.0682632787951
0.00183378930867
0.00186371746894
0.00193024503635
0.00209357147156
0.00251407298615
0.0035807407083
0.0059254037494
0.0103986785017
0.0199576953695
0.0556106622029
0.0018300997658
0.00185883842187
0.00192181887817
0.0020797818527
0.00249959034142
0.00357836013975
0.00592430671194
0.0102896914485
0.0188059292637
0.042217459978
)
;
    }
    atmosphere
    {
        type            inletOutlet;
        inletValue      uniform 0.1;
        value           nonuniform List<scalar> 
16
(
0.053706324943
0.0413493759962
0.1
0.1
0.1
0.1
0.1
0.1
0.0492821260978
0.061907851577
0.1
0.1
0.1
0.1
0.1
0.042217459978
)
;
    }
    floatingObject
    {
        type            kqRWallFunction;
        value           nonuniform List<scalar> 0();
    }
    procBoundary5to0
    {
        type            processor;
        value           nonuniform List<scalar> 
12
(
0.00183056076862
0.00183767271421
0.0018473859756
0.0018636635631
0.00189897208093
0.00199484835563
0.00228949114972
0.00318008083419
0.00544195202544
0.0101025116885
0.0219970455552
0.0687803453086
)
;
    }
    procBoundary5to3
    {
        type            processor;
        value           nonuniform List<scalar> 10(0.00182644766877 0.00185409243271 0.00191392772079 0.0020683438769 0.00249341642899 0.00359261142823 0.00593465324262 0.0101965700318 0.0193916353689 0.0543399399418);
    }
    procBoundary5to4
    {
        type            processor;
        value           nonuniform List<scalar> 
18
(
0.00182557114795
0.00182603093986
0.00183210259408
0.00183931498763
0.00183931498763
0.00183914600108
0.00183863778716
0.00183781429813
0.0018367045198
0.00183533671403
0.00183371266024
0.00183179313118
0.00182951708539
0.00182686866832
0.00182389260183
0.00182064160344
0.00181711793537
0.0018133853386
)
;
    }
}


// ************************************************************************* //
