/*--------------------------------*- C++ -*----------------------------------*\
| =========                 |                                                 |
| \\      /  F ield         | OpenFOAM: The Open Source CFD Toolbox           |
|  \\    /   O peration     | Version:  v2012                                 |
|   \\  /    A nd           | Website:  www.openfoam.com                      |
|    \\/     M anipulation  |                                                 |
\*---------------------------------------------------------------------------*/
FoamFile
{
    version     2.0;
    format      ascii;
    class       volScalarField;
    location    "1.2";
    object      alpha.water;
}
// * * * * * * * * * * * * * * * * * * * * * * * * * * * * * * * * * * * * * //

dimensions      [0 0 0 0 0 0 0];


internalField   nonuniform List<scalar> 
164
(
1.00000372795
1.00000285171
1.00000102565
0.999999415316
0.99999907197
0.999999896903
0.75239682735
0
1.00000297127
1.00000222189
1.00000099025
0.99999972042
0.999999165753
0.999999896842
0.999999972881
0.258801748053
1.00000328889
1.00000208717
1.00000107332
0.999999996821
0.999999637986
0.999999978633
0.999999978666
0.258798452719
1.00000351046
1.00000275641
1.00000180095
1.00000082277
1.00000028272
1.00000018024
0.752382743279
0
1.00000189673
1.00000133085
1.00000056764
1.00000029268
0.981335509849
0.0437325708434
1.00000060296
1.00000061893
1.00000027347
1.00000014639
1
0.369404336246
0.999999948979
1.00000018436
1.00000006062
1.00000005912
0.891279630416
0.0313725267204
0.999999427382
0.999999960723
0.999999982069
1
0.554874420189
-2.05368139393e-43
0.999999296948
0.999999877775
0.999999960512
1
0.586569868985
-2.05768866279e-44
0.999999451968
1
1
1
0.553783207183
-8.26032259003e-62
0.999999939679
1.00000021205
1.00000008882
1
0.466347076742
-3.62779746447e-61
1.00000051511
1.00000046478
1.00000020089
1
0.6428741209
-2.6213253445e-61
1.00000112676
1.00000070969
1.00000034656
1
0.995842610949
0.182750968287
1.00000161012
1.00000088365
1.0000004295
1
0.496628226352
0
1.00000192348
1.00000098136
1.00000048163
1
0.428814321446
0
1.00000210281
1.00000103107
1.00000051811
1
0.612012603145
0
1.0000022287
1.00000104217
1.00000053578
1
0.885628494786
0.115875037079
1.00000220531
1.00000098397
1.00000048166
1
0.377857399977
0
1.00000197687
1.00000089838
1.00000041522
1
0.385244004095
0
1.00000176453
1.0000008151
1.00000034564
0.999414853171
0.411518797596
0
1.00000168119
1.00000075503
1.0000002946
0.999501739954
0.411176471273
0
1.00000167272
1.00000074206
1.00000028654
0.995503033743
0.395579789237
1.13091099372e-24
1.00000165761
1.00000070352
1.00000027585
0.981617497805
0.352109064572
2.59960696192e-05
1.00000151813
1.0000006774
1.00000022132
0.967546470946
0.312657529847
0
1.00000022414
0.949841362261
0.271132757101
2.15991452514e-06
1
0.929513207978
0.231613877137
1.07532863804e-05
1
0.907428430733
0.195815880663
1.8859999751e-07
)
;

boundaryField
{
    back
    {
        type            zeroGradient;
    }
    sides
    {
        type            zeroGradient;
    }
    bottom
    {
        type            zeroGradient;
    }
    front
    {
        type            zeroGradient;
    }
    atmosphere
    {
        type            inletOutlet;
        inletValue      uniform 0;
        value           nonuniform List<scalar> 
27
(
0
0.258801748053
0.258798452719
0
0
0.369404336246
0.0313725267204
0
0
0
0
0
0.182750968287
0
0
0
0.115875037079
0
0
0
0
0
0
0
2.15991452514e-06
1.07532863804e-05
1.8859999751e-07
)
;
    }
    floatingObject
    {
        type            zeroGradient;
    }
    procBoundary6to3
    {
        type            processor;
        value           nonuniform List<scalar> 8(1.00000199659 1.0000018265 1.00000087148 0.999999828853 0.999999328091 0.999999893493 0.981339349627 0.0437370190481);
    }
    procBoundary6to7
    {
        type            processor;
        value           nonuniform List<scalar> 
11
(
1.00000210503
1.00000141828
1.0000013352
1.00000128194
1.00000125177
1.00000116387
1.00000133425
1.00000077087
1.00000077087
1.00000042549
1.00000017768
)
;
    }
    procBoundary6to8
    {
        type            processor;
        value           nonuniform List<scalar> 
16
(
1.00000272689
1.0000024948
1.0000024948
1.00000121401
1.00000059268
1.00000014538
0.999999953617
1.00000001684
1.00000032105
1.00000073902
1.00000115805
1.00000149465
1.00000173157
1.0000019207
1.00000208655
1.00000238287
)
;
    }
    procBoundary6to9
    {
        type            processor;
        value           nonuniform List<scalar> 4(1 0.885083637355 0.165710597168 2.13722790768e-23);
    }
}


// ************************************************************************* //
