/*--------------------------------*- C++ -*----------------------------------*\
| =========                 |                                                 |
| \\      /  F ield         | OpenFOAM: The Open Source CFD Toolbox           |
|  \\    /   O peration     | Version:  v2012                                 |
|   \\  /    A nd           | Website:  www.openfoam.com                      |
|    \\/     M anipulation  |                                                 |
\*---------------------------------------------------------------------------*/
FoamFile
{
    version     2.0;
    format      ascii;
    class       surfaceVectorField;
    location    "1.2";
    object      Uf_0;
}
// * * * * * * * * * * * * * * * * * * * * * * * * * * * * * * * * * * * * * //

dimensions      [0 1 -1 0 0 0 0];


internalField   nonuniform List<vector> 
293
(
(0.0863087954576 0.106126613963 9.22917249523e-18)
(-0.00696672175452 0.0479353387106 8.4042697662e-18)
(0.101177792793 0.148810799367 5.75256754221e-18)
(0.0606223167795 0.0669858088177 5.21431124444e-18)
(0.104567981014 0.185264825957 4.66439679723e-18)
(0.0734874678746 0.124488763784 4.5754621684e-18)
(0.114909917036 0.227136821999 3.20337691083e-18)
(0.0745020009504 0.187857398547 3.59409013711e-18)
(0.148261858164 0.248819367878 1.85114631344e-18)
(0.107347757545 0.239386938713 2.33352585648e-18)
(0.294037817099 0.232818469955 1.01393817669e-18)
(0.167599601769 0.35088899127 1.43184849334e-18)
(1.38903186784 -0.0642736089125 7.51701595933e-19)
(0.453163412277 0.26858088071 1.01432059128e-18)
(2.83966237454 0.486462289014 1.03935922836e-18)
(-0.0280123173798 -0.00696789577841 4.38940851541e-18)
(1.56222000083e-06 -0.0232927931627 4.58014847789e-18)
(0.0359678003704 0.0536549357771 4.03720587062e-18)
(9.19683403496e-08 0.0137534125371 4.24188852803e-18)
(0.0461535404788 0.12714326524 3.50515550828e-18)
(5.24417970935e-08 0.0890651909468 3.85841134975e-18)
(0.0613147220353 0.201646032843 2.72423908277e-18)
(2.55125752381e-07 0.170388195377 3.15575071515e-18)
(0.109981988294 0.308994211958 1.91422803638e-18)
(3.50122426772e-07 0.236857716125 2.30969264919e-18)
(0.246491652785 0.476593834714 1.43223090793e-18)
(3.08238191868e-07 0.445253834779 1.55908049997e-18)
(0.403485516206 0.929758840096 1.3019782237e-18)
(-1.50804228024e-06 0.354132483709 1.37810410755e-18)
(-4.18106250276e-06 2.79955541531 1.32541976024e-18)
(0.0280130972233 -0.00696601247941 4.43262849051e-18)
(0.00696756551491 0.0479368680476 8.50634163714e-18)
(-0.0359677733571 0.053656128699 4.06309400715e-18)
(-0.0606218152765 0.0669866842208 5.237913424e-18)
(-0.0461533866954 0.127143429672 3.50900655662e-18)
(-0.073486818086 0.124488936379 4.59984882385e-18)
(-0.0613141726551 0.201645318974 2.74120428157e-18)
(-0.0745010795559 0.187856769235 3.58959756005e-18)
(-0.109981180065 0.308992520248 1.95454511277e-18)
(-0.10734640089 0.239385414924 2.36337383275e-18)
(-0.246492490363 0.476590646821 1.50495369959e-18)
(-0.167597612406 0.350886674433 1.44681193944e-18)
(-0.403490033111 0.929753891406 1.40154564409e-18)
(-0.45316473612 0.26857825749 3.64987540832e-19)
(-2.83966840999 0.486446042059 6.83183113142e-19)
(-0.0863094854923 0.106126964422 9.31162657063e-18)
(-0.101177848985 0.148810961381 5.7746682407e-18)
(-0.104567833491 0.185264135918 4.68043982728e-18)
(-0.10993954765 0.189134674217 4.54456491256e-18)
(-0.11490942778 0.227135226443 3.21176711122e-18)
(-0.11637164098 0.223824530289 3.23765933277e-18)
(-0.148260631855 0.248817180313 1.85564065942e-18)
(-0.129027922274 0.250772830943 1.64267020959e-18)
(-0.294036790576 0.232816916301 3.06845780679e-19)
(-0.151597141148 0.269781527417 8.72968361268e-19)
(-1.38902326537 -0.0642815649434 -3.53374990115e-19)
(-0.15606676409 0.214772854602 -9.44457334793e-20)
(0.441632964602 -1.03699340672 2.90397642818e-19)
(-0.12428251791 0.232949808138 3.10178441805e-18)
(-0.129794174596 0.220336156029 1.96052376778e-18)
(-0.129719791549 0.25746367377 1.66856243113e-18)
(-0.140884500305 0.247273964693 1.0132832195e-18)
(-0.11564086847 0.273922651268 6.5999791144e-19)
(-0.145486178699 0.274543832753 2.84778130956e-19)
(0.0261899571082 0.249877356542 4.7167684711e-19)
(-0.12755151069 0.382850696248 1.00148720436e-19)
(0.839655568991 0.150275583678 5.49326899454e-19)
(-0.0564632305569 0.351577548087 2.2663042134e-19)
(1.13403738895 1.37611365942 2.29961764475e-19)
(-0.149675533592 0.233856451358 -1.27977430767e-19)
(-0.15164766477 0.208662101126 7.5995033363e-20)
(-0.172835048039 0.270743879033 -3.70501080678e-19)
(-0.177770067105 0.232507414016 -9.75391167774e-20)
(-0.196023136613 0.352107250397 -2.75071060048e-19)
(-0.226848298504 0.256220737592 -6.07332760259e-20)
(-0.277060657841 0.524106205586 -1.44897705334e-19)
(-0.299549900098 0.382327291293 -1.05266926132e-19)
(-0.32972565116 1.08454340696 -9.27347136383e-20)
(-0.616899906983 0.31807255014 -1.86965807026e-19)
(-1.66897385961 2.06222633927 -4.305282537e-19)
(-0.174532342224 0.200413970861 1.06433347352e-19)
(-0.164416023616 0.180911858388 -1.4584108149e-20)
(-0.216561524856 0.218044414811 2.12228687875e-19)
(-0.195397680822 0.19104448985 6.45863398262e-20)
(-0.291010515572 0.238271406136 1.0907085789e-19)
(-0.247073535862 0.198232473789 5.76616885026e-20)
(-0.5219567699 0.256715383307 -1.47335027824e-19)
(-0.317992794149 0.212015853821 -1.3814081034e-20)
(-1.513977197 0.310700989431 -5.24759347087e-19)
(-0.670890538522 0.131275494369 -4.88612407148e-19)
(-3.16409749453 0.0366335222952 -5.95836368906e-19)
(-0.182825586149 0.167504828438 -5.64311156751e-20)
(-0.169646964421 0.153296810421 -5.02881544645e-21)
(-0.221812941267 0.17072333765 -8.99806595461e-20)
(-0.19861255004 0.15315029309 -2.65958135275e-20)
(-0.277060672112 0.158159582491 -6.52232504214e-20)
(-0.234507655274 0.154824620244 -3.13411393141e-20)
(-0.456538396533 0.121162467218 -3.55091460358e-19)
(-0.280995500263 0.117434437349 -1.20370533377e-20)
(-1.76850710547 -0.112343619701 -5.59689428966e-19)
(-0.43735168213 0.0916109235571 -5.65142203324e-19)
(-1.47867388022 -0.832816767284 -4.25264610956e-19)
(-0.184774606994 0.138249093707 2.48064867012e-20)
(-0.17040448424 0.127542136574 3.79568637037e-21)
(-0.214936320316 0.134541730728 3.20437067045e-20)
(-0.194901144336 0.123875466195 1.31942297242e-20)
(-0.245392953285 0.121523285887 2.18450577696e-20)
(-0.221486930414 0.119886865082 3.4729103865e-21)
(-0.294060040961 0.0890282442263 -2.22087796304e-19)
(-0.248499888139 0.0764343271937 1.11442398563e-21)
(-0.624122506526 -0.0694074622368 -4.30717385315e-19)
(-0.278903745035 0.0756401331574 -2.87187249989e-19)
(-0.559695882234 -0.507835907394 -2.50340516991e-19)
(-0.181011623158 0.112089838775 -7.81657060659e-21)
(-0.167354745631 0.105366280201 -1.30328809906e-21)
(-0.205887044043 0.105558683062 -1.53765665938e-20)
(-0.188366089392 0.0997356228527 -9.52969315416e-21)
(-0.229145688476 0.0899427638904 -1.72577233974e-20)
(-0.205868881742 0.0891929759713 -3.14964268944e-21)
(-0.22865806971 0.0473314954225 -6.39850296992e-20)
(-0.205888004905 0.056185289408 -1.63186585644e-20)
(-0.269041882904 -0.0726853149041 -1.06810381665e-19)
(-0.158887469514 0.0550518103781 -1.77124307145e-19)
(-0.0269509961791 -0.482227645735 -1.48066027437e-19)
(-0.171389843572 0.0901846205695 -3.01641064663e-21)
(-0.160002189911 0.0899137218177 8.61699632997e-22)
(-0.188570025731 0.0778938732146 2.69723075017e-21)
(-0.176072106961 0.0815823188192 -1.53445618781e-20)
(-0.208695719574 0.0671215694965 -2.21057785639e-21)
(-0.195094859214 0.0540653604058 1.20515250543e-20)
(-0.191609012081 0.0651985695649 -1.29457936011e-19)
(-0.203964491252 0.0198916760117 -7.58206918253e-20)
(0.0968004376473 -0.155460745749 -2.18379952917e-19)
(0.0617710540645 -0.0479096267102 -5.83378077401e-19)
(0.531403544446 -0.511387244929 -4.71472911248e-19)
(-0.159901326799 0.0810273606955 -1.14664515984e-20)
(-0.153488974062 0.083527794748 -4.80419592957e-21)
(-0.161812758797 0.0589753427366 -5.9902675739e-21)
(-0.154017777272 0.0826861691414 -1.45271199787e-20)
(-0.140656408195 0.00719434350188 -6.15585889146e-20)
(-0.14331262582 0.0613924894974 4.09965803543e-20)
(0.113808570268 -0.0899953348531 -5.29740833216e-19)
(-0.106774513924 0.0996484305793 -7.74041057859e-20)
(0.88918254551 -0.138878603583 -8.36471035732e-19)
(0.110661180116 -0.0445389256915 -6.68418249306e-19)
(1.18950907146 1.09022493022 -5.52930024302e-19)
(-0.157195110626 0.084721166662 -7.86486430984e-21)
(-0.157973635057 0.0781735381163 -3.95594887441e-21)
(-0.155506444764 0.0969333841782 3.24597279495e-20)
(-0.166228647268 0.0843179127893 -1.2428716161e-21)
(-0.140139280173 0.129298272108 2.5151063483e-20)
(-0.175676788228 0.08813440317 3.28488511917e-20)
(-0.174705886848 0.188982347465 -2.16081521876e-19)
(-0.166458370692 0.163213419002 -7.96287629284e-20)
(-0.230529804132 0.734748856154 -3.84877237876e-19)
(-0.435105409985 0.0768040453036 -5.15057308811e-19)
(-1.7735605725 1.01639739001 -4.62747178055e-19)
(-0.165577090104 0.0748827129141 2.66604381933e-21)
(-0.161372781374 0.0685045731052 1.49771269349e-21)
(-0.178371416237 0.0818824794052 -8.53748373963e-22)
(-0.173227939371 0.0708048632557 -9.0665636617e-22)
(-0.1929749174 0.0914026901295 -7.19309752197e-20)
(-0.185196789315 0.0753808430582 -5.69694528611e-21)
(-0.340651306469 0.121631667731 -3.78604549863e-19)
(-0.196687270027 0.089368428517 -1.13156891152e-19)
(-1.18444382377 -0.0334612826109 -5.9292724899e-19)
(-0.280018710951 0.0910341566204 -4.26940947903e-19)
(-0.740126609223 -0.679753804116 -4.33678470239e-19)
(-0.166895642859 0.062483441295 -2.07498749201e-21)
(-0.161565813003 0.0589902028749 -7.93824022025e-22)
(-0.179487434376 0.0614807611023 -5.74985327832e-21)
(-0.172225499342 0.0585457685952 -9.43456402341e-21)
(-0.200766811842 0.0650159403613 -4.69228612183e-20)
(-0.188732147697 0.0480958804987 -4.32742966392e-21)
(-0.199582304119 0.0906759708715 -1.61493289192e-19)
(-0.222347417551 0.0421709078933 -8.46430347699e-20)
(-0.259334900425 -0.161279132339 -2.67692169152e-19)
(-0.0280608490425 0.00423580147754 -4.49099257802e-19)
(0.18940349166 -0.588990312917 -3.69197276872e-19)
(-0.165156079372 0.0546073527762 -8.15340055342e-21)
(-0.16152810611 0.0518757482045 -1.71708565673e-21)
(-0.171436788284 0.0480772043069 -8.012140409e-21)
(-0.16569615219 0.0538536192217 -7.37021058351e-21)
(-0.176068662491 0.0238583969239 -4.20476032155e-20)
(-0.16451382509 0.0398923585313 5.48478340845e-21)
(0.00181276728923 -0.0412330384455 -3.7224900338e-19)
(-0.157256164056 0.0848418127327 -2.3943622805e-20)
(0.698592008211 -0.0368569568762 -5.50604365522e-19)
(-0.0324388490831 -0.0554769123828 -2.12272982882e-19)
(1.01260898918 1.00203084334 -2.38494907586e-21)
(-0.166335735671 0.0503093987996 -9.33895686812e-22)
(-0.164186350146 0.0449907539463 -8.58488292285e-22)
(-0.171880468345 0.0575438924803 6.12671323395e-21)
(-0.172931832147 0.0480733155013 1.15484968197e-21)
(-0.171399562031 0.0798073718981 2.35887638189e-20)
(-0.186778001972 0.0455014486953 2.52419135464e-21)
(-0.244015115172 0.105180766627 1.36032397694e-19)
(-0.182629833436 0.104409048755 2.049092012e-21)
(-0.321890354984 0.616747130238 3.35946433565e-19)
(-0.544004682634 0.00491986364906 -1.77634599154e-19)
(-1.90875490512 0.899325856099 8.81430469598e-20)
(-0.169721443925 0.04123148511 1.2302570765e-21)
(-0.165444598953 0.0365597535134 -4.71766307978e-22)
(-0.181623318887 0.0433573165907 -2.44767219734e-21)
(-0.175059121065 0.0360353623215 3.06624539951e-21)
(-0.194971704494 0.043768647655 -1.90154804523e-20)
(-0.187190121438 0.0368601259717 -7.25783328635e-21)
(-0.380516350806 0.0640995899225 -3.11617904836e-19)
(-0.202960913529 0.0392653290438 -8.84133702394e-21)
(-1.3382819124 -0.109820093044 -4.25437985759e-19)
(-0.370093832938 0.032125660132 -2.85346541486e-19)
(-1.00194693183 -0.532845110973 -2.87670122342e-20)
(-0.169651644633 0.0315327304854 1.36422201503e-21)
(-0.164755271254 0.0284219686012 7.75524569956e-22)
(-0.179773102734 0.0295191409537 -1.7439156895e-21)
(-0.173047090972 0.0255741820063 1.21018822578e-21)
(-0.191968829955 0.0263243163202 2.91631014199e-21)
(-0.183996127839 0.0231932616629 -9.33989781374e-21)
(-0.241917719387 0.0233821956088 1.74300263259e-20)
(-0.200019047697 0.0083907120869 1.9290886485e-21)
(-0.531949099433 -0.102645379684 1.11324432039e-19)
(-0.244064860022 0.00689925847589 -1.7968174895e-20)
(-0.474288799893 -0.337674102961 5.75444968659e-20)
(-0.167253240447 0.0232775752693 6.21490780702e-22)
(-0.162707484622 0.0218061348773 6.04494685155e-22)
(-0.174803789332 0.0186186986643 -6.38579389845e-21)
(-0.168389781283 0.0178312744234 7.96191471023e-22)
(-0.18405997889 0.00866617857748 -1.03271193072e-20)
(-0.17404443814 0.0135709208298 -7.69597962692e-21)
(-0.197630506012 -0.0120397026102 -3.34691125724e-20)
(-0.179313427235 -0.0020564872957 -5.97909688285e-21)
(-0.276884149465 -0.0828475059196 -7.17481100681e-20)
(-0.173255585141 -0.0122784335757 -4.39676031848e-20)
(-0.251754645233 -0.183535432241 -5.39009231021e-20)
(-0.163925700273 0.017688590793 7.79195375476e-22)
(-0.160561623897 0.0170037435501 1.37334684746e-22)
(-0.167890905248 0.0133951634703 -5.1399425744e-22)
(-0.164097877493 0.0134407600907 -1.84817654605e-21)
(-0.170660388226 0.00530345615554 -3.34795720254e-21)
(-0.165953535281 0.0109273431327 -4.55950167049e-21)
(-0.162068034245 -0.00789620945535 -1.64775874953e-20)
(-0.166113977362 0.00120450685612 -2.3010054451e-21)
(-0.158301973963 -0.0425857057921 -2.61204162189e-20)
(-0.138565571273 -0.0025783247048 -3.72601814927e-21)
(-0.125539326132 -0.0306484589427 3.02086188818e-22)
(-0.161338012642 0.0141485177036 -2.49003723678e-21)
(-0.159135910769 0.0135017811301 1.09582140699e-22)
(-0.163167867783 0.011442512813 -5.8936839591e-21)
(-0.16139345423 0.011070092684 -4.81912026483e-21)
(-0.163365426645 0.00687779722307 -3.51254991304e-21)
(-0.16138960268 0.0117555122131 -7.21514267769e-21)
(-0.149101788914 0.00140328548876 1.04505639009e-20)
(-0.160639667313 0.00675451520935 -4.86842076529e-21)
(-0.159960935951 -0.00335443733173 2.26964842584e-20)
(-0.133807456498 0.00922271703279 5.41626533938e-21)
(-0.272343175609 0.00845337444585 6.63607100555e-21)
(-0.160060467241 0.0116876723472 -2.21950088735e-21)
(-0.158746650174 0.010598534407 -4.03777193914e-22)
(-0.161047104033 0.0109388549512 -6.14057898343e-21)
(-0.160646172924 0.00932721225077 -3.06515116015e-21)
(-0.160485323701 0.0100783291596 -8.57101352994e-21)
(-0.160529856655 0.0131145521845 -1.46381406091e-20)
(-0.145553127738 0.00864154055874 -9.90271932682e-21)
(-0.159203072129 0.0101173044205 -9.142211068e-21)
(-0.184006691298 0.00298457413592 -1.06441479135e-20)
(-0.128152334516 0.0173275118539 -1.26543898753e-20)
(-0.184717674223 -0.0289053239497 -9.80891324617e-21)
(-0.160168427432 0.00933926860294 -1.24942746671e-21)
(-0.161394523532 0.0102245940173 -1.15627127858e-20)
(-0.161157231286 0.0120728334028 -1.52093381471e-20)
(-0.162378909263 0.0130692281488 -2.03806293424e-20)
(-0.144402186612 0.0148974971269 -1.18938816165e-20)
(-0.162027934898 0.00989965149821 -9.55406779877e-21)
(-0.146304677386 0.0140080675377 -1.1819155208e-20)
(-0.127263976707 0.0201505792187 -6.3412478882e-21)
(-0.150027807168 -0.00114380620297 -3.85891871173e-21)
(-0.164206826003 0.0113961335795 -1.4725358994e-20)
(-0.165491085949 0.0110380242328 -1.89873001683e-20)
(-0.146250459982 0.0156281774798 -4.00143407051e-21)
(-0.16626016036 0.00678892088356 -6.95306930058e-21)
(-0.137149718197 0.017362347709 1.61898860804e-21)
(-0.128998907664 0.0186067773995 4.87207210107e-21)
(-0.138830422914 0.0102262184294 5.13613815679e-21)
(-0.167903442609 0.00811265043298 -1.12150104748e-20)
(-0.168695399311 0.00702144683536 -1.6709494296e-20)
(-0.149716875613 0.0125107500786 1.92043687099e-21)
(-0.170658404127 0.00131819742833 -1.91669778863e-21)
(-0.133762870166 0.0162354455863 8.38922164982e-21)
(-0.132726478303 0.0140687823514 8.27453152294e-21)
(-0.134372503699 0.0102304691141 7.87029782191e-21)
(-0.171066768012 0.00186911454426 -7.41118160984e-21)
(-0.153664152864 0.00569327770793 4.43739686331e-21)
(-0.134818582849 0.0099833378547 7.75560769504e-21)
)
;

boundaryField
{
    back
    {
        type            calculated;
        value           uniform (0 0 0);
    }
    sides
    {
        type            calculated;
        value           nonuniform List<vector> 0();
    }
    bottom
    {
        type            calculated;
        value           nonuniform List<vector> 0();
    }
    front
    {
        type            calculated;
        value           uniform (0 0 0);
    }
    atmosphere
    {
        type            calculated;
        value           nonuniform List<vector> 
27
(
(0 -3.34553625314 0)
(0.45705107689 3.76942549411 1.28470993473e-18)
(-0.457057606284 3.76941828289 1.36612958574e-18)
(0 -3.34557037744 0)
(0 -0.54215200469 0)
(-0.31085204786 3.8875666326 -1.20635116145e-19)
(-2.32227904877 1.8058066257 -7.40421391255e-19)
(0 -1.79779246263 0)
(0 -0.988397018924 0)
(0 -0.605429207318 0)
(0 -0.713813896686 0)
(0 -0.796992637593 0)
(-0.239053257911 3.69782444839 -3.57643122355e-19)
(0 -1.06689266882 0)
(0 -1.09081193723 0)
(0 -0.860058914455 0)
(-0.324314322507 3.53810611821 4.34118948869e-19)
(0 -1.01661758096 0)
(0 -0.630305288816 0)
(0 -0.30538349615 0)
(0 -0.168806356091 0)
(-0.184880138946 0.143458636058 2.31961818332e-20)
(0 -0.0846410561425 0)
(0 -0.0206816485511 0)
(-0.146121362748 0.00616236794071 1.97594924679e-21)
(-0.13669866804 0.0117847891916 8.29632706678e-21)
(-0.135004231682 0.00617744240325 7.44426857704e-21)
)
;
    }
    floatingObject
    {
        type            calculated;
        value           nonuniform List<vector> 4((0 0 0) (0 0 0) (-2.77555756156e-16 0 0) (0 0 0));
    }
    procBoundary6to3
    {
        type            processor;
        value           nonuniform List<vector> 8((0.0991574376282 0.163677928385 1.37955649848e-17) (0.103303816941 0.163100341089 5.75810454055e-18) (0.109938263646 0.189136162134 4.52799670634e-18) (0.116370478157 0.223826074932 3.23207914221e-18) (0.129027478136 0.250775165869 1.64184650294e-18) (0.151597387657 0.269784103441 8.66492000638e-19) (0.156071238695 0.214777033561 4.84171918086e-19) (-0.441614740667 -1.03697008342 6.00745975691e-19));
    }
    procBoundary6to7
    {
        type            processor;
        value           nonuniform List<vector> 
11
(
(-0.161533579216 0.032226111877 -2.10010657079e-22)
(-0.160664240313 0.0253293303316 1.02323759219e-21)
(-0.159215949116 0.0198382921737 -4.16091741619e-22)
(-0.157969798681 0.0155780046177 5.77553076029e-22)
(-0.157349846257 0.012080612868 -3.8456288159e-22)
(-0.157445690155 0.00880727692126 1.88503026019e-22)
(-0.159281897273 0.00765243665679 -1.97583277521e-23)
(-0.161533010014 0.0071417605449 -1.68529902402e-21)
(-0.163349098049 0.00828562320187 -1.05032155806e-20)
(-0.16594494665 0.00490979246668 -1.05793757814e-20)
(-0.168250920493 0.00062277468104 -9.35683687782e-21)
)
;
    }
    procBoundary6to8
    {
        type            processor;
        value           nonuniform List<vector> 
16
(
(-0.0991591721301 0.163677656234 1.38784493415e-17)
(-0.103305467408 0.163098949925 5.77618565003e-18)
(-0.116592866215 0.21309368527 4.5460823219e-18)
(-0.129407198537 0.211999339937 5.72365188227e-19)
(-0.146774394188 0.1876394679 -1.02735551287e-19)
(-0.15424829399 0.162265508672 7.82960956909e-21)
(-0.159010802079 0.137481881866 3.89671229131e-21)
(-0.159135698593 0.115129880574 -1.18089672303e-21)
(-0.155711336422 0.0975287568709 4.7202700601e-22)
(-0.152111063327 0.0875342641071 -1.35937398757e-22)
(-0.152475667805 0.0802326648657 -4.65496150977e-21)
(-0.155532433009 0.0714820466963 1.5638803441e-21)
(-0.157172905461 0.0622907731975 1.92010099239e-22)
(-0.157936928888 0.0546467633491 -1.14820058454e-21)
(-0.159543713761 0.0476540725689 -7.57883417002e-22)
(-0.16117989194 0.0399776279094 -8.65264266285e-23)
)
;
    }
    procBoundary6to9
    {
        type            processor;
        value           nonuniform List<vector> 4((-0.169942924031 0.00132108198813 -6.03208803064e-21) (-0.174482679144 -0.00633875693816 -2.0082677817e-21) (-0.137017524556 0.00704793920982 -3.59218683108e-23) (-0.130568130605 0.00326939481937 -4.2969947255e-23));
    }
}


// ************************************************************************* //
