/*--------------------------------*- C++ -*----------------------------------*\
| =========                 |                                                 |
| \\      /  F ield         | OpenFOAM: The Open Source CFD Toolbox           |
|  \\    /   O peration     | Version:  v2012                                 |
|   \\  /    A nd           | Website:  www.openfoam.com                      |
|    \\/     M anipulation  |                                                 |
\*---------------------------------------------------------------------------*/
FoamFile
{
    version     2.0;
    format      ascii;
    class       volVectorField;
    location    "2.1";
    object      ddtCorrDdt0(U);
}
// * * * * * * * * * * * * * * * * * * * * * * * * * * * * * * * * * * * * * //

dimensions      [0 1 -2 0 0 0 0];


internalField   nonuniform List<vector> 
164
(
(-0.245885985801 -0.131667822578 -4.10113381329e-18)
(-0.174542240525 -0.240989390314 -4.17966039047e-18)
(-0.183031504596 -0.315204592067 -1.75357412323e-18)
(-0.198313211815 -0.358484368589 -2.0094204038e-18)
(-0.15442961027 -0.465102338929 -1.30078210235e-18)
(-0.165708849219 -0.225301002082 1.44174620722e-19)
(-0.0348391405897 -0.536006821848 -1.9175598954e-18)
(2.72173494121 10.6894222552 8.24957131649e-18)
(-0.017228491441 -0.078325141686 -1.82413856023e-18)
(-0.0603899219354 -0.18145080818 -1.10380766851e-18)
(-0.0959300110455 -0.300955889864 -1.00616682741e-18)
(-0.108020036849 -0.449422016751 -1.68934430468e-18)
(-0.172685487491 -0.518488932443 -1.17089863641e-18)
(-0.15873687145 -0.594586843992 -3.99406283451e-19)
(0.0839866135179 -0.674026031987 7.00240767037e-19)
(0.649600952839 -1.45603770747 6.38799009801e-18)
(0.0170065926585 -0.0783355337344 -1.86937052572e-18)
(0.0601573805643 -0.181472775385 -1.12905189782e-18)
(0.0956833871427 -0.300966892247 -1.02627231641e-18)
(0.107790765746 -0.449405461721 -1.62844858113e-18)
(0.172527946065 -0.518457058373 -1.17501646257e-18)
(0.158741014526 -0.594474149954 3.74086191375e-21)
(-0.0833395068853 -0.674012465137 5.95610507894e-18)
(-0.647881248606 -1.45500213171 -2.7074625367e-18)
(0.245731518452 -0.131690111495 -4.2314564093e-18)
(0.174403583961 -0.24102823993 -4.22101557727e-18)
(0.182894984385 -0.315213544077 -1.76094514001e-18)
(0.198176781159 -0.358432153055 -2.00244956876e-18)
(0.154333132047 -0.464984575666 -1.24254930625e-18)
(0.165733249614 -0.225208437956 1.11801546781e-20)
(0.0353001204589 -0.535983507254 -9.37247425384e-20)
(-2.71853913938 10.6917784499 2.94350071895e-18)
(0.194645338926 -0.367690630221 -1.82339471305e-18)
(0.147665612006 -0.453324394615 -1.14923440543e-18)
(-0.0259753850024 -0.464857582842 -1.30170880699e-18)
(-0.193138689064 -0.436215900213 -8.71800430955e-21)
(-5.11356005054 -0.206249468162 3.25766240308e-19)
(-52.3894267666 19.3160283358 1.13366358415e-17)
(0.317442975146 -0.408458767022 6.04898364847e-19)
(0.372283211406 -0.618697114199 -1.47524067808e-19)
(0.390743904468 -0.841130847809 2.56876570903e-19)
(0.321926280347 -1.20282095769 1.53918357081e-18)
(0.336757303046 -1.24806062433 4.19713772086e-19)
(6.36614285942 -88.0450233975 -6.89322362224e-18)
(0.386984625637 -0.243169651126 5.45968068059e-19)
(0.470279584851 -0.27050345539 2.53827758769e-19)
(0.6952728495 -0.323299359521 2.65914385832e-20)
(0.831944381787 -0.345121358688 4.82023651848e-19)
(12.258381775 0.106764043232 6.96367974355e-19)
(74.0034422125 38.4565413323 6.04516063207e-18)
(0.369047690187 -0.232210084883 -2.43937941014e-20)
(0.40997614506 -0.231548918477 -2.17725363383e-20)
(0.45335025759 -0.187864665418 -1.50091382e-20)
(0.311873598475 -0.103340077116 -1.37889233481e-19)
(1.79754669968 -0.0373645709107 2.35578118337e-18)
(11.6300384757 10.132361818 -1.34272021876e-18)
(0.392144301577 -0.147273791663 2.94674238118e-21)
(0.478768350883 -0.150172078096 -1.58575635953e-20)
(0.515773343051 -0.15881238714 -6.81221490936e-20)
(0.360358676966 -0.112203121982 -1.145805211e-19)
(0.768742424028 -0.268180516829 5.51083039738e-19)
(8.22206535755 3.5397746093 2.8262589334e-19)
(0.364619041887 -0.0797719605025 -1.19415928086e-20)
(0.423744947866 -0.100612609479 -2.55638937489e-20)
(0.484679359533 -0.170362122163 -9.6762096234e-20)
(0.442295714189 -0.222365091733 -1.08358343717e-19)
(1.21340516374 -0.556504686632 5.90291764907e-19)
(2.44178226106 0.295667738391 6.6650285335e-19)
(0.394950876524 -0.0513846095638 -1.97194445258e-20)
(0.549032833432 -0.067806111883 -8.8353393471e-20)
(0.680562513137 -0.0906705914491 -1.83781934409e-19)
(0.735462649344 -0.253474740776 -9.39684409255e-20)
(1.81315960275 -0.685275568014 1.14840545961e-18)
(0.642637196701 -1.17654960782 9.46759220442e-19)
(0.39044456161 0.121149632518 -2.7973444327e-20)
(0.617165776386 0.147254906102 -1.3879685591e-19)
(0.973224894606 0.0934278813096 -3.10739764813e-19)
(1.39113111646 -0.0594692050742 -4.25225271048e-19)
(2.28983300754 0.408326919828 5.81389354324e-18)
(0.66989851234 5.03682550402 4.15681197708e-18)
(0.265933325757 0.211232579276 -6.384670541e-20)
(0.309862774942 0.441817991484 -5.04230844961e-19)
(0.458257778473 0.929090123315 -9.47696563522e-19)
(0.525158414337 1.50752453575 5.62404202495e-19)
(-2.24945559737 2.0186140324 2.09523886349e-18)
(0.458924739273 0.708717531625 -1.5494986259e-18)
(0.155748959521 0.150163195636 -3.78351629519e-20)
(0.0410176991844 0.199041618499 -2.58583162566e-19)
(-0.199719982844 0.277651990267 -8.30469361574e-19)
(-0.540133640814 0.202139004596 -3.3803399841e-19)
(1.60892088728 -0.733531088894 -1.22102324724e-17)
(-1.93445414409 1.96174405764 3.44569100012e-18)
(0.123157275337 0.119756186706 2.43375503243e-20)
(0.0611032023066 0.127012889348 -1.06887701383e-19)
(-0.101289860076 0.128961646261 -4.1211272963e-19)
(-0.352589274092 -0.0540177169936 -6.4052150671e-19)
(1.32548805605 0.829232410351 -1.45690439214e-18)
(-0.164325182516 0.205071594066 2.09302478459e-18)
(0.113615352857 0.0735189386095 -2.29346182488e-20)
(0.0904132833522 0.0550022148729 -1.01288644251e-19)
(-0.055289395906 0.00250053948797 -2.27504394423e-19)
(-0.344164606807 -0.0383911247579 1.93236200403e-19)
(-1.38307721171 -0.303539727604 7.36918450209e-20)
(0.315398013366 1.10645630572 1.13033578164e-18)
(0.104497093647 0.0607647740238 -2.42802842519e-20)
(0.099338053781 0.0308971679546 -7.40723392009e-20)
(0.130203437559 -0.094010731838 -1.97879575464e-19)
(0.0913066523919 -0.113455990649 -2.6712272031e-19)
(-0.87961156925 -0.929442394394 -7.67293526817e-20)
(-0.5348562051 0.246968071317 1.36825306301e-18)
(0.103147531663 0.0449133460137 5.8436603989e-21)
(0.104230964427 0.032468162139 -3.02727857825e-20)
(0.231411487577 0.0648159539526 -4.54518800982e-20)
(0.499371848488 0.11182233873 -7.77865090969e-20)
(-0.424608613675 -0.141710895933 4.5683210254e-19)
(0.266004575199 -1.40457819426 9.94650723983e-19)
(0.105939538652 0.0692818775162 -6.95178967629e-21)
(0.099222662799 0.0888887375685 5.12582153971e-20)
(0.144968279863 0.179885776576 4.33327993674e-23)
(0.327439585783 0.189415001011 -5.48878554561e-20)
(0.108783899101 0.475363002176 -2.09110393443e-20)
(-0.0889224951176 0.712885433508 -2.69234779643e-19)
(0.0902224473711 0.0659353411909 -1.52679327786e-20)
(0.0625136469979 0.0899760451434 -8.71837275784e-21)
(0.000512660381281 0.132914660336 -4.17503281669e-20)
(0.0410794495145 0.118908325524 1.24529077447e-20)
(0.135743105643 0.410906275583 5.13539714134e-20)
(-0.228393842648 0.727162915243 -3.71303324652e-19)
(0.0823166131411 0.0567161679417 -1.14321975712e-20)
(0.0501656993283 0.0712719713114 -3.18940306804e-20)
(-0.0350533654159 0.0549835457323 1.71593827738e-20)
(-0.0820647939402 0.0189500189318 -4.13845817714e-20)
(-0.0594894062686 0.102315225246 -8.10380550858e-20)
(-0.216753738649 0.240165541347 2.55913146109e-19)
(0.0803157850583 0.041476670405 1.70542870685e-21)
(0.0526092406548 0.0364602616801 3.32270009531e-21)
(-0.0152894592526 -0.0103195913016 4.31438858455e-21)
(-0.0759062720034 -0.0446640477492 2.02412460493e-20)
(0.0345906241907 -0.022619643161 5.43281876111e-20)
(-0.194369358692 -0.0136647933617 -7.21887885777e-20)
(0.0885892289247 0.0280102942386 -2.32700162163e-21)
(0.07286464589 0.00821083892078 -1.70354599756e-21)
(0.0384777358551 -0.0433580678057 -6.20152830511e-21)
(-0.00602937409414 -0.0648234530628 -1.89380595376e-20)
(-0.0717819333373 -0.137367592975 4.77491978113e-20)
(-0.275721950487 -0.165239734094 8.70453730905e-21)
(0.103390352342 0.0248663554412 -4.74777515207e-22)
(0.103810343191 0.00128750440899 -2.30630940719e-21)
(0.0993115408137 -0.0430280451487 9.85064910455e-21)
(0.0823929562454 -0.0490359749446 -1.88623237926e-22)
(0.0306819598965 -0.0738784345609 -2.80234216568e-20)
(-0.105979299834 -0.534296705249 -8.87243105464e-20)
(0.146008584271 -0.0217837423589 -1.07395324875e-20)
(0.141551119665 -0.0235602024441 -9.14884621852e-21)
(0.0435908980171 -0.0597284530396 -9.47703077743e-21)
(0.122105060822 -0.0634549423372 1.5285921526e-20)
(0.177102597086 0.0117141566107 -1.33853072644e-20)
(0.176842255231 0.00246606529147 -1.35738871879e-20)
(-0.0786546018523 -0.00800369804983 2.47347463606e-20)
(0.225257291574 0.143106365411 2.20031560754e-20)
(0.197731697265 0.0488054685701 -1.96837172808e-20)
(0.210596186606 0.0417376448029 1.43071794085e-20)
(-0.00929855639853 -0.0287298449426 3.4114674688e-21)
(0.204280924947 -0.418191788948 1.4674202892e-19)
)
;

boundaryField
{
    back
    {
        type            calculated;
        value           uniform (0 0 0);
    }
    sides
    {
        type            calculated;
        value           nonuniform List<vector> 0();
    }
    bottom
    {
        type            calculated;
        value           nonuniform List<vector> 0();
    }
    front
    {
        type            calculated;
        value           uniform (0 0 0);
    }
    atmosphere
    {
        type            calculated;
        value           nonuniform List<vector> 
27
(
(-6.1479713717e-29 10.6894222552 1.42767073913e-48)
(0.649600952839 -1.45603770747 6.38799009801e-18)
(-0.647881248606 -1.45500213171 -2.7074625367e-18)
(6.14795756435e-29 10.6917784499 3.19039088957e-48)
(6.27214941515e-32 19.3160283358 8.39979381672e-51)
(54.8416689926 -88.0450233975 -9.86903780496e-17)
(6.91743877522e-17 38.4565413323 1.0770554165e-35)
(-3.63626726209e-23 10.132361818 -4.10692814423e-42)
(6.92753951653e-29 3.5397746093 -2.45876951518e-48)
(-2.21179648716e-38 0.295667738391 6.26633953565e-58)
(0 -1.17654960782 0)
(0.00174488675369 5.03682550402 -1.29455917155e-19)
(3.46588134226 0.708717531625 -2.58012471428e-17)
(0.0289958120745 1.96174405764 1.67792542356e-19)
(2.92578067721e-33 0.205071594066 7.21862442099e-53)
(1.62042344636e-06 1.10645630572 6.80419300938e-24)
(0.0112075506792 0.246968071317 -3.81413202723e-20)
(0.265929283239 -1.40457819426 9.92702322721e-19)
(-0.0987547181074 0.712885433508 -2.56292167614e-19)
(1.69888446627e-27 0.727162915243 5.20554175331e-47)
(-3.35479892675e-24 0.240165541347 5.71956975722e-44)
(2.98689365362e-19 -0.0136647933617 -3.73854220811e-38)
(-9.80495734533e-22 -0.165239734094 -7.18075672994e-42)
(-0.105887266503 -0.534296705249 -8.87392336177e-20)
(0.12210438068 -0.0634549423372 1.52864730237e-20)
(0.225257516151 0.143106365411 2.20030172379e-20)
(0.302818590635 -0.418191788948 -1.04162960516e-20)
)
;
    }
    floatingObject
    {
        type            calculated;
        value           nonuniform List<vector> 4((0 0 0) (0 0 0) (7.93146967176e-22 0 0) (0 0 0));
    }
    procBoundary6to3
    {
        type            processor;
        value           nonuniform List<vector> 8((-0.30628836653 -0.338727278873 -9.39677250004e-18) (-0.234416510008 -0.344618061525 -5.0490132171e-18) (-0.194681338235 -0.367687813736 -1.80469434732e-18) (-0.147685328843 -0.45339303257 -1.09897596919e-18) (0.0259661083901 -0.465029074902 -9.69357737403e-19) (0.193347361756 -0.436287523284 9.46424535523e-19) (5.11413156004 -0.206259193521 5.49101347122e-18) (52.3685281992 19.305160793 1.39389003874e-17));
    }
    procBoundary6to7
    {
        type            processor;
        value           nonuniform List<vector> 
11
(
(0.107740584394 0.0566222921242 -6.47155704175e-21)
(0.0996164582064 0.0541526980911 -6.62336426673e-21)
(0.0934822780811 0.0502910836528 -3.65537947896e-21)
(0.0908397438535 0.0434798440492 -6.90155154697e-22)
(0.0938979150533 0.0375835065907 -1.64237889803e-21)
(0.101091103283 0.037279278606 -2.41901772205e-21)
(0.118269211289 0.0328146255081 -2.42107574231e-21)
(0.132383702459 0.0131503885296 -1.52678486345e-22)
(0.132383702459 0.0131503885296 -1.52678486345e-22)
(0.152208158615 0.038215416357 -6.46518313913e-21)
(0.165351352595 0.063661447037 -6.31068011748e-21)
)
;
    }
    procBoundary6to8
    {
        type            processor;
        value           nonuniform List<vector> 
16
(
(0.306207204761 -0.338685027697 -9.38229555367e-18)
(0.23435717894 -0.344624528618 -5.04317375343e-18)
(0.23435717894 -0.344624528618 -5.04317375343e-18)
(0.275187640373 -0.354028848652 4.22522324227e-18)
(0.304639065268 -0.25621600611 8.04461716492e-19)
(0.312818529104 -0.207751083187 4.58454140764e-20)
(0.322161022091 -0.143034853411 7.23848292024e-21)
(0.316003390266 -0.0822836464793 -4.12447231761e-21)
(0.31574031136 -0.0447769965292 -5.1428905442e-21)
(0.294947789037 0.0455463173865 -8.91125365567e-21)
(0.236015173563 0.0964668606762 -5.37613894994e-21)
(0.179780742126 0.0955357574432 6.04157122134e-23)
(0.1476282984 0.0837371166343 -7.39998555421e-21)
(0.127905923077 0.0638367723251 -6.78947218597e-21)
(0.116145579432 0.0573123916024 -1.22102803838e-20)
(0.109051005917 0.0476072836961 1.97168286084e-21)
)
;
    }
    procBoundary6to9
    {
        type            processor;
        value           nonuniform List<vector> 4((0.209266863872 0.0971873705782 8.14872034227e-21) (0.24615952327 0.0975125007377 2.14369203963e-20) (0.193257774687 0.0363959920627 3.72324403218e-20) (0.479082415437 -0.373311534335 -2.22994672936e-20));
    }
}


// ************************************************************************* //
