/*--------------------------------*- C++ -*----------------------------------*\
| =========                 |                                                 |
| \\      /  F ield         | OpenFOAM: The Open Source CFD Toolbox           |
|  \\    /   O peration     | Version:  v2012                                 |
|   \\  /    A nd           | Website:  www.openfoam.com                      |
|    \\/     M anipulation  |                                                 |
\*---------------------------------------------------------------------------*/
FoamFile
{
    version     2.0;
    format      ascii;
    class       volScalarField;
    location    "2.1";
    object      p_rgh;
}
// * * * * * * * * * * * * * * * * * * * * * * * * * * * * * * * * * * * * * //

dimensions      [1 -1 -2 0 0 0 0];


internalField   nonuniform List<scalar> 
164
(
8795.79346003
8802.4799322
8815.46361712
8834.76330756
8851.90050008
8885.29729385
1351.87415544
-11.4080892967
8806.06213485
8810.45194902
8824.80882802
8848.62339857
8868.21157555
8928.52863616
6543.31904726
465.855429875
8806.06077956
8810.4506628
8824.81160219
8848.6291528
8868.20894671
8928.52938692
6543.92012273
466.054140946
8795.79068848
8802.48046815
8815.46458236
8834.76434086
8851.89486258
8885.29916705
1352.01698841
-11.4095383826
8804.09676697
8824.29839644
8846.15757077
8324.27324125
1719.42818809
-4.56921278695
8795.20432659
8815.9491735
8845.0329248
8581.38435526
2519.3931098
-3.17928764152
8774.97414142
8788.20217967
8795.86007524
8701.53848002
494.816284191
-0.92539485316
8756.39250797
8768.92233566
8784.60472146
8198.44737394
470.188167264
-0.280205610645
8735.73777333
8742.25134057
8750.87058003
7687.63919601
449.670297919
-0.11301623375
8715.38247215
8715.93505587
8720.97982576
7398.1330462
321.763469357
-0.0765968340862
8697.57118004
8699.9390258
8700.44202048
7073.09152805
136.251261788
-0.00851000432168
8676.53342711
8669.25119009
8657.5385246
6031.75820072
0.543261455671
0.0791874711541
8658.97099076
8643.0907574
8548.51308632
4166.1311804
0.24339908572
-0.0463627211214
8648.42156608
8635.39960502
8610.29575246
4947.66845934
-0.0211903186765
-0.0285555782894
8642.34224036
8633.40387733
8621.12238757
5390.07924091
-0.192718152197
-0.0231108993804
8637.96628235
8633.02559804
8628.94657918
5681.95109483
0.144893608206
-0.0377396339848
8633.29545301
8630.47723629
8630.82481162
5646.24946318
185.72845681
-0.0303116860597
8628.46960624
8625.57858904
8624.56860587
5567.33783793
5.65013007663
-0.039762930082
8623.08115514
8618.73830317
8611.56322693
5156.55083325
0.101202170803
-0.0240809508915
8618.16807426
8613.27773549
8603.85496358
5070.14213285
0.0416311845958
0.000571080369226
8614.147235
8610.0729529
8603.84445818
5154.47078837
-0.0185666859402
0.0202420344988
8610.73455663
8607.84377193
8604.96432395
5240.48994109
-0.0361433998115
0.0248136342956
8607.29063114
8605.35380936
8604.52946014
5262.12005679
-0.0377095949424
0.0154559024839
8603.31245051
8601.74405417
8601.6588741
5202.88006651
-0.0485702765493
0.0116758054
8593.88571874
5075.58982075
-0.00948429198328
0.0131475962924
8581.77225242
4908.06442385
4.79706225966
0.00908264099537
8580.39910728
4716.06505112
17.0968783633
0.00288834137726
)
;

boundaryField
{
    back
    {
        type            fixedFluxPressure;
        gradient        uniform 0;
        value           nonuniform List<scalar> 
164
(
8795.79346003
8802.4799322
8815.46361712
8834.76330756
8851.90050008
8885.29729385
1351.87415544
-11.4080892967
8806.06213485
8810.45194902
8824.80882802
8848.62339857
8868.21157555
8928.52863616
6543.31904726
465.855429875
8806.06077956
8810.4506628
8824.81160219
8848.6291528
8868.20894671
8928.52938692
6543.92012273
466.054140946
8795.79068848
8802.48046815
8815.46458236
8834.76434086
8851.89486258
8885.29916705
1352.01698841
-11.4095383826
8804.09676697
8824.29839644
8846.15757077
8324.27324125
1719.42818809
-4.56921278695
8795.20432659
8815.9491735
8845.0329248
8581.38435526
2519.3931098
-3.17928764152
8774.97414142
8788.20217967
8795.86007524
8701.53848002
494.816284191
-0.92539485316
8756.39250797
8768.92233566
8784.60472146
8198.44737394
470.188167264
-0.280205610645
8735.73777333
8742.25134057
8750.87058003
7687.63919601
449.670297919
-0.11301623375
8715.38247215
8715.93505587
8720.97982576
7398.1330462
321.763469357
-0.0765968340862
8697.57118004
8699.9390258
8700.44202048
7073.09152805
136.251261788
-0.00851000432168
8676.53342711
8669.25119009
8657.5385246
6031.75820072
0.543261455671
0.0791874711541
8658.97099076
8643.0907574
8548.51308632
4166.1311804
0.24339908572
-0.0463627211214
8648.42156608
8635.39960502
8610.29575246
4947.66845934
-0.0211903186765
-0.0285555782894
8642.34224036
8633.40387733
8621.12238757
5390.07924091
-0.192718152197
-0.0231108993804
8637.96628235
8633.02559804
8628.94657918
5681.95109483
0.144893608206
-0.0377396339848
8633.29545301
8630.47723629
8630.82481162
5646.24946318
185.72845681
-0.0303116860597
8628.46960624
8625.57858904
8624.56860587
5567.33783793
5.65013007663
-0.039762930082
8623.08115514
8618.73830317
8611.56322693
5156.55083325
0.101202170803
-0.0240809508915
8618.16807426
8613.27773549
8603.85496358
5070.14213285
0.0416311845958
0.000571080369226
8614.147235
8610.0729529
8603.84445818
5154.47078837
-0.0185666859402
0.0202420344988
8610.73455663
8607.84377193
8604.96432395
5240.48994109
-0.0361433998115
0.0248136342956
8607.29063114
8605.35380936
8604.52946014
5262.12005679
-0.0377095949424
0.0154559024839
8603.31245051
8601.74405417
8601.6588741
5202.88006651
-0.0485702765493
0.0116758054
8593.88571874
5075.58982075
-0.00948429198328
0.0131475962924
8581.77225242
4908.06442385
4.79706225966
0.00908264099537
8580.39910728
4716.06505112
17.0968783633
0.00288834137726
)
;
    }
    sides
    {
        type            fixedFluxPressure;
        gradient        nonuniform List<scalar> 0();
        value           nonuniform List<scalar> 0();
    }
    bottom
    {
        type            fixedFluxPressure;
        gradient        nonuniform List<scalar> 0();
        value           nonuniform List<scalar> 0();
    }
    front
    {
        type            fixedFluxPressure;
        gradient        uniform 0;
        value           nonuniform List<scalar> 
164
(
8795.79346003
8802.4799322
8815.46361712
8834.76330756
8851.90050008
8885.29729385
1351.87415544
-11.4080892967
8806.06213485
8810.45194902
8824.80882802
8848.62339857
8868.21157555
8928.52863616
6543.31904726
465.855429875
8806.06077956
8810.4506628
8824.81160219
8848.6291528
8868.20894671
8928.52938692
6543.92012273
466.054140946
8795.79068848
8802.48046815
8815.46458236
8834.76434086
8851.89486258
8885.29916705
1352.01698841
-11.4095383826
8804.09676697
8824.29839644
8846.15757077
8324.27324125
1719.42818809
-4.56921278695
8795.20432659
8815.9491735
8845.0329248
8581.38435526
2519.3931098
-3.17928764152
8774.97414142
8788.20217967
8795.86007524
8701.53848002
494.816284191
-0.92539485316
8756.39250797
8768.92233566
8784.60472146
8198.44737394
470.188167264
-0.280205610645
8735.73777333
8742.25134057
8750.87058003
7687.63919601
449.670297919
-0.11301623375
8715.38247215
8715.93505587
8720.97982576
7398.1330462
321.763469357
-0.0765968340862
8697.57118004
8699.9390258
8700.44202048
7073.09152805
136.251261788
-0.00851000432168
8676.53342711
8669.25119009
8657.5385246
6031.75820072
0.543261455671
0.0791874711541
8658.97099076
8643.0907574
8548.51308632
4166.1311804
0.24339908572
-0.0463627211214
8648.42156608
8635.39960502
8610.29575246
4947.66845934
-0.0211903186765
-0.0285555782894
8642.34224036
8633.40387733
8621.12238757
5390.07924091
-0.192718152197
-0.0231108993804
8637.96628235
8633.02559804
8628.94657918
5681.95109483
0.144893608206
-0.0377396339848
8633.29545301
8630.47723629
8630.82481162
5646.24946318
185.72845681
-0.0303116860597
8628.46960624
8625.57858904
8624.56860587
5567.33783793
5.65013007663
-0.039762930082
8623.08115514
8618.73830317
8611.56322693
5156.55083325
0.101202170803
-0.0240809508915
8618.16807426
8613.27773549
8603.85496358
5070.14213285
0.0416311845958
0.000571080369226
8614.147235
8610.0729529
8603.84445818
5154.47078837
-0.0185666859402
0.0202420344988
8610.73455663
8607.84377193
8604.96432395
5240.48994109
-0.0361433998115
0.0248136342956
8607.29063114
8605.35380936
8604.52946014
5262.12005679
-0.0377095949424
0.0154559024839
8603.31245051
8601.74405417
8601.6588741
5202.88006651
-0.0485702765493
0.0116758054
8593.88571874
5075.58982075
-0.00948429198328
0.0131475962924
8581.77225242
4908.06442385
4.79706225966
0.00908264099537
8580.39910728
4716.06505112
17.0968783633
0.00288834137726
)
;
    }
    atmosphere
    {
        type            totalPressure;
        rho             rho;
        psi             none;
        gamma           1;
        p0              uniform 0;
        value           nonuniform List<scalar> 
27
(
-0.485676075696
0
0
-0.485602564413
-0.113855509125
-0.149598267177
-8.60380959831e-05
-0.0213433271109
-0.0264581182439
-0.033714684762
-0.0357696174384
-0.00798263570318
0
-0.00964805694907
-0.00777205430064
0
-0.0931568934366
0
0
-0.003158583095
-0.00792889610543
-0.00661133560729
-0.00349453013122
-9.14228186581e-05
0
0
-0.000179300933326
)
;
    }
    floatingObject
    {
        type            fixedFluxPressure;
        gradient        uniform 0;
        value           nonuniform List<scalar> 4(8795.79346003 8806.06213485 8806.06077956 8795.79068848);
    }
    procBoundary6to3
    {
        type            processor;
        value           nonuniform List<scalar> 8(8772.29012665 8788.51277967 8804.11411848 8824.31454219 8846.1630123 8324.02364607 1719.4944542 -4.57028197056);
    }
    procBoundary6to7
    {
        type            processor;
        value           nonuniform List<scalar> 
11
(
8626.70897455
8621.94420368
8617.60327493
8613.61453052
8609.6823932
8605.52593265
8598.61032465
8596.68818257
8596.68818257
8590.38376041
8583.53563408
)
;
    }
    procBoundary6to8
    {
        type            processor;
        value           nonuniform List<scalar> 
16
(
8772.26985337
8788.49612416
8788.49612416
8776.77774022
8761.60912777
8745.76511104
8729.10275451
8712.47464861
8696.62718609
8680.58281059
8666.81525737
8656.25307861
8648.58897722
8642.55643206
8637.02258646
8631.8447531
)
;
    }
    procBoundary6to9
    {
        type            processor;
        value           nonuniform List<scalar> 4(8571.04754515 4507.76138238 17.6510350903 -0.0122145535987);
    }
}


// ************************************************************************* //
