/*--------------------------------*- C++ -*----------------------------------*\
| =========                 |                                                 |
| \\      /  F ield         | OpenFOAM: The Open Source CFD Toolbox           |
|  \\    /   O peration     | Version:  v2012                                 |
|   \\  /    A nd           | Website:  www.openfoam.com                      |
|    \\/     M anipulation  |                                                 |
\*---------------------------------------------------------------------------*/
FoamFile
{
    version     2.0;
    format      ascii;
    class       surfaceVectorField;
    location    "3.1";
    object      ddtCorrDdt0(Uf);
}
// * * * * * * * * * * * * * * * * * * * * * * * * * * * * * * * * * * * * * //

dimensions      [0 1 -2 0 0 0 0];


internalField   nonuniform List<vector> 
302
(
(0.027443569365 -0.0134080901837 3.0465856585e-27)
(0.0295349062794 -0.0143361135027 4.35302759205e-25)
(0.0237879194429 -0.014072818391 -5.55612859174e-25)
(0.026176269693 -0.0156511102756 -3.22940454614e-24)
(0.0190137329749 -0.0142356595301 -1.52865364683e-24)
(0.0217783722525 -0.0166564301345 -5.66714572703e-24)
(0.0127836138289 -0.0137484227686 1.26154564388e-24)
(0.0160507459927 -0.0172527903219 -1.51327788614e-24)
(0.00462981151644 -0.0124486850144 -8.84337069629e-23)
(0.00859249082124 -0.0173521257619 2.56955287322e-24)
(-0.00612573961565 -0.0101289192827 -1.51746247887e-22)
(-0.00115611888735 -0.0169490951781 -1.65450460038e-22)
(-0.0203342526666 -0.00648810502548 8.52569052833e-22)
(-0.0140437197256 -0.0154848276112 -2.0254606292e-22)
(-0.0389634150052 -0.000865689029111 -1.26212136638e-21)
(-0.0311582081142 -0.0130290936007 -3.98881503445e-22)
(-0.0604317791847 0.0081022435107 4.37950033835e-21)
(-0.0540123540082 -0.0130678134183 -2.90887780425e-21)
(-0.0836778694221 0.0213711004278 1.02592745682e-20)
(-0.0784883453677 -0.000256283232383 1.17902877931e-20)
(-0.267448546391 0.0342498629122 -1.51058301179e-20)
(-0.101190210699 -0.0264481588211 1.05197179394e-20)
(-0.336751902226 0.0863692544936 -5.17315153539e-20)
(-0.450465936773 0.0137329209629 3.0885874858e-20)
(-0.237438101897 0.0316154326349 1.88537579391e-20)
(0.0340669548771 -0.0129305036694 1.63101784243e-24)
(0.0360600243271 -0.0127634096863 -6.21850516544e-24)
(0.0317744208782 -0.0149017578321 6.90960514968e-24)
(0.0340540499482 -0.0150744749449 7.81035935927e-24)
(0.0287455892721 -0.0167541397219 -2.79714837259e-24)
(0.0313794915549 -0.0173612619529 7.49762944874e-24)
(0.0247785128636 -0.0184496023544 -8.34093741399e-24)
(0.0278630308822 -0.0196068146775 4.93158438629e-24)
(0.0196019690949 -0.0199396153717 -5.65176996634e-24)
(0.0232592496721 -0.0218063067286 3.4941184691e-24)
(0.0128681050051 -0.02116725597 -2.05270656801e-25)
(0.0172682697358 -0.0239383086034 9.68870235978e-24)
(0.00410902334086 -0.0221134119543 -7.44472002016e-23)
(0.0095283475378 -0.0260043617724 -2.77849166044e-23)
(-0.00737760419661 -0.0227567086989 -2.16250275071e-22)
(-0.000523687207685 -0.0281388691615 -2.65003722527e-22)
(-0.0225679215054 -0.023135953907 -1.4539966192e-21)
(-0.013674686875 -0.0301847514236 -6.53037310881e-22)
(-0.04284411177 -0.0232213696684 -2.04563794132e-21)
(-0.0310821241619 -0.031942962244 -1.36714025659e-21)
(-0.0662797310893 -0.0227281174692 4.50190965049e-21)
(-0.0545123651611 -0.0397781376493 -6.91324726495e-23)
(-0.0864320190939 -0.0235037507743 1.20507311643e-20)
(-0.0777157916005 -0.0357201224473 1.26413616976e-20)
(-0.266101120144 -0.0354166875551 5.65114229152e-20)
(-0.0892767667329 -0.0588087040467 7.39803106506e-21)
(-0.342869532815 -0.0691751595179 1.01471148151e-19)
(-0.41673928819 -0.0525068742481 1.01108957835e-19)
(-0.251244284479 -0.109896857119 1.12333781703e-19)
(0.0411372003299 -0.00241602900335 -3.32995081702e-22)
(0.0421467565698 -0.0015530194916 -2.6269409306e-23)
(0.0425384204503 -0.00377307803039 -2.50299134657e-22)
(0.0380949808311 -0.0123692268268 -3.22035659916e-23)
(0.0400690596118 -0.0117075621248 -2.15893481052e-23)
(0.0363752300765 -0.0149527590091 -3.91636486011e-26)
(0.0386361759323 -0.0144971993605 -2.93186638171e-24)
(0.0340597980693 -0.0175891784981 8.39838365833e-24)
(0.0366827994274 -0.0173994038276 -4.84066990806e-24)
(0.0309863057675 -0.0202805317224 1.52263622076e-23)
(0.0340623851726 -0.0204347670993 1.88894695399e-23)
(0.0269510732677 -0.0230281320869 1.67666402694e-23)
(0.030600944059 -0.0236312009684 1.14237682198e-23)
(0.0217075940972 -0.0258901110587 1.88345907952e-23)
(0.0261102521353 -0.0270274250279 1.39340708542e-24)
(0.0149246901097 -0.0288455598904 -1.78909435879e-23)
(0.0202115760422 -0.0306789976658 1.20778163622e-23)
(0.0061656368445 -0.0319776839657 -2.1834143893e-22)
(0.0126475613612 -0.0346619041781 -2.48579111472e-23)
(-0.00520401045739 -0.0354742011188 -7.01790758336e-22)
(0.00295969768371 -0.0391653278621 -4.37190362295e-22)
(-0.0200837945518 -0.0395652108364 -5.66180948273e-22)
(-0.00959629402925 -0.0443872662101 -1.36030098998e-21)
(-0.0398468452035 -0.0447530357696 6.09365212077e-22)
(-0.0259054410691 -0.0496105773517 2.26346222162e-22)
(-0.0617288130552 -0.0518587242525 8.07031957449e-21)
(-0.0474148335338 -0.0632687146632 1.93592109813e-21)
(-0.0754554513588 -0.063167531611 7.98866159844e-21)
(-0.0664108471566 -0.0652423107018 2.04884765541e-20)
(-0.231259124459 -0.0839212420914 5.19955659851e-20)
(-0.0685226073536 -0.0851854554794 -3.71732308541e-21)
(-0.319031590977 -0.143205501272 1.11971591388e-19)
(-0.357446692792 -0.0901660020241 8.1165044374e-20)
(-0.26017759974 -0.16168051021 8.60366920208e-20)
(0.0436783265875 -0.00264310056961 5.64265377388e-23)
(0.0447869562582 -0.00163786284528 3.08203560895e-22)
(0.0435465772852 -0.00530699836115 6.34497202376e-23)
(0.0451988465211 -0.00408627298956 1.46233386937e-22)
(0.0428684210694 -0.00804495858193 8.35829809495e-23)
(0.0445593540569 -0.00686802928143 1.9875567133e-22)
(0.0420419208076 -0.0108735949474 9.15448182414e-24)
(0.0439125911839 -0.00984288224554 -2.43400119209e-25)
(0.0408821583424 -0.0138221309991 7.68235150473e-24)
(0.0430121536343 -0.0128861972922 2.16773959288e-23)
(0.0392731585358 -0.0169252098723 -7.73337264117e-24)
(0.0417331970028 -0.0161204212758 5.58517878295e-24)
(0.0370908204852 -0.0202165595783 5.65041597356e-24)
(0.0399669354584 -0.0195887950725 -8.80212909039e-24)
(0.034181422305 -0.0237448166311 1.50868755522e-23)
(0.037581996963 -0.0233437397421 1.10827692484e-23)
(0.0303456893817 -0.0275656400935 -3.94946496412e-24)
(0.0344111903979 -0.0274605552827 -1.84902272542e-23)
(0.0253471186624 -0.0317198609666 -5.36336734755e-24)
(0.0302520450778 -0.032010866731 -2.09145185052e-23)
(0.018892259265 -0.0363575704876 5.11084880293e-24)
(0.0248350582806 -0.0371037093745 -6.79786849211e-24)
(0.0106124578183 -0.0415736277734 -2.43706834512e-22)
(0.0178483417018 -0.0428660547113 -4.10692198141e-23)
(-2.37194310259e-05 -0.0475592325529 -1.09570059394e-21)
(0.00892962766431 -0.0494979859514 -4.0206869909e-22)
(-0.0137369618398 -0.0546875779493 -5.67773819542e-22)
(-0.00248292500354 -0.0573961779938 -1.70900741655e-21)
(-0.0315932365926 -0.0635746580242 1.55290210821e-21)
(-0.0170315506992 -0.0653671380797 -1.91973783652e-22)
(-0.0503529313443 -0.0751013605096 1.43540780778e-20)
(-0.035897742917 -0.0825994022587 6.67122960172e-22)
(-0.0592170955844 -0.0904255208915 8.78249187029e-21)
(-0.0510912610901 -0.0881817009447 8.45760532513e-21)
(-0.197234628329 -0.108843093974 2.54521553036e-20)
(-0.0501046741027 -0.10407608781 -9.82019778294e-21)
(-0.298768865562 -0.148977494705 5.52301450073e-20)
(-0.317277290499 -0.112762969187 4.57365536841e-20)
(-0.265175189536 -0.166917194108 4.31405623872e-20)
(0.0464382936455 -0.0028111045112 3.98010410094e-22)
(0.0475958144465 -0.00170451657997 3.76051633518e-22)
(0.0463713243048 -0.0057102607364 2.8153933803e-22)
(0.0480956286859 -0.00434209117108 2.01950534157e-22)
(0.0457812188811 -0.00868149079976 1.14929290262e-22)
(0.047527740811 -0.0073164511818 8.11102643416e-23)
(0.0450924350647 -0.0118010766034 1.22795139854e-23)
(0.0470289235963 -0.0105309727713 -4.30685365444e-23)
(0.0441181025932 -0.0151196748374 1.9580223207e-23)
(0.0463269711736 -0.0138796505413 -1.69360788717e-24)
(0.0427408806051 -0.0187010406717 4.51642233372e-24)
(0.0453098347373 -0.0175074094009 -3.64523041471e-24)
(0.0408452073051 -0.0226046350214 -3.36977581556e-24)
(0.0438643015937 -0.0214869471432 -5.02005704275e-24)
(0.0382924589969 -0.0269171056688 -2.2494333558e-23)
(0.0418862149881 -0.0258962050226 5.38538979302e-24)
(0.0349028024078 -0.0317228385308 -3.54552807953e-23)
(0.0392061756986 -0.0308481538719 -4.64597885044e-23)
(0.0304431962856 -0.0371404820223 -2.23490196497e-23)
(0.0356563485229 -0.0364608615567 -2.60726329387e-23)
(0.0246475809746 -0.0432972789024 -5.29779371091e-23)
(0.0309761813302 -0.0428744996241 -1.22829503387e-23)
(0.017204117887 -0.0503766886222 -1.99431084391e-22)
(0.0249105170579 -0.0502451799206 -1.14786903707e-22)
(0.00768798241745 -0.058579577877 -1.01537552171e-21)
(0.0171147660642 -0.0587779817507 -2.80467701182e-22)
(-0.00446303203982 -0.0682136936043 -1.33320738066e-21)
(0.00713416856203 -0.0689040516665 -1.49958659008e-21)
(-0.0202229971384 -0.0797650768247 -1.0777529317e-21)
(-0.0054950868031 -0.0793963673625 -8.92026563834e-22)
(-0.0360366317643 -0.0935458097523 -5.22934979249e-21)
(-0.0221277843547 -0.0986154148098 -1.66419692792e-21)
(-0.0428474116621 -0.110578106039 -1.01450843281e-20)
(-0.034064070788 -0.107580948143 -9.27318042768e-21)
(-0.174135179826 -0.126257234056 1.04642005976e-20)
(-0.0344250981899 -0.120138035709 -6.97077145676e-21)
(-0.286024251436 -0.156119461514 3.3646971064e-20)
(-0.287368522281 -0.132465145319 2.04053146445e-20)
(-0.270182983514 -0.148957120241 1.42601720897e-20)
(0.0493655622712 -0.00297069495739 1.79991757582e-22)
(0.0505650901505 -0.00174244699815 1.51117380588e-22)
(0.049387093571 -0.00600573120117 1.5214604692e-24)
(0.0511293254407 -0.00451611593432 -3.9527568822e-23)
(0.0489321432026 -0.0091671080308 -7.68875624644e-23)
(0.0506877421831 -0.00762466608046 -1.14954087496e-22)
(0.048445184983 -0.0125227414841 -5.7041658417e-23)
(0.0503830413166 -0.0110162062491 -6.36463877998e-23)
(0.0477348372112 -0.0161502658862 -2.49190615089e-23)
(0.0499525748951 -0.014606886393 -2.89042056783e-23)
(0.0467042727955 -0.0201575385922 -1.31817097912e-23)
(0.049314233316 -0.0185482924445 -4.45329229696e-23)
(0.0452515919297 -0.0245907068122 3.73510856583e-24)
(0.0482929224409 -0.0229458783743 -1.81476861505e-23)
(0.0432366069888 -0.0295949035386 -1.85800651534e-23)
(0.0468834089984 -0.027913070626 -3.85925660867e-24)
(0.0404973364454 -0.0352942066847 -3.70771406478e-23)
(0.0448954009581 -0.0335846467829 -1.77929801575e-23)
(0.0368353665841 -0.0418203043434 -1.60065636277e-23)
(0.0421690601979 -0.0401164900823 -1.76808700186e-23)
(0.032007485144 -0.0493537725855 -7.40919169364e-23)
(0.0384933000091 -0.0476845120674 -1.07335124186e-23)
(0.0257215664221 -0.0580833434653 -1.95823520497e-22)
(0.0336216536768 -0.0564710725725 -1.15146019277e-22)
(0.0176048765818 -0.0682332515898 -7.64678769555e-22)
(0.0272454774237 -0.0667022542939 -2.70384554115e-22)
(0.0072584355245 -0.0801038945257 -1.05840577325e-21)
(0.0189863510798 -0.0787321439183 -1.0107954286e-21)
(-0.00612943327795 -0.0941177164415 -1.47847056005e-21)
(0.0085026474296 -0.0916499093667 -1.33163112367e-21)
(-0.0197764885152 -0.111261445333 -5.70802756311e-21)
(-0.00499557429767 -0.112398814535 1.33082966561e-22)
(-0.0273342144075 -0.128916757652 -6.09886755633e-21)
(-0.0164142507317 -0.125744063144 1.45147016466e-20)
(-0.164391642932 -0.14120057311 2.97034259012e-21)
(-0.0221407313819 -0.137114420202 -2.70821060246e-21)
(-0.283560065183 -0.127076692495 1.01851567023e-21)
(-0.301422842012 -0.161310095552 1.05777651482e-20)
(-0.265442252426 -0.149335180805 1.67926581145e-20)
(0.052413636075 -0.00303214266023 -6.8401945816e-23)
(0.0535969735691 -0.00174361428844 -5.27600022562e-24)
(0.0525461969382 -0.00617130050219 -1.56003116787e-22)
(0.054268499068 -0.0045877012334 -1.54911380005e-22)
(0.0522706575369 -0.00945472132022 -1.01712912832e-22)
(0.0539716540362 -0.00775332013908 -7.1242732525e-23)
(0.0520477002387 -0.0129837366728 -3.55089350611e-23)
(0.0539130239408 -0.0112409859649 -7.19991877596e-23)
(0.0516891562438 -0.0168537732727 -4.8518067139e-23)
(0.0538237266084 -0.014985024979 -1.76182826474e-23)
(0.0511081121982 -0.0211428477548 -4.94988993289e-23)
(0.0536037915195 -0.019140652543 -2.97065332406e-23)
(0.050216817808 -0.0260155851446 -2.5742051325e-23)
(0.0531643750916 -0.0238426746999 -8.04186940834e-24)
(0.0488995265692 -0.0315863585163 -3.07217161277e-24)
(0.0524498499685 -0.0292324619021 3.64123879744e-24)
(0.0470153401069 -0.0380199197977 1.60329047172e-24)
(0.0513205048111 -0.0354678657789 -4.30037948499e-24)
(0.0443837911102 -0.0454918770185 -1.24078188096e-23)
(0.0496276659818 -0.0427435003995 8.60527047675e-24)
(0.0407838014492 -0.054213822883 -5.17876147593e-23)
(0.047197166992 -0.0512682490178 -1.52013401846e-24)
(0.0359425649169 -0.0644011235932 -1.89707052895e-22)
(0.0437873819684 -0.061255085217 -6.67337582074e-23)
(0.0295134539123 -0.0762826869461 -5.16501213158e-22)
(0.0391039610896 -0.0729681952979 -1.95068539693e-22)
(0.0212071127826 -0.0901103971661 -1.28402077902e-21)
(0.0327917326666 -0.0866811285728 -8.05952089464e-22)
(0.0106214889671 -0.106359098363 2.79922402944e-22)
(0.024731939595 -0.101790527773 -8.55518021546e-22)
(-0.000239769782087 -0.126011154173 2.03558121762e-20)
(0.014642285145 -0.123992438798 8.83916507945e-22)
(-0.00842113721296 -0.148345131316 1.79053586004e-20)
(0.00591228597612 -0.142061148267 2.13791196858e-20)
(-0.156330553029 -0.171580368376 4.89921195557e-21)
(0.00109478713425 -0.149076734076 -4.33253025583e-21)
(-0.282361043395 -0.175079429526 2.63519075924e-20)
(-0.297888165483 -0.189054995127 1.40088631061e-20)
(-0.258884797302 -0.168912970337 2.75318222227e-20)
(0.0555088056765 -0.00303340201141 -9.1785434415e-23)
(0.0566313656288 -0.00169820475468 -5.51120636843e-23)
(0.0557805764798 -0.00618409230385 -7.01509957429e-23)
(0.0574209971957 -0.00453257145665 -1.70722093557e-22)
(0.0557115314321 -0.00950653759292 -4.15290074529e-23)
(0.0572972070516 -0.00767757814559 3.71307886474e-23)
(0.0558035182855 -0.0131051420922 -5.41085353459e-23)
(0.0575161679334 -0.0111584144606 -4.84784369678e-23)
(0.0558739172738 -0.0170954444146 1.19325125101e-24)
(0.0578194339585 -0.0149411657199 -1.83517108404e-25)
(0.0558338228431 -0.0215955054722 1.175049668e-23)
(0.0581088675788 -0.0191943221232 1.0441854741e-23)
(0.0556176429726 -0.0267581917398 2.13414207141e-23)
(0.0583298614926 -0.024064358638 2.16819498817e-24)
(0.0551426580464 -0.0327319505905 2.41303092522e-24)
(0.0584222477513 -0.0297102183596 4.6605863027e-23)
(0.0542817375259 -0.0397174524652 2.70160052003e-24)
(0.0582983428795 -0.0363270534624 -5.68941630137e-24)
(0.0528799241558 -0.047929372788 1.94929552679e-23)
(0.0578242598825 -0.0441385711644 5.71175629253e-24)
(0.05074802931 -0.0576144899119 -1.64662774665e-23)
(0.0568597934783 -0.0533840615102 2.65486699549e-23)
(0.0476303824988 -0.0690134432655 -7.2095245005e-23)
(0.0551589255714 -0.0643270686201 -1.53725433252e-23)
(0.0431959079794 -0.0823978828842 -4.84519415999e-22)
(0.0524592288159 -0.0772753240605 -4.42087102093e-23)
(0.0372051243315 -0.0980516220482 -3.77449331992e-22)
(0.0484176694194 -0.092462611761 -6.92085414952e-22)
(0.0296731007482 -0.116298910582 -2.51523916545e-22)
(0.0429551863608 -0.109543532656 -2.16038284033e-22)
(0.0214160221496 -0.138207661415 1.90722401753e-21)
(0.0365326837468 -0.132695449864 6.40834854873e-22)
(0.014767022165 -0.16113083707 -8.58769170445e-22)
(0.0288265089168 -0.153228267145 2.15659227764e-20)
(-0.143440449013 -0.182570832098 4.7771208947e-21)
(0.0225354045693 -0.151495336829 -3.37929955677e-21)
(-0.272973504404 -0.171582497086 1.51887777364e-20)
(-0.308916616792 -0.193871553638 -1.70797753141e-20)
(-0.221943015007 -0.198922961358 1.50088382442e-20)
(0.0585608980299 -0.00296772928813 -1.34048722826e-22)
(0.0589790430723 -0.00602678719292 -6.34403091664e-23)
(0.0591539919876 -0.00928164266404 3.01813591326e-23)
(0.0595985669573 -0.0128445075295 5.44658126976e-24)
(0.0601398509912 -0.0168364705116 9.06508638154e-24)
(0.060714293018 -0.0213917836516 8.59553049099e-25)
(0.0612797684756 -0.0266752009261 2.74326373011e-23)
(0.0617693466691 -0.0328740425383 3.85034158004e-23)
(0.0620860460502 -0.0402078891598 -2.67926052887e-24)
(0.0621097539063 -0.0489254901408 1.27674709795e-23)
(0.0616699318066 -0.0592984632126 2.76424040961e-23)
(0.0605144730891 -0.071629341943 1.25139914705e-23)
(0.0583525652155 -0.0862869644621 -2.51774709163e-22)
(0.0549921193889 -0.103449213864 -5.30674366993e-22)
(0.0505746223739 -0.123461828583 6.76320487385e-22)
(0.0439383472916 -0.146054886224 2.02995336137e-20)
(0.0347720949282 -0.16740962102 1.90453923901e-20)
(-0.132917834559 -0.181393006935 -2.52361957656e-20)
(-0.250410259007 -0.202583326977 -1.72597148063e-20)
)
;

boundaryField
{
    back
    {
        type            calculated;
        value           uniform (0 0 0);
    }
    sides
    {
        type            calculated;
        value           nonuniform List<vector> 0();
    }
    bottom
    {
        type            calculated;
        value           uniform (0 0 0);
    }
    front
    {
        type            calculated;
        value           uniform (0 0 0);
    }
    atmosphere
    {
        type            calculated;
        value           nonuniform List<vector> 9((1.70185363259e-06 0.119223705097 1.61642277675e-24) (-2.61521241899e-05 -0.0553444143134 4.09769199112e-23) (3.0762512527e-05 -0.134284691244 -1.17032455993e-23) (-4.60706689936e-05 -0.144019246516 -4.58548168846e-23) (8.70337000406e-06 -0.151164487037 1.83287174961e-24) (5.37211463789e-07 -0.131890636518 2.77284038927e-26) (2.20181922534e-08 -0.181677222887 5.61418365778e-28) (-3.02152562447e-11 -0.208497788537 -8.19058913367e-31) (0.0936550716761 -0.231652363269 -1.13416332561e-20));
    }
    floatingObject
    {
        type            calculated;
        value           nonuniform List<vector> 0();
    }
    procBoundary0to1
    {
        type            processor;
        value           nonuniform List<vector> 10((0.0165510542316 -0.0110427285871 -2.53970532018e-23) (0.00990329145663 -0.00926538830345 -7.78056539532e-24) (0.00117673223593 -0.00637734438365 -2.46373800596e-22) (-0.0103914064871 -0.00153017741126 -3.03406861383e-22) (-0.0255231553699 0.00519604196986 2.07262079551e-21) (-0.0450359343574 0.0127469687392 -3.00740492054e-21) (-0.0652152669087 0.0312618073822 1.12526833915e-20) (-0.0883110218848 0.00328222297089 1.00354080143e-20) (-0.398348918832 0.0909799884338 -5.24082569536e-20) (-0.20457986452 0.220855011159 -4.75908437989e-20));
    }
    procBoundary0to2
    {
        type            processor;
        value           nonuniform List<vector> 
14
(
(0.0284985127827 -0.0115620901834 4.57041374457e-25)
(0.0255228631377 -0.0120056114202 -2.47419309648e-24)
(0.0216255513521 -0.0118937324121 1.14568304256e-23)
(0.0340152651808 -0.0110501723505 -1.5644307352e-23)
(0.0302289307079 -0.0123586580842 -4.49621505606e-24)
(0.0320940468684 -0.0127829633143 1.97808733441e-24)
(0.0397374127299 -0.00145873863792 -2.41018929412e-22)
(0.0400826122499 -0.00343403085603 -4.37408370848e-22)
(0.0357796552961 -0.0108694437372 -1.09308716888e-23)
(0.0375447338358 -0.010441239863 -3.6915932515e-23)
(0.0409717371037 -0.00487906355905 -2.96057117888e-22)
(0.0418299721008 -0.00632590976769 1.76917370071e-23)
(0.039345916271 -0.00983322921422 -1.08516545555e-22)
(0.0410912619871 -0.00901829279333 -7.77727156259e-23)
)
;
    }
    procBoundary0to4
    {
        type            processor;
        value           nonuniform List<vector> 8((0.0596010183074 -0.0016105824351 -1.80204803901e-23) (0.0604830993317 -0.00433937974594 -8.35106895225e-23) (0.0605570042954 -0.00736090160193 7.55425786084e-23) (0.0610859546174 -0.0107277500661 -6.61011722658e-24) (0.0618196235024 -0.0144279473689 -7.43918899833e-25) (0.0626720969122 -0.0186359328798 2.32286822502e-23) (0.0636187596298 -0.0235075819632 -5.80933575239e-24) (0.0646216116932 -0.0292241139002 3.06587783431e-23));
    }
    procBoundary0to5
    {
        type            processor;
        value           nonuniform List<vector> 
12
(
(0.0656248240698 -0.0360094100826 -1.38859948673e-23)
(0.0665240599096 -0.0441101604364 -1.33632084894e-23)
(0.0672080760907 -0.0538094043249 5.37301243819e-23)
(0.0674600854194 -0.0654380927937 2.76646227805e-23)
(0.0670853916407 -0.0793387549086 -3.70820845257e-23)
(0.065549936198 -0.095756851374 -3.87456992074e-22)
(0.0629409003991 -0.114765473818 -7.20168268856e-22)
(0.0591053400681 -0.138570674218 -1.31698753992e-22)
(0.0501713676192 -0.161091770141 2.12927703894e-20)
(0.0365187039595 -0.152055607424 -1.89153774717e-22)
(-0.2876799835 -0.19782103455 -4.2249224003e-20)
(-0.192930948643 -0.296056342351 -7.22331715818e-21)
)
;
    }
}


// ************************************************************************* //
