/*--------------------------------*- C++ -*----------------------------------*\
| =========                 |                                                 |
| \\      /  F ield         | OpenFOAM: The Open Source CFD Toolbox           |
|  \\    /   O peration     | Version:  v2012                                 |
|   \\  /    A nd           | Website:  www.openfoam.com                      |
|    \\/     M anipulation  |                                                 |
\*---------------------------------------------------------------------------*/
FoamFile
{
    version     2.0;
    format      ascii;
    class       surfaceVectorField;
    location    "3.1";
    object      Uf;
}
// * * * * * * * * * * * * * * * * * * * * * * * * * * * * * * * * * * * * * //

dimensions      [0 1 -1 0 0 0 0];


internalField   nonuniform List<vector> 
302
(
(0.0386417905698 -0.0183391941243 7.41611747427e-24)
(0.0396957440729 -0.0168475027586 8.18133930396e-24)
(0.0390768819178 -0.0209590446706 8.96298835433e-24)
(0.0401501824333 -0.0193848894945 1.18725793629e-23)
(0.0395622789311 -0.02367914592 2.09178883339e-24)
(0.0406613408235 -0.0220128626574 1.15856679447e-23)
(0.0400972643966 -0.0265196723085 -1.97909211934e-23)
(0.0412266633329 -0.0247471898336 -6.38341973807e-24)
(0.0406632051574 -0.0294895949928 -2.57724168497e-23)
(0.041848851784 -0.0275981000131 -2.13418662149e-23)
(0.0411580144969 -0.0326134240196 -1.33885412316e-22)
(0.042497175782 -0.0306038428586 -2.82227044704e-23)
(0.0413081798475 -0.0359250519269 -8.1476775551e-22)
(0.0430148103023 -0.0337719981279 -2.95621667329e-22)
(0.0407742197437 -0.03941450629 -1.3870980966e-21)
(0.0430056031746 -0.0369071716436 -1.43009245527e-21)
(0.0396597392378 -0.0427076282293 -4.37408775109e-21)
(0.0419379183958 -0.0410031182924 -3.47630050543e-21)
(0.0407545582123 -0.04537607527 -4.50455099302e-21)
(0.0401962487234 -0.0457403492291 -8.2928089722e-21)
(0.0431884908101 -0.046929450189 3.45807924577e-21)
(0.0426737200483 -0.0396680081148 -1.0639832556e-20)
(0.0412609646586 -0.0481515278002 7.35630629e-21)
(0.0439820894134 -0.0498674578229 -1.19493305786e-20)
(0.0398116961135 -0.0534549083574 -7.71198871759e-21)
(0.0403033920806 -0.0130175135441 -6.49998358993e-24)
(0.0412636945046 -0.0116633800435 -9.09686447572e-24)
(0.0407178751652 -0.0154084832673 4.88432287337e-24)
(0.0416823495454 -0.0139812864428 -1.95237269998e-24)
(0.0411892932999 -0.0178758822426 1.26378011926e-23)
(0.0421632547959 -0.0163731050153 2.7122716703e-24)
(0.0417186296132 -0.0204263388122 1.44952589532e-23)
(0.0427007597415 -0.0188446779834 1.03292804606e-23)
(0.0423108029113 -0.0230724219207 3.11045937323e-24)
(0.0433075427716 -0.0213997921036 6.7773902212e-24)
(0.0429710280621 -0.025837008379 -7.93436475967e-24)
(0.0439913705676 -0.0240528666724 -2.2135654756e-25)
(0.0436886110656 -0.0287242273157 -2.37921538356e-23)
(0.0447361787732 -0.0268112663894 -7.64984925612e-24)
(0.0443802367951 -0.0317800530257 -1.89958959484e-22)
(0.0455531069258 -0.0297073833238 -9.47656918319e-23)
(0.0447533705108 -0.0350508056241 -9.10946367093e-22)
(0.0462856551221 -0.0327753920834 -6.76986234176e-22)
(0.0442510268353 -0.0385525033186 -3.5192948641e-21)
(0.046507385929 -0.0358122276195 -2.81350581463e-21)
(0.0426165438748 -0.0420126064136 -7.39502172654e-21)
(0.0453980832403 -0.0394524639361 -6.14849744742e-21)
(0.0424911693591 -0.0448158422345 -1.44280905352e-20)
(0.0429995117956 -0.0443198081914 -7.80730433257e-21)
(0.0452404961329 -0.0465300026062 -2.60472423804e-20)
(0.0443878775374 -0.037298245908 -2.23355563427e-20)
(0.0437898085137 -0.0527501743129 -2.70176255862e-20)
(0.0502023336429 -0.049331535645 -3.96796281749e-20)
(0.042600521714 -0.0580825627628 -2.65746934005e-20)
(0.0393047897787 -0.00194090584375 2.23177832001e-22)
(0.0396620102987 -0.000953760272893 5.62372514443e-23)
(0.0409224410435 -0.00287388072932 3.54863446762e-22)
(0.0421892119134 -0.0103528248955 3.24351983754e-24)
(0.0430783389236 -0.00907424597346 7.49107649129e-24)
(0.0426208151345 -0.012604213617 -4.54925358577e-24)
(0.043515241836 -0.011255487881 -3.43749560522e-24)
(0.0431100183335 -0.0149232370475 -4.12442390305e-24)
(0.0440015063489 -0.0134982206982 -1.6016064281e-24)
(0.0436672010654 -0.0173172855356 4.0375093834e-25)
(0.0445574252609 -0.0158137130405 -6.29144667411e-24)
(0.0442935657489 -0.019803848036 2.61141172857e-24)
(0.0451874428767 -0.0182101862025 -1.13807561097e-23)
(0.0449876968609 -0.0223585183282 3.44557430041e-24)
(0.0458623326015 -0.0206912315276 -1.54818613463e-23)
(0.0457572963235 -0.0250328400198 6.31589559892e-26)
(0.0466658091187 -0.0232585289219 -2.03643354239e-23)
(0.0466019113753 -0.0278190176146 -7.86233872524e-23)
(0.0475224679905 -0.0259089685433 4.67975227741e-24)
(0.0474565962676 -0.0306914181165 -5.81792966525e-22)
(0.0484256141493 -0.0286600129591 -2.01017551384e-22)
(0.0480279152418 -0.0337050172708 -2.57954568171e-21)
(0.0492993558104 -0.0315417896404 -1.15780896078e-21)
(0.0476346345902 -0.036860279083 -5.44270839795e-21)
(0.0496627400871 -0.0343722229406 -4.13326795668e-21)
(0.0457624876086 -0.0400514211996 -6.56078005346e-21)
(0.0485892955718 -0.0373715638807 -3.55866557057e-21)
(0.044916265939 -0.0430007943817 -1.57147701401e-20)
(0.0459489180658 -0.0423587441968 -2.1755456327e-21)
(0.0495634322494 -0.0453963600435 -3.59679421372e-20)
(0.0467834325695 -0.0346345519235 -2.12055093456e-20)
(0.0488038424008 -0.0530216474631 -3.92366959892e-20)
(0.0578277838597 -0.0486099307039 -4.26452710788e-20)
(0.0474321633258 -0.0589407142938 -3.0708065735e-20)
(0.0412450105072 -0.00185068191998 1.87922866205e-22)
(0.0415128676481 -0.000909116110913 -2.28765479262e-22)
(0.0424387882429 -0.00379611069534 2.17984142338e-22)
(0.0428680676544 -0.00274040434249 8.18890018929e-23)
(0.043314914362 -0.00579126377015 1.2246147762e-22)
(0.0439697942348 -0.0046788120158 -2.70870439468e-24)
(0.0438956603795 -0.00784335443391 6.284855269e-23)
(0.0446778404871 -0.00664081557161 8.21948263274e-23)
(0.0443702348064 -0.00995308328872 8.10061048533e-25)
(0.0451882359172 -0.00868650695838 -4.73548292417e-24)
(0.0448652130053 -0.0121216883501 -4.89848447553e-25)
(0.0456839939716 -0.0107823087427 -1.09574256094e-23)
(0.0454253413837 -0.0143592797413 -3.76862919917e-24)
(0.0462392331346 -0.0129408749026 -1.11668050359e-24)
(0.0460608215426 -0.0166730077691 -1.80759537222e-23)
(0.046871280534 -0.0151743306901 -7.59384395615e-24)
(0.0467756874298 -0.0190663115473 -2.94740291846e-23)
(0.0475808724932 -0.0174879665082 -1.55227472177e-23)
(0.0475653018231 -0.0215655616802 -3.92917710707e-23)
(0.04836170562 -0.0198901857685 -2.00723348777e-23)
(0.0484282432859 -0.024122312475 -1.57477421025e-23)
(0.0492226824775 -0.0223751242625 -3.43843349793e-23)
(0.0493563327851 -0.0267634636099 -1.17714411854e-22)
(0.0501637381289 -0.0249293786831 -3.55838936275e-24)
(0.0502916405299 -0.0294775105935 -7.77033545639e-22)
(0.0511397793851 -0.0275508016268 -2.23387802036e-22)
(0.0509583136273 -0.0322341985816 -2.71153123575e-21)
(0.0520561587235 -0.0302562829796 -1.01668672609e-21)
(0.0506741190829 -0.035058895371 -2.2492251293e-21)
(0.0524875436368 -0.0329276862816 -3.43962106427e-21)
(0.0488666747478 -0.0380718456435 8.26568850187e-22)
(0.0516023279453 -0.0354756850556 -7.0169830301e-22)
(0.0479125333966 -0.0412687881277 -7.6662848382e-21)
(0.0491459002385 -0.04065193583 -2.15064265444e-21)
(0.0545356073139 -0.044440742196 -2.78828382872e-20)
(0.0499553732043 -0.0326203801929 -1.37459231651e-20)
(0.0560213167135 -0.0508055756728 -3.41166408246e-20)
(0.0641925583158 -0.0484496333129 -2.86434057347e-20)
(0.0536878707474 -0.0592038606287 -2.21926271881e-20)
(0.04309184392 -0.00177121055752 -3.34799343574e-22)
(0.0432842266156 -0.000857594803891 -6.43972862547e-22)
(0.044354661229 -0.00360067423572 -1.3880384484e-22)
(0.0446976897209 -0.0025890010808 -2.29224982617e-22)
(0.0452940641656 -0.00550712315672 -4.29753556875e-23)
(0.0458764065434 -0.00443200396791 -1.06467471386e-22)
(0.0459322943117 -0.0074695792525 1.46107907132e-23)
(0.046640453988 -0.00629474290614 6.28464871126e-23)
(0.0464649027107 -0.00948956590232 -1.65029695821e-23)
(0.0472083694762 -0.00824288495891 -1.08818640281e-24)
(0.0470246251425 -0.0115670187269 -1.15842576654e-23)
(0.0477615846629 -0.0102430350935 -1.0646708193e-24)
(0.0476574355045 -0.0137199803938 -4.94189526057e-24)
(0.0483923267089 -0.0123095065806 4.12453553075e-26)
(0.0483697519087 -0.0159488728094 -5.04063745168e-24)
(0.049100300948 -0.0144578692081 -1.24393344608e-24)
(0.0491623349235 -0.0182647732702 -6.12105291074e-24)
(0.0498968997078 -0.016688067431 1.74397243115e-23)
(0.0500358855345 -0.0206641833729 -1.51648987863e-23)
(0.0507612420462 -0.0190058200065 1.25516025474e-24)
(0.0509821069005 -0.0231467570497 -2.21949822395e-23)
(0.0517053835713 -0.0214098402011 -1.37947575799e-23)
(0.0519733776571 -0.0256885669887 -1.09231779545e-22)
(0.0527056766935 -0.0238895533972 -2.24125409302e-23)
(0.0529401194959 -0.0282750918993 -4.63040982486e-22)
(0.0537264348054 -0.0264251894528 -2.17757114455e-22)
(0.0536458638608 -0.0308644999716 -1.74477655461e-21)
(0.0546456971342 -0.0290115189908 -7.12451892092e-22)
(0.0535371734052 -0.0335134742116 -1.89209423798e-21)
(0.055136640104 -0.0315968414481 -2.66336611975e-21)
(0.0520174922248 -0.0365988230583 -3.67890980764e-21)
(0.0546877704925 -0.0340352944257 -1.06905947412e-21)
(0.0513948482127 -0.0400029840082 -8.23028098137e-21)
(0.0525501069039 -0.0393387936704 -7.02737271054e-21)
(0.059981668814 -0.0441671566019 -1.45064906126e-20)
(0.0541195302873 -0.0313573297486 -7.61261974153e-21)
(0.0622931040322 -0.0520613123505 -1.67193920982e-20)
(0.0720865145484 -0.0492113928004 -9.38630438002e-21)
(0.0599182476824 -0.0617454957612 -7.89080554447e-21)
(0.044839086275 -0.00165096007868 -5.3839850159e-22)
(0.0449353137917 -0.000798507127171 -7.1602110729e-22)
(0.0461718664943 -0.00338823545339 -1.96888609163e-22)
(0.0464350977785 -0.00241809026344 -2.62524554832e-22)
(0.0471762485029 -0.00518716207605 -6.45628585825e-25)
(0.0476754675771 -0.00415171113088 -5.59463707891e-25)
(0.0478751765495 -0.00704814246171 4.71475099965e-23)
(0.0485015668954 -0.00590134114882 8.41914375009e-23)
(0.0484719869867 -0.00896941937419 1.435011236e-23)
(0.0491297750711 -0.00773853257292 1.5543682826e-23)
(0.0490990298904 -0.0109397952639 1.05608322015e-23)
(0.0497320858483 -0.00963702792958 1.24423087955e-23)
(0.0498040833072 -0.0130042799387 3.7392071698e-24)
(0.0504569342774 -0.0116063398161 8.37404491726e-24)
(0.0505979013164 -0.0151457473565 2.12364283171e-23)
(0.0512418901801 -0.0136603135046 9.47539595965e-24)
(0.0514749401368 -0.0173719556637 2.4815937477e-23)
(0.0521232303183 -0.0158038798018 3.29739982239e-23)
(0.0524291811416 -0.0196931068641 2.62530146112e-24)
(0.0530825179111 -0.0180407858371 1.95405349384e-23)
(0.0534480633921 -0.0220984856107 -1.40123162706e-23)
(0.0541108911327 -0.0203718763977 1.77634387787e-24)
(0.0544964149319 -0.0245753229028 -1.30937875841e-22)
(0.0551826485627 -0.0227944425171 -9.07335662832e-24)
(0.0554894144698 -0.0270992655995 -4.67168024062e-22)
(0.0562505181351 -0.0252831358379 -1.5265501645e-22)
(0.0562187551419 -0.0296244284843 -1.63104145723e-21)
(0.0571710036177 -0.0278203135777 -4.97919753877e-22)
(0.0563425405791 -0.0322066037585 -1.84033135589e-21)
(0.0577189509079 -0.0303858202768 -1.63022245079e-21)
(0.0554142413271 -0.0351322482859 -4.41752237703e-21)
(0.057613518675 -0.0329785131653 -1.18990312121e-21)
(0.0556796502152 -0.0392200819495 -6.40971147071e-21)
(0.0566379918624 -0.0383277990023 -3.07649219448e-21)
(0.0667889484029 -0.0447550192251 -2.49243350897e-21)
(0.0596544549507 -0.0304452952743 -5.49026757017e-21)
(0.0698583624443 -0.0547070725607 -5.57717826317e-22)
(0.0820379406291 -0.0504072680752 -8.67317043298e-21)
(0.0666740084005 -0.0655684012268 -6.31114149231e-21)
(0.046472557275 -0.0015444915145 -4.40147160531e-22)
(0.0464799242604 -0.000731413382605 -5.87770852189e-22)
(0.0478756573072 -0.0031503487031 -6.61954093761e-23)
(0.0480410759066 -0.00222548824652 -1.51338702153e-22)
(0.0489446544782 -0.00482773436502 8.42776023788e-23)
(0.0493529742368 -0.00383748484954 7.39396780145e-23)
(0.049704554126 -0.00656785326166 5.25876103304e-23)
(0.0502418060175 -0.0054598596058 1.20293503962e-22)
(0.0503679132699 -0.00836796868176 1.36358792615e-23)
(0.0509300095795 -0.00717138544686 3.30788079982e-23)
(0.0510701373327 -0.0102571251702 1.02555215113e-23)
(0.0516213605566 -0.0089563419498 7.17328462622e-24)
(0.0518586965929 -0.0122098236641 1.41102337071e-23)
(0.0524097503194 -0.0108189115401 5.31572675188e-24)
(0.0527426974505 -0.0142574562559 2.12129658665e-23)
(0.0532896401783 -0.0127713544974 4.59913058096e-24)
(0.053711873802 -0.0164018524327 2.76985956853e-23)
(0.0542677463311 -0.0148264187481 1.68762338416e-23)
(0.0547544567184 -0.0186492614841 1.86915773552e-23)
(0.0553300535053 -0.0169860713743 1.66039268294e-23)
(0.0558519784969 -0.0209888137998 6.71530352016e-24)
(0.0564505812717 -0.0192545667174 1.23369738624e-23)
(0.0569648718483 -0.0234161162303 -3.07904972374e-23)
(0.0576101032088 -0.0216360439608 2.03403441833e-23)
(0.0580036559476 -0.0259141327292 -1.83406746266e-22)
(0.058748701996 -0.0241069272753 -2.06215064318e-23)
(0.0587820127616 -0.0284762201706 -4.97100747435e-22)
(0.0597332677721 -0.0266555534049 -1.35801909143e-22)
(0.0591530201597 -0.0310823711963 -9.79794216109e-22)
(0.0603252728811 -0.0292728126281 -6.53260469559e-22)
(0.0590772216483 -0.0341697729443 1.51127061339e-22)
(0.0607010572269 -0.0321361916735 -9.09300527464e-22)
(0.0609647149432 -0.038596386582 -2.15704829394e-21)
(0.0610646813038 -0.0375636136562 -4.44413570374e-22)
(0.0757550120435 -0.0454258273956 -1.16710044942e-20)
(0.0664838807541 -0.0297743950806 -4.40329242758e-21)
(0.0791209871276 -0.0587155651872 -1.4426594099e-20)
(0.0953275718207 -0.0506914070658 -1.29035395839e-20)
(0.0726025023961 -0.0651159117893 -8.86406816292e-21)
(0.0479781844254 -0.00141217077126 -2.98962393811e-22)
(0.0478922111217 -0.000662520946633 -4.04769045664e-22)
(0.0494474321903 -0.00288277967217 -1.1203614762e-23)
(0.0495118038818 -0.00201099488275 -4.40036162662e-23)
(0.0505851523808 -0.00442455170483 1.09955579597e-22)
(0.0508948660085 -0.00348027085431 4.09746308929e-23)
(0.0514087084596 -0.00603355883654 1.0078470163e-22)
(0.0518509326803 -0.00496494111923 1.27794869861e-22)
(0.0521377227935 -0.00771110127237 2.66162133629e-23)
(0.0526076713418 -0.00654018921123 3.95653379738e-23)
(0.0529203523796 -0.0094706196228 2.2334898668e-24)
(0.0533809976248 -0.00819352135221 3.33755169674e-24)
(0.0538044967674 -0.0113145999247 -4.19537637428e-24)
(0.0542538476284 -0.00993385693057 -5.74274607222e-24)
(0.0547913400776 -0.0132661422169 2.62398556041e-25)
(0.0552413061536 -0.0117782665403 -1.16274708082e-23)
(0.0558700236893 -0.0153282538259 5.78156498565e-24)
(0.0563299845784 -0.013738420906 -1.85891794985e-24)
(0.057022094371 -0.0175081103633 1.02493233367e-23)
(0.0575100504594 -0.0158205996776 -7.21281438458e-25)
(0.0582185913872 -0.0198004024773 2.59620145255e-23)
(0.0587430357036 -0.0180367290619 6.93562960081e-24)
(0.0594158521207 -0.0222111938597 3.05093349889e-23)
(0.0600210835744 -0.0203935384356 4.23487915845e-23)
(0.0605253420879 -0.0247230073979 2.69833306904e-23)
(0.061260730531 -0.0228711801662 5.65864658212e-23)
(0.0613966750472 -0.0273349350903 -2.91961631268e-22)
(0.0623454263239 -0.0254683783569 1.86670471088e-22)
(0.0620637405758 -0.0301506868338 -5.82766780914e-22)
(0.0631412513802 -0.0281822665295 -5.0845643298e-22)
(0.0629346289449 -0.0334672477901 -1.50484115918e-21)
(0.0640178077254 -0.0313366072609 -1.10288332664e-21)
(0.0668203363589 -0.0382699198659 -2.69065770402e-21)
(0.065867448786 -0.0366560924806 -2.40455327872e-21)
(0.0853292593821 -0.0451117141409 -5.6358275173e-21)
(0.0733256691464 -0.0291807719646 -5.52937215819e-21)
(0.0885211649825 -0.0546161475818 -7.34101364785e-21)
(0.104831667795 -0.0483413592945 -1.33710787348e-20)
(0.0783902312782 -0.0567828191827 -1.02669619245e-20)
(0.0493462546396 -0.00124995028332 -1.49810268119e-22)
(0.050881632999 -0.00257760566756 8.17462938871e-24)
(0.0520866548179 -0.00397196923755 5.88139211565e-23)
(0.052979449295 -0.0054352310071 6.65755062052e-23)
(0.0537849631619 -0.00697283378003 1.62866763076e-23)
(0.0546558932459 -0.00859693126734 -4.63868424228e-24)
(0.0556401882923 -0.010322319258 -1.31748405062e-23)
(0.056740516686 -0.0121629531968 -1.37487873141e-23)
(0.0579460963297 -0.0141322684016 -8.36176437396e-24)
(0.0592319400852 -0.0162436320395 -4.03497517433e-24)
(0.0605643235764 -0.0185084257504 2.33224066598e-23)
(0.0618965668985 -0.0209299529036 6.84259224168e-23)
(0.0631260539048 -0.0234710922625 2.16273606219e-22)
(0.0641375898897 -0.02620780983 -2.98243306242e-23)
(0.0651487781311 -0.0291669384646 -1.0285729787e-21)
(0.0669472451675 -0.0326611687715 -2.00259544618e-21)
(0.072142086936 -0.0373040051218 -5.24326773289e-21)
(0.09131537661 -0.0420875421935 -1.32646233757e-20)
(0.0941213982217 -0.0445040679128 -1.62970270114e-20)
)
;

boundaryField
{
    back
    {
        type            calculated;
        value           uniform (0 0 0);
    }
    sides
    {
        type            calculated;
        value           nonuniform List<vector> 0();
    }
    bottom
    {
        type            calculated;
        value           uniform (0 0 0);
    }
    front
    {
        type            calculated;
        value           uniform (0 0 0);
    }
    atmosphere
    {
        type            calculated;
        value           nonuniform List<vector> 9((0 -0.0513298639316 0) (0 -0.0555390495141 0) (0 -0.0578533821126 0) (0 -0.0570611661234 0) (0 -0.0582914112449 0) (0 -0.061462185389 0) (0 -0.0646438913743 0) (0 -0.0604035494142 0) (0 -0.0503796238959 0));
    }
    floatingObject
    {
        type            calculated;
        value           nonuniform List<vector> 0();
    }
    procBoundary0to1
    {
        type            processor;
        value           nonuniform List<vector> 10((0.0383858857599 -0.0253044563106 2.42077507787e-24) (0.038878737902 -0.028215391694 -3.11239356041e-23) (0.0393731517195 -0.0312695902507 -4.73370445862e-23) (0.0397030353536 -0.0344122279736 -2.68442957073e-22) (0.0395159910233 -0.0374441196931 -1.0086865252e-21) (0.0386446971652 -0.0414526256103 -5.52202533433e-22) (0.0375277541021 -0.0456626259389 -5.12131923484e-21) (0.0411203325968 -0.041227612428 5.98694204413e-22) (0.0427597119437 -0.0504516535794 1.11634013975e-20) (0.0366335951317 -0.0483890145961 9.21649649014e-21));
    }
    procBoundary0to2
    {
        type            processor;
        value           nonuniform List<vector> 
14
(
(0.0371677828534 -0.0172392817867 5.06316780798e-24)
(0.0375301333246 -0.0198298373179 7.50263479155e-24)
(0.0379410440774 -0.0225124427873 9.24830794108e-24)
(0.038947154713 -0.012014486053 -1.05803189563e-23)
(0.0382579426501 -0.0158114127533 1.14046869349e-23)
(0.0392912065039 -0.0143930827311 8.10767050432e-24)
(0.0377207613594 -0.000993100814046 -2.15405678798e-22)
(0.0389145787712 -0.00298838112287 1.64494117635e-22)
(0.039935892825 -0.0107013133928 -2.78396269296e-23)
(0.0408880510405 -0.00940933710982 -1.54992426163e-23)
(0.0404290044854 -0.00394840392717 3.1036297622e-22)
(0.0419742702676 -0.00489404160117 1.73483671797e-22)
(0.0417721973139 -0.00816292201568 8.99780209188e-23)
(0.0426254469609 -0.00694227974746 1.45335497118e-22)
)
;
    }
    procBoundary0to4
    {
        type            processor;
        value           nonuniform List<vector> 8((0.0491422707739 -0.000581094186719 -2.93466341652e-22) (0.050839576393 -0.00176875057337 -2.38405035523e-23) (0.0522893480734 -0.00307811080959 -2.41580844258e-23) (0.0533143127221 -0.00440856026634 8.72806586195e-23) (0.0541453913362 -0.00583252040941 2.18461866171e-23) (0.0550052100325 -0.00734029267372 -2.9701224797e-24) (0.0559793602253 -0.00894605987011 -8.87648237948e-24) (0.0570820644737 -0.0106693233668 -1.31008194227e-23));
    }
    procBoundary0to5
    {
        type            processor;
        value           nonuniform List<vector> 
12
(
(0.0582994385579 -0.0125220774462 -3.04424448773e-24)
(0.0596215702312 -0.0145209986435 -5.88837546522e-24)
(0.0610080034505 -0.0166835497564 -7.17680945419e-24)
(0.0624428160571 -0.0190184096172 3.84831088273e-23)
(0.0638021062235 -0.0215270346052 1.04403484266e-22)
(0.065082400757 -0.0242058295888 2.49555097637e-22)
(0.0661006430389 -0.0270305548583 -3.69188430264e-22)
(0.0675122542881 -0.0304152942855 -1.83541634885e-21)
(0.070510392294 -0.0348987698214 -3.97111488878e-21)
(0.0781092052335 -0.0276682312607 -6.21536337553e-21)
(0.107247253205 -0.0437658788969 -1.22485620435e-20)
(0.0842666310752 -0.0534081388523 -9.10091001062e-21)
)
;
    }
}


// ************************************************************************* //
