/*--------------------------------*- C++ -*----------------------------------*\
| =========                 |                                                 |
| \\      /  F ield         | OpenFOAM: The Open Source CFD Toolbox           |
|  \\    /   O peration     | Version:  v2012                                 |
|   \\  /    A nd           | Website:  www.openfoam.com                      |
|    \\/     M anipulation  |                                                 |
\*---------------------------------------------------------------------------*/
FoamFile
{
    version     2.0;
    format      ascii;
    class       surfaceVectorField;
    location    "0.2";
    object      ddtCorrDdt0(Uf);
}
// * * * * * * * * * * * * * * * * * * * * * * * * * * * * * * * * * * * * * //

dimensions      [0 1 -2 0 0 0 0];


internalField   nonuniform List<vector> 
304
(
(-0.0968336268284 -0.0252290130701 -2.09587977678e-23)
(-0.0958982441571 -0.0212693660748 -5.88594164286e-23)
(-0.0969442203099 -0.0318205883336 -2.08451320949e-25)
(-0.0959148021261 -0.0275724560675 -4.46563189419e-24)
(-0.0970157492816 -0.0385516153643 2.82746291249e-24)
(-0.0958845923578 -0.033997767322 -2.70495926937e-24)
(-0.0970117050392 -0.0454393794929 -1.28448755155e-24)
(-0.0957766046383 -0.0405616002527 1.37112190771e-24)
(-0.0968894869282 -0.0524965391003 -4.73859677258e-24)
(-0.0955538363612 -0.0472753142082 5.09314006893e-24)
(-0.0966009940096 -0.0597261781908 -1.33524891072e-24)
(-0.0951738886446 -0.054145995055 -7.09207344652e-24)
(-0.0960940870491 -0.0671283630357 1.58075945935e-24)
(-0.0945912634262 -0.0611742109779 4.00835363124e-25)
(-0.0937536959283 -0.068350788656 3.29605620795e-24)
(-0.0902718718166 -0.0124085171629 5.58502222716e-22)
(-0.0891640089896 -0.0086502460095 4.86581509047e-22)
(-0.0904753076796 -0.0187865699945 -2.31754815325e-23)
(-0.0894515193397 -0.0149802298211 -2.80015528567e-22)
(-0.0905116426437 -0.0252391013009 -4.2366250555e-23)
(-0.089440448973 -0.0212934268599 -5.27098470466e-23)
(-0.0905058413749 -0.0317831307365 -6.96213984261e-24)
(-0.0893659640576 -0.0275666384276 -4.43157959509e-24)
(-0.0904420458581 -0.0384350925612 -4.16130027415e-24)
(-0.0892279303686 -0.0339343634203 -8.23584193799e-25)
(-0.0902886997831 -0.0452069386148 7.74874952818e-24)
(-0.088999558949 -0.0404086779341 2.19296234965e-25)
(-0.0900090329175 -0.0521059670675 2.73966339498e-24)
(-0.088648942948 -0.0469961041852 8.09744488531e-24)
(-0.0895623605187 -0.0591322602228 -5.35598917268e-24)
(-0.0881399189349 -0.05369981455 -7.1562486857e-24)
(-0.0889032871307 -0.0662790932612 2.11613211172e-24)
(-0.0874336299228 -0.0605156501902 -4.00946761352e-25)
(-0.0879852608736 -0.0735307743753 5.51938876787e-24)
(-0.0864852317298 -0.0674332727778 -4.94486628255e-25)
(-0.0852540686687 -0.0744348082287 2.70905913971e-24)
(-0.0841258693525 -0.0123944046653 -3.51936242236e-22)
(-0.0828665126005 -0.0086594124459 4.49697940656e-22)
(-0.0842627225576 -0.0187483609839 -3.09549894081e-22)
(-0.083093044793 -0.0149641569196 -2.77056745216e-22)
(-0.0842250101578 -0.0251589888866 -1.47751760867e-23)
(-0.0830256217608 -0.0212443817648 -4.53138017525e-23)
(-0.0841285697862 -0.031638896054 1.70697605372e-24)
(-0.0828819318134 -0.027470174268 -3.95534353765e-24)
(-0.0839610520819 -0.0381994587359 3.55701231532e-24)
(-0.0826630664512 -0.0337672072738 -6.95481353756e-25)
(-0.083695265271 -0.0448481524794 5.67991592096e-25)
(-0.0823460914524 -0.0401432856349 8.69866000622e-25)
(-0.0832997142916 -0.0515880451403 -1.79846719537e-24)
(-0.0819036559469 -0.0466009855164 4.29267819802e-24)
(-0.0827393935679 -0.0584166006659 -2.20120627437e-24)
(-0.0813051023622 -0.0531399620904 -2.86260943098e-24)
(-0.0819762807452 -0.0653210695549 -3.01156550133e-24)
(-0.0805162041119 -0.0597530316321 1.11546980484e-24)
(-0.080971207039 -0.0722900156256 -3.30481625642e-24)
(-0.0795032039199 -0.0664286974973 -1.79439230628e-24)
(-0.0780006386463 -0.0123438764568 5.24577437676e-22)
(-0.0766020437033 -0.00864215191288 1.26922163408e-21)
(-0.0780827417428 -0.0186562064824 -1.28206528875e-23)
(-0.0767772303599 -0.0149062495153 4.8646012931e-23)
(-0.0779879448239 -0.0250104419221 -3.44939692035e-23)
(-0.0766678619328 -0.0211391671423 -3.43950229302e-23)
(-0.0778235442342 -0.0314147545685 -6.35780094512e-24)
(-0.0764738894979 -0.0273057435931 -1.08191099558e-24)
(-0.0775795448593 -0.0378763383975 -3.38262766845e-24)
(-0.0761974747738 -0.0335235385539 -5.28984657608e-24)
(-0.077232673807 -0.0443988474477 4.59455260654e-24)
(-0.0758190365018 -0.0397967770437 2.40467225189e-24)
(-0.0767560669983 -0.0509820723782 3.22853596241e-24)
(-0.0753153509749 -0.0461247817619 2.68415218906e-24)
(-0.0761197540901 -0.0576199018574 4.54066648228e-25)
(-0.0746603252691 -0.0525040929369 3.75835398684e-24)
(-0.0752916249671 -0.0643001434587 2.33264299988e-24)
(-0.0738253632827 -0.0589253680071 -1.28322271483e-24)
(-0.0727791927468 -0.0653769634479 2.08767215494e-24)
(-0.070993691795 -0.00604920686634 1.16613994777e-21)
(-0.0688363431836 -0.00367891279386 3.90034754642e-22)
(-0.071909407473 -0.0122657078074 7.93290209331e-22)
(-0.0703827908526 -0.00860518109915 1.12443660681e-21)
(-0.0719481086575 -0.0185243877661 2.70716428882e-23)
(-0.0705155716014 -0.0148173952098 -1.33806666866e-22)
(-0.0718117291278 -0.0248122980862 -9.8296472233e-25)
(-0.0703767335941 -0.020993263499 -7.63941672025e-23)
(-0.0715989690014 -0.0311338757413 -1.39566265396e-26)
(-0.0701488460574 -0.0270929485765 -1.52787205716e-24)
(-0.0713018704759 -0.0374927275343 4.97453344253e-25)
(-0.0698348129568 -0.0332267404653 8.47839211888e-25)
(-0.0709006600901 -0.0438894160483 4.94271834407e-25)
(-0.0694181106273 -0.0393959002503 5.69290882522e-25)
(-0.0703725927146 -0.0503208783664 3.2139702135e-24)
(-0.0688791388166 -0.0455971020472 -9.41736217215e-25)
(-0.0696916024886 -0.05677853649 2.02106462379e-24)
(-0.0681961048422 -0.051823533736 6.00692962559e-24)
(-0.068831048199 -0.0632474633568 -1.52819355976e-24)
(-0.0673416631726 -0.0580652442806 -1.72728653161e-24)
(-0.066297190109 -0.0643105580286 5.8236985879e-25)
(-0.0650501254564 -0.00600499435458 3.48331413685e-22)
(-0.0628291741642 -0.00363530059118 -6.34535205574e-22)
(-0.0658628115281 -0.0121681165217 1.97339730615e-22)
(-0.0642170923498 -0.00855411678998 8.20654696899e-22)
(-0.0658681989011 -0.0183652774698 -2.37272476956e-22)
(-0.0643155227594 -0.0147072459006 -2.25811434887e-22)
(-0.065703659416 -0.0245808505702 -7.69390745373e-23)
(-0.0641580545326 -0.0208200730376 -9.23997829751e-23)
(-0.0654593818591 -0.0308160891942 -6.66076218728e-25)
(-0.0639102758668 -0.0268486350875 -4.09347689982e-24)
(-0.065129143928 -0.0370716972189 9.19676750157e-25)
(-0.0635756365554 -0.0328967767674 1.2606174241e-24)
(-0.0646962974887 -0.0433456685271 -8.667171691e-25)
(-0.0631402451846 -0.0389633708753 -2.23206004977e-24)
(-0.0641410472988 -0.049632795938 1.85122319488e-24)
(-0.0625877882056 -0.0450422195076 4.51802056847e-24)
(-0.0634419352637 -0.0559188129405 2.25857847019e-24)
(-0.0618971550144 -0.0511248134072 5.62544853172e-25)
(-0.0625773743865 -0.0621976331952 3.83276886943e-25)
(-0.0610533227449 -0.0572010875027 -1.37314858469e-24)
(-0.0591504094656 -0.00595417264064 -1.62211922361e-22)
(-0.0568726842806 -0.00359056100323 -6.75332316552e-22)
(-0.059867936355 -0.012058368394 3.97503531397e-22)
(-0.058110160653 -0.00849379044585 4.36915791549e-22)
(-0.0598488534608 -0.0181896150191 -8.09387409054e-23)
(-0.0581813023453 -0.0145842122666 1.3020131631e-22)
(-0.0596677054746 -0.0243300522886 -1.95541853376e-23)
(-0.0580145166267 -0.0206311251331 -1.41448286803e-23)
(-0.0594062863559 -0.0304783161037 -2.16678325699e-24)
(-0.0577588173979 -0.0265871827695 8.11450501622e-25)
(-0.0590598039728 -0.0366327136237 -1.89111937583e-24)
(-0.0574179388369 -0.0325505475687 -1.10624741143e-25)
(-0.0586140625156 -0.0427892990189 3.1526776878e-24)
(-0.0569802477951 -0.0385179219423 3.05472988248e-25)
(-0.0580523342124 -0.0489379509723 3.22934222677e-24)
(-0.0564311236727 -0.0444808121364 5.5433982068e-24)
(-0.0573577553129 -0.0550706468531 -3.06918220171e-24)
(-0.0557561387982 -0.0504305835631 -1.15095322733e-24)
(-0.0532992007356 -0.00589999327402 -7.62046026423e-23)
(-0.0509700626899 -0.00354636385103 1.56771919274e-23)
(-0.0539288874115 -0.0119427821712 1.69613576462e-22)
(-0.052064401581 -0.00842868552565 1.06909905105e-23)
(-0.0538929808276 -0.0180066110281 1.96995228535e-22)
(-0.0521143892518 -0.0144555398675 1.99748771889e-22)
(-0.053705096394 -0.0240718095528 6.22080715897e-24)
(-0.051946243 -0.0204362698063 6.83747590106e-24)
(-0.0534387262116 -0.0301348449905 2.86760901747e-24)
(-0.051692756225 -0.0263207847569 3.73991525913e-24)
(-0.0530901972417 -0.0361920701955 2.08596762293e-24)
(-0.0513577311177 -0.0322022493107 4.35537843639e-24)
(-0.0526473994341 -0.0422369246454 2.69619350725e-24)
(-0.0509313769484 -0.0380753749968 1.2698636463e-24)
(-0.05209710596 -0.0482595232034 1.1631027527e-24)
(-0.0504016680923 -0.0439307876992 7.36777578365e-25)
(-0.0497572466733 -0.0497584681475 -2.63276580608e-25)
(-0.0474988135945 -0.005845274272 1.0257278508e-22)
(-0.0451218951258 -0.00350418756105 -1.18240081471e-22)
(-0.0480471709552 -0.0118267940501 4.08261859379e-23)
(-0.0460797557449 -0.00836272320892 7.36913136747e-22)
(-0.0480010277076 -0.0178241280113 9.59101925528e-24)
(-0.0461139448515 -0.0143274479849 5.31484276992e-23)
(-0.047814792854 -0.0238161995693 4.35658400122e-24)
(-0.0459512041378 -0.0202438714693 1.23380796167e-23)
(-0.0475537684563 -0.0297976966433 5.22768467805e-24)
(-0.0457084620069 -0.0260597391734 4.22505142782e-24)
(-0.0472151731816 -0.0357632983287 3.53927445976e-24)
(-0.0453894769535 -0.0318638574561 3.30429627141e-24)
(-0.046789178879 -0.0417045465761 -6.89552282591e-25)
(-0.0449861330476 -0.0376495962632 1.38500891451e-24)
(-0.0462648062693 -0.0476122785071 -6.89601754944e-25)
(-0.044489439901 -0.0434066403392 1.10625559257e-25)
(-0.0438883334076 -0.049124090053 1.07115545964e-24)
(-0.0417491539591 -0.0057925277864 5.16100270195e-22)
(-0.0393263565855 -0.00346544587282 -1.92497958488e-22)
(-0.0422220651971 -0.0117151120531 7.49235378508e-22)
(-0.0401540341348 -0.0082994591658 8.19872302757e-22)
(-0.0421713711073 -0.0176488488784 5.58954880607e-23)
(-0.0401771962015 -0.0142052930671 7.00964421963e-23)
(-0.0419938573865 -0.0235717108955 1.22065470433e-23)
(-0.0400255762293 -0.0200609811852 -9.97094914017e-24)
(-0.0417468121706 -0.0294769986658 2.30166302118e-24)
(-0.0398006606946 -0.0258126805367 2.892122888e-24)
(-0.0414282731239 -0.0353579895435 1.15003072615e-24)
(-0.0395061759904 -0.0315454988662 3.51209877214e-24)
(-0.0410303950723 -0.0412057012983 2.18518675635e-24)
(-0.039135657159 -0.037251906969 1.57983448451e-24)
(-0.0405440986802 -0.0470088709118 1.87138277384e-24)
(-0.0386816887231 -0.0429205381192 7.93279465096e-25)
(-0.0399599301231 -0.0527556911052 2.32114837426e-24)
(-0.0381358756541 -0.0485401145606 2.03570876333e-24)
(-0.0374890536492 -0.0540970815348 3.56304431146e-24)
(-0.0360479279087 -0.00574419227561 1.11274074073e-22)
(-0.0335792011504 -0.00343174341461 -6.01826077074e-23)
(-0.0364509630419 -0.0116119232834 1.40733366445e-22)
(-0.0342832964728 -0.00824242706489 5.77731085104e-22)
(-0.0364006654797 -0.0174864319124 4.23000499544e-24)
(-0.034299877891 -0.0140937423729 5.24675303363e-23)
(-0.0362377283479 -0.0233454034648 -1.92853732955e-23)
(-0.0341641018396 -0.0198934382558 -1.3454182329e-23)
(-0.0360117230175 -0.0291811725346 4.10255863896e-24)
(-0.0339626637095 -0.025586673275 3.19928531553e-25)
(-0.0357215212215 -0.0349859205511 3.94190253049e-24)
(-0.0336994170342 -0.0312554635899 4.00055101806e-24)
(-0.035360857263 -0.0407500172668 1.87927193253e-25)
(-0.0333694678797 -0.0368914149406 9.07535260907e-25)
(-0.0349225930961 -0.0464612310799 9.57605454583e-25)
(-0.0329668983147 -0.0424824517259 8.7350323339e-25)
(-0.0343988092544 -0.0521069511185 3.27760470052e-24)
(-0.0324852932063 -0.0480165041889 2.64164239535e-25)
(-0.031917440476 -0.0534805929308 1.99546942982e-24)
(-0.0303907366424 -0.00570307465584 4.06274403323e-22)
(-0.0278733414519 -0.0034054915835 2.99901269165e-23)
(-0.0307298548191 -0.0115211817382 4.89465248995e-22)
(-0.0284624123385 -0.00819585843379 1.03065512213e-21)
(-0.0306843104598 -0.0173416171635 3.47833430119e-23)
(-0.0284768956784 -0.0139969500057 9.42728084142e-23)
(-0.0305405735346 -0.0231429538407 6.15111949805e-24)
(-0.0283605406272 -0.0197458769261 1.20878873729e-23)
(-0.0303411030236 -0.0289169443157 2.17920910653e-25)
(-0.0281867235922 -0.0253872450243 5.14301568569e-24)
(-0.0300857070449 -0.0346547958239 9.66183748478e-25)
(-0.0279597791889 -0.0310002583368 1.62403273089e-24)
(-0.0297696428019 -0.0403461247076 1.59311130104e-24)
(-0.0276763493463 -0.0365755536104 4.68144745184e-24)
(-0.0293873647374 -0.045978215408 1.80062018341e-25)
(-0.0273319312359 -0.0421003962275 3.07311352262e-24)
(-0.0289324867717 -0.0515376700501 -1.01797103117e-24)
(-0.0269215013392 -0.0475618672095 9.29682220522e-25)
(-0.026438565377 -0.0529472615474 1.20734373213e-24)
(-0.0247722951682 -0.00567344488307 6.54370845726e-22)
(-0.022197361989 -0.00339171410516 9.7441911878e-23)
(-0.0250560288519 -0.0114470997381 6.35462681552e-22)
(-0.0226862539894 -0.00816677893857 7.78414759918e-22)
(-0.0250191141594 -0.0172182238927 7.15773527752e-23)
(-0.0227034999871 -0.0139186590888 7.11695527356e-23)
(-0.0248976498631 -0.0229686480847 1.10797835605e-23)
(-0.0226081490986 -0.0196213879953 8.10239514571e-24)
(-0.0247285143375 -0.0286894387598 6.54912750592e-24)
(-0.0224642153486 -0.0252182322735 6.51837346995e-23)
(-0.0245126672141 -0.0343705915572 5.33929643425e-24)
(-0.0222770284195 -0.0307846683026 2.47474369404e-23)
(-0.024246775796 -0.0400007976775 6.16144967342e-24)
(-0.0220445309834 -0.0363099501002 4.41436985905e-23)
(-0.0239262916965 -0.0455668344351 3.82273372481e-24)
(-0.0217633740201 -0.0417802324251 4.62920790278e-23)
(-0.0235464440904 -0.0510537657502 3.15499698382e-24)
(-0.0214284111621 -0.0471823667081 -5.65980658989e-24)
(-0.0210375232865 -0.0525035158228 1.50114608063e-23)
(-0.019185428373 -0.00566515561098 2.2148582607e-22)
(-0.0165299345504 -0.00339682618667 9.7233068257e-23)
(-0.0194264509484 -0.0113950038041 2.14121631102e-22)
(-0.016954164254 -0.00816369980726 1.33160989661e-21)
(-0.0194002995332 -0.0171185838937 7.69459510612e-24)
(-0.0169778862655 -0.0138596036971 7.66001740242e-23)
(-0.0193014567406 -0.0228248801343 6.22063462847e-23)
(-0.0169000821546 -0.0195189683534 -6.92905621762e-24)
(-0.0191644901904 -0.0285019974803 8.33820441341e-23)
(-0.0167855277739 -0.025079715966 7.43456726793e-23)
(-0.0189913794164 -0.0341375351529 6.35518390967e-23)
(-0.0166400077416 -0.0306097436057 1.51185605648e-22)
(-0.0187795783338 -0.0397189561365 8.42743279449e-23)
(-0.0164616154713 -0.0360960251611 1.89006404659e-23)
(-0.0185255203619 -0.0452311051591 3.68095387131e-23)
(-0.0162469211694 -0.0415237667238 1.23059800806e-22)
(-0.0182257238011 -0.0506621288154 6.19665723257e-24)
(-0.0159935287094 -0.046879915075 2.30049533311e-24)
(-0.013555685378 -0.00568909835016 1.2073571388e-21)
(-0.0108386754395 -0.0033822556679 9.08216269647e-23)
(-0.0137628664349 -0.0113639959528 1.19408843953e-21)
(-0.0112772020013 -0.00814255124346 1.19658687316e-21)
(-0.0137393761513 -0.0170381761768 6.19765227005e-23)
(-0.011301837926 -0.0137893497358 6.98858549837e-23)
(-0.0136579534742 -0.02270810131 5.21027017695e-24)
(-0.0112284997738 -0.0194113644233 -5.53283485815e-22)
(-0.0135541143208 -0.0283523377338 1.42149234193e-22)
(-0.0111397845089 -0.0249446048693 5.05520004031e-23)
(-0.0134277790072 -0.0339538707558 1.06534407017e-22)
(-0.0110370227869 -0.0304454194722 4.94461130327e-22)
(-0.013275608561 -0.0394981646688 5.76861133275e-23)
(-0.0109152910562 -0.0358994883289 -5.77021878825e-22)
(-0.013094421098 -0.0449709657158 8.85507574265e-23)
(-0.0107708228858 -0.0412921849787 4.62675869927e-22)
(-0.0106004132591 -0.0466107554787 9.32651026002e-23)
(-0.00788037680199 -0.00565329562402 8.0051361324e-23)
(-0.00518329768654 -0.00312728043903 6.05995217719e-24)
(-0.00812746976012 -0.0112784603817 7.23842886077e-23)
(-0.00565008238159 -0.00787545052339 8.26225062144e-23)
(-0.00809738129311 -0.0169232613194 -5.45374153532e-22)
(-0.00565525131749 -0.0135445271338 9.93282283778e-23)
(-0.00802415645631 -0.0225695635339 -5.07941755589e-22)
(-0.00558058363913 -0.0191165881036 -5.88989741497e-22)
(-0.0079539584754 -0.0281871268736 4.02863896538e-22)
(-0.00552069838801 -0.0245948402621 5.79627271739e-23)
(-0.00787839437688 -0.0337582446169 -1.89095155514e-22)
(-0.0054644117122 -0.0300303792368 6.88196881202e-22)
(-0.00779064156885 -0.0392690580585 -1.72032122225e-22)
(-0.0054023219231 -0.0354141500767 -5.66269522965e-22)
(-0.00768709102159 -0.0447057139435 4.673902151e-22)
(-0.00532977547251 -0.0407349780444 5.5542688204e-22)
(-0.00524580072582 -0.0459816158737 2.08821546344e-22)
(-0.00312727972239 -0.00518229303221 8.6310970676e-24)
(-0.00336664812415 -0.0108314427281 1.09566445985e-22)
(-0.00334999051205 -0.0164858494214 5.57126404128e-23)
(-0.00330079842109 -0.0220656437426 -2.30852587342e-23)
(-0.00325795148222 -0.0275855669347 3.43295711839e-22)
(-0.00321500755169 -0.0330492079802 3.11022513751e-22)
(-0.00316710977352 -0.0384493968896 1.611894813e-22)
(-0.00311230338892 -0.0437773224385 2.96858213284e-22)
)
;

boundaryField
{
    back
    {
        type            calculated;
        value           uniform (0 0 0);
    }
    sides
    {
        type            calculated;
        value           uniform (0 0 0);
    }
    bottom
    {
        type            calculated;
        value           uniform (0 0 0);
    }
    front
    {
        type            calculated;
        value           uniform (0 0 0);
    }
    atmosphere
    {
        type            calculated;
        value           nonuniform List<vector> 0();
    }
    floatingObject
    {
        type            calculated;
        value           nonuniform List<vector> 0();
    }
    procBoundary10to9
    {
        type            processor;
        value           nonuniform List<vector> 
15
(
(-0.102383914451 -0.0211511785379 -3.84497491456e-23)
(-0.1025154645 -0.0274618743843 -5.99495438088e-24)
(-0.102623827687 -0.0339258161406 4.60778768781e-25)
(-0.102673619474 -0.0405651836139 -8.94195892345e-25)
(-0.102621339488 -0.0473970259837 -8.01042894614e-24)
(-0.102418700601 -0.0544339434968 -9.93420941031e-24)
(-0.102008904944 -0.0616805349799 1.21494336816e-24)
(-0.101337742184 -0.0691316856766 3.86747907242e-24)
(-0.0954811625511 -0.0086068516861 4.43502346959e-22)
(-0.0967021993781 -0.0187579681393 -1.67261206849e-24)
(-0.0958400309701 -0.014943137789 3.40113228276e-23)
(-0.0889890321834 -0.00610836869944 2.98222576261e-22)
(-0.0829763414538 -0.00610594635861 3.69816294832e-23)
(-0.0769730713932 -0.00608439385444 2.37124796207e-22)
(-0.0748895654395 -0.00371978189379 1.340431099e-22)
)
;
    }
    procBoundary10to11
    {
        type            processor;
        value           nonuniform List<vector> 
23
(
(-0.0953125650338 -0.0746827791766 1.11762582858e-24)
(-0.0926133589765 -0.0756581476564 3.3409583885e-24)
(-0.0867614132325 -0.0808625356772 -2.55032399605e-24)
(-0.0796845831921 -0.079298430791 -5.09778821632e-24)
(-0.0782294585345 -0.073148648059 -3.67080875277e-25)
(-0.0742394316534 -0.0710085001502 1.14334307486e-24)
(-0.0677642431475 -0.069718291728 1.59376414862e-24)
(-0.061523824245 -0.0684490960722 1.47588627193e-24)
(-0.060031701163 -0.0632573933787 1.15162748046e-24)
(-0.0565109287173 -0.0611717099869 -6.04797991175e-25)
(-0.0549390044498 -0.0563546245187 2.75177225183e-24)
(-0.0514247031645 -0.0542500133566 4.67000122621e-24)
(-0.0456301979415 -0.0534721528442 7.86172655881e-25)
(-0.0431741917129 -0.0547883024103 2.0361655705e-24)
(-0.0392684953976 -0.0584280910243 3.97696120548e-24)
(-0.0337821473743 -0.0576724498151 4.90203801447e-24)
(-0.028398902988 -0.0570104884319 9.43719525021e-25)
(-0.023102322912 -0.0564504217426 3.78523319606e-24)
(-0.0178757490709 -0.0559960089719 2.94804863453e-23)
(-0.0156973603378 -0.052150657989 -1.1552416293e-23)
(-0.0128813344152 -0.0503586760581 -1.54485781924e-23)
(-0.00756542515132 -0.0500562277943 -7.49742339037e-23)
(-0.00304946433327 -0.0490202668097 1.93695172132e-22)
)
;
    }
}


// ************************************************************************* //
