/*--------------------------------*- C++ -*----------------------------------*\
| =========                 |                                                 |
| \\      /  F ield         | OpenFOAM: The Open Source CFD Toolbox           |
|  \\    /   O peration     | Version:  v2012                                 |
|   \\  /    A nd           | Website:  www.openfoam.com                      |
|    \\/     M anipulation  |                                                 |
\*---------------------------------------------------------------------------*/
FoamFile
{
    version     2.0;
    format      ascii;
    class       volScalarField;
    location    "3.1";
    object      epsilon_0;
}
// * * * * * * * * * * * * * * * * * * * * * * * * * * * * * * * * * * * * * //

dimensions      [0 2 -3 0 0 0 0];


internalField   nonuniform List<scalar> 
1984
(
0.0014956083475
0.00167145494417
0.00178709647917
0.00183152571568
0.00185286542668
0.00186733357651
0.00188006089101
0.0018926158471
0.00190564413381
0.00191999497776
0.00193834477219
0.00196810253118
0.00202815032291
0.00215345325273
0.00240414376239
0.00290431556655
0.00421351953387
0.0100088107472
0.0413956103346
0.189582891629
0.00167886562063
0.00171587141723
0.00186354315638
0.00191900248251
0.00194315435269
0.00195753687217
0.00196920293723
0.00198044636622
0.00199218923004
0.00200557848673
0.00202414152021
0.00205665567322
0.00212327485127
0.00226261221
0.00254038632995
0.00312484746175
0.00476749643073
0.010590763203
0.0290917780181
0.0676223063702
0.00179775010826
0.00186870112485
0.00204031301271
0.00210440995752
0.00213124463451
0.00214634419342
0.00215830499833
0.00216980094479
0.00218189566927
0.00219605503679
0.00221619778615
0.00225240869454
0.00232693237823
0.00248153312829
0.00278832266149
0.00343667461526
0.00527309900224
0.0115125605764
0.0295494148136
0.058603830408
0.00184401371314
0.00192751193453
0.00210872779991
0.0021761770454
0.00220373114332
0.00221874712938
0.00223047994951
0.00224181814175
0.00225391192696
0.0022682486895
0.00228887459907
0.00232608225866
0.00240253166748
0.0025601077711
0.00287093334377
0.00352140486783
0.00537271812302
0.0119326127042
0.0319834638385
0.0724154189351
0.00186581622322
0.00195323128577
0.00213816615271
0.00220667285242
0.00223413072116
0.00224872306845
0.00226001664372
0.00227101859339
0.0022828917101
0.00229711614937
0.00231764996438
0.00235466790783
0.00243046408084
0.00258610647555
0.00289137345252
0.00352292477114
0.00534534542349
0.0124587260622
0.0380104944406
0.114995265378
0.00187970623369
0.00196775175493
0.0021541355464
0.00222279284113
0.00224985257491
0.00226390302536
0.00227468605208
0.00228526501823
0.00229679655179
0.00231073357674
0.00233090810816
0.00236724820913
0.00244154290293
0.0025939977232
0.00289209766985
0.00350548774033
0.00531387353408
0.0131285835825
0.0457379065737
0.15795297254
0.00189102230346
0.00197870075133
0.00216570082776
0.00223419861172
0.00226078254708
0.00227428174891
0.00228455498133
0.0022946796872
0.00230582234909
0.00231938536633
0.00233910386285
0.00237462356141
0.00244736913932
0.0025970015445
0.0028912986527
0.00350244154072
0.00535281959191
0.0137695278701
0.050144488437
0.163761262512
0.00190158182046
0.00198846146605
0.00217587626556
0.00224416147563
0.00227029630383
0.00228329313972
0.00229307444792
0.00230276321665
0.00231351869906
0.0023266901333
0.00234588720266
0.00238052685763
0.00245174235348
0.00259934860124
0.00289261818812
0.00351626188385
0.00546303608125
0.0144498994042
0.0532275196774
0.166413257372
0.00191173759511
0.00199783323476
0.0021856171611
0.00225370950618
0.00227944494419
0.00229200342193
0.00230135208717
0.00231063680494
0.00232100841892
0.00233378471555
0.00235247549378
0.00238625621227
0.00245595519649
0.00260129071466
0.00289349020591
0.00352993918419
0.00556821328239
0.0150555660052
0.0558098571321
0.168401749723
0.00192161755236
0.0020070231555
0.00219517695227
0.00226311630539
0.00228850970087
0.00230067643507
0.00230965093254
0.00231857301533
0.00232860324117
0.00234100174935
0.00235915418167
0.00239202564144
0.00246018738466
0.0026033824375
0.00289406992483
0.0035346530387
0.00561089526387
0.0154037466197
0.0574908487217
0.169237913901
0.00193127466845
0.00201599794163
0.00220457796815
0.00227241237014
0.0022975206159
0.00230935337905
0.00231799130861
0.00232659809411
0.00233630669
0.00234835179257
0.00236597935314
0.00239790842516
0.00246446519765
0.00260563927333
0.00289642351395
0.00354779488347
0.00563242822857
0.0150695363958
0.0549341759171
0.167006470595
0.00194065185746
0.00202477726615
0.00221380392903
0.00228156634314
0.0023064347263
0.00231798411707
0.00232633131014
0.00233465070964
0.00234407591703
0.00235577272787
0.0023728754749
0.00240381899626
0.00246864952436
0.00260789837659
0.00290201700943
0.00359516524756
0.00590363789694
0.0159141478454
0.0547576317265
0.166676029107
0.00194960905531
0.00203331878011
0.00222281815319
0.00229053943286
0.00231520036235
0.00232650523537
0.00233460381257
0.00234267075767
0.00235182537826
0.00236319608026
0.00237976157012
0.0024096566864
0.00247252031066
0.00260902165423
0.00290342620737
0.00361853524016
0.00601836209684
0.0161927174018
0.0552672819319
0.167132241218
0.00195824626904
0.00204160533892
0.0022315802931
0.00229927995218
0.00232376699594
0.00233485904627
0.00234273883006
0.00235058572751
0.0023594981255
0.00237055343016
0.00238658100479
0.00241537173199
0.00247599275607
0.00260850131031
0.00289654817867
0.00359796380732
0.00594811030299
0.0160213081595
0.0554709170609
0.167419602651
0.0019665130462
0.00204955711039
0.00224003445232
0.00230774724311
0.00233208721324
0.00234299435027
0.00235067752949
0.00235832971811
0.0023670286274
0.00237779004975
0.00239329817331
0.00242097597314
0.00247921302602
0.00260667313922
0.0028813850484
0.00353274795839
0.00572423425219
0.0158369437116
0.0569546082584
0.168172791157
0.00197430580033
0.00205717464698
0.00224815510664
0.0023159000328
0.002340113166
0.00235086356363
0.00235838613595
0.00236586067404
0.00237436165419
0.00238485627571
0.00239986356036
0.00242650319148
0.00248261440332
0.00260629423411
0.00287416108896
0.00350526555124
0.00561938390218
0.0154588321187
0.0562478044457
0.16784032993
0.00198163799381
0.00206443965494
0.00225591612484
0.0023236917151
0.00234781750182
0.00235843990144
0.00236582049654
0.00237313300019
0.00238146999956
0.0023917122519
0.00240624633737
0.00243189089056
0.00248602702137
0.00260692255069
0.00287396374894
0.00350872452485
0.00557265718204
0.0147644436638
0.0533228155905
0.166241107278
0.00198860406473
0.00207127815111
0.00226326578512
0.00233111830394
0.00235516410147
0.00236567339113
0.00237295479514
0.00238015383228
0.00238831249143
0.00239829151974
0.0024123329611
0.00243689148482
0.00248870878715
0.00260584374958
0.00287034132011
0.00350340074496
0.00547370598673
0.013954562367
0.0506606681406
0.164804582859
0.00199501488086
0.00207767860581
0.00227019294774
0.00233813147318
0.00236213401945
0.00237258593313
0.0023797724654
0.00238686255837
0.00239487895454
0.00240463261931
0.00241819081534
0.00244159924132
0.00249071170709
0.00260259543643
0.00285991246464
0.00347983522905
0.00533786361404
0.0131854147553
0.0487362866514
0.164102872608
0.00200090499078
0.00208368597707
0.00227668795661
0.00234472521199
0.0023687141954
0.00237910854065
0.00238622586053
0.00239323366137
0.00240113844607
0.00241070664153
0.00242382326722
0.00244609559438
0.00249241884893
0.00259846156238
0.00284625774826
0.00344922467016
0.00520753092093
0.012488696343
0.0468121227575
0.163601897782
0.00200635190081
0.00208924245126
0.00228273128568
0.00235087922656
0.0023748611002
0.00238521872185
0.00239229670072
0.0023992543538
0.0024070808012
0.00241648787963
0.00242922074039
0.00245044893359
0.00249416831925
0.00259469847943
0.00283327190446
0.00342148296209
0.00510830625256
0.0119733685312
0.0453639850275
0.163346763428
0.00201111930019
0.00209434206679
0.00228830571065
0.00235656691564
0.00238055987284
0.00239091107555
0.00239797265571
0.00240490918735
0.00241269346025
0.00242198594996
0.00243438387491
0.00245467806032
0.00249607174666
0.00259175028717
0.00282222906501
0.00339748464669
0.00504353701225
0.0116496739149
0.0444937220667
0.163377074573
0.00201537669933
0.00209893570164
0.00229337515598
0.00236175814427
0.00238578217143
0.00239615233209
0.00240323117689
0.00241018397604
0.00241796586609
0.00242719084845
0.00243931546035
0.00245877587754
0.0024980658989
0.00258944693398
0.00281323835814
0.0033803411872
0.00500205446253
0.0114372064213
0.0436313798277
0.163117766261
0.00201897603094
0.00210301068752
0.00229791701937
0.00236643392392
0.00239050660944
0.00240091298996
0.00240804548056
0.00241505526713
0.00242287996252
0.00243209009549
0.00244401199928
0.00246275063452
0.00250016895672
0.00258773444484
0.0028058140735
0.00336672888534
0.00497396761234
0.0111980758422
0.0416370770303
0.161159844133
0.00202190309463
0.00210652194606
0.00230188442073
0.00237055744414
0.00239470719381
0.00240518459289
0.00241239980995
0.00241950178259
0.00242741933183
0.00243667630876
0.00244847955026
0.00246662926484
0.00250237698565
0.00258646230446
0.00279930566288
0.00335406911623
0.00492619941915
0.0106360821601
0.0370471283506
0.153341686908
0.00202425901144
0.00210940986634
0.00230521373964
0.00237407495841
0.00239834091425
0.00240892961423
0.00241626919715
0.00242351206325
0.00243157622375
0.00244094348123
0.00245271602913
0.00247041496418
0.00250474319822
0.00258582936103
0.0027944045944
0.00334013913854
0.00482069833709
0.00972151888727
0.0323325273672
0.143749275736
0.00202598363813
0.00211167379171
0.00230786219339
0.00237693828855
0.00240136680232
0.00241211290517
0.00241962375606
0.00242705902867
0.00243533000998
0.00244488599903
0.00245673416453
0.0024741517909
0.00250741739586
0.00258644849807
0.00279343760204
0.00333781284715
0.00472757819981
0.00869968172679
0.0256220403992
0.117309174055
0.00202709925921
0.00211332681952
0.00230980223242
0.00237910240464
0.00240374197105
0.00241469738326
0.00242243333797
0.00243012025069
0.00243866873544
0.00244850892559
0.00246056738174
0.00247793302791
0.00251058723851
0.00258864271255
0.00279817742912
0.00336514178202
0.0048237112942
0.00878191938599
0.0240076964923
0.101979408907
0.00202759334846
0.00211422550325
0.00231094186763
0.00238050388436
0.0024054169073
0.00241664183086
0.00242466036142
0.00243266263838
0.00244156175258
0.00245178336465
0.00246419427861
0.00248173917404
0.00251420859949
0.00259223954877
0.00280792842323
0.00342062768467
0.00509562047555
0.00988818871628
0.0280413207642
0.112314057893
0.00202731925012
0.00211424104258
0.00231119419052
0.00238108045536
0.00240634199277
0.00241790439133
0.00242626938578
0.0024346534009
0.00244398445183
0.00245468682048
0.00246759297588
0.00248557741347
0.00251847614639
0.00259817807308
0.00282431956427
0.00349304727237
0.00541866306434
0.0113508019005
0.0369424250053
0.149710450673
0.00202640777106
0.00211335034355
0.00231046029483
0.00238075327129
0.00240645593497
0.00241843224025
0.00242721329234
0.00243604857898
0.00244589440321
0.00245718094734
0.00247074311797
0.00248952596589
0.0025240337679
0.00260955822659
0.00285764073882
0.00359535648522
0.00571489109267
0.0122319435673
0.0404975236362
0.154559336475
0.00202475278191
0.00211144240927
0.00230870462874
0.00237946072617
0.00240569563181
0.00241817081839
0.00242744044912
0.00243680113796
0.00244724273148
0.00245922099675
0.00247361974047
0.00249372678601
0.00253201719087
0.00263189797272
0.00292693500001
0.00376887367523
0.00601467999672
0.0123611642061
0.0383928879558
0.147851897554
0.00202215314267
0.00210852204683
0.00230584458776
0.00237713797125
0.00240400160826
0.00241706267563
0.00242690157277
0.00243687219413
0.00244799525921
0.00246076334005
0.00247618568862
0.00249832332062
0.00254347257105
0.00266995255327
0.00304705592941
0.00404074625399
0.00635385964492
0.0124091672312
0.0373164932574
0.149621424234
0.00201851894567
0.00210447308986
0.00230182275744
0.00237372786353
0.0024013126226
0.00241504521935
0.00242553706882
0.00243619986414
0.00244809756653
0.00246177621929
0.00247844634635
0.00250321874261
0.00255760064587
0.00271972217574
0.00319993278428
0.00437479529457
0.00680503777141
0.0128284155015
0.036743465912
0.141775650839
0.00201380297671
0.0020992324635
0.00229655820844
0.00236914326089
0.00239755221183
0.0024120574444
0.00242329508938
0.00243473520141
0.00244749271909
0.00246216835993
0.00248019429224
0.00250782250874
0.0025709609322
0.00276362088254
0.0033309890864
0.00468273674725
0.00736526158337
0.0136799087389
0.0371554155596
0.115572188317
0.00200794065074
0.0020927063295
0.0022899691676
0.00236331198952
0.00239265354266
0.00240804060866
0.00242012311974
0.00243243348558
0.00244613379987
0.00246185324278
0.0024811078596
0.00251061244486
0.00257809112116
0.00278169981946
0.00338639673246
0.00486905072069
0.00782594448918
0.0146430058312
0.0427881012116
0.149627265244
0.00200080327099
0.00208481253918
0.00228199872735
0.00235617519309
0.00238655525758
0.00240293683586
0.00241597376128
0.002429262059
0.00244400229845
0.00246080631414
0.00248105819332
0.00251102968992
0.00257736959714
0.0027770658176
0.00338433833616
0.00492990226384
0.0080681670084
0.0145977249279
0.0346419683598
0.0693671469931
0.00199238443334
0.0020755955322
0.00227262592739
0.00234768611379
0.00237920439989
0.00239669411818
0.00241080599127
0.00242519919435
0.00244111508843
0.00245916677975
0.00248073598084
0.00251225274595
0.00258174453394
0.00279186173528
0.00342853310984
0.00502357289704
0.00823203625044
0.0144762140195
0.029721553613
0.0480962069035
0.00198255144686
0.00206503158606
0.00226185131461
0.00233782289808
0.00237056116501
0.00238926834504
0.00240458010997
0.00242021651519
0.00243745902146
0.00245695282979
0.00248027269609
0.00251496899492
0.00259377707321
0.00283150245217
0.00352249065465
0.00517173664317
0.00852009186379
0.0155890219593
0.034158370144
0.0791287809903
0.00197123497444
0.00205309613994
0.00224966187182
0.00232657898893
0.00236060298505
0.00238062985065
0.00239727457422
0.00241430135205
0.00243302110266
0.00245405697314
0.00247903560074
0.00251567288922
0.00259721202668
0.0028374693992
0.00352535414478
0.00519076120419
0.00881351556697
0.0173062427923
0.043802847101
0.142373043588
0.00195841311452
0.00203985611413
0.0022361359533
0.00231398769831
0.00234934157758
0.00237078026306
0.00238888392753
0.00240747165021
0.00242782103775
0.0024504887745
0.00247651432522
0.00251134792617
0.00257959913788
0.00277349699201
0.00336984074925
0.0050328212727
0.00904475183279
0.0186234107821
0.0478065775067
0.155668663552
0.00194423704347
0.00202547937271
0.00222141207559
0.00230015001299
0.00233683191901
0.00235972490573
0.00237941839211
0.00239973404344
0.00242197956743
0.00244659480322
0.00247419804998
0.00250830829495
0.00256683104328
0.00272466034544
0.0032465052893
0.00491271044147
0.0093928558409
0.0201607356661
0.0490505945001
0.135149286635
0.00192880774401
0.00201021360091
0.00220569332017
0.0022852302866
0.00232314432252
0.00234749760409
0.00236879181875
0.0023909270783
0.00241524190595
0.00244219023623
0.00247202225448
0.00250721935477
0.00256305953105
0.00270910609976
0.00321357269516
0.00494202507535
0.00985390422019
0.0216324671388
0.0497179300274
0.139677727579
0.0019123541953
0.00199435834655
0.00218931900093
0.00226944896769
0.00230839985877
0.00233390210662
0.00235648242598
0.00238001368668
0.00240609531189
0.00243554295801
0.00246805056726
0.00250540794933
0.00256480031855
0.00272426066741
0.00327815219305
0.00514213894186
0.0103264946874
0.0224304236452
0.0477678586237
0.104662883166
0.00189530789399
0.00197844394965
0.00217279656716
0.00225319736362
0.00229258667167
0.00231828256728
0.00234046824227
0.0023630263451
0.0023887056141
0.00242032242336
0.00245547610626
0.00249434143545
0.00256261487164
0.0027598842605
0.003416543384
0.00547881734606
0.0108134719709
0.0224663532133
0.0442645468169
0.0827268747256
0.00187824866856
0.00196309520258
0.00215671907894
0.00223680796338
0.0022753305501
0.00229828563573
0.00231430035154
0.00232689897947
0.00234388738601
0.00237637488909
0.00241403668025
0.0024523439377
0.00253946884139
0.00281055575775
0.00362575880106
0.00595457618513
0.0113927903956
0.0221032097777
0.0401838545901
0.0789285147687
0.00186189470688
0.00194906750822
0.00214177101181
0.00222052132942
0.00225529560876
0.00226773896821
0.00225958839057
0.00222771626192
0.00221138975937
0.00224167400074
0.00228781061928
0.00233510000391
0.00246528682815
0.00285937606687
0.00391725840285
0.00661017391092
0.0121868697161
0.0219131483645
0.0395450216982
0.137446798659
0.00184693529467
0.00193712342965
0.00212872456448
0.00220478478249
0.00223119840189
0.00221861350342
0.0021450558841
0.0019649384795
0.00234348609406
0.00233711220273
0.00242753963662
0.00257382825014
0.00225712143238
0.00285606525593
0.00421656741743
0.00734191941791
0.0131243379239
0.0220141989261
0.0401010886691
0.154845151859
0.00183414695456
0.00192726189471
0.00211783502418
0.00219065821005
0.00220876750453
0.00217629357417
0.00205150768403
0.00215345141494
0.00287513861429
0.00319811015439
0.00497053662277
0.00848008460282
0.0141839643965
0.0221703535351
0.0397020758713
0.163071137134
0.0018256905185
0.00192198934206
0.00211239822233
0.0021834111101
0.00219580328368
0.00214812354143
0.00198831129687
0.00197753078156
0.00319133815502
0.004088324281
0.00657196995382
0.0103185167628
0.0153725453114
0.0220347404402
0.0362076372766
0.106632616546
0.001825692082
0.00192198974548
0.00211239764946
0.00218341162677
0.00219580505565
0.00214812587177
0.00198831272259
0.00197753073741
0.00319176031419
0.00408916382055
0.00657354281706
0.0103206445992
0.0153748288085
0.0220380898242
0.0362210937143
0.106662844684
0.00183415074357
0.00192726169884
0.00211783543353
0.00219065999942
0.00220877078809
0.00217629703404
0.00205151412938
0.00215344982652
0.00287555698027
0.003199036275
0.00497229404232
0.00848255422446
0.0141872706124
0.0221777977665
0.0397203587873
0.162601264989
0.00184694476594
0.00193712719952
0.00212873055248
0.00220479231662
0.00223120921659
0.00221863144808
0.00214507062313
0.00196495463178
0.00234353115667
0.00233714964686
0.00242759240749
0.00257400114415
0.00225747614318
0.00285687353026
0.00421807021459
0.0073440082447
0.0131275664547
0.0220215036493
0.0400972006517
0.153465408837
0.00186191295545
0.00194908474578
0.00214179034487
0.00222054217082
0.00225531815165
0.00226776342767
0.00225961139438
0.00222772280041
0.00221140151487
0.00224168469601
0.00228783053321
0.00233515523055
0.00246547165273
0.00285984029652
0.00391825275866
0.00661167386992
0.0121893907249
0.0219186574016
0.0395036501181
0.132755477296
0.00187827280548
0.00196311841985
0.0021567472687
0.002236838907
0.00227536311724
0.00229831971829
0.00231433385128
0.00232692864832
0.00234391055748
0.00237638678653
0.00241404087233
0.00245236414568
0.00253955400348
0.00281079509179
0.00362631143022
0.00595544368463
0.0113943850045
0.0221087451522
0.040274976755
0.0772666269572
0.00189533566532
0.00197846945973
0.00217283034639
0.0022532345992
0.00229262369872
0.00231832208326
0.00234050679574
0.00236306039582
0.00238873005569
0.00242033072409
0.00245546640073
0.00249432515291
0.00256261875874
0.00275995329132
0.00341673432989
0.00547912991176
0.0108143685354
0.0224715215085
0.0443396625372
0.0856825936219
0.00191238760081
0.00199438647068
0.00218935698522
0.00226948707094
0.0023084236622
0.00233393797465
0.00235651967432
0.00238004523027
0.00240611495846
0.00243554576012
0.00246803398981
0.00250537286992
0.00256475705779
0.0027242260214
0.00327811496902
0.00514206526187
0.0103267964997
0.0224364109024
0.0479947643613
0.121708783698
0.00192884963139
0.00201024306589
0.00220573067762
0.00228525718229
0.00232317334522
0.00234751321177
0.00236882262577
0.00239095642534
0.00241526098293
0.00244219523945
0.00247200919751
0.00250718381849
0.00256300346747
0.00270904305066
0.00321344453542
0.00494176374874
0.00985381636087
0.0216334997311
0.0496119612447
0.135386690913
0.00194430104841
0.00202553488213
0.00222146506359
0.00230020439147
0.00233687171716
0.00235976728937
0.00237945506743
0.0023997649261
0.00242200194721
0.00244661234552
0.00247419801512
0.00250828765711
0.00256678696439
0.00272460607961
0.00324637004638
0.00491248680753
0.00939248443158
0.0201554477502
0.0486308198935
0.113273402007
0.00195848465966
0.00203991768222
0.00223620140446
0.00231405041161
0.00234940099567
0.00237082940863
0.00238893157255
0.00240750902584
0.00242785872553
0.0024505119302
0.00247653561664
0.00251134475342
0.00257957343437
0.00277344597692
0.00336971674012
0.00503263863708
0.00904437851188
0.0186105381813
0.0469349856814
0.122273876563
0.00197131099335
0.00205316302809
0.00224973411629
0.00232665147248
0.00236067373834
0.00238069603701
0.00239733391439
0.00241435738778
0.00243306735564
0.00245410376497
0.00247906942066
0.0025156893292
0.00259719728771
0.00283742250728
0.0035252101219
0.00519056788678
0.00881322367007
0.0173051630897
0.0437285757729
0.140000346335
0.00198263223128
0.0020650994766
0.00226192772304
0.00233790457519
0.00237064464165
0.00238935080304
0.00240465991844
0.00242029259632
0.00243753150648
0.00245701603807
0.00248033373912
0.00251500943542
0.0025937988977
0.00283149122441
0.00352237771865
0.00517152285929
0.00851968928298
0.0155888533228
0.0341577776458
0.0790490369797
0.00199246734618
0.00207566897354
0.00227270819713
0.002347776527
0.00237930012676
0.00239679234612
0.00241090487626
0.00242529966924
0.00244121616861
0.00245925642951
0.00248082064363
0.00251231984376
0.00258179338297
0.00279187644075
0.00342840340238
0.00502322474236
0.00823105837739
0.0144760891674
0.0297488545557
0.0481093564398
0.00200089278248
0.00208489525387
0.00228209105559
0.00235627681579
0.00238666415389
0.00240305102489
0.00241609007042
0.00242938188866
0.00244413032056
0.00246091984555
0.00248116551983
0.00251112127802
0.0025774435742
0.00277706937583
0.00338403979738
0.00492915188973
0.00806710050916
0.0146023061192
0.0347172101982
0.0693808987621
0.00200801529725
0.00209276838975
0.00229004367515
0.00236339680294
0.00239274696
0.00240814168098
0.00242023259868
0.00243255479077
0.00244626797056
0.00246198005614
0.00248122744148
0.00251071721566
0.00257817675068
0.00278166730311
0.00338603383884
0.0048681981307
0.00782549106061
0.0146623754574
0.0429602849958
0.14968416139
0.00201387143706
0.00209928385954
0.00229662561488
0.00236922340348
0.00239764288905
0.00241215714312
0.00242340451723
0.00243485751008
0.00244762668555
0.00246230581534
0.00248032954742
0.00250793562824
0.00257104901248
0.00276357441131
0.00333075771201
0.00468227840293
0.00736720956002
0.0137387180054
0.0377439670569
0.115177126592
0.00201858337492
0.00210451607979
0.00230188521017
0.00237380663048
0.00240140352711
0.00241514612243
0.00242564772465
0.00243632199765
0.00244823277229
0.00246191801085
0.00247858890242
0.00250334932151
0.00255769677055
0.00271975859747
0.00319984291979
0.00437498255058
0.00681415209481
0.0129743969258
0.0377331846671
0.131546235904
0.00202221735132
0.00210856420601
0.00230590911059
0.00237721887275
0.00240409431168
0.00241716544882
0.00242701434062
0.00243699591305
0.00244813140433
0.00246090580304
0.00247632885239
0.00249845626784
0.0025435853174
0.00267004381064
0.00304721001773
0.00404185741971
0.00637006406806
0.0126389224941
0.0390501918342
0.153316782812
0.00202481941338
0.00211148558847
0.0023087690605
0.00237954280411
0.00240579047799
0.00241827597362
0.00242755577634
0.00243692833254
0.00244738018
0.00245936327819
0.00247376118524
0.00249386000855
0.00253213266962
0.00263199915206
0.00292709956611
0.00376961986634
0.00601748386665
0.0123556477792
0.038467464536
0.148509222136
0.00202648180088
0.00211340004567
0.00231052928158
0.00238083843497
0.002406553238
0.00241853970946
0.00242733076183
0.00243617817773
0.00244603405881
0.00245732746188
0.00247088840412
0.00248966249672
0.0025241482963
0.00260962700873
0.00285765997823
0.00359581772848
0.00571550659212
0.0121828712531
0.0398254119883
0.151677107698
0.00202739639831
0.00211429831732
0.00231126798963
0.00238116906616
0.00240644216632
0.00241801473638
0.00242639026524
0.00243478605838
0.00244412892411
0.00245484167196
0.00246774873313
0.00248572652199
0.00251859591768
0.0025982010505
0.00282403150492
0.00349131985264
0.00540069102256
0.0111187226008
0.0350007289586
0.143412999139
0.00202767119932
0.002114285296
0.00231101825407
0.00238059454571
0.00240551932711
0.00241675527812
0.00242478569148
0.00243280054675
0.00244171535367
0.00245195186429
0.00246437008986
0.0024819144733
0.00251435010339
0.00259222963519
0.00280734877679
0.00341702603198
0.00506587403441
0.0096369314258
0.0265498236648
0.0980856946238
0.00202717600658
0.00211338417349
0.00230987819306
0.00237919333402
0.00240384565383
0.00241481358033
0.00242256323977
0.00243026615642
0.00243883260584
0.00244869701008
0.00246077454619
0.0024781487781
0.00251077433753
0.00258865160391
0.00279738183945
0.00336060577654
0.00479298240027
0.0085731068381
0.0231427685159
0.0885167254604
0.00202605487598
0.0021117286213
0.00230793594594
0.00237702878659
0.00240147216865
0.00241223339458
0.00241976163383
0.00242721778563
0.00243551373863
0.0024451041429
0.00245698078226
0.00247441551508
0.00250766939036
0.00258656055659
0.00279295158697
0.00333469315238
0.00471031011016
0.00852942526034
0.0237027667216
0.0940038010658
0.00202432705124
0.00210946172401
0.00230528640038
0.00237416611022
0.00239844868721
0.00240905494228
0.00241641459547
0.0024236816685
0.0024317760228
0.00244118324744
0.00245299271289
0.0024707207495
0.00250504473842
0.00258603863501
0.00279425330218
0.00333814909073
0.00479846814519
0.00949649034633
0.0312662187786
0.144859825845
0.00202197137454
0.00210657759125
0.00230195850294
0.00237064955989
0.00239481745747
0.00240531546901
0.00241255414514
0.00241968478792
0.00242763754101
0.00243693763302
0.00244878571916
0.00246698079653
0.00250276193616
0.00258681447506
0.00279917233513
0.00334940182602
0.00487034150723
0.0101035064105
0.0347382455284
0.152435647097
0.00201905717575
0.00210307679022
0.00229799994409
0.00236653392247
0.00239062373204
0.00240104904755
0.00240820263455
0.00241523724246
0.00242309097815
0.00243233843336
0.00244430427443
0.00246309895471
0.00250058828335
0.00258824311746
0.00280635377065
0.00336529152912
0.00493050843813
0.0106611446875
0.0388438017463
0.159237932259
0.0020154618778
0.00209900613873
0.00229346157125
0.0023618615211
0.00238590260647
0.00239628963582
0.00240339007021
0.00241036615594
0.00241817421765
0.00242743260772
0.00243960114903
0.00245912785232
0.00249852968709
0.00259013710502
0.00281458409413
0.00338358911933
0.00499950558256
0.0112455094228
0.0426249752868
0.162088980247
0.00201120381345
0.00209441253638
0.00228839286763
0.00235667099077
0.00238068122618
0.0023910497618
0.00239813045805
0.00240508635397
0.00241289284412
0.00242221352958
0.00243465343913
0.00245502426219
0.00249657180656
0.00259263520047
0.00282442826394
0.00340679560936
0.00509620868948
0.0118842137285
0.0453803021276
0.163376682126
0.00200642973653
0.00208931059807
0.00228281834298
0.00235098512655
0.00237498385213
0.00238535800639
0.00239245020192
0.00239942189199
0.00240726391296
0.00241669306271
0.00242946752574
0.00245077374449
0.00249468870089
0.00259577037441
0.00283650633746
0.00343839460459
0.00522424967235
0.0126137573227
0.0475281900045
0.164339668642
0.00200097471598
0.00208375297723
0.00227677809731
0.00234483690857
0.00236884140104
0.00237924608643
0.00238637200699
0.00239338666174
0.00240129722661
0.00241087527124
0.00242402384194
0.00244637718652
0.00249293008494
0.00259969708086
0.00285072959201
0.0034745732193
0.00536899952651
0.0132775050527
0.0486257195233
0.164270483473
0.00199509492538
0.00207774655985
0.00227028242357
0.00233824625221
0.00236227369191
0.00237273007397
0.00237991568523
0.00238700005139
0.00239500643336
0.00240475587112
0.0024183306099
0.00244181133423
0.00249115438041
0.00260382385457
0.00286460740597
0.00350536227708
0.00548759729658
0.0137967798364
0.049430311425
0.16408895139
0.00198867690352
0.00207135184169
0.0022633616059
0.00233123268705
0.00235530101912
0.00236583351298
0.00237310631092
0.00238028222196
0.00238840839969
0.00239836409416
0.00241239480718
0.00243700232539
0.00248902658024
0.00260695091261
0.00287469226581
0.00352348107306
0.00556378575815
0.0142267292186
0.0504526607626
0.164241818862
0.00198172175176
0.00206451828219
0.0022560099828
0.00232380581803
0.00234794273152
0.00235857573514
0.00236595580123
0.00237325266939
0.00238153057929
0.00239171517787
0.00240620830963
0.00243185537254
0.00248615044006
0.00260776043496
0.00287805594174
0.00352703305102
0.00562731778031
0.0147028071035
0.0518792656806
0.165031797276
0.00197440702634
0.00205726470985
0.00224824572054
0.0023159965333
0.00234022311587
0.00235097941484
0.00235849285319
0.00236594053336
0.002374394838
0.00238483371999
0.00239978731215
0.00242641084889
0.00248256941942
0.00260659970001
0.00287680539493
0.00352165292574
0.00568239899344
0.0154280293676
0.0548999120207
0.166926874926
0.0019666086584
0.00204965007596
0.00224012066443
0.00230783477431
0.00233217887192
0.00234308846348
0.00235076542884
0.00235838577108
0.00236703915498
0.00237775590805
0.00239320107062
0.00242083743947
0.00247895322638
0.00260599783843
0.00287867082232
0.00351865381365
0.00565771021102
0.0156821198959
0.0574494706641
0.168628217637
0.0019583382287
0.0020416936366
0.00223166021431
0.00229936081031
0.00232384899367
0.00233493971046
0.00234280756241
0.00235062871564
0.00235950203791
0.00237052049616
0.00238649633084
0.00241523489816
0.00247563684129
0.00260718397334
0.00288920370698
0.00355150069725
0.00571184159929
0.0153976651278
0.0560286321117
0.168261809054
0.0019496919093
0.0020333880007
0.00222288806142
0.00229061005375
0.0023152724564
0.00232657543842
0.00233466396663
0.00234270824992
0.00235183478662
0.00236318059898
0.00237969762205
0.00240955717789
0.00247224653926
0.00260812215375
0.00289909202351
0.00359156166534
0.00586756364457
0.0156579236175
0.0549135010556