/*--------------------------------*- C++ -*----------------------------------*\
| =========                 |                                                 |
| \\      /  F ield         | OpenFOAM: The Open Source CFD Toolbox           |
|  \\    /   O peration     | Version:  v2012                                 |
|   \\  /    A nd           | Website:  www.openfoam.com                      |
|    \\/     M anipulation  |                                                 |
\*---------------------------------------------------------------------------*/
FoamFile
{
    version     2.0;
    format      ascii;
    class       volScalarField;
    location    "3.1";
    object      rAU;
}
// * * * * * * * * * * * * * * * * * * * * * * * * * * * * * * * * * * * * * //

dimensions      [-1 3 1 0 0 0 0];


internalField   nonuniform List<scalar> 
1984
(
1.6586758449e-05
1.65293066754e-05
1.65223109163e-05
1.65206942757e-05
1.65198641804e-05
1.65194755999e-05
1.65189509237e-05
1.65176205243e-05
1.65159424943e-05
1.65132550839e-05
1.65062218888e-05
1.64864006775e-05
1.64920753489e-05
1.64882368367e-05
1.64833599775e-05
1.65088585423e-05
1.64392203502e-05
2.08052045642e-05
0.000183886782844
0.00958174945283
1.65269817775e-05
1.64243347213e-05
1.64076528635e-05
1.64046928644e-05
1.6403322731e-05
1.64025393747e-05
1.64017913e-05
1.64006597649e-05
1.63990694908e-05
1.6396855344e-05
1.6393721282e-05
1.63907503854e-05
1.63953199269e-05
1.63704597423e-05
1.63360085123e-05
1.62688834571e-05
1.62389492174e-05
2.08475501047e-05
0.000177742724633
0.00948277335948
1.65195674708e-05
1.64052078634e-05
1.63866418231e-05
1.63829715171e-05
1.63812111584e-05
1.63801175536e-05
1.63791083883e-05
1.63779843463e-05
1.63768419014e-05
1.63751950917e-05
1.63736664056e-05
1.6373186461e-05
1.63776135236e-05
1.63582460239e-05
1.63480764116e-05
1.62602303347e-05
1.62051678544e-05
2.09190591249e-05
0.000186536056568
0.00980934363809
1.65181668278e-05
1.64016403172e-05
1.63825128578e-05
1.63788458337e-05
1.63771313121e-05
1.63761332725e-05
1.6375214797e-05
1.63743151312e-05
1.63735620953e-05
1.6372605211e-05
1.63717479002e-05
1.63718460097e-05
1.63749317773e-05
1.63570751191e-05
1.63581123575e-05
1.62595913908e-05
1.61095770657e-05
2.08378705833e-05
0.000204494560512
0.00990567002941
1.65176192142e-05
1.64002524078e-05
1.63808430568e-05
1.63771234672e-05
1.63754602592e-05
1.63746005557e-05
1.63739065637e-05
1.63733110342e-05
1.63725960327e-05
1.63719184769e-05
1.63708664144e-05
1.63702779942e-05
1.63731760069e-05
1.63573792115e-05
1.63651840736e-05
1.62584482414e-05
1.60938442345e-05
2.09382839095e-05
0.000230564801008
0.0100148405009
1.65172832704e-05
1.63997366396e-05
1.63801746987e-05
1.63762879518e-05
1.63746838328e-05
1.63739891736e-05
1.63735200078e-05
1.63727409572e-05
1.63719567479e-05
1.63717783646e-05
1.63709948667e-05
1.6370378483e-05
1.637273017e-05
1.63566683686e-05
1.63691425288e-05
1.62670193489e-05
1.60886922568e-05
2.11526225884e-05
0.000264538655029
0.0101937548098
1.65167729254e-05
1.63992255123e-05
1.6379594363e-05
1.63757174755e-05
1.63742125701e-05
1.63734891044e-05
1.63729993276e-05
1.63723530065e-05
1.63721322228e-05
1.63719568581e-05
1.63712632774e-05
1.63703240679e-05
1.63714243866e-05
1.6359926453e-05
1.63730596203e-05
1.62703769125e-05
1.60786883686e-05
2.14476620923e-05
0.00030518855149
0.0104647649087
1.65162828528e-05
1.63986214702e-05
1.63790470568e-05
1.63753409377e-05
1.63738231017e-05
1.63731571182e-05
1.63727384596e-05
1.63723324573e-05
1.63720076407e-05
1.63718943371e-05
1.63719558004e-05
1.63712318698e-05
1.63703945267e-05
1.63665921008e-05
1.63750169329e-05
1.62445486353e-05
1.60426897171e-05
2.17977100994e-05
0.000351296936445
0.0107083247754
1.65159284251e-05
1.63980227494e-05
1.63786384849e-05
1.63749889957e-05
1.63735401906e-05
1.63729575779e-05
1.63725030191e-05
1.63722589832e-05
1.63721374789e-05
1.63721728999e-05
1.63719747059e-05
1.63711852789e-05
1.63701303398e-05
1.63727920651e-05
1.63764847583e-05
1.62185919698e-05
1.6008466932e-05
2.21756992176e-05
0.000406216838795
0.0109668150371
1.65156176238e-05
1.63976140018e-05
1.63782759961e-05
1.63746614103e-05
1.63732558029e-05
1.63726931232e-05
1.63725427398e-05
1.63722545808e-05
1.63720307677e-05
1.63721966495e-05
1.63722715186e-05
1.63711756526e-05
1.63684683553e-05
1.63745965967e-05
1.63765748286e-05
1.62115407446e-05
1.59990817815e-05
2.25551494515e-05
0.000463120616763
0.0112578129379
1.65154283478e-05
1.63974156207e-05
1.63778943792e-05
1.63744137676e-05
1.6373019939e-05
1.63724660367e-05
1.63722985708e-05
1.63722259391e-05
1.63721858946e-05
1.63723294605e-05
1.63722809284e-05
1.637094869e-05
1.63680849471e-05
1.63772115479e-05
1.63712235543e-05
1.62006904272e-05
1.60002692894e-05
2.29592845355e-05
0.00049440110133
0.0113085159474
1.65155036137e-05
1.63971734315e-05
1.63776470873e-05
1.63741711102e-05
1.63728902421e-05
1.63724139703e-05
1.63722128186e-05
1.63721285929e-05
1.63720939666e-05
1.63722336454e-05
1.637248127e-05
1.63710200997e-05
1.63682401154e-05
1.63802892269e-05
1.63671803011e-05
1.61906282464e-05
1.59951300969e-05
2.3245806123e-05
0.000485761019162
0.0098921914888
1.65154509793e-05
1.63967784332e-05
1.63774272668e-05
1.63740397211e-05
1.63727975425e-05
1.63723862978e-05
1.63722030597e-05
1.63721025917e-05
1.637206899e-05
1.63721270501e-05
1.63723507937e-05
1.63705869608e-05
1.63674958885e-05
1.63785102663e-05
1.6358704044e-05
1.61888591437e-05
1.60110257388e-05
2.345016901e-05
0.000501221582401
0.0108028914628
1.65152216088e-05
1.63966163735e-05
1.63772746959e-05
1.63738868366e-05
1.63726822012e-05
1.63723564878e-05
1.63722986345e-05
1.63722208863e-05
1.63720611482e-05
1.63721984683e-05
1.6372226615e-05
1.63703791562e-05
1.63671382737e-05
1.63776841753e-05
1.63552856616e-05
1.6188920763e-05
1.60164216805e-05
2.33893079339e-05
0.000472338975657
0.0111303211452
1.6515382273e-05
1.63968226221e-05
1.63773423359e-05
1.63739242727e-05
1.63727503622e-05
1.63724014137e-05
1.63723288017e-05
1.63721815049e-05
1.63721030832e-05
1.63720151955e-05
1.63718479843e-05
1.63695271125e-05
1.63636912207e-05
1.63710688704e-05
1.63588897404e-05
1.62041919596e-05
1.60106196671e-05
2.3186251127e-05
0.000452282913922
0.0109126985589
1.65159862655e-05
1.63969697945e-05
1.6377544011e-05
1.63743242059e-05
1.63730436266e-05
1.63726719931e-05
1.63723428748e-05
1.63721029411e-05
1.63720611253e-05
1.63719392279e-05
1.63716697704e-05
1.63692070378e-05
1.63619159665e-05
1.6368427624e-05
1.63581148308e-05
1.62013073643e-05
1.60148653119e-05
2.30445418533e-05
0.000442346858417
0.0112469857063
1.65165118736e-05
1.63971125994e-05
1.63776954121e-05
1.6374473028e-05
1.63732869534e-05
1.63729819035e-05
1.63726955195e-05
1.637247784e-05
1.63722388517e-05
1.63721029436e-05
1.63716192855e-05
1.63697493208e-05
1.63622192462e-05
1.63661563128e-05
1.63532665084e-05
1.61841364816e-05
1.60088376915e-05
2.27915349812e-05
0.00041130646477
0.0111068958691
1.65166627014e-05
1.63973273975e-05
1.63777159855e-05
1.63744248692e-05
1.63734919673e-05
1.63732458695e-05
1.63730374171e-05
1.63727314947e-05
1.63726054191e-05
1.63723059907e-05
1.6372095631e-05
1.63710621765e-05
1.63641352453e-05
1.63645575481e-05
1.63604950894e-05
1.61940255115e-05
1.60009040117e-05
2.24565168153e-05
0.000388342623357
0.0108706384213
1.65171885708e-05
1.63975835137e-05
1.63780436206e-05
1.63749296073e-05
1.63737718273e-05
1.63733639609e-05
1.63732200896e-05
1.63730001417e-05
1.63728314547e-05
1.63726156871e-05
1.63726396867e-05
1.63723058432e-05
1.63666686037e-05
1.63634519469e-05
1.63753655457e-05
1.6226874529e-05
1.60249459859e-05
2.21527045567e-05
0.000360115910067
0.0106651733035
1.65183293006e-05
1.63985156466e-05
1.63789106112e-05
1.63755305e-05
1.63741942534e-05
1.63737100491e-05
1.63733745438e-05
1.6373230727e-05
1.63730378692e-05
1.63728785774e-05
1.63724093539e-05
1.63722105184e-05
1.63675863738e-05
1.63604509769e-05
1.63849296874e-05
1.62564063068e-05
1.60568479855e-05
2.19488134873e-05
0.000338570707084
0.0107379364055
1.65194311822e-05
1.6399466993e-05
1.63795445474e-05
1.63759920685e-05
1.63746342339e-05
1.63738722138e-05
1.63734965487e-05
1.63730763839e-05
1.63726431345e-05
1.63721272203e-05
1.63714441457e-05
1.63706072253e-05
1.63667255643e-05
1.63566516392e-05
1.63849820556e-05
1.62662377347e-05
1.60630166841e-05
2.1776249951e-05
0.000322185937136
0.0106560610857
1.65206839077e-05
1.6400373184e-05
1.63803568755e-05
1.63768498419e-05
1.63752842327e-05
1.63744768349e-05
1.63737798995e-05
1.63728336073e-05
1.63719940201e-05
1.63711436709e-05
1.63702899008e-05
1.63685139954e-05
1.63645866561e-05
1.63570694785e-05
1.63812926182e-05
1.62649229094e-05
1.60628890148e-05
2.16488884587e-05
0.000310300468321
0.010564325755
1.65222000527e-05
1.64021195827e-05
1.63817274655e-05
1.6378055819e-05
1.63763941604e-05
1.63754570247e-05
1.63740037687e-05
1.6372847235e-05
1.63717568223e-05
1.63705766565e-05
1.63689942453e-05
1.63667237161e-05
1.63626793706e-05
1.63584724734e-05
1.63752680923e-05
1.62575370321e-05
1.60709337213e-05
2.15898277716e-05
0.000300560126729
0.010451106776
1.65244153491e-05
1.64037016352e-05
1.63830542459e-05
1.63789497218e-05
1.6376956316e-05
1.63753215049e-05
1.6373861957e-05
1.63726147185e-05
1.6371131823e-05
1.63695629744e-05
1.63676838132e-05
1.63646955461e-05
1.63602825794e-05
1.63587422862e-05
1.63700026704e-05
1.62495562047e-05
1.61357072801e-05
2.17604401228e-05
0.000295109608906
0.0104114986418
1.65278752775e-05
1.64058261262e-05
1.63847936828e-05
1.63800066568e-05
1.63772644453e-05
1.63750224504e-05
1.6373512675e-05
1.63718228797e-05
1.63700984414e-05
1.63684943512e-05
1.63661701835e-05
1.63624257158e-05
1.63580901321e-05
1.63572807931e-05
1.63629009909e-05
1.62478806417e-05
1.61870793566e-05
2.20108882096e-05
0.000288527957978
0.0103892473184
1.65326356427e-05
1.64101728101e-05
1.63872551168e-05
1.63813031148e-05
1.63778733851e-05
1.63753078077e-05
1.63730539974e-05
1.63708296273e-05
1.63689148963e-05
1.63670180119e-05
1.63644722149e-05
1.63610449511e-05
1.63562119701e-05
1.63542178087e-05
1.63497077742e-05
1.62422850038e-05
1.62345765414e-05
2.22935428419e-05
0.000277710620267
0.0102914392568
1.65399092057e-05
1.64154123717e-05
1.63901762636e-05
1.63826136602e-05
1.63781350865e-05
1.63748485905e-05
1.63720108113e-05
1.63695438064e-05
1.63674829236e-05
1.63651986048e-05
1.63627246032e-05
1.63596712928e-05
1.63543287744e-05
1.63518499124e-05
1.63386730242e-05
1.62242953397e-05
1.62187689524e-05
2.23667795662e-05
0.000274603813795
0.0104343731304
1.65497227458e-05
1.64209068696e-05
1.63929396813e-05
1.63830066728e-05
1.63772952454e-05
1.63733776608e-05
1.6370298196e-05
1.63678449435e-05
1.63658256444e-05
1.63636325808e-05
1.63613425263e-05
1.63583162979e-05
1.63541119753e-05
1.63525170629e-05
1.63398159937e-05
1.62085192634e-05
1.61716610257e-05
2.24316199534e-05
0.000288736429818
0.010415009598
1.65633271652e-05
1.64254463064e-05
1.63921158804e-05
1.6380486559e-05
1.63744722082e-05
1.63706533102e-05
1.63677050919e-05
1.63655545621e-05
1.63637744453e-05
1.63619334872e-05
1.6360132266e-05
1.63581862473e-05
1.63562426803e-05
1.63549654261e-05
1.63457226389e-05
1.62104578349e-05
1.61920292745e-05
2.28177757325e-05
0.000328639680004
0.0104578048574
1.65880618486e-05
1.64199037999e-05
1.63844622352e-05
1.63739222412e-05
1.63688028442e-05
1.63661385684e-05
1.63640315286e-05
1.6362492038e-05
1.63609210333e-05
1.63596862574e-05
1.63584899694e-05
1.63577073987e-05
1.63586890667e-05
1.63604612114e-05
1.63548360397e-05
1.62690733464e-05
1.6259485598e-05
2.33839362561e-05
0.000409762441265
0.0109319126065
1.64225142312e-05
1.63814103327e-05
1.63668901747e-05
1.63636030459e-05
1.63612359928e-05
1.63600048217e-05
1.63596023038e-05
1.63586110106e-05
1.63575697319e-05
1.63568291447e-05
1.63558788196e-05
1.6356341128e-05
1.63601041539e-05
1.6366883515e-05
1.63658431096e-05
1.63116772494e-05
1.63032345683e-05
2.43322697201e-05
0.000571563526604
0.0115130636719
1.63202960099e-05
1.63397850102e-05
1.63456420408e-05
1.63516487057e-05
1.63535972041e-05
1.63539983069e-05
1.635436951e-05
1.63542577092e-05
1.63539132493e-05
1.63533920468e-05
1.63527037458e-05
1.63523559154e-05
1.63563919961e-05
1.63640507973e-05
1.63673996708e-05
1.634329643e-05
1.63542289021e-05
2.55546120015e-05
0.000811179943168
0.0118536521771
1.6422745391e-05
1.63349524949e-05
1.63353484197e-05
1.63429665343e-05
1.63472281308e-05
1.6349164554e-05
1.63498236811e-05
1.63501569332e-05
1.63496408865e-05
1.63488784587e-05
1.63485322714e-05
1.63468330249e-05
1.63454369753e-05
1.63413555401e-05
1.63350665981e-05
1.63373963236e-05
1.63542572664e-05
2.68443483227e-05
0.0011004970574
0.014812993
1.64592194029e-05
1.6346941913e-05
1.63362898749e-05
1.63406337262e-05
1.63439557103e-05
1.63456672261e-05
1.63463919236e-05
1.63465593822e-05
1.63459890399e-05
1.63446891403e-05
1.63430711311e-05
1.63400908068e-05
1.6331992842e-05
1.63153204801e-05
1.62891550206e-05
1.62595483195e-05
1.62442941457e-05
2.80846857195e-05
0.00134963387622
0.0147189067138
1.64754503581e-05
1.63581649539e-05
1.63405759651e-05
1.63419228855e-05
1.63433399831e-05
1.63440081862e-05
1.634404503e-05
1.6343660673e-05
1.63428052847e-05
1.63406483903e-05
1.63365015363e-05
1.63302415593e-05
1.63188336818e-05
1.6298726482e-05
1.62616063586e-05
1.62043734007e-05
1.61833169614e-05
2.9388741961e-05
0.00139122122688
0.014651506689
1.64860637805e-05
1.63671026573e-05
1.6345625752e-05
1.63446057131e-05
1.63443269216e-05
1.6343882049e-05
1.63433846409e-05
1.63422506715e-05
1.63402519869e-05
1.63371378241e-05
1.63315992661e-05
1.63223872562e-05
1.63080951765e-05
1.62885238487e-05
1.62501137908e-05
1.61968268736e-05
1.61925485752e-05
3.09617183614e-05
0.00142703202211
0.0124537602308
1.64940490758e-05
1.63744162808e-05
1.63505703995e-05
1.63478158895e-05
1.63463733552e-05
1.63449437183e-05
1.63437375821e-05
1.63423508579e-05
1.6340181283e-05
1.63373190915e-05
1.63331866174e-05
1.63267818018e-05
1.63169228094e-05
1.63016604082e-05
1.62691210543e-05
1.62030862243e-05
1.61663355002e-05
3.22003870488e-05
0.00170418416171
0.0125531130191
1.64998080967e-05
1.6380255551e-05
1.63548908786e-05
1.63510491829e-05
1.63487983933e-05
1.63468266385e-05
1.63449240699e-05
1.63431615417e-05
1.63414107597e-05
1.63394245588e-05
1.63376285375e-05
1.63358988732e-05
1.63335394736e-05
1.63254894575e-05
1.63039784037e-05
1.62368716357e-05
1.61779188166e-05
3.31604955547e-05
0.00271267549208
0.0150690726729
1.65046767712e-05
1.63850953125e-05
1.63587881958e-05
1.63542183525e-05
1.63513373392e-05
1.63488941684e-05
1.63464816221e-05
1.63441367468e-05
1.63420064156e-05
1.63398966528e-05
1.63375501479e-05
1.63347427018e-05
1.63313000505e-05
1.63254360883e-05
1.63051468598e-05
1.62489691593e-05
1.61858518902e-05
3.47409051242e-05
0.00457165487214
0.0150822062272
1.65094878928e-05
1.63897041121e-05
1.63624315647e-05
1.63574369418e-05
1.63540061128e-05
1.63510333474e-05
1.63480125237e-05
1.63450944286e-05
1.63423898919e-05
1.63396898976e-05
1.63354963231e-05
1.63280128081e-05
1.63174846053e-05
1.63092006159e-05
1.62854413319e-05
1.61707201102e-05
1.60516554341e-05
3.64441266621e-05
0.00495718887016
0.0142501971766
1.65134090122e-05
1.63939760623e-05
1.63657882617e-05
1.63604477102e-05
1.63566091786e-05
1.6353195387e-05
1.6349668203e-05
1.63462705731e-05
1.6343596648e-05
1.63415872723e-05
1.63378745734e-05
1.63295057173e-05
1.63180655616e-05
1.63157914298e-05
1.62949430288e-05
1.60812256566e-05
1.58786045954e-05
3.74579065344e-05
0.00524193167066
0.0150667197579
1.65161981093e-05
1.63973933971e-05
1.63689824207e-05
1.63631328564e-05
1.63589115038e-05
1.63549944779e-05
1.6350952042e-05
1.63473246488e-05
1.63456914092e-05
1.63464062888e-05
1.63452252226e-05
1.63371345112e-05
1.63261407253e-05
1.6327387463e-05
1.63088401849e-05
1.60269911068e-05
1.57728972222e-05
3.71394602119e-05
0.00531240343147
0.0126941643278
1.6518636057e-05
1.6400103781e-05
1.6371949504e-05
1.63656519879e-05
1.63609344266e-05
1.63563783796e-05
1.63515226449e-05
1.63474293619e-05
1.63478388951e-05
1.63531089046e-05
1.63536283934e-05
1.63386732076e-05
1.63228384931e-05
1.63239098323e-05
1.63035247077e-05
1.59961161355e-05
1.57112320204e-05
3.55014286378e-05
0.00438011620425
0.0121122347288
1.6520664573e-05
1.64023375395e-05
1.63746282275e-05
1.6368067994e-05
1.63627804273e-05
1.63577024613e-05
1.63518072997e-05
1.6346397754e-05
1.63513587123e-05
1.63666069885e-05
1.63693923816e-05
1.63377520167e-05
1.63144717955e-05
1.63319898304e-05
1.63045950893e-05
1.59697679528e-05
1.5661070257e-05
3.3016797104e-05
0.00313653153288
0.0111253667482
1.65219170513e-05
1.64039062728e-05
1.63769708725e-05
1.63701500419e-05
1.63644929761e-05
1.63591189374e-05
1.63514983867e-05
1.63420418338e-05
1.63532677536e-05
1.63841989111e-05
1.63764675344e-05
1.63067049861e-05
1.62813206496e-05
1.63373150242e-05
1.63160671353e-05
1.59502852405e-05
1.56427919027e-05
3.07093053096e-05
0.00165224188658
0.00959820433744
1.65225301739e-05
1.64047465242e-05
1.63788100847e-05
1.63716514464e-05
1.63657248709e-05
1.63603608547e-05
1.63489214672e-05
1.63331726004e-05
1.63599364072e-05
1.64275040193e-05
1.63797082542e-05
1.62454585408e-05
1.62305969287e-05
1.63206712016e-05
1.62899006749e-05
1.59119710688e-05
1.56296213912e-05
2.91502021507e-05
0.00117799452881
0.0131724388104
1.65226187144e-05
1.6405034543e-05
1.63806751682e-05
1.63742818196e-05
1.63707596543e-05
1.6367391203e-05
1.63388978898e-05
1.6294533572e-05
1.63628758245e-05
1.64023140394e-05
1.63174324006e-05
1.62681338255e-05
1.61955328086e-05
1.61064018048e-05
1.61307905845e-05
1.58669636536e-05
1.56444062376e-05
2.83770316631e-05
0.00115977711705
0.0118700809525
1.6521896852e-05
1.64048047712e-05
1.63823788e-05
1.63760206244e-05
1.63693688741e-05
1.63512139241e-05
1.63150040772e-05
1.61594927279e-05
1.6378434674e-05
1.64364713588e-05
1.63453354191e-05
1.61412555959e-05
1.60627942307e-05
1.63006306492e-05
1.60425797151e-05
1.57119838221e-05
1.56433629194e-05
2.75938795873e-05
0.00102964485859
0.0119933655371
1.65202569104e-05
1.64035366348e-05
1.63838006568e-05
1.63811233848e-05
1.63774900755e-05
1.63573534814e-05
1.6339189075e-05
1.64052411033e-05
1.64112104505e-05
1.63091377681e-05
1.62054868743e-05
1.61709052349e-05
1.60042439249e-05
2.74440383173e-05
0.000918363621097
0.0137983553154
1.65189691294e-05
1.64026308088e-05
1.63844247828e-05
1.63831139514e-05
1.63984475198e-05
1.6393694736e-05
1.63619655718e-05
1.64759928935e-05
1.64719242816e-05
1.63346195725e-05
1.62154798404e-05
1.61452045326e-05
1.61457279729e-05
2.73443750902e-05
0.000657275058835
0.00877685332344
1.65189719727e-05
1.64026344614e-05
1.63844318819e-05
1.6383128083e-05
1.63984938494e-05
1.63937838984e-05
1.63620207218e-05
1.64760046573e-05
1.64719442935e-05
1.63346380888e-05
1.62154358304e-05
1.61450410675e-05
1.61461677269e-05
2.74628763803e-05
0.000735938907475
0.00546704695069
1.65202628699e-05
1.64035423158e-05
1.63838089569e-05
1.63811366008e-05
1.63775091953e-05
1.63573735831e-05
1.63392723929e-05
1.64053581703e-05
1.64111876153e-05
1.63091227521e-05
1.6205391453e-05
1.61706738431e-05
1.60048157649e-05
2.74497429256e-05
0.000921659869253
0.00532648657719
1.65219103491e-05
1.64048111966e-05
1.63823860118e-05
1.63760299422e-05
1.63693746402e-05
1.63511961418e-05
1.63150413898e-05
1.61596705357e-05
1.63783859906e-05
1.64363671455e-05
1.63453795289e-05
1.61412654755e-05
1.60626035329e-05
1.63003861889e-05
1.60424631306e-05
1.57117638676e-05
1.56424825313e-05
2.75977272268e-05
0.00103347716924
0.00533348239849
1.6522629267e-05
1.64050343086e-05
1.63806732543e-05
1.6374280562e-05
1.63707563491e-05
1.63673901275e-05
1.63388829971e-05
1.62945615656e-05
1.63628550696e-05
1.64022834775e-05
1.63173832111e-05
1.62680940126e-05
1.61949699835e-05
1.61057656647e-05
1.61304893183e-05
1.58662108196e-05
1.56417293182e-05
2.83583722169e-05
0.00118290711522
0.00596806424316
1.65225328825e-05
1.64047376879e-05
1.63787989313e-05
1.63716431671e-05
1.63657114768e-05
1.63603409477e-05
1.63488995356e-05
1.63331705669e-05
1.63599549178e-05
1.64275437478e-05
1.6379656619e-05
1.62452941493e-05
1.62303957822e-05
1.63204195609e-05
1.6289719072e-05
1.59121124107e-05
1.56304322844e-05
2.91199731771e-05
0.00116241809366
0.0054549121202
1.65219093236e-05
1.64038897405e-05
1.63769605132e-05
1.63701459753e-05
1.63644756396e-05
1.63590852743e-05
1.63514749848e-05
1.63420534538e-05
1.63533231219e-05
1.63842788128e-05
1.63765279123e-05
1.63067718388e-05
1.62814559415e-05
1.63375785765e-05
1.63166148626e-05
1.59517995505e-05
1.56472938145e-05
3.07330237125e-05
0.00178411637879
0.00621663205617
1.65206300988e-05
1.64023182627e-05
1.63746168759e-05
1.63680588538e-05
1.63628061626e-05
1.63577155192e-05
1.63518109444e-05
1.63464042896e-05
1.63514082351e-05
1.63667024749e-05
1.63695354382e-05
1.63379811423e-05
1.63149700755e-05
1.63327500951e-05
1.63052341917e-05
1.59707180569e-05
1.56629519374e-05
3.29932783553e-05
0.00271604957032
0.00771763815709
1.65185777149e-05
1.64000779341e-05
1.63719335867e-05
1.63656612568e-05
1.63609607931e-05
1.63564288332e-05
1.63515375569e-05
1.63474156835e-05
1.63478424468e-05
1.63531533197e-05
1.63536987022e-05
1.63387410178e-05
1.63231546006e-05
1.63244408613e-05
1.63039897908e-05
1.59966558592e-05
1.57120866838e-05
3.54868981975e-05
0.00359640114379
0.0102526921411
1.65161315358e-05
1.6397330733e-05
1.63689501469e-05
1.63631222713e-05
1.63589234183e-05
1.63550025859e-05
1.63509573729e-05
1.63473517623e-05
1.63457096396e-05
1.6346391156e-05
1.63451895989e-05
1.63370432516e-05
1.63261280102e-05
1.63275224207e-05
1.6309101991e-05
1.60271653177e-05
1.57747398871e-05
3.71031208356e-05
0.0045752988402
0.0137319716076
1.65133540302e-05
1.63939161482e-05
1.63657664043e-05
1.63604481282e-05
1.63566200295e-05
1.63532231428e-05
1.63496895533e-05
1.63463357444e-05
1.63437047825e-05
1.63416727466e-05
1.63378756959e-05
1.63295717438e-05
1.63182899417e-05
1.63160993179e-05
1.62951822571e-05
1.60813957053e-05
1.58786562296e-05
3.7408939085e-05
0.00517975195016
0.0138497307809
1.65094176039e-05
1.63896508285e-05
1.63624061415e-05
1.63574389422e-05
1.63540328913e-05
1.63510792353e-05
1.6348075847e-05
1.63451612963e-05
1.63424809445e-05
1.63397942252e-05
1.63355400025e-05
1.63283150495e-05
1.63179796422e-05
1.63095348905e-05
1.6285697578e-05
1.61707249068e-05
1.60491614064e-05
3.64194166166e-05
0.00524593587824
0.0141662588247
1.65045675356e-05
1.63850232363e-05
1.63587290753e-05
1.63542044775e-05
1.63513722037e-05
1.63489510708e-05
1.63465226018e-05
1.63441377659e-05
1.63419533278e-05
1.63398178775e-05
1.63375172231e-05
1.63349193915e-05
1.63314883412e-05
1.63256275569e-05
1.63053494105e-05
1.62488891447e-05
1.61838903541e-05
3.47217709572e-05
0.00458519015144
0.0151424302178
1.64997184069e-05
1.63801448579e-05
1.63547568432e-05
1.63509173038e-05
1.63487025075e-05
1.63467539558e-05
1.63448791691e-05
1.63431198101e-05
1.63412946319e-05
1.63392301365e-05
1.63374056385e-05
1.63356548112e-05
1.63333163921e-05
1.63254504084e-05
1.63040491467e-05
1.62374622109e-05
1.61779099644e-05
3.31450008517e-05
0.00269464904679
0.0149896074731
1.64940766473e-05
1.63743624822e-05
1.63504612984e-05
1.63476648694e-05
1.63462207702e-05
1.6344831483e-05
1.63437288653e-05
1.63424217872e-05
1.63402963578e-05
1.63374752895e-05
1.63332475011e-05
1.63266929969e-05
1.63168163038e-05
1.63014349521e-05
1.62692643884e-05
1.62039191562e-05
1.61671246277e-05
3.21821682105e-05
0.00169264009087
0.0125210196712
1.64861931469e-05
1.63671640202e-05
1.63456104415e-05
1.63445383491e-05
1.63442405859e-05
1.63438314289e-05
1.63433831559e-05
1.63422986101e-05
1.63403977581e-05
1.63373922744e-05
1.63318928646e-05
1.63226231424e-05
1.63082108592e-05
1.62883869067e-05
1.62501563506e-05
1.61975599528e-05
1.61935349899e-05
3.09407653267e-05
0.00140964785378
0.0124314054286
1.64756010594e-05
1.63582409385e-05
1.63405998022e-05
1.63419254685e-05
1.634329804e-05
1.63439533744e-05
1.63439061764e-05
1.6343569733e-05
1.63427412335e-05
1.63404810532e-05
1.63364562799e-05
1.63302786956e-05
1.63186162483e-05
1.62982797946e-05
1.62608804158e-05
1.62033650889e-05
1.6181721599e-05
2.93588749651e-05
0.00136609041722
0.0146255091516
1.64593556813e-05
1.63470513216e-05
1.63364676154e-05
1.63408167387e-05
1.63440828701e-05
1.63457628473e-05
1.6346428682e-05
1.6346538772e-05
1.63457816753e-05
1.63444465131e-05
1.63428066364e-05
1.63397825521e-05
1.63315172746e-05
1.63141513097e-05
1.62863709458e-05
1.62538945763e-05
1.6232576043e-05
2.80484699363e-05
0.00132772533629
0.0147165606654
1.64228476935e-05
1.63351851612e-05
1.63356467471e-05
1.6343189343e-05
1.63474356717e-05
1.63493296249e-05
1.6350020195e-05
1.63502327343e-05
1.63495862817e-05
1.6348791415e-05
1.63482881715e-05
1.63465539157e-05
1.63450627406e-05
1.63403100506e-05
1.63319070851e-05
1.63303803867e-05
1.63414480649e-05
2.68464458329e-05
0.00109030674084
0.012609163601
1.63208340927e-05
1.63400501013e-05
1.63457684126e-05
1.63517698941e-05
1.63536672716e-05
1.63539902473e-05
1.63545300081e-05
1.63543697996e-05
1.63541984991e-05
1.63536848758e-05
1.63527978072e-05
1.63524924013e-05
1.63565934699e-05
1.63644411089e-05
1.63673086818e-05
1.63420632276e-05
1.635197257e-05
2.56059155419e-05
0.000810943316877
0.0120650571174
1.64227200528e-05
1.63813269535e-05
1.63667735373e-05
1.63635719571e-05
1.63612366961e-05
1.63600532321e-05
1.63595570353e-05
1.63587472539e-05
1.63579396238e-05
1.63573507292e-05
1.63564857632e-05
1.63571278874e-05
1.63609016008e-05
1.63681846518e-05
1.63678613795e-05
1.63152238498e-05
1.63046920809e-05
2.438748959e-05
0.000571958211359
0.0110716028877
1.65877349792e-05
1.64196536363e-05
1.6384336696e-05
1.63738308696e-05
1.63688334704e-05
1.63662795868e-05
1.63640547939e-05
1.63626426711e-05
1.63612027631e-05
1.63600634736e-05
1.63592000676e-05
1.63587349494e-05
1.63599551113e-05
1.63621715408e-05
1.63577164877e-05
1.62755967053e-05
1.6267470536e-05
2.33827232377e-05
0.000410932037656
0.0109504352817
1.656321352e-05
1.64253561647e-05
1.63920652691e-05
1.63804623978e-05
1.6374503905e-05
1.63707182683e-05
1.6367941886e-05
1.63657630133e-05
1.63639841465e-05
1.63622402105e-05
1.63606521138e-05
1.63589346554e-05
1.6357756781e-05
1.63570443215e-05
1.63492343269e-05
1.62204549705e-05
1.62105416951e-05
2.27223687935e-05
0.0003224257387
0.0107418223744
1.65495622723e-05
1.64208679835e-05
1.63929496704e-05
1.63830505679e-05
1.63773680891e-05
1.63734777618e-05
1.63704484658e-05
1.63680853624e-05
1.63660570376e-05
1.63639551408e-05
1.63618340723e-05
1.63587147456e-05
1.63551301779e-05
1.63540972446e-05
1.63423156565e-05
1.62108387067e-05
1.6190210382e-05
2.23553254844e-05
0.000281140136201
0.0106177406672
1.65398254427e-05
1.64154321251e-05
1.63902554581e-05
1.63827212556e-05
1.63782312785e-05
1.6374914214e-05
1.63720845633e-05
1.63696555577e-05
1.63676264874e-05
1.63654329112e-05
1.63630379575e-05
1.63599571949e-05
1.6354763416e-05
1.63526522813e-05
1.63397088413e-05
1.62196653907e-05
1.62182059069e-05
2.22929635356e-05
0.000267923353495
0.0104370204277
1.65326873641e-05
1.64102341639e-05
1.63873326058e-05
1.63813770162e-05
1.63779325657e-05
1.6375320707e-05
1.63730175233e-05
1.63707526369e-05
1.63688708824e-05
1.63669716633e-05
1.63644455041e-05
1.63614223725e-05
1.63566168064e-05
1.63546235072e-05
1.63504357582e-05
1.6239966942e-05
1.62408773276e-05
2.22642970061e-05
0.000272996777733
0.0100794716229
1.65279592884e-05
1.64058559103e-05
1.6384778525e-05
1.63799618333e-05
1.6377226914e-05
1.63750796831e-05
1.63734915831e-05
1.63717287847e-05
1.63699657294e-05
1.6368410345e-05
1.63661939328e-05
1.63626975185e-05
1.63585868588e-05
1.63582281216e-05
1.63640703833e-05
1.62524916951e-05
1.62039802587e-05
2.19940111192e-05
0.000282024889635
0.0101935340761
1.65244201578e-05
1.64036843838e-05
1.63829747709e-05
1.63788454933e-05
1.6376786755e-05
1.63751801222e-05
1.63737773381e-05
1.63725146622e-05
1.63709700743e-05
1.63694440431e-05
1.63676771422e-05
1.63648675895e-05
1.63609827224e-05
1.63605165012e-05
1.63720152213e-05
1.62523227594e-05
1.60952603017e-05
2.16561931417e-05
0.000290501466449
0.0104218071632
1.65221223296e-05
1.64020266628e-05
1.63816201082e-05
1.63779037574e-05
1.63761972671e-05
1.63751001769e-05
1.63737161533e-05
1.63725862599e-05
1.6371513106e-05
1.6370266847e-05
1.63685847339e-05
1.63665342248e-05
1.63628967651e-05
1.63601021924e-05
1.63752275162e-05
1.62550047434e-05
1.60714244643e-05
2.16213171907e-05
0.000305673619701
0.0104698033808
1.65205478561e-05
1.64001495302e-05
1.63802254567e-05
1.63767106529e-05
1.63751536039e-05
1.63743003195e-05
1.63735075487e-05
1.63725321593e-05
1.6371753225e-05
1.63710026641e-05
1.63699600728e-05
1.63681276536e-05
1.63643843627e-05
1.6359266547e-05
1.63811150481e-05
1.62586160839e-05
1.60541317384e-05
2.17159988335e-05
0.000328451081605
0.0106250469027
1.65193563179e-05
1.63994089953e-05
1.63794732951e-05
1.63759364528e-05
1.63745022282e-05
1.63737286469e-05
1.6373255717e-05
1.63727655534e-05
1.63723167625e-05
1.63717850641e-05
1.63711321993e-05
1.63698495716e-05
1.63659303498e-05
1.63589473136e-05
1.63845510017e-05
1.62540679006e-05
1.60370053134e-05
2.18274557509e-05
0.000346549099348
0.0107626718948
1.6518365659e-05
1.63986801315e-05
1.63788993414e-05
1.63754545489e-05
1.63740705516e-05
1.6373441723e-05
1.63729443963e-05
1.63727646384e-05
1.63724208329e-05
1.63720564872e-05
1.63715576666e-05
1.63710079826e-05
1.6366022453e-05
1.6362081544e-05
1.63846798258e-05
1.62431229529e-05
1.60252676768e-05
2.19780800663e-05
0.000357272006986
0.0108819562641
1.65171565995e-05
1.63975451534e-05
1.63780109605e-05
1.63747793676e-05
1.63735677506e-05
1.63731266138e-05
1.63728422704e-05
1.6372513404e-05
1.63722085878e-05
1.637190006e-05
1.63716592555e-05
1.63712212877e-05
1.63646178079e-05
1.63645488737e-05
1.63781747399e-05
1.62258489779e-05
1.60166833358e-05
2.22284463741e-05
0.00037526046882
0.0109177484108
1.65166065785e-05
1.63971625359e-05
1.63776065244e-05
1.63743016356e-05
1.63732412252e-05
1.63729607339e-05
1.63728100247e-05
1.63724307653e-05
1.63721968543e-05
1.6371753103e-05
1.6371668372e-05
1.6370796599e-05
1.63626867804e-05
1.63633813779e-05