/*--------------------------------*- C++ -*----------------------------------*\
| =========                 |                                                 |
| \\      /  F ield         | OpenFOAM: The Open Source CFD Toolbox           |
|  \\    /   O peration     | Version:  v2012                                 |
|   \\  /    A nd           | Website:  www.openfoam.com                      |
|    \\/     M anipulation  |                                                 |
\*---------------------------------------------------------------------------*/
FoamFile
{
    version     2.0;
    format      ascii;
    class       volScalarField;
    location    "4.2";
    object      rAU;
}
// * * * * * * * * * * * * * * * * * * * * * * * * * * * * * * * * * * * * * //

dimensions      [-1 3 1 0 0 0 0];


internalField   nonuniform List<scalar> 
164
(
2.20149777882e-05
2.18481863467e-05
2.18192386398e-05
2.18140258607e-05
2.18120707425e-05
2.18105128541e-05
2.18093115817e-05
2.18077589988e-05
2.20165015313e-05
2.18489836553e-05
2.18201655753e-05
2.18149978977e-05
2.1812725441e-05
2.18108633562e-05
2.18090768794e-05
2.18078101777e-05
2.1805988861e-05
2.18035247784e-05
2.17996562579e-05
2.20178924019e-05
2.18501638744e-05
2.18212353951e-05
2.18160157647e-05
2.18137925658e-05
2.18119302254e-05
2.18101781623e-05
2.18086380455e-05
2.18065818204e-05
2.18046199468e-05
2.18036017067e-05
2.17970687917e-05
2.17790031203e-05
2.2019276817e-05
2.18515495798e-05
2.18221661702e-05
2.18168196526e-05
2.18147897639e-05
2.18132280144e-05
2.18119639195e-05
2.18097703322e-05
2.18081705943e-05
2.18069942582e-05
2.18060344666e-05
2.18012514101e-05
2.17927595743e-05
2.17957100787e-05
2.20213219593e-05
2.18530934589e-05
2.18235457347e-05
2.18181601685e-05
2.18157713555e-05
2.18139114685e-05
2.18122763347e-05
2.18104888519e-05
2.18092679948e-05
2.180786801e-05
2.18066904405e-05
2.18012413437e-05
2.17975184563e-05
2.18391024935e-05
2.20239745777e-05
2.18551326342e-05
2.1825415793e-05
2.1819997352e-05
2.18172772963e-05
2.18147924582e-05
2.18123570402e-05
2.18109627019e-05
2.18089551699e-05
2.18070376333e-05
2.18048750547e-05
2.17979343935e-05
2.17934109843e-05
2.18460680128e-05
2.20281246406e-05
2.18581557732e-05
2.18280935657e-05
2.1822426942e-05
2.18192050116e-05
2.18163776825e-05
2.18138315556e-05
2.18112514856e-05
2.18080238195e-05
2.180544529e-05
2.18012212426e-05
2.17931747533e-05
2.17845578982e-05
2.18115188455e-05
2.20328619959e-05
2.18624001382e-05
2.18318763622e-05
2.1825323543e-05
2.18213701675e-05
2.1817964784e-05
2.18148503356e-05
2.18111488594e-05
2.1807582185e-05
2.1803414562e-05
2.17975486046e-05
2.17885279616e-05
2.17751890655e-05
2.1773331719e-05
2.20387677686e-05
2.18679019555e-05
2.18359032139e-05
2.18281798408e-05
2.18232351161e-05
2.18188384007e-05
2.18147792779e-05
2.1810811038e-05
2.18070955557e-05
2.1802077932e-05
2.17957633552e-05
2.17863124726e-05
2.17736732891e-05
2.1757111541e-05
2.20480350446e-05
2.18744308636e-05
2.1840114368e-05
2.18311697916e-05
2.18249196215e-05
2.18193951444e-05
2.18146277726e-05
2.18104303391e-05
2.18060765148e-05
2.18011464688e-05
2.17951379838e-05
2.17872682213e-05
2.1777210072e-05
2.17572861532e-05
2.17730127714e-05
2.15455583995e-05
2.20608291236e-05
2.1882733935e-05
2.18452055981e-05
2.18341029532e-05
2.18260754605e-05
2.18195111599e-05
2.18141922135e-05
2.18095419743e-05
2.18049761024e-05
2.18002885746e-05
2.17951105371e-05
2.17892161832e-05
2.17817797977e-05
2.17604163569e-05
2.17711483622e-05
2.15408326017e-05
2.20799263943e-05
2.18936250802e-05
2.18500952129e-05
2.18355755453e-05
2.18254029543e-05
2.1817891006e-05
2.18122554941e-05
2.18076067684e-05
2.18034272535e-05
2.1799369237e-05
2.17951074824e-05
2.17903849919e-05
2.17850275798e-05
2.17631750659e-05
2.17708322576e-05
2.15482722099e-05
)
;

boundaryField
{
    back
    {
        type            calculated;
        value           nonuniform List<scalar> 
164
(
2.20149777882e-05
2.18481863467e-05
2.18192386398e-05
2.18140258607e-05
2.18120707425e-05
2.18105128541e-05
2.18093115817e-05
2.18077589988e-05
2.20165015313e-05
2.18489836553e-05
2.18201655753e-05
2.18149978977e-05
2.1812725441e-05
2.18108633562e-05
2.18090768794e-05
2.18078101777e-05
2.1805988861e-05
2.18035247784e-05
2.17996562579e-05
2.20178924019e-05
2.18501638744e-05
2.18212353951e-05
2.18160157647e-05
2.18137925658e-05
2.18119302254e-05
2.18101781623e-05
2.18086380455e-05
2.18065818204e-05
2.18046199468e-05
2.18036017067e-05
2.17970687917e-05
2.17790031203e-05
2.2019276817e-05
2.18515495798e-05
2.18221661702e-05
2.18168196526e-05
2.18147897639e-05
2.18132280144e-05
2.18119639195e-05
2.18097703322e-05
2.18081705943e-05
2.18069942582e-05
2.18060344666e-05
2.18012514101e-05
2.17927595743e-05
2.17957100787e-05
2.20213219593e-05
2.18530934589e-05
2.18235457347e-05
2.18181601685e-05
2.18157713555e-05
2.18139114685e-05
2.18122763347e-05
2.18104888519e-05
2.18092679948e-05
2.180786801e-05
2.18066904405e-05
2.18012413437e-05
2.17975184563e-05
2.18391024935e-05
2.20239745777e-05
2.18551326342e-05
2.1825415793e-05
2.1819997352e-05
2.18172772963e-05
2.18147924582e-05
2.18123570402e-05
2.18109627019e-05
2.18089551699e-05
2.18070376333e-05
2.18048750547e-05
2.17979343935e-05
2.17934109843e-05
2.18460680128e-05
2.20281246406e-05
2.18581557732e-05
2.18280935657e-05
2.1822426942e-05
2.18192050116e-05
2.18163776825e-05
2.18138315556e-05
2.18112514856e-05
2.18080238195e-05
2.180544529e-05
2.18012212426e-05
2.17931747533e-05
2.17845578982e-05
2.18115188455e-05
2.20328619959e-05
2.18624001382e-05
2.18318763622e-05
2.1825323543e-05
2.18213701675e-05
2.1817964784e-05
2.18148503356e-05
2.18111488594e-05
2.1807582185e-05
2.1803414562e-05
2.17975486046e-05
2.17885279616e-05
2.17751890655e-05
2.1773331719e-05
2.20387677686e-05
2.18679019555e-05
2.18359032139e-05
2.18281798408e-05
2.18232351161e-05
2.18188384007e-05
2.18147792779e-05
2.1810811038e-05
2.18070955557e-05
2.1802077932e-05
2.17957633552e-05
2.17863124726e-05
2.17736732891e-05
2.1757111541e-05
2.20480350446e-05
2.18744308636e-05
2.1840114368e-05
2.18311697916e-05
2.18249196215e-05
2.18193951444e-05
2.18146277726e-05
2.18104303391e-05
2.18060765148e-05
2.18011464688e-05
2.17951379838e-05
2.17872682213e-05
2.1777210072e-05
2.17572861532e-05
2.17730127714e-05
2.15455583995e-05
2.20608291236e-05
2.1882733935e-05
2.18452055981e-05
2.18341029532e-05
2.18260754605e-05
2.18195111599e-05
2.18141922135e-05
2.18095419743e-05
2.18049761024e-05
2.18002885746e-05
2.17951105371e-05
2.17892161832e-05
2.17817797977e-05
2.17604163569e-05
2.17711483622e-05
2.15408326017e-05
2.20799263943e-05
2.18936250802e-05
2.18500952129e-05
2.18355755453e-05
2.18254029543e-05
2.1817891006e-05
2.18122554941e-05
2.18076067684e-05
2.18034272535e-05
2.1799369237e-05
2.17951074824e-05
2.17903849919e-05
2.17850275798e-05
2.17631750659e-05
2.17708322576e-05
2.15482722099e-05
)
;
    }
    sides
    {
        type            calculated;
        value           nonuniform List<scalar> 0();
    }
    bottom
    {
        type            calculated;
        value           nonuniform List<scalar> 
12
(
2.20149777882e-05
2.20165015313e-05
2.20178924019e-05
2.2019276817e-05
2.20213219593e-05
2.20239745777e-05
2.20281246406e-05
2.20328619959e-05
2.20387677686e-05
2.20480350446e-05
2.20608291236e-05
2.20799263943e-05
)
;
    }
    front
    {
        type            calculated;
        value           nonuniform List<scalar> 
164
(
2.20149777882e-05
2.18481863467e-05
2.18192386398e-05
2.18140258607e-05
2.18120707425e-05
2.18105128541e-05
2.18093115817e-05
2.18077589988e-05
2.20165015313e-05
2.18489836553e-05
2.18201655753e-05
2.18149978977e-05
2.1812725441e-05
2.18108633562e-05
2.18090768794e-05
2.18078101777e-05
2.1805988861e-05
2.18035247784e-05
2.17996562579e-05
2.20178924019e-05
2.18501638744e-05
2.18212353951e-05
2.18160157647e-05
2.18137925658e-05
2.18119302254e-05
2.18101781623e-05
2.18086380455e-05
2.18065818204e-05
2.18046199468e-05
2.18036017067e-05
2.17970687917e-05
2.17790031203e-05
2.2019276817e-05
2.18515495798e-05
2.18221661702e-05
2.18168196526e-05
2.18147897639e-05
2.18132280144e-05
2.18119639195e-05
2.18097703322e-05
2.18081705943e-05
2.18069942582e-05
2.18060344666e-05
2.18012514101e-05
2.17927595743e-05
2.17957100787e-05
2.20213219593e-05
2.18530934589e-05
2.18235457347e-05
2.18181601685e-05
2.18157713555e-05
2.18139114685e-05
2.18122763347e-05
2.18104888519e-05
2.18092679948e-05
2.180786801e-05
2.18066904405e-05
2.18012413437e-05
2.17975184563e-05
2.18391024935e-05
2.20239745777e-05
2.18551326342e-05
2.1825415793e-05
2.1819997352e-05
2.18172772963e-05
2.18147924582e-05
2.18123570402e-05
2.18109627019e-05
2.18089551699e-05
2.18070376333e-05
2.18048750547e-05
2.17979343935e-05
2.17934109843e-05
2.18460680128e-05
2.20281246406e-05
2.18581557732e-05
2.18280935657e-05
2.1822426942e-05
2.18192050116e-05
2.18163776825e-05
2.18138315556e-05
2.18112514856e-05
2.18080238195e-05
2.180544529e-05
2.18012212426e-05
2.17931747533e-05
2.17845578982e-05
2.18115188455e-05
2.20328619959e-05
2.18624001382e-05
2.18318763622e-05
2.1825323543e-05
2.18213701675e-05
2.1817964784e-05
2.18148503356e-05
2.18111488594e-05
2.1807582185e-05
2.1803414562e-05
2.17975486046e-05
2.17885279616e-05
2.17751890655e-05
2.1773331719e-05
2.20387677686e-05
2.18679019555e-05
2.18359032139e-05
2.18281798408e-05
2.18232351161e-05
2.18188384007e-05
2.18147792779e-05
2.1810811038e-05
2.18070955557e-05
2.1802077932e-05
2.17957633552e-05
2.17863124726e-05
2.17736732891e-05
2.1757111541e-05
2.20480350446e-05
2.18744308636e-05
2.1840114368e-05
2.18311697916e-05
2.18249196215e-05
2.18193951444e-05
2.18146277726e-05
2.18104303391e-05
2.18060765148e-05
2.18011464688e-05
2.17951379838e-05
2.17872682213e-05
2.1777210072e-05
2.17572861532e-05
2.17730127714e-05
2.15455583995e-05
2.20608291236e-05
2.1882733935e-05
2.18452055981e-05
2.18341029532e-05
2.18260754605e-05
2.18195111599e-05
2.18141922135e-05
2.18095419743e-05
2.18049761024e-05
2.18002885746e-05
2.17951105371e-05
2.17892161832e-05
2.17817797977e-05
2.17604163569e-05
2.17711483622e-05
2.15408326017e-05
2.20799263943e-05
2.18936250802e-05
2.18500952129e-05
2.18355755453e-05
2.18254029543e-05
2.1817891006e-05
2.18122554941e-05
2.18076067684e-05
2.18034272535e-05
2.1799369237e-05
2.17951074824e-05
2.17903849919e-05
2.17850275798e-05
2.17631750659e-05
2.17708322576e-05
2.15482722099e-05
)
;
    }
    atmosphere
    {
        type            calculated;
        value           nonuniform List<scalar> 0();
    }
    floatingObject
    {
        type            calculated;
        value           nonuniform List<scalar> 0();
    }
    procBoundary7to6
    {
        type            processor;
        value           nonuniform List<scalar> 
11
(
2.1712368753e-05
2.17965636995e-05
2.18250018543e-05
2.17948335978e-05
2.17751196569e-05
2.17739487131e-05
2.17739487131e-05
2.15347362628e-05
2.11772726917e-05
2.11638564421e-05
2.11922300461e-05
)
;
    }
    procBoundary7to8
    {
        type            processor;
        value           nonuniform List<scalar> 
17
(
2.20142996348e-05
2.18477447019e-05
2.18190353114e-05
2.18138410255e-05
2.18121254412e-05
2.18108234101e-05
2.18093578934e-05
2.18068707581e-05
2.18054282032e-05
2.18054282032e-05
2.18025116009e-05
2.17968305297e-05
2.17891691873e-05
2.17891691873e-05
2.17628411909e-05
2.17463970133e-05
2.17463970133e-05
)
;
    }
    procBoundary7to9
    {
        type            processor;
        value           nonuniform List<scalar> 
16
(
2.2115109256e-05
2.19026720371e-05
2.18499041136e-05
2.18325457716e-05
2.1821182077e-05
2.1813826758e-05
2.18087972275e-05
2.18049400297e-05
2.18016252678e-05
2.1798765049e-05
2.17949862186e-05
2.17915421717e-05
2.17883870692e-05
2.17734124389e-05
2.17677948544e-05
2.15773196927e-05
)
;
    }
}


// ************************************************************************* //
