/*--------------------------------*- C++ -*----------------------------------*\
| =========                 |                                                 |
| \\      /  F ield         | OpenFOAM: The Open Source CFD Toolbox           |
|  \\    /   O peration     | Version:  v2012                                 |
|   \\  /    A nd           | Website:  www.openfoam.com                      |
|    \\/     M anipulation  |                                                 |
\*---------------------------------------------------------------------------*/
FoamFile
{
    version     2.0;
    format      ascii;
    class       surfaceVectorField;
    location    "4.2";
    object      Uf;
}
// * * * * * * * * * * * * * * * * * * * * * * * * * * * * * * * * * * * * * //

dimensions      [0 1 -1 0 0 0 0];


internalField   nonuniform List<vector> 
300
(
(0.0363117677372 -0.00242957505984 -3.60770844992e-22)
(0.0381440964511 -0.00122070375027 -2.09027539424e-22)
(0.0352173956377 -0.00484214278348 -3.03060773922e-22)
(0.0368976278724 -0.00356997722933 -3.4199716601e-22)
(0.0345540151614 -0.00724503302595 -5.38404268694e-23)
(0.0359292208841 -0.00590343306316 -9.41490548743e-23)
(0.0344222951221 -0.00965279371865 1.07823303834e-22)
(0.0355637154386 -0.00826607964991 6.72974761732e-23)
(0.0346555021208 -0.0120790804068 1.60158346271e-22)
(0.0356774180663 -0.0106403985745 1.4102746751e-22)
(0.0350928138849 -0.0145262131643 1.47345138041e-22)
(0.0360553706327 -0.0130369458062 1.36679344172e-22)
(0.0356462138508 -0.0169976014707 1.29895569306e-22)
(0.0365786587581 -0.0154584492659 1.14196168806e-22)
(0.03719154689 -0.0179114920269 9.17646501284e-23)
(0.038678623314 -0.00231016299579 -1.90253860441e-22)
(0.0404544361389 -0.0011491955536 -1.08161248658e-23)
(0.0375784163521 -0.00461795637416 -1.33085446962e-22)
(0.0392056051288 -0.00339375595546 -1.28157857014e-22)
(0.0369193674804 -0.00692564628308 2.69888481682e-23)
(0.038237081911 -0.0056268845682 9.47217367636e-24)
(0.0368042953055 -0.00925361257393 1.00501639849e-22)
(0.0378918316388 -0.0078964449054 7.81019376926e-23)
(0.0370621316469 -0.0116012493446 1.17548465411e-22)
(0.0380251835554 -0.010187482392 1.03335130115e-22)
(0.0375261118092 -0.0139770799907 1.03530374937e-22)
(0.0384313142396 -0.0125098464519 9.08723355951e-23)
(0.0381112214515 -0.016388487667 7.60652496285e-23)
(0.0389901698428 -0.0148626825632 7.8498420223e-23)
(0.0387757228569 -0.0188454385973 5.58715871749e-23)
(0.0396485989454 -0.0172586870553 4.59848943832e-23)
(0.0394941558558 -0.0213534492196 4.45230288788e-23)
(0.0403685235085 -0.0197117034702 4.23814776646e-23)
(0.0402517694423 -0.0239452151621 6.17179080925e-24)
(0.0411442305746 -0.0222325526438 1.75445979128e-23)
(0.0419542959219 -0.0248373895434 -6.97373763173e-23)
(0.040931116892 -0.00218799326345 5.12798785617e-23)
(0.0426426149807 -0.0010737996668 8.94535516022e-23)
(0.0398356478779 -0.00438455457985 1.43997636247e-23)
(0.0414023593825 -0.003210347024 -5.57593889469e-23)
(0.0391868804428 -0.00659496270502 6.05852632008e-23)
(0.0404476703382 -0.00533878223989 2.09940829564e-23)
(0.0390955772257 -0.00882601531348 8.0935427959e-23)
(0.0401230431124 -0.00750517903403 6.12389391689e-23)
(0.0393900540332 -0.0110902549238 7.66590002994e-23)
(0.0402895596234 -0.00970098531638 7.12802748853e-23)
(0.0399002578635 -0.0134010246194 6.58403808812e-23)
(0.0407422011507 -0.0119384499278 5.69464660115e-23)
(0.0405315313358 -0.0157327262477 4.84180649777e-23)
(0.0413219738099 -0.0142196420486 4.99481740383e-23)
(0.0412480664784 -0.0181408813679 3.24947848728e-23)
(0.0420568440752 -0.0165523429986 4.70029359789e-23)
(0.0420374934601 -0.0206143333486 1.54030466985e-23)
(0.042842062904 -0.0189487001676 3.24645619099e-23)
(0.0428934866288 -0.0231694952209 -5.83645692137e-23)
(0.0436994616133 -0.0214172551918 1.61160217491e-23)
(0.0437976256911 -0.025833074298 -2.73893736806e-22)
(0.0446179121655 -0.0239685435696 -1.10914995598e-22)
(0.0446553486953 -0.0286524527955 -1.0308405908e-21)
(0.0455895846529 -0.0266225728255 -4.54888937985e-22)
(0.0464834227299 -0.0294343733423 -1.48764790946e-21)
(0.0430640560455 -0.00206233399211 -1.75857159065e-23)
(0.044705145326 -0.000999412123741 -7.54667383315e-24)
(0.0419809207298 -0.00414390584604 -4.91650696153e-23)
(0.0434841326848 -0.00301928528876 -1.20755488217e-22)
(0.041351930174 -0.00624277591688 2.16477589245e-23)
(0.0425467286326 -0.00503302901576 -2.89354719209e-23)
(0.0412907271747 -0.00837153048596 5.15837860951e-23)
(0.0422519651794 -0.00708699029511 3.72469053423e-23)
(0.0416236960974 -0.0105383176601 5.15677405973e-23)
(0.0424564927448 -0.00917863111752 5.69905514299e-23)
(0.0421855482125 -0.0127477592149 4.10542591686e-23)
(0.0429517698201 -0.0113170676715 4.62241112544e-23)
(0.0428788829448 -0.0150350116644 4.85330450395e-23)
(0.0436093383929 -0.0135138739901 4.058315098e-23)
(0.043663949625 -0.0173630156015 4.6972713016e-23)
(0.0443849452511 -0.0157721749913 5.15184597611e-23)
(0.0445306763703 -0.0197653798793 3.31775369605e-23)
(0.0452445069675 -0.0180963631183 2.76839622722e-23)
(0.0454761843144 -0.0222485264354 -3.64344046355e-23)
(0.0461826618739 -0.0204924431965 3.61007442303e-23)
(0.0465005508305 -0.0248246778571 -2.91910196777e-22)
(0.0471940820969 -0.0229608517341 -9.8436380763e-23)
(0.0475319129216 -0.027505184639 -9.11696256648e-22)
(0.0482700418935 -0.0255024975663 -4.27224152214e-22)
(0.0482060197248 -0.0303116486807 -2.1655790516e-21)
(0.0492896957151 -0.0281255374993 -1.2896546406e-21)
(0.0496698464622 -0.03077822891 -3.12740731254e-21)
(0.0450704688413 -0.0019331270175 -1.10716446144e-22)
(0.0466384724981 -0.000925717036028 -1.20766368266e-22)
(0.0440074325438 -0.00388613180628 -1.00525890523e-22)
(0.04543733944 -0.00281595730227 -1.70182646508e-22)
(0.0434079193397 -0.00586443215294 -1.3336325503e-23)
(0.0445252182012 -0.00470200626775 -7.98357363275e-23)
(0.0433849793253 -0.00788024004413 4.26536706771e-23)
(0.0442679451787 -0.00663450372996 1.18215483652e-23)
(0.0437621189333 -0.00994278121482 5.1646922087e-23)
(0.0445191895441 -0.00861467863968 3.97932675357e-23)
(0.0443726610311 -0.0120597143641 4.57530030658e-23)
(0.0450688446846 -0.0106470570675 4.29896172073e-23)
(0.0451296149281 -0.0142428827047 4.35685657016e-23)
(0.0457926374893 -0.0127420247808 4.71931554765e-23)
(0.0459929064336 -0.0164938807681 3.22297090173e-23)
(0.0466360594561 -0.0149087320517 4.40825629692e-23)
(0.0469392079471 -0.0188234236908 3.06071695421e-23)
(0.0475741430356 -0.0171555672736 3.39339161701e-23)
(0.0479617494695 -0.0212205340431 -2.59012318972e-23)
(0.0485798256093 -0.0194779425896 6.09169722649e-23)
(0.0490558525181 -0.0236930320098 -2.337503362e-22)
(0.049666581663 -0.0218698966166 -3.43847647058e-23)
(0.0501626538119 -0.0262111251677 -8.05182536171e-22)
(0.0507880596153 -0.0243228846958 -2.45171747987e-22)
(0.0509506804078 -0.0287546381473 -2.25148290155e-21)
(0.051833010453 -0.0268085425453 -9.19179392555e-22)
(0.0523002606032 -0.0292416928074 -2.73343996816e-21)
(0.0469433335584 -0.00179241560745 -1.80232568629e-22)
(0.0484310800422 -0.000843487505037 -1.58057819666e-22)
(0.0459070895339 -0.00360666548476 -1.49492492312e-22)
(0.0472517798112 -0.0025951909211 -1.77922667866e-22)
(0.0453440813144 -0.0054558036009 -5.46778624593e-23)
(0.0463745368373 -0.00434200102713 -8.62914967915e-23)
(0.0453666127433 -0.00735070051258 8.9611452238e-24)
(0.0461630131623 -0.00614295660833 1.61250203514e-24)
(0.045796806738 -0.00929780412842 3.11359626561e-23)
(0.0464664578731 -0.00800107688896 1.92720987851e-23)
(0.0464680656912 -0.0113061063289 4.4429769618e-23)
(0.0470773078434 -0.00991701370071 3.47582065847e-23)
(0.0472932862925 -0.0133844678223 4.7707152744e-23)
(0.0478711561637 -0.0119006696391 5.04549432536e-23)
(0.0482303759973 -0.0155457634411 4.5786770122e-23)
(0.0487975014543 -0.0139685669681 3.62688178372e-23)
(0.0492579086662 -0.017782437043 6.4243718893e-23)
(0.0498109358809 -0.0161307377092 4.57791810518e-23)
(0.050356792208 -0.0201228314014 5.24334394564e-23)
(0.0509202915121 -0.018384985136 6.97525353493e-23)
(0.0514973636046 -0.0225252057217 -4.58061764924e-23)
(0.0520689625466 -0.020731647543 2.95403219456e-23)
(0.0526124476552 -0.0249616897978 -3.59168604371e-22)
(0.0532244546016 -0.0231618908403 -5.76272528049e-23)
(0.0534133835571 -0.0274008386214 -1.40113645917e-21)
(0.054271942135 -0.0256481918817 -4.24381851355e-22)
(0.0547674794287 -0.0281394803632 -1.62394829077e-21)
(0.0486728216556 -0.00163141291674 -1.55747918903e-22)
(0.0500626621794 -0.000754061885291 -1.57273477169e-22)
(0.0476706732696 -0.00330132852553 -1.14721672345e-22)
(0.0489218614531 -0.00235635782421 -1.26116793684e-22)
(0.0471504909535 -0.00501357853137 -3.00011322971e-23)
(0.0480869491115 -0.00395310410143 -6.03797061413e-23)
(0.0472237314092 -0.00677622298588 1.19234555965e-23)
(0.047925822648 -0.00561058285827 1.53738619768e-23)
(0.0477144048513 -0.0085957933226 2.28943427137e-23)
(0.0482862021128 -0.00733197756811 1.59741742649e-23)
(0.048457131668 -0.0104826512015 4.07833802203e-23)
(0.0489643508404 -0.00911774976893 1.90830299039e-23)
(0.049361284388 -0.0124498505465 3.90166083468e-23)
(0.0498385477709 -0.0109815340116 3.18206756983e-23)
(0.0503843604164 -0.0145075338294 3.6261228767e-23)
(0.0508553713517 -0.012943448892 1.60480920865e-23)
(0.0515041790429 -0.0166837795539 5.12879975081e-23)
(0.0519873394079 -0.0150144140171 3.2263755757e-23)
(0.0526907827079 -0.0189599419126 4.68594178385e-23)
(0.0531965567546 -0.0172059578656 4.11166666843e-23)
(0.0539001617259 -0.0213429457933 1.77192456332e-23)
(0.054451992607 -0.0195322635773 2.8041850795e-23)
(0.0550510009688 -0.0238246463118 -1.22840499789e-22)
(0.0557060671254 -0.0220000639046 8.94951467031e-24)
(0.055892000002 -0.0263913779939 -6.47193682955e-22)
(0.0568384427948 -0.0246155093402 -1.85118466843e-22)
(0.0575170937311 -0.0274009591813 -9.84559580212e-22)
(0.0502432440562 -0.00146221484748 -1.27642351951e-22)
(0.0515250102345 -0.000663877428347 -1.66981959724e-22)
(0.0492842424117 -0.00297397692585 -7.17748274803e-23)
(0.0504337557178 -0.00210049974749 -9.7747268791e-23)
(0.0488117794135 -0.00453393305289 -1.50047118673e-23)
(0.0496470445921 -0.00353549710341 -3.62873369606e-23)
(0.0489405455136 -0.00614576553893 1.94245806453e-23)
(0.049537813852 -0.00503420849057 1.92083598779e-23)
(0.0494979254285 -0.00782265235275 1.2162861455e-23)
(0.0499632756871 -0.00660244299385 1.32337856362e-23)
(0.0503206705619 -0.00957783744411 1.01203253819e-23)
(0.0507197519009 -0.00824262974275 8.31604814606e-24)
(0.0513182729231 -0.0114275082209 8.85215943803e-24)
(0.0516884545098 -0.0099724022872 4.97013294285e-24)
(0.0524510836717 -0.0133875000912 1.20506190764e-23)
(0.0528155987813 -0.0118122687814 -4.81870304169e-24)
(0.0536920336462 -0.0154735114468 2.20924249332e-23)
(0.0540735550369 -0.0137806433855 1.02845177038e-23)
(0.0550066012055 -0.017709801377 2.22990996408e-23)
(0.0554329866031 -0.015903267446 1.56361927354e-23)
(0.0563480996102 -0.0201084257163 1.92721198321e-23)
(0.0568506661088 -0.0182095370149 1.96321112815e-23)
(0.0576360281687 -0.0227041653811 -5.33284523836e-23)
(0.0583017211378 -0.0207315209848 1.59641318713e-23)
(0.0586793194644 -0.0255305142427 -5.224843641e-22)
(0.0596645350318 -0.0235135103381 -1.22666234222e-22)
(0.0607239913501 -0.0266404741771 -9.10997295709e-22)
(0.051645006481 -0.00129173611247 -1.37086876564e-22)
(0.0528168377158 -0.000567643277306 -2.02036523381e-22)
(0.0507312025101 -0.00262567771421 -6.22597782713e-23)
(0.0517677964919 -0.00182450305444 -1.15413673924e-22)
(0.0503116711605 -0.00401328456211 -2.07426521539e-24)
(0.0510347737607 -0.00308489093734 -3.18650621014e-23)
(0.0505027481378 -0.00546246949444 1.30175648687e-23)
(0.0509871604543 -0.00440882200598 5.7789455798e-24)
(0.0511333908758 -0.00698196508361 9.38697232719e-24)
(0.0514829820095 -0.00580769165228 1.90467148967e-24)
(0.0520446065844 -0.00858712315788 3.16585570698e-24)
(0.0523251680158 -0.00728444586278 6.24266449109e-24)
(0.0531513594532 -0.0102966665078 -8.70072953687e-24)
(0.0533982872753 -0.00885882297697 -5.53981265789e-24)
(0.0544151624605 -0.0121333528953 -6.58480441425e-24)
(0.0546525761749 -0.0105543837209 -1.5235748082e-23)
(0.0558099345918 -0.0141237889763 3.82828550604e-24)
(0.0560642435974 -0.0123972951986 -5.53608227286e-24)
(0.0573066779632 -0.0163004104707 1.29692043762e-23)
(0.0576097809344 -0.0144232685944 6.52917503222e-25)
(0.0588645900164 -0.018712700872 1.63241233207e-23)
(0.0592630186672 -0.0166771625971 1.46511790842e-23)
(0.0604206358111 -0.0214019978917 -5.33736499668e-23)
(0.0609909155385 -0.0192134665447 3.22379624103e-23)
(0.0618482521192 -0.0244668731926 -5.1117916583e-22)
(0.0627291598163 -0.0221084730855 -4.08722661224e-23)
(0.0643410183241 -0.0254870789995 -7.44849362514e-22)
(0.0528618834679 -0.00110203949789 -1.80363320741e-22)
(0.053918942681 -0.000460743678475 -2.60183711513e-22)
(0.0519973020351 -0.00224724000513 -8.50189577541e-23)
(0.0529130887809 -0.00152579786531 -1.48728747271e-22)
(0.0516377097089 -0.00345146110092 -2.40118513062e-23)
(0.0522391364805 -0.00259738011507 -6.75229468172e-23)
(0.0518969985076 -0.00472063912714 -5.33394779928e-24)
(0.0522565523985 -0.0037307957388 5.29964958483e-24)
(0.0526078228142 -0.00606411815394 -1.23963634643e-24)
(0.0528267577922 -0.00494221650071 -3.06301914596e-25)
(0.0536169017493 -0.00749820098689 -2.46300387378e-24)
(0.0537596227431 -0.00623464221801 -1.83367594984e-24)
(0.0548444033267 -0.0090448364563 -1.2074831203e-23)
(0.0549453400067 -0.00762889564108 -1.12036919989e-23)
(0.0562561476201 -0.0107311842068 -1.41870259406e-23)
(0.0563393386722 -0.00915169627553 -1.04416610134e-23)
(0.0578328636902 -0.0125915990182 -8.71145027567e-24)
(0.0579250096292 -0.0108343971611 -1.41065710809e-24)
(0.0595557137319 -0.0146710244934 2.33489221131e-24)
(0.0596894342958 -0.0127187691821 -3.66486776382e-24)
(0.061401920205 -0.0170274482522 3.05650181739e-23)
(0.0616195018728 -0.0148589637166 2.40973356593e-23)
(0.0633378817497 -0.019738083418 4.47393462547e-23)
(0.0637014157493 -0.0173252009128 7.53828281129e-23)
(0.0652947820207 -0.0229217102412 -2.74542462806e-22)
(0.0659124556453 -0.0202177905084 1.13057044733e-22)
(0.067022117435 -0.0267792547251 -1.32958787619e-21)
(0.0681980653535 -0.0236862341119 -3.31956600899e-22)
(0.0678501601658 -0.0316458654534 -4.9333978893e-21)
(0.0701968496703 -0.0281271532904 -2.42626428919e-21)
(0.0709896987449 -0.0332130081951 -6.42699832314e-21)
(0.0538806173978 -0.000894868063844 -2.28549138043e-22)
(0.0548138851266 -0.000348977066063 -3.24069017935e-22)
(0.0530708065961 -0.00183913247763 -1.31232736334e-22)
(0.0538574873608 -0.00120628260843 -1.98993117905e-22)
(0.0527748507816 -0.00284434639586 -3.82114459262e-23)
(0.0532445774054 -0.00207248952232 -1.07648475813e-22)
(0.053104429879 -0.00391626941045 1.03272954695e-23)
(0.0533288197994 -0.00299833753121 3.49820201236e-23)
(0.0538982682747 -0.00506324908605 -9.00341518003e-25)
(0.0539742047112 -0.0040024183862 1.65753711725e-23)
(0.0550100343665 -0.00630211587014 -1.0574364075e-23)
(0.0549990552537 -0.0050872824945 1.21803744307e-24)
(0.0563659805942 -0.00765653327311 -9.57052180934e-24)
(0.056300368288 -0.00627370537631 -8.52957067108e-24)
(0.0579385324418 -0.00915795058434 2.33470781905e-24)
(0.0578413336423 -0.00758988865787 -6.26378351973e-24)
(0.0597178855688 -0.0108428400254 3.63592540377e-24)
(0.0596103520834 -0.009069030351 1.42266945386e-23)
(0.0616985034724 -0.0127616512794 1.80975756842e-23)
(0.0616084875967 -0.0107551417578 -9.05829495641e-26)
(0.0638770878279 -0.0149797792748 6.89151455983e-23)
(0.0638376020911 -0.0127052475943 3.53532823353e-23)
(0.0662536385037 -0.0175867667707 1.43700526591e-22)
(0.0663080933489 -0.0149954006753 9.82421863472e-23)
(0.0688227255843 -0.0207187425181 5.56429066393e-23)
(0.0690438784232 -0.0177314845492 2.09095278113e-22)
(0.0714406436086 -0.0245862821956 -1.4286330139e-21)
(0.0720648839821 -0.0210571462206 -4.26064004293e-24)
(0.073550313681 -0.0295697848281 -3.91986472303e-21)
(0.0751795947783 -0.0254375580127 -2.35689160153e-21)
(0.0775788255865 -0.0302460488736 -2.564405189e-21)
(0.0546900163968 -0.000676950773891 -2.94512997798e-22)
(0.0539365397098 -0.00140325264435 -1.75408857384e-22)
(0.053704699196 -0.00219265255611 -3.44550097633e-23)
(0.0541042640312 -0.00304762769434 4.12300958266e-23)
(0.0549803721787 -0.00397609907477 1.86937501336e-23)
(0.0561944708533 -0.00499404316393 3.26283084694e-24)
(0.0576801082309 -0.00612524865778 -5.22283238147e-24)
(0.0594170408802 -0.00739946462122 5.6282031998e-24)
(0.0614045590495 -0.00885728246674 1.05001861852e-23)
(0.0636510895013 -0.0105458101228 1.71651237015e-23)
(0.066173938205 -0.0125318471403 6.46803230841e-23)
(0.069001334081 -0.0149042159499 1.63636937869e-22)
(0.0721908066717 -0.0177800074656 1.49191731431e-22)
(0.0757285906404 -0.0213574192515 -9.32519227673e-22)
(0.0791735203561 -0.026049138151 -1.00143206749e-21)
)
;

boundaryField
{
    back
    {
        type            calculated;
        value           uniform (0 0 0);
    }
    sides
    {
        type            calculated;
        value           nonuniform List<vector> 0();
    }
    bottom
    {
        type            calculated;
        value           uniform (0 0 0);
    }
    front
    {
        type            calculated;
        value           uniform (0 0 0);
    }
    atmosphere
    {
        type            calculated;
        value           nonuniform List<vector> 0();
    }
    floatingObject
    {
        type            calculated;
        value           nonuniform List<vector> 0();
    }
    procBoundary7to6
    {
        type            processor;
        value           nonuniform List<vector> 
11
(
(0.047517748254 -0.0332169628207 -4.43491726738e-21)
(0.0503215255347 -0.0313852942115 -5.34221388125e-21)
(0.0529140919903 -0.0298683349243 -3.38702630382e-21)
(0.0556582988835 -0.0291412978574 -2.25269566576e-21)
(0.058948398374 -0.0287377719964 -1.55227830199e-21)
(0.0627925525158 -0.0280842818219 -1.73224763214e-21)
(0.0653310036824 -0.0296931950935 -2.31698614581e-21)
(0.0647015212431 -0.0346797627747 -6.46069768797e-21)
(0.0672231478793 -0.0379346562029 -6.78909345542e-21)
(0.074630744278 -0.0361594722038 -4.9584933961e-21)
(0.0822884707532 -0.0323219209275 -1.6333713874e-21)
)
;
    }
    procBoundary7to8
    {
        type            processor;
        value           nonuniform List<vector> 
17
(
(0.0357142414963 -0.00128935187801 -2.29916180307e-22)
(0.0344847776274 -0.00373216693614 -4.51972965736e-22)
(0.0335260732704 -0.00615677400528 -2.00416167735e-22)
(0.0331557331715 -0.008604502812 4.51449990707e-23)
(0.0332509420386 -0.0110552283292 1.77110307219e-22)
(0.0336080625406 -0.0135246616961 1.80157557235e-22)
(0.0341070997407 -0.0160125533628 1.51032924326e-22)
(0.0346909117946 -0.0185214298685 1.34322181526e-22)
(0.0362726355728 -0.0194980698947 1.14973570205e-22)
(0.0378603356844 -0.0204053682624 7.90805072517e-23)
(0.0385523543663 -0.0229535104072 7.52686517308e-23)
(0.03926152797 -0.025559895406 1.99402186048e-23)
(0.0410031131097 -0.0266378401726 -1.73717856203e-22)
(0.0427702369174 -0.0275577476196 -3.77874216692e-22)
(0.0434506744689 -0.0304692667892 -1.54010015259e-21)
(0.0451565382297 -0.0316852122131 -2.45232300508e-21)
(0.046764719363 -0.0323969865126 -3.13025414722e-21)
)
;
    }
    procBoundary7to9
    {
        type            processor;
        value           nonuniform List<vector> 
16
(
(0.0554909386518 -0.00023500137811 -3.91123421104e-22)
(0.0545839876641 -0.000867915712717 -2.33537158878e-22)
(0.0540342947754 -0.00151161864815 -1.21345847343e-22)
(0.0541842509463 -0.00221184022234 4.95734791151e-23)
(0.0549032668228 -0.00298775358574 2.54979238105e-23)
(0.0560176879773 -0.00384057325308 6.27766105476e-24)
(0.057432290916 -0.0047895331131 -2.04092295846e-24)
(0.059116199053 -0.00586257021033 -3.68117727737e-24)
(0.0610686452986 -0.00709208900441 1.07809444023e-23)
(0.0632972189426 -0.00851940979121 3.85908612252e-24)
(0.0658235126711 -0.0101973916934 1.02121420774e-23)
(0.0686800050024 -0.01220323425 5.67276957435e-23)
(0.0719189546788 -0.0146276654545 1.07758801452e-22)
(0.0756414238679 -0.0175565765572 3.42599442544e-23)
(0.0798704919891 -0.0215607440135 -1.95648658118e-21)
(0.0838509388246 -0.0255349148049 6.79597970182e-22)
)
;
    }
}


// ************************************************************************* //
