/*--------------------------------*- C++ -*----------------------------------*\
| =========                 |                                                 |
| \\      /  F ield         | OpenFOAM: The Open Source CFD Toolbox           |
|  \\    /   O peration     | Version:  v2012                                 |
|   \\  /    A nd           | Website:  www.openfoam.com                      |
|    \\/     M anipulation  |                                                 |
\*---------------------------------------------------------------------------*/
FoamFile
{
    version     2.0;
    format      ascii;
    class       volScalarField;
    location    "2.7";
    object      ddt0(k);
}
// * * * * * * * * * * * * * * * * * * * * * * * * * * * * * * * * * * * * * //

dimensions      [0 2 -3 0 0 0 0];


internalField   nonuniform List<scalar> 
1984
(
-0.00192175271752
-0.00219510713206
-0.00228795581227
-0.00232457164547
-0.0023445108923
-0.00236005621875
-0.00237476981934
-0.00238930163617
-0.00240385560824
-0.00241846409038
-0.00243330676503
-0.00244997654841
-0.00247726169343
-0.00254314969765
-0.00269190551926
-0.00291437659786
-0.00226894957957
0.00513771091145
0.0295259796545
0.0181740693625
-0.00220743166163
-0.00265168166753
-0.00279572897654
-0.00284744351082
-0.00287076007227
-0.00288673256137
-0.00290161473131
-0.00291629591503
-0.00293118156329
-0.00294662888732
-0.00296259382526
-0.00298304551356
-0.00302015683284
-0.00311021886466
-0.0032973086891
-0.00337637969646
-0.00124835437728
0.00907644190317
0.0147087012562
0.000288950013769
-0.00229621899212
-0.00278647952614
-0.00294379775973
-0.00299943997514
-0.0030230979864
-0.00303849941306
-0.00305215142204
-0.00306575461739
-0.00307940365755
-0.00309365058053
-0.00310857918948
-0.00312799838857
-0.00316591523246
-0.00325925685534
-0.00346168771359
-0.00359799186287
-0.0014954516821
0.00950525598192
0.0149003635884
-0.0042255695768
-0.00233309738098
-0.00283720134112
-0.00299956938696
-0.00305561846783
-0.00307852819926
-0.00309280820465
-0.00310542527346
-0.00311800787724
-0.00313090699353
-0.00314397443067
-0.00315830724814
-0.00317748391084
-0.00321587683756
-0.00331378712037
-0.00352962540922
-0.00378199193656
-0.00229279294904
0.00783597248796
0.0178061086822
-0.00141144859646
-0.002353777289
-0.00286086774492
-0.00302483361269
-0.0030803576469
-0.00310223444715
-0.00311546120588
-0.00312721974669
-0.00313908728695
-0.00315124021266
-0.00316390655985
-0.00317787378671
-0.00319787541212
-0.00323905605781
-0.00334476421764
-0.00358311275987
-0.00395959633213
-0.00323139457459
0.00517855894541
0.020074444703
0.00161861306535
-0.00236992903352
-0.00287739067539
-0.00304125227825
-0.00309587855781
-0.00311675318905
-0.00312906726689
-0.00314004281288
-0.00315126803481
-0.0031630067093
-0.00317541641267
-0.00318958085946
-0.0032106900864
-0.00325566779058
-0.00337084207799
-0.00363690886387
-0.00411389274119
-0.00408639972153
0.00211578166786
0.0211403059344
0.00392289173609
-0.00238531197357
-0.00289183028928
-0.00305533523569
-0.00310906502665
-0.00312904527263
-0.00314060497217
-0.0031508771281
-0.00316157697055
-0.00317293998472
-0.00318527676083
-0.00319962422289
-0.00322203185396
-0.00327080002404
-0.00339564896817
-0.00368069277088
-0.00422363389635
-0.00468278503934
-0.00160401203482
0.0156457896522
0.00697154566582
-0.00240012083671
-0.00290605627527
-0.00306899251741
-0.00312188501623
-0.003141073081
-0.00315192015282
-0.003161680396
-0.00317190450039
-0.00318294824795
-0.00319509566037
-0.00320982928006
-0.00323337635041
-0.00328531604177
-0.00341598046054
-0.00371656617378
-0.00430452203219
-0.00488680492129
-0.00294157168388
0.0094406936124
0.0234351326603
-0.00241478022244
-0.00292029102535
-0.00308265632606
-0.00313476372448
-0.00315326116683
-0.00316348108101
-0.00317269830639
-0.00318253533127
-0.00319331695539
-0.0032054071857
-0.00322025892678
-0.00324440521548
-0.00329819836349
-0.0034329593886
-0.00374051761456
-0.00429564265463
-0.00494735597985
-0.00364486538938
0.00110528239364
0.00707856036491
-0.0024293313328
-0.00293464892416
-0.00309639909533
-0.00314768954364
-0.00316556683882
-0.0031753029834
-0.00318402492517
-0.00319347640718
-0.00320396644694
-0.00321584244376
-0.00323089068807
-0.00325534958421
-0.00330958836432
-0.00344332828379
-0.00373670991222
-0.00429967159733
-0.00500791177154
-0.00402131882362
0.00495104614375
0.00478937473316
-0.00244231556177
-0.00294970562964
-0.00311064706205
-0.00316082299295
-0.00317795053989
-0.00318717541806
-0.00319551348239
-0.00320458670092
-0.00321480170205
-0.00322644425389
-0.00324139030506
-0.00326566933635
-0.00331838134896
-0.00344671724027
-0.00373648680332
-0.00429181081902
-0.00499768955897
-0.0038726883346
0.00190777186842
-0.151243808824
-0.00245516067608
-0.00296438054913
-0.00312479158993
-0.0031740193043
-0.00319042067539
-0.00319909456244
-0.00320699058597
-0.00321572683799
-0.00322558175279
-0.00323692517589
-0.00325148990408
-0.00327491829638
-0.00332605781128
-0.00345029509144
-0.00373205959034
-0.00427305864799
-0.00495332946603
-0.00385589011433
-0.00365776298607
-0.171834936024
-0.00246784101117
-0.00297909757381
-0.00313884797916
-0.00318711776141
-0.00320278624715
-0.00321092523598
-0.003218381356
-0.00322670578009
-0.00323622942879
-0.00324717720471
-0.00326129522166
-0.00328388037855
-0.00333305817464
-0.00345250117906
-0.00372449823567
-0.00424604699984
-0.00492915346724
-0.00412940436312
0.00162984388395
-0.168135304565
-0.00248024941708
-0.00299373476151
-0.00315270940855
-0.00320004457626
-0.00321498566687
-0.00322259267218
-0.00322961252737
-0.00323751006438
-0.00324660486849
-0.00325715087643
-0.00327072892342
-0.00329245842899
-0.0033395664048
-0.00345416539307
-0.00371630935424
-0.0042168464213
-0.00489191528417
-0.00474073278671
-0.00184280752279
0.136749712834
-0.00249233126554
-0.00300815533081
-0.00316637814929
-0.00321268713893
-0.00322693810322
-0.00323401908191
-0.00324052505891
-0.00324803360834
-0.00325674217198
-0.003266798488
-0.00327986306749
-0.00330071069848
-0.00334595257675
-0.00345672433423
-0.00371262871056
-0.00420561773793
-0.00488948203377
-0.00440608930746
0.0046815381911
0.00389121048697
-0.00250411162885
-0.00302228677254
-0.00317977887526
-0.00322511028927
-0.00323854521975
-0.00324503520451
-0.00325118171664
-0.00325824163928
-0.00326643452986
-0.00327613904913
-0.00328851104802
-0.00330857146829
-0.00335225460693
-0.00346078461659
-0.00371565778754
-0.00421972501528
-0.00491798443628
-0.00286589317384
0.0345489465308
-0.0187855542442
-0.00251549153565
-0.00303610249869
-0.00319285751105
-0.00323710265567
-0.00324982981122
-0.00325579798708
-0.00326142655452
-0.00326786138425
-0.00327585402631
-0.00328504651578
-0.00329690091216
-0.00331616170215
-0.0033585445001
-0.00346507692441
-0.00371949296925
-0.00424351555298
-0.00503603847312
-0.0033416686836
0.0367446692247
0.00984678345044
-0.00252502004273
-0.00304931634306
-0.0032054139414
-0.00324872637571
-0.00326062744616
-0.00326592432165
-0.00327119043322
-0.00327751293464
-0.00328480170638
-0.0032934504156
-0.00330455030474
-0.00332282910604
-0.003363649425
-0.00346719681127
-0.00371721300652
-0.00426025694935
-0.0052807357013
-0.0050336450819
0.0379497101068
0.0904793179779
-0.00253178291233
-0.00306135764812
-0.00321727956242
-0.00325957556848
-0.00327076616006
-0.00327575813051
-0.00328055541808
-0.00328636032929
-0.00329328198181
-0.00330144159089
-0.00331200076668
-0.00332946119206
-0.00336872039345
-0.00346880894795
-0.00371312875492
-0.00427204702454
-0.00550177658543
-0.00645500609091
0.0323310246899
0.139176108735
-0.0025371930077
-0.00307151730753
-0.00322803173323
-0.00326962787177
-0.00328022777386
-0.00328467136535
-0.00328911947776
-0.00329460653249
-0.00330118272711
-0.00330899009549
-0.0033190403093
-0.00333573015329
-0.00337360242506
-0.0034710487623
-0.00371323842788
-0.00429001831635
-0.00563209100774
-0.00739049933868
0.0139099126443
0.138836517376
-0.00254153678907
-0.00308009574344
-0.00323736400318
-0.00327862292673
-0.00328866418896
-0.0032927420449
-0.0032969271099
-0.00330217243496
-0.00330850395769
-0.00331599329898
-0.00332562039874
-0.00334162369577
-0.0033782271536
-0.0034737018442
-0.00371734880971
-0.0043195208639
-0.00572851696426
-0.00711062822537
0.00413895474499
0.0315032927703
-0.0025448078614
-0.00308731270758
-0.00324506812924
-0.00328614204617
-0.0032959277273
-0.00329984721543
-0.00330387272056
-0.00330895192799
-0.003315099733
-0.0033223583886
-0.00333165702706
-0.00334706957748
-0.00338244288209
-0.0034760762206
-0.00372255314142
-0.00435267752278
-0.00582277758699
-0.00731888492284
-0.000867564555064
0.00322305023575
-0.00254700048352
-0.00309332607249
-0.00325129102683
-0.00329239783293
-0.00330200007061
-0.0033057712761
-0.00330978175277
-0.00331487168639
-0.00332096909544
-0.00332809620767
-0.00333713805393
-0.00335199474277
-0.0033860289297
-0.0034777787018
-0.00372659108264
-0.00438444548849
-0.00592732132543
-0.00761161599525
-0.003757891417
-0.000715565039178
-0.00254815508898
-0.00309819831473
-0.00325616255055
-0.00329737671296
-0.00330699494633
-0.0033107993869
-0.00331478820636
-0.00331985941822
-0.00332592886467
-0.00333305001779
-0.0033420015937
-0.00335637148924
-0.00338905584577
-0.00347852079491
-0.00372842284805
-0.0044085315955
-0.00601508426243
-0.00812379982616
-0.00747527980323
-0.00639836833037
-0.00254829089447
-0.00310186587497
-0.00325974123063
-0.0033010712923
-0.00331080176902
-0.00331474025037
-0.00331890493255
-0.00332408053535
-0.00333019895553
-0.00333721097831
-0.00334604215191
-0.00336008961838
-0.00339157744863
-0.00347831870584
-0.00372722507498
-0.00442407813342
-0.00609771276095
-0.00888507383812
-0.00945218740525
0.0445692711062
-0.00254745039859
-0.00310423112279
-0.00326204620763
-0.00330355751276
-0.00331350192167
-0.00331768437952
-0.0033220849274
-0.00332750479068
-0.00333386652554
-0.00334087462245
-0.00334963373435
-0.00336315769822
-0.00339320969494
-0.00347707910674
-0.00372419594084
-0.00444450070466
-0.00625177084327
-0.00949082248139
-0.0183430420069
-0.0488086535989
-0.00254590938394
-0.00310524019315
-0.00326301129599
-0.0033047926949
-0.00331500467879
-0.00331945472936
-0.00332412417515
-0.00332981872145
-0.0033364898802
-0.00334382362197
-0.00335277897908
-0.0033660806399
-0.00339477391335
-0.0034753742857
-0.00372087262743
-0.00447942135011
-0.0065475307796
-0.00998661243269
-0.00980838768343
0.115374513279
-0.00254383383185
-0.00310474338153
-0.00326259252983
-0.00330489103526
-0.00331555484705
-0.00332036612734
-0.00332538125011
-0.0033314013221
-0.00333839045628
-0.00334611415666
-0.00335525963596
-0.00336837629036
-0.00339582621637
-0.00347354652506
-0.0037178746536
-0.00451768101761
-0.00693159235216
-0.0116809271313
0.00461603967341
0.213806551652
-0.00254118520258
-0.00310276203512
-0.00326077505221
-0.00330382084006
-0.00331511055296
-0.00332039376158
-0.00332581916036
-0.00333224421654
-0.00333958113217
-0.0033477992438
-0.0033572315226
-0.00337022368951
-0.0033964017531
-0.00347038694416
-0.00370896473521
-0.00453163465101
-0.00725734805579
-0.0134909728644
-0.0155317899488
0.0277008428183
-0.00253780867854
-0.00309926280245
-0.00325757038864
-0.00330159889876
-0.00331369323462
-0.00331956506488
-0.0033254890696
-0.00333240819294
-0.00334026183189
-0.0033489919388
-0.00335880512124
-0.00337168364564
-0.00339613749475
-0.00346427020236
-0.00369321880647
-0.00454998930283
-0.00763379519554
-0.0153501605113
-0.0251436132674
-0.0127313219788
-0.00253390296856
-0.00309410528341
-0.00325297068917
-0.00329823626892
-0.00331130951718
-0.00331788864638
-0.0033243965983
-0.00333190158513
-0.00334038801451
-0.00334974331693
-0.00336006205119
-0.00337280657438
-0.00339476707614
-0.00345459428734
-0.00367571926336
-0.00459934643288
-0.00804294562734
-0.0174391932835
-0.0360549929372
0.0658076268521
-0.00252922916379
-0.0030874624702
-0.00324693361085
-0.00329369680791
-0.00330793841847
-0.00331534314301
-0.00332253333983
-0.00333072493048
-0.00333996918851
-0.00335008811549
-0.0033610387931
-0.00337363698275
-0.0033925263934
-0.00344499345956
-0.00368070227005
-0.00473748340559
-0.00843813876046
-0.0183260699836
-0.0371666306867
-0.203445410143
-0.00252381581952
-0.00307915287572
-0.00323950851237
-0.0032880169508
-0.00330360772589
-0.00331193988484
-0.00331989831823
-0.00332886747932
-0.00333895732212
-0.00335000727574
-0.00336173907718
-0.0033742945633
-0.00339140166744
-0.00345044371653
-0.00376955597258
-0.00509732048917
-0.00886838429486
-0.0175628968903
-0.0398182941354
-0.124133770597
-0.00251769108604
-0.00306918194898
-0.00323062126135
-0.00328107444633
-0.0032982173363
-0.0033076267858
-0.00331648073665
-0.00332633815074
-0.00333734211159
-0.00334945426205
-0.00336223587441
-0.00337543077224
-0.00339545278486
-0.00348514288822
-0.00394909616513
-0.00553641222879
-0.00903057456973
-0.014922878554
-0.0266122413453
-0.02996137442
-0.00251093345349
-0.00305727374168
-0.00322020862177
-0.003272874497
-0.00329174422071
-0.0033023543238
-0.00331220386688
-0.00332303277671
-0.00333514404018
-0.00334844517259
-0.00336263677594
-0.00337842557057
-0.00340907634307
-0.00354351595149
-0.00411550643569
-0.0058282719849
-0.00973862755968
-0.0175875901886
-0.0281774080998
0.116479921997
-0.00250359116405
-0.00304382112103
-0.00320819576547
-0.00326332280623
-0.00328410814697
-0.00329607888732
-0.0033070110723
-0.00331889022864
-0.00333214035648
-0.00334677678626
-0.00336255589322
-0.00338142718299
-0.00342000908541
-0.00356668854323
-0.00410475186924
-0.00574055161712
-0.0100662102067
-0.0180905317849
0.0102476997468
0.188397267593
-0.00249306776044
-0.0030299763379
-0.0031954048784
-0.00325268602298
-0.00327532686202
-0.00328871682444
-0.00330083019783
-0.00331385210091
-0.00332828017147
-0.00334410532935
-0.00336052879574
-0.00337615167944
-0.00338918659302
-0.00342001473281
-0.00366909014647
-0.00503872914065
-0.0093357950443
-0.0137809228976
0.007690508031
0.0991049153134
-0.00247980007728
-0.00301494896471
-0.00318144407145
-0.00324084417094
-0.00326532732074
-0.00328013303843
-0.00329347567376
-0.00330772352221
-0.00332345671359
-0.00334053017746
-0.00335759448766
-0.00336957099358
-0.0033603231486
-0.00331666492837
-0.00343920768861
-0.00484602381877
-0.00901245717555
-0.0145384366077
-0.0202376079087
-0.131382204845
-0.00246518214406
-0.00299842556008
-0.00316592416515
-0.00322747815846
-0.00325389379904
-0.00327024344144
-0.00328493768955
-0.00330056977461
-0.0033177728626
-0.00333635611815
-0.00335454724391
-0.00336578568784
-0.00335466823905
-0.00334670196212
-0.00371373373655
-0.00549247791174
-0.00892334650424
-0.0117877028931
-0.00216609635806
0.0118068029648
-0.00244930113391
-0.00298043520312
-0.00314884483953
-0.00321252252515
-0.00324092807438
-0.00325892377976
-0.00327512589065
-0.00329226611595
-0.00331112178352
-0.00333154308907
-0.00335205792159
-0.00336892869367
-0.00338203035768
-0.00346087071828
-0.0039438800234
-0.00533500796716
-0.00772657885635
-0.00898257402889
0.00845561634371
0.0266388492126
-0.00243211145264
-0.00296104661443
-0.00313021775557
-0.00319598630823
-0.0032263779876
-0.00324613427867
-0.00326392713533
-0.00328277632474
-0.00330345778988
-0.0033258422406
-0.00334844207107
-0.00336672013814
-0.00336644863686
-0.00332186700387
-0.00325009053864
-0.00355526712623
-0.00646551188695
-0.0114443134244
0.0139508271477
0.100214290001
-0.00241373549362
-0.00294041955068
-0.00311024757991
-0.00317786460932
-0.00321030413461
-0.00323177060868
-0.00325139453471
-0.00327218096481
-0.00329491371312
-0.00331942991651
-0.0033442851076
-0.00336516768749
-0.00336573209774
-0.00329600528549
-0.00306625483316
-0.00294096400173
-0.0060806660481
-0.0128071546132
-0.00278649553887
0.0139540239005
-0.00239426860863
-0.00291887925055
-0.00308909444824
-0.00315850732064
-0.00319265995107
-0.00321614092671
-0.00323764269231
-0.00326076712273
-0.00328623299602
-0.00331331847438
-0.00334039856488
-0.00336272460241
-0.00335762898826
-0.0032435121425
-0.00284089858808
-0.00249138983437
-0.00662336656518
-0.0155781887638
-0.0101407696847
0.000425453035781
-0.00237390383687
-0.00289674746826
-0.00306720813873
-0.00313789252093
-0.0031738345721
-0.00319900392188
-0.00322303965988
-0.00324910040608
-0.00327770097978
-0.00330726986472
-0.00333610270919
-0.00335803684535
-0.00333617560178
-0.00313641713824
-0.00244732009705
-0.00176749146102
-0.00568699434341
-0.0119148675005
-0.00851000716473
0.00162225625249
-0.00235308529443
-0.00287484979973
-0.00304535596988
-0.00311696677602
-0.00315413017886
-0.00318124826689
-0.00320758212928
-0.00323604096169
-0.00326574402864
-0.00329493546163
-0.00332332755194
-0.00334187361474
-0.00328677415427
-0.00297613868997
-0.00195456046385
-0.000704778240541
-0.00209513561526
-0.000744706291181
-0.000468790218095
0.00383118376886
-0.0023325072226
-0.00285415540066
-0.0030245353736
-0.00309651427298
-0.00313446380873
-0.00316231395585
-0.00318793467995
-0.00321231112204
-0.00322686583653
-0.00324430133524
-0.00326752109428
-0.00327784148612
-0.00315597243096
-0.00274091718221
-0.00149938505115
0.000553757020809
0.00195619655908
-0.000683192192173
-0.0090410140614
-0.00579425028683
-0.00231297816006
-0.00283572708252
-0.00300585372223
-0.00307765941392
-0.00311543548768
-0.00314027484579
-0.00315657375301
-0.0031530188749
-0.00307407577148
-0.00311150229208
-0.00314766186102
-0.0031471289551
-0.00290719101313
-0.00245961756538
-0.00124149871129
0.00030225447739
-0.00151988843469
-0.0160310888899
-0.0276147042145
-0.016867909832
-0.0022955508248
-0.00282075306
-0.00299050478854
-0.00306122398149
-0.00309646335387
-0.00310527597452
-0.00302274569026
-0.00278905926488
-0.00278477293512
-0.00280258000839
-0.00302088098757
-0.00304195437268
-0.00249087709058
-0.00195191933363
-0.000730300374217
-0.00164640072436
-0.0127222878427
-0.0465632621504
-0.0682569565484
-0.04171162332
-0.00228252782539
-0.00281119572133
-0.00298100025251
-0.0030493297461
-0.00307372112623
-0.00304447717531
-0.00291753854285
-0.00272571491654
-0.00214510449384
-0.00100874807639
-0.000793006775093
-0.00687468637679
-0.0279877640294
-0.0539660931108
-0.101941774979
-0.220947796241
-0.00227162094038
-0.00280448410048
-0.00297464914628
-0.00304197430853
-0.00306310783871
-0.00302313773676
-0.00283602352426
-0.00244131311203
-0.00124030665135
0.000390891448232
-0.00348096252982
-0.0195161053545
-0.0360150513881
-0.0575163351068
-0.0792282121057
-0.110423727563
-0.00227157036
-0.00280444063093
-0.00297461721614
-0.00304195876334
-0.00306311318098
-0.00302317594276
-0.00283611103418
-0.00244133487926
-0.00123984942963
0.000391268747391
-0.00348287592695
-0.0195248337648
-0.0360239319426
-0.0575482323152
-0.0792515298844
-0.110421352301
-0.0022824155009
-0.0028110877147
-0.002980916315
-0.00304928922117
-0.00307376566083
-0.00304460108239
-0.00291772461927
-0.00272589189793
-0.00214459335009
-0.00100782829935
-0.000793760998819
-0.0068820260502
-0.0280025881976
-0.0540284151803
-0.102395756271
-0.221256145545
-0.00229541085932
-0.00282061320341
-0.00299040144623
-0.00306118759877
-0.00309650377914
-0.0031054300718
-0.00302305378278
-0.00278930262334
-0.00278498777732
-0.00280287948987
-0.00302111696516
-0.0030419243115
-0.00249121055479
-0.00195204024189
-0.000731954630182
-0.00164807940471
-0.0127227450158
-0.0466781520606
-0.0686866673224
-0.0420420001355
-0.00231284817894
-0.00283558963516
-0.00300573315873
-0.00307757695189
-0.00311541208785
-0.00314033641357
-0.00315667425509
-0.00315326451056
-0.00307438585032
-0.00311171435114
-0.00314783256157
-0.00314703818941
-0.0029065471067
-0.00245858073814
-0.00124149409484
0.00030280886866
-0.00151271564071
-0.0160725528724
-0.0280064952277
-0.0171807757679
-0.00233240245526
-0.0028540392449
-0.00302442813283
-0.00309643479199
-0.0031344313428
-0.00316234958771
-0.00318805137169
-0.00321250224249
-0.0032271040056
-0.00324453871318
-0.00326768972988
-0.00327786326041
-0.00315556712339
-0.00274003810273
-0.00149837571388
0.000554832914906
0.00196112065114
-0.000670435737759
-0.00923888886267
-0.00602985859767
-0.00235302212513
-0.00287476947622
-0.00304527199273
-0.00311689583799
-0.00315409138714
-0.00318125767111
-0.00320764725133
-0.00323615639496
-0.00326589057401
-0.00329508494863
-0.00332343486104
-0.00334184772144
-0.00328652776299
-0.00297565720688
-0.00195360174962
-0.000703327885006
-0.00209053239543
-0.000735679408241
-0.000527324696153
0.00372353033822
-0.00237388868178
-0.00289670434629
-0.00306714219106
-0.00313782478158
-0.00317367348857
-0.00319898271807
-0.0032230500785
-0.00324914172633
-0.00327776671905
-0.00330734865975
-0.00333617523616
-0.00335802463517
-0.0033360316158
-0.00313624185502
-0.00244674750408
-0.00176640303201
-0.00568329604672
-0.0119063676637
-0.00853674562418
0.00157185898846
-0.00239427653066
-0.00291882741941
-0.00308901875482
-0.00315833050162
-0.00319252981113
-0.00321591465686
-0.00323758234274
-0.00326074728441
-0.00328623992685
-0.00331334890852
-0.00334045337081
-0.0033627417708
-0.00335758862568
-0.00324354961315
-0.00284073988281
-0.00249096848969
-0.00662037422066
-0.0155712873317
-0.010147125021
0.000400130196226
-0.00241376676685
-0.0029404345967
-0.00311019629485
-0.00317782369341
-0.00321017936202
-0.0032317078651
-0.00325132273272
-0.00327210543694
-0.0032949467182
-0.00331954579644
-0.0033444858317
-0.00336539085434
-0.00336596104174
-0.00329629960689
-0.00306637123026
-0.00294110039432
-0.00607900401665
-0.0128036867925
-0.00279825777422
0.0139215920811
-0.00243215379583
-0.00296107508231
-0.00313022646117
-0.00319595287912
-0.00322633921696
-0.00324605953633
-0.00326388560029
-0.00328274702304
-0.00330347456234
-0.00332591394769
-0.00334865683753
-0.00336687663511
-0.00336663007121
-0.00332208698491
-0.00325010636539
-0.00355534765485
-0.00646436913435
-0.0114408725256
0.0139451487818
0.100184998933
-0.0024493561807
-0.00298048153178
-0.00314886938551
-0.00321252404959
-0.00324091229739
-0.00325889578529
-0.00327508827998
-0.00329227521493
-0.00331117777168
-0.00333164903047
-0.00335228122376
-0.00336913877676
-0.0033823094247
-0.00346127595873
-0.00394426569464
-0.00533553755189
-0.00772533270938
-0.00897773727506
0.008443850352
0.0266135536861
-0.00246524179672
-0.00299847999072
-0.00316596129952
-0.00322749484826
-0.00325389543895
-0.00327024038802
-0.00328494514106
-0.00330059971648
-0.0033178556233
-0.00333647311258
-0.00335475182042
-0.00336599091702
-0.0033549452487
-0.00334710260123
-0.00371417529276
-0.00549310068413
-0.00892230583142
-0.0117783441755
-0.00211468810608
0.0118248936207
-0.00247985796339
-0.00301500369469
-0.0031814853322
-0.00324086860318
-0.00326534114883
-0.00328014733734
-0.00329350625799
-0.00330780075758
-0.00332358603336
-0.00334068111665
-0.00335782562725
-0.00336977066456
-0.00336055250356
-0.00331701412688
-0.00343959679536
-0.00484632685825
-0.00901188717757
-0.0145377049406
-0.020225155453
-0.131310866223
-0.00249312906519
-0.00303004105662
-0.00319546232935
-0.00325273175521
-0.00327536532479
-0.00328876521158
-0.00330089442454
-0.00331396202949
-0.00332846565262
-0.00334430484239
-0.00336078507777
-0.00337635814832
-0.00338943203358
-0.00342039519517
-0.00366928711923
-0.00503904033148
-0.00933552266381
-0.0137805996635
0.00758045749644
0.098979657088
-0.00250364875997
-0.00304387761425
-0.00320824065886
-0.00326334980053
-0.00328412318516
-0.0032960922137
-0.00330703987081
-0.00331897586492
-0.00333233440861
-0.00334698114188
-0.00336283770359
-0.00338164404376
-0.00342018575655
-0.00356706404701
-0.00410508120534
-0.00574114949895
-0.0100663498123
-0.01808948515
0.0103055826566
0.188430514567
-0.00251098717233
-0.00305735052318
-0.00322026343023
-0.00327290495553
-0.00329175809627
-0.00330236281348
-0.00331222718066
-0.00332311100598
-0.00333529656632
-0.00334865388073
-0.00336291825578
-0.00337857348503
-0.00340928052108
-0.0035436719337
-0.00411586743981
-0.00582911781032
-0.00973876312716
-0.0175861930355
-0.0281506380002
0.117422782454
-0.00251774385516
-0.00306929614966
-0.00323070349412
-0.00328111331576
-0.00329822997848
-0.00330763083527
-0.00331649700998
-0.00332640626712
-0.00333749064515
-0.00334966511643
-0.00336252355326
-0.00337563726389
-0.00339559570067
-0.00348533942335
-0.00394944351575
-0.00553718378162
-0.00903095750858
-0.0149204590124
-0.0266109403013
-0.0297405979582
-0.00252388085066
-0.00307929120226
-0.00323959794647
-0.00328806010371
-0.00330362148136
-0.00331193983297
-0.00331991008931
-0.00332892598766
-0.0033390927936
-0.00335020641851
-0.00336199854861
-0.0033745068696
-0.0033915875599
-0.00345061938188
-0.00376980471673
-0.00509807972407
-0.00886978930899
-0.0175677778273
-0.0398347350465
-0.124071516129
-0.00252931011579
-0.00308762880359
-0.00324704973209
-0.00329375709692
-0.00330795656976
-0.00331534169294
-0.00332253936309
-0.00333077646236
-0.00334009408914
-0.00335027282447
-0.00336127537596
-0.00337383439292
-0.00339269582631
-0.00344516441801
-0.00368086903294
-0.00473795337378
-0.00843994831133
-0.0183345408997
-0.0372442557344
-0.204769776876
-0.00253400886514
-0.0030942941173
-0.00325310394342
-0.00329830722891
-0.00331133326784
-0.00331788850518
-0.00332439872034
-0.00333194799118
-0.00334050661785
-0.00334991346231
-0.00336028042414
-0.00337297766424
-0.00339490613355
-0.0034547452596
-0.00367591586654
-0.00459999802024
-0.00804484231299
-0.0174428699911
-0.036040588888
0.0671852516206
-0.0025379412255
-0.00309946783195
-0.00325771978707
-0.00330168219282
-0.0033137245107
-0.00331956678175
-0.00332548521081
-0.00333244380661
-0.00334037065146
-0.00334914856848
-0.00335900554621
-0.00337182630195
-0.00339624898531
-0.00346441360171
-0.00369347729254
-0.00455085493877
-0.00763570451367
-0.0153623932069
-0.0255242238831
-0.0151004334931
-0.00254134147317
-0.00310298881855
-0.0032609446252
-0.0033039197232
-0.00331515082147
-0.00332039552047
-0.00332580147796
-0.0033322536191
-0.00333966440259
-0.00334793684221
-0.00335740704659
-0.00337034547914
-0.00339650013472
-0.00347050677741
-0.00370926255164
-0.00453262436232
-0.00726026350363
-0.0135527406753
-0.0179381479796
0.0151017273945
-0.00254401283043
-0.00310499645335
-0.00326278871437
-0.00330501319459
-0.00331561263857
-0.00332037289262
-0.00332534863267
-0.00333136704154
-0.00333834415769
-0.00334621778096
-0.00335540823847
-0.00336849159432
-0.0033959079633
-0.00347364228006
-0.00371818264221
-0.00451872913404
-0.00693805838046
-0.0120297483873
-0.0134821198663
-0.0328160868079
-0.00254611318022
-0.0031055244554
-0.00326324235684
-0.00330494686709
-0.00331508762845
-0.00331946292881
-0.0033240835175
-0.00332975037123
-0.00333636204106
-0.00334392144885
-0.00335291664136
-0.00336620314588
-0.00339483928166
-0.00347542765035
-0.00372116339953
-0.00448035161485
-0.00654321441551
-0.00973377388602
-0.00720590460896
-0.0137240644881
-0.00254769895385
-0.0031045628114
-0.00326229757275
-0.00330369417987
-0.00331352714678
-0.00331760599707
-0.0033219259465
-0.00332731003245
-0.00333364940991
-0.00334095655567
-0.0033498385996
-0.00336338267273
-0.0033933246465
-0.00347705970497
-0.00372437781155
-0.00444550777295
-0.00623860681948
-0.00903610771966
-0.0196989792568
-0.164097519856
-0.00254855635752
-0.00310220485826
-0.00326003181455
-0.00330128187409
-0.0033109373334
-0.00331481436805
-0.00331890979758
-0.00332407191641
-0.00333020822345
-0.00333732735105
-0.00334620903841
-0.00336022249898
-0.00339158761522
-0.00347825925504
-0.00372759371458
-0.00442616741066
-0.0061014952805
-0.00916965940828
-0.025798987497
-0.147741723237
-0.00254842028549
-0.00309851433375
-0.00325642563127
-0.00329755526163
-0.00330709696301
-0.00331083860309
-0.00331478299031
-0.00331981719051
-0.00332590662575
-0.00333306104396
-0.00334201315943
-0.0033563321338
-0.00338891615715
-0.00347838931912
-0.00372892150829
-0.00441123787672
-0.00602389956826
-0.00858200402724
-0.0213689068693
-0.142312722895
-0.00254726812546
-0.00309362239006
-0.00325154564153
-0.0032925875262
-0.0033021380919
-0.00330587376762
-0.00330984515017
-0.0033149018036
-0.00332095682041
-0.00332805101009
-0.00333704095374
-0.00335181196947
-0.00338575393967
-0.00347758506038
-0.00372726711789
-0.00438683168727
-0.00592280739793
-0.00778896271846
-0.0139980952092
-0.150060587129
-0.00254507082762
-0.00308757238622
-0.00324528229645
-0.00328631951194
-0.00329607913673
-0.00329996530585
-0.00330396023532
-0.00330899947608
-0.0033150919717
-0.00332227288627
-0.00333147053086
-0.00334674717899
-0.00338198316693
-0.00347570690623
-0.00372307906795
-0.00435410140748
-0.00579682788261
-0.00715132502597
-0.00156048576727
-0.00712530562866
-0.00254178959392
-0.00308030089386
-0.00323751684792
-0.00327874489171
-0.00328878264107
-0.00329285246002
-0.0032970149962
-0.00330221795429
-0.00330847820858
-0.00331585371867
-0.00332534614335
-0.00334117687185
-0.00337759173584
-0.00347305187253
-0.00371746824889
-0.00431927855611
-0.00566782967016
-0.00657164992832
0.00329202890434
0.0104302139233
-0.00253742187457
-0.00307162887608
-0.00322809667187
-0.00326972152044
-0.00328031530266
-0.00328477479206
-0.00328920785581
-0.00329465264932
-0.00330114591745
-0.00330883210278
-0.00331867131626
-0.00333515276548
-0.0033727514015
-0.00346998630147
-0.00371251503209
-0.00428727751679
-0.00552535526252
-0.00615029722393
0.00563960065959
0.00973965597779
-0.00253194650934
-0.00306133065289
-0.00321726783451
-0.00325963969788
-0.00327091419727
-0.00327584358047
-0.00328064397989
-0.003286395472
-0.00329321887645
-0.00330122202144
-0.00331158488492
-0.00332874267764
-0.00336763113596
-0.0034671991803
-0.00371097370191
-0.00426589909146
-0.00539822163373
-0.006143641261
0.00984034862526
0.103834441695
-0.00252511548184
-0.00304921805017
-0.00320538558136
-0.00324875882933
-0.00326073645076
-0.00326619443675
-0.00327139245559
-0.00327755086765
-0.00328473444262
-0.00329321315209
-0.00330407359845
-0.00332207890953
-0.00336244765647
-0.00346508772752
-0.00371328997237
-0.00424961757176
-0.00520441724403
-0.0052796193153
0.0178413307501