/*--------------------------------*- C++ -*----------------------------------*\
| =========                 |                                                 |
| \\      /  F ield         | OpenFOAM: The Open Source CFD Toolbox           |
|  \\    /   O peration     | Version:  v2012                                 |
|   \\  /    A nd           | Website:  www.openfoam.com                      |
|    \\/     M anipulation  |                                                 |
\*---------------------------------------------------------------------------*/
FoamFile
{
    version     2.0;
    format      ascii;
    class       volScalarField;
    location    "2.7";
    object      epsilon_0;
}
// * * * * * * * * * * * * * * * * * * * * * * * * * * * * * * * * * * * * * //

dimensions      [0 2 -3 0 0 0 0];


internalField   nonuniform List<scalar> 
1984
(
0.00215068425473
0.0023908096796
0.00255379277605
0.00261648154032
0.00264697229224
0.00266810726998
0.00268705728257
0.00270591280919
0.00272553758866
0.00274690375522
0.00277319322123
0.00281360441197
0.00289300082292
0.00306533036826
0.00342468631617
0.00413086781126
0.00562193971939
0.0108069233632
0.041507786822
0.198125464865
0.00240268563
0.00244391115923
0.00265279541664
0.00273061036734
0.00276419831584
0.00278428114874
0.00280077107054
0.00281662673985
0.00283299824267
0.00285110474453
0.002874944724
0.00291567748695
0.00300121824755
0.00318844271348
0.0035667678949
0.00427130401058
0.00578948761757
0.0114543839155
0.0415314257471
0.160525676714
0.0025663453618
0.00265402832359
0.00289549287568
0.00298494341062
0.0030220687188
0.00304307389638
0.00305989054719
0.00307610991422
0.00309297648423
0.00311215582186
0.00313801377752
0.00318310062723
0.00327783397107
0.00348276880871
0.00389314859033
0.00464390770222
0.00618840513555
0.0118939262625
0.0432115689859
0.162950219355
0.00262958116655
0.00273380361131
0.00298813439113
0.00308188246281
0.0031198332058
0.00314063392168
0.00315710108899
0.00317309418389
0.00319002906641
0.00320942092037
0.00323590453638
0.00328199855592
0.00337802438423
0.00358446749211
0.00399635037558
0.00474757200574
0.0062151710917
0.0114040629531
0.0414605906216
0.162074525777
0.00265968678992
0.00276851286228
0.00302774850401
0.00312273989865
0.00316041979891
0.00318054889702
0.00319636748956
0.00321187771136
0.00322845338262
0.00324769312863
0.00327395300382
0.00331954980805
0.00341389340728
0.00361617962377
0.00401975673536
0.00475511842281
0.00612119711357
0.0105829605838
0.0380553958084
0.16046264208
0.00267939253752
0.00278854547625
0.00304959719613
0.00314463629983
0.00318166090145
0.00320096353525
0.00321600961737
0.00323086515244
0.00324690207022
0.00326566295432
0.00329134138169
0.0033357509434
0.00342738448984
0.00362381663248
0.00401677316253
0.00473395213003
0.00601605415612
0.00979571529272
0.034225415076
0.158726123242
0.00269583474117
0.00280402701187
0.00306582626972
0.00316053832673
0.00319682291735
0.00321529941079
0.00322956184528
0.00324370566251
0.00325912302916
0.00327727261602
0.00330214994089
0.00334511734594
0.00343379314112
0.0036244192319
0.00400757120352
0.00471171267642
0.00597107313735
0.00948866819755
0.030810162944
0.156459864931
0.00271120883676
0.00281807790393
0.00308035419748
0.00317468285426
0.00321027433339
0.00322798846151
0.00324151114309
0.00325497067905
0.00326974993342
0.00328722677648
0.00331124916336
0.00335269008096
0.00343828840964
0.00362310002327
0.00399708229558
0.00469050282618
0.00594585258261
0.00938401226864
0.0289180536432
0.150629509527
0.00272606642556
0.00283166412018
0.00309435778014
0.00318833214249
0.00322330825702
0.00324034774256
0.00325319829135
0.00326602326734
0.00328018111394
0.00329701209579
0.00332015382611
0.00336001589559
0.00344249342655
0.00362131035243
0.00398558825227
0.00466672518979
0.00591601868844
0.00929082414118
0.0276423385258
0.136978158617
0.00274052296005
0.00284499260155
0.00310813052582
0.00320178496305
0.00323622503432
0.00325267367253
0.00326493618173
0.00327717899951
0.00329077189213
0.00330696087985
0.00332923702867
0.00336750263231
0.00344675839015
0.00361941783871
0.00397376094073
0.00464124924911
0.005867866632
0.0090165106461
0.024744137732
0.125063982746
0.00275457644529
0.00285807558073
0.00312168930961
0.00321507560292
0.00324903983676
0.00326497062566
0.00327671233959
0.00328844523511
0.00330151158044
0.00331711344816
0.00333853315686
0.00337519615871
0.00345120594781
0.00361759398096
0.00396176102448
0.00461511901333
0.00582248863993
0.00890114333959
0.0249795004498
0.135277583812
0.00276821942249
0.0028708892913
0.00313499690319
0.00322814768278
0.00326169492332
0.00327717186802
0.00328845489754
0.00329973138532
0.00331232801254
0.00332736341471
0.00334797700824
0.00338306474519
0.0034558371571
0.00361590666334
0.00394998565656
0.00458993825049
0.00578837432164
0.0089131664945
0.0260317149722
0.133991586099
0.00278141141466
0.002883394862
0.00314800559782
0.00324094690681
0.00327411527162
0.00328919339646
0.00330007453495
0.00331094144649
0.00332310686918
0.00333763384769
0.00335747041944
0.00339105320133
0.00346069628575
0.00361462905516
0.00393880048679
0.0045660601815
0.00576220652791
0.00885745510075
0.0241766043394
0.118283710887
0.00279409487659
0.00289555607787
0.00316065359195
0.00325340619666
0.00328623827629
0.00330096344854
0.00331149154635
0.00332199876058
0.00333377950792
0.00334784026844
0.00336696558791
0.00339917529069
0.00346593995263
0.00361430678353
0.00392957138718
0.00454516883382
0.0057391948075
0.00885396874209
0.0226687053081
0.0882800367233
0.0028062279184
0.00290733369888
0.00317288436824
0.00326547055712
0.00329800241711
0.00331241645603
0.00332262335796
0.00333282708572
0.0033442869984
0.00335792503687
0.00337644866015
0.00340744816835
0.00347179083943
0.00361576288172
0.00392475091655
0.00453231680809
0.00570611584285
0.00865657020503
0.0220207221047
0.110980303179
0.00281781227396
0.00291866192619
0.00318467656975
0.00327710435811
0.0033093440179
0.00332348366277
0.00333345140436
0.00334337723475
0.00335451565698
0.00336783968703
0.00338578370207
0.00341580363346
0.00347824456107
0.00361938316565
0.00392650630785
0.0045383136328
0.00570754514397
0.0084687366482
0.0226595065609
0.158854663521
0.00282885361376
0.0029295468366
0.00319598990957
0.00328824240347
0.0033202639104
0.00333417272717
0.00334390646333
0.00335355818659
0.00336451937153
0.00337752012154
0.0033949952751
0.00342418174539
0.00348504117009
0.00362402919078
0.00393249137865
0.00456810343122
0.00583035536421
0.00881403022231
0.0237898207099
0.153995980262
0.00283928474816
0.00293987305953
0.0032067494509
0.00329891291663
0.00333069693173
0.00334438256018
0.00335397299726
0.00336350865312
0.00337418064989
0.00338687416278
0.00340385330448
0.00343214704898
0.00349121452928
0.00362733711902
0.00393626304537
0.00460623594388
0.00604744351579
0.00946324043314
0.022453414466
0.127300384655
0.0028490052722
0.00294958707732
0.00321694258376
0.00330899256183
0.00334061591914
0.0033542325511
0.00336367002661
0.00337304163174
0.00338355197076
0.00339602680537
0.003412619712
0.00344006167196
0.00349716504595
0.00362956679457
0.00393663863381
0.0046365618795
0.00625215653353
0.0101378261894
0.0222582653362
0.110588698497
0.00285801776199
0.00295879362234
0.00322652816278
0.00331851447719
0.00335003829395
0.00336352381357
0.0033728769754
0.00338216982701
0.0033925891734
0.00340491923867
0.00342119112588
0.00344783485853
0.00350298482915
0.00363158246706
0.00393593926833
0.00465663640117
0.00639513346842
0.0107398199002
0.0244239291923
0.109528256684
0.00286627843802
0.00296740331637
0.00323553415886
0.00332745724586
0.00335886225518
0.00337227750196
0.00338159832885
0.0033908701983
0.00340126266886
0.00341351365124
0.00342954191611
0.00345545345147
0.00350874158638
0.00363378511977
0.00393570235391
0.00467216593017
0.00649717709811
0.011227186668
0.0284512163223
0.142463141162
0.00287369207078
0.00297536983132
0.00324387012749
0.00333573818722
0.00336707224918
0.00338046893068
0.00338980666317
0.00339910685284
0.00340952942669
0.00342177267328
0.00343762979946
0.00346288014549
0.00351438610399
0.0036360383545
0.00393562739581
0.00468444162247
0.00657899258121
0.0117088296818
0.0318579905315
0.153797799184
0.00288020807409
0.00298263490488
0.00325150503007
0.00334334067071
0.0033746395089
0.0033880565365
0.00339745815296
0.00340685071763
0.0034173677631
0.00342967413623
0.00344543048655
0.00347007944371
0.00351982879586
0.0036380763373
0.00393488864527
0.00469216541863
0.00663749936617
0.012046780494
0.0339366995681
0.155650307244
0.00288578910585
0.0029891634701
0.00325839395875
0.00335022522532
0.0033815255972
0.0033950052383
0.00340452100917
0.00341407092454
0.0034247528792
0.00343718794562
0.0034529222821
0.00347705143349
0.00352508283913
0.0036398101227
0.00393298141174
0.00469481142039
0.00667725078793
0.0123354094922
0.0355031017754
0.155767321898
0.00289036854693
0.00299483489745
0.00326443246078
0.00335631081851
0.00338766437391
0.00340126120759
0.00341095070024
0.00342071879806
0.00343164308242
0.00344429225018
0.00346009950564
0.00348379992741
0.00353021348472
0.0036414119315
0.00393054691154
0.00469465226101
0.00670102528736
0.0124695905909
0.0352914794206
0.139173318472
0.00289397514527
0.00299955278154
0.00326952442084
0.00336151448667
0.00339298754378
0.00340676423695
0.00341669495824
0.00342675022469
0.00343799414653
0.0034509725392
0.00346696421466
0.00349038735195
0.00353538860475
0.00364338998855
0.00392940922227
0.00469944684657
0.00670741917798
0.0120513745304
0.0307715108779
0.0883477321912
0.00289671654419
0.00300328524033
0.00327355469334
0.00336573348531
0.00339741832548
0.00341146051724
0.00342171589234
0.00343214602216
0.00344380935959
0.00345722677926
0.00347355581727
0.00349693636411
0.00354094993769
0.00364675812601
0.00393306332136
0.00472449969561
0.0067701549708
0.0113918379434
0.022522412318
0.0439726561668
0.00289866482547
0.00300605293434
0.00327647962423
0.0033688987817
0.00340088761317
0.00341527729705
0.00342593149557
0.00343682049314
0.0034490108795
0.0034629973591
0.00347985962006
0.00350350650793
0.00354711591471
0.00365215027724
0.00394363261005
0.00478529216608
0.0070737395389
0.0123505397837
0.0231473456426
0.078362790539
0.00289964623035
0.00300762881477
0.00327816840986
0.00337091775572
0.00340332182903
0.00341815381721
0.00342929265747
0.0034407412421
0.00345358302426
0.00346829471582
0.0034858947257
0.00351013136355
0.00355390195894
0.00365910335426
0.00395767292392
0.00486215887104
0.00753614658777
0.0146689872792
0.0342871486103
0.140062316799
0.00289946085244
0.00300784406103
0.00327849889781
0.00337170106886
0.00340464702883
0.00342002559655
0.00343174241116
0.00344384500897
0.00345744569353
0.00347303322005
0.00349159266718
0.00351678140775
0.00356147194631
0.00366878768322
0.00397959463481
0.00495426685716
0.00798121063365
0.0165630075394
0.0414332230111
0.151457943312
0.00289814695033
0.00300675824082
0.00327739715524
0.00337116701714
0.00340477965992
0.00342080237862
0.00343318612361
0.0034460350404
0.0034605063508
0.00347711781037
0.00349685521156
0.00352343155632
0.00357045630688
0.00368539716038
0.00402645974972
0.00509798507135
0.00837136842532
0.0174864694748
0.0408339686388
0.0901672223509
0.00289550205479
0.00300417054335
0.00327480966889
0.00336923310058
0.00340363414045
0.00342040620789
0.00343354683824
0.00344723329362
0.00346266919098
0.00348041253418
0.00350151510727
0.00353006503328
0.00358202820934
0.00371624086388
0.0041276341915
0.00537257718758
0.00885332358377
0.0179601897488
0.0405739218606
0.10884866884
0.00289144646386
0.0030000552813
0.00327058709943
0.00336578705069
0.00340110673991
0.00341874230617
0.00343273753957
0.00344735648377
0.00346385065014
0.00348281015439
0.00350547439643
0.00353675627133
0.00359750510735
0.00376809627367
0.00430543621812
0.00583102333433
0.00947951151469
0.0174305141393
0.0352606401701
0.0782913169865
0.00288591668541
0.00299424472226
0.00326465690844
0.00336074569806
0.00339711694247
0.00341573118477
0.00343067656398
0.0034463057529
0.00346393445351
0.00348421451024
0.00350861871786
0.00354341600047
0.00361658070171
0.00383621687368
0.00452856293716
0.00637544729563
0.0102826243452
0.0173920858717
0.0301960337501
0.0508981264964
0.00287889326024
0.00298663773131
0.00325690284512
0.00335400572316
0.00339158151371
0.00341129975376
0.0034272989556
0.00344402018094
0.00346284881643
0.0034845066966
0.00351067365721
0.00354918270031
0.00363495783319
0.00389817299013
0.0047110676212
0.00684364444624
0.0114821461746
0.0203159345928
0.0356858103031
0.0613433959146
0.00287029464072
0.00297716515856
0.0032472440814
0.00334548459501
0.00338441859465
0.00340537935597
0.00342255640047
0.00344048629024
0.0034605917981
0.00348361617502
0.0035112852057
0.00355187246606
0.00364208320213
0.00391679984799
0.00476354680738
0.00704750919226
0.0122775930271
0.0223901735348
0.0409020618932
0.100813110945
0.00285974014659
0.00296580859495
0.00323566115894
0.00333513110125
0.00337555088087
0.00339790994539
0.00341641834406
0.0034356959636
0.00345721615939
0.00348164399807
0.00351037299295
0.00355022201744
0.00363277379906
0.00388294239866
0.00470282323947
0.00707212785432
0.0125224680084
0.022527958121
0.0443139122902
0.124286233897
0.00284732115674
0.00295256802554
0.00322212422689
0.00332289211199
0.00336493761996
0.00338885254267
0.00340886089801
0.00342966833804
0.00345281884828
0.00347897676748
0.00350952993639
0.00355150173994
0.00363855041849
0.00390858405127
0.00480939365683
0.00737128714713
0.0130914886068
0.023536589229
0.0441152680753
0.124358587468
0.00283281026316
0.00293746021669
0.00320663837509
0.00330875239244
0.00335253705172
0.00337816039315
0.00339983499551
0.00342237815584
0.00344736205171
0.0034754887263
0.00350845504762
0.00355528296361
0.00365972110108
0.00399414893404
0.00506080481285
0.00782446052462
0.0136720773947
0.0249393595558
0.0486697187513
0.152005155132
0.00281617003912
0.00292047341606
0.00318921961693
0.00329270467492
0.00333832529245
0.00336580315541
0.00338934971714
0.00341384844312
0.0034408766878
0.00347113557476
0.00350635497166
0.00355609257416
0.00366589367434
0.00400804874687
0.0050571554883
0.00774130293365
0.0138220174643
0.0263606506211
0.0531330735071
0.154287992005
0.00279730022345
0.00290165740159
0.00316991711498
0.00327479889574
0.00332232174988
0.00335180761221
0.00337744584537
0.00340415807471
0.00343350625525
0.00346601749376
0.00350253198177
0.00354809690759
0.00362863369372
0.00385481241002
0.0046199874758
0.00710532236734
0.0138498668342
0.0275526987183
0.0518463781971
0.131558740509
0.0027765541366
0.00288124009984
0.00314894891326
0.00325514344828
0.00330460716645
0.0033362053321
0.0033641285885
0.00339335548949
0.00342544743684
0.00346091539719
0.00350021257085
0.0035464425067
0.00361818432355
0.0038045116369
0.00446559378438
0.00688551621162
0.0143698758129
0.0306295719942
0.0625658436791
0.160162838207
0.00275402021151
0.00285949558937
0.00312658789733
0.00323400244535
0.0032852933578
0.00331901989748
0.00334932611591
0.00338125246339
0.00341635178778
0.00345530908671
0.00349834786222
0.00354726634632
0.00361818918024
0.00379927337114
0.00447290238822
0.0071005464746
0.0155568647099
0.0338578916309
0.069760654764
0.166860603665
0.002730035022
0.00283686934225
0.00310330325212
0.00321169664604
0.00326455616539
0.00330006878714
0.00333234906519
0.00336634148701
0.0034038638301
0.00344659786508
0.00349416757346
0.00354686200885
0.00362360034898
0.00383647082288
0.00465411763365
0.00776813087648
0.0172510148541
0.0371144443821
0.0753619917519
0.169075103607
0.00270519153632
0.00281404455034
0.00307977230828
0.00318873308028
0.00324239827726
0.00327838167563
0.00331027523556
0.00334279467231
0.0033790114182
0.00342509194192
0.00347705538487
0.00353085093639
0.00361729855033
0.00390090182441
0.00496402972127
0.00875757886106
0.0193325013153
0.0411782657821
0.082494980225
0.173213668449
0.00268033893867
0.00279189821839
0.00305685189339
0.00316559695228
0.00321828583185
0.0032506472348
0.00327412882042
0.00329221330607
0.00331269771381
0.00336158297948
0.00341726453993
0.00346463714108
0.00357484882639
0.00400549290021
0.00543471358978
0.0101508725039
0.0225076067431
0.0481162625689
0.0938395881141
0.180743002378
0.00265650093199
0.00277146028043
0.00303553631701
0.00314277253044
0.00319055624361
0.00320842084655
0.00319897730135
0.0031582200188
0.0031114910407
0.00316593070609
0.00323316820889
0.00328585390941
0.00346682312386
0.00415701309398
0.00615189401064
0.012152148149
0.0266908190228
0.0548315298281
0.100411738942
0.183547992595
0.00263459545892
0.00275370999961
0.00301680950403
0.00312065167527
0.00315665310852
0.00313434123006
0.00301155515131
0.00275538957842
0.00325762844922
0.0032943097281
0.00348183804022
0.00385565306149
0.00324282472661
0.00416734146788
0.00655324735102
0.013735769504
0.0307702812485
0.0607553103438
0.10488515628
0.183801235742
0.0026159796989
0.00273958039082
0.00300142110295
0.00310013502838
0.00312328801047
0.00307362614555
0.00289095917277
0.00308530429719
0.00403610821275
0.00441634007884
0.00757904596759
0.0161538277472
0.0343812325537
0.0619462165462
0.10297103131
0.178694070125
0.00260344659771
0.0027317898062
0.00299393264378
0.00309068811068
0.00310614846949
0.00303357858047
0.00279437495472
0.00279014424597
0.00436057820013
0.00565580733391
0.0111022840856
0.021833920085
0.0379383959605
0.0597860445824
0.0877991625584
0.1231223013
0.00260346196798
0.00273179590314
0.00299393663791
0.00309069124676
0.00310615183628
0.00303358012461
0.00279437219469
0.00279012790771
0.00436107057164
0.00565706079579
0.0111054359754
0.0218394966446
0.0379451516964
0.0597957128496
0.0878119707534
0.123128142957
0.0026160026101
0.00273959508534
0.00300143277808
0.00310014384209
0.00312329453618
0.00307362906132
0.0028909593722
0.00308525477166
0.00403675277129
0.0044178610597
0.00758250124319
0.0161598911915
0.0343888898828
0.0619645397186
0.103042031036
0.178736467024
0.00263463007463
0.0027537337296
0.0030168299178
0.00312066837375
0.00315666839143
0.00313436322517
0.00301158373113
0.00275542584989
0.00325766507557
0.00329436896256
0.00348195961121
0.00385599272986
0.00324343848183
0.0041687695593
0.00655610439407
0.0137398088986
0.0307760647043
0.0607769344019
0.104950953671
0.183840869256
0.00265654162309
0.00277149085437
0.00303556463587
0.00314279775714
0.00319057977715
0.0032084430963
0.00319899398363
0.00315823160971
0.00311151403494
0.00316597222065
0.0032332399775
0.00328600407475
0.00346722071613
0.00415796841768
0.00615398789379
0.0121554829057
0.0266964731885
0.054848589711
0.100469975931
0.183588451849
0.00268037786156
0.00279193072938
0.00305688466377
0.00316562794926
0.00321831614461
0.00325067850546
0.00327416130578
0.00329224785762
0.00331273892942
0.00336163234606
0.00341732400441
0.00346474232095
0.00357508733044
0.0040060632546
0.00543601274218
0.0101532893064
0.0225118717454
0.0481249474221
0.0938736399696
0.180774055095
0.00270522162924
0.00281407536506
0.00307980657036
0.00318876654847
0.00324243016685
0.00327841540828
0.00331031216692
0.00334283598127
0.0033790579097
0.00342514201622
0.00347710570751
0.00353091213951
0.00361742445623
0.00390121047927
0.00496470709604
0.00875893584916
0.0193349368779
0.0411835740556
0.082510992201
0.173230293651
0.00273005852365
0.00283690279957
0.00310334159561
0.00321173141468
0.00326457891218
0.00330010013755
0.00333238453339
0.00336638089958
0.00340390713532
0.00344664239431
0.003494209492
0.00354690015752
0.00362366421783
0.0038366422417
0.00465447795179
0.00776892495027
0.0172525026064
0.0371179459173
0.075372642757
0.169084493886
0.00275405507776
0.00285953238718
0.00312662742605
0.00323402855493
0.00328531754131
0.00331903702708
0.0033493577769
0.00338128791843
0.00341639341679
0.00345535382494
0.00349839432881
0.00354730693699
0.00361823985919
0.00379939463043
0.00447314826607
0.00710117890566
0.0155580933695
0.0338610266007
0.0697693909078
0.166867177613
0.00277661096186
0.00288129496739
0.00314900122364
0.00325519308402
0.00330464249364
0.00333624008937
0.00336416398544
0.00339339899123
0.00342551400642
0.00346099825698
0.00350031319462
0.00354654146704
0.00361829372352
0.00380468503639
0.00446589387807
0.00688626543463
0.0143711510269
0.0306323621268
0.0625739864578
0.160170589467
0.0027973664004
0.00290172113645
0.00316998262401
0.00327485802787
0.00332237580239
0.0033518556071
0.00337749448815
0.00340421507514
0.00343357909422
0.00346611310889
0.00350265326057
0.00354820523748
0.00362875241471
0.0038549927089
0.00462029156698
0.00710611639316
0.0138511566626
0.0275551485689
0.0518543197017
0.131568264119
0.00281624394246
0.00292054356926
0.00318929274118
0.00329277534148
0.00333839172182
0.00336586625287
0.00338941447194
0.00341392466892
0.00344097039021
0.00347124341317
0.00350648973538
0.00355621339091
0.00366603487652
0.00400826822632
0.00505750937377
0.00774207486085
0.0138233005297
0.0263642290677
0.0531489440133
0.154304009112
0.00283289688363
0.00293753813057
0.00320671977025
0.00330883436087
0.00335261890848
0.00337824244597
0.00339992005064
0.00342247277272
0.00344747338583
0.00347560989888
0.00350859274395
0.00355541452945
0.00365988594672
0.00399441885195
0.00506126337563
0.00782533832087
0.0136732429554
0.0249413245391
0.0486783829609
0.152015930446
0.00284741748643
0.00295265319228
0.00322221374529
0.00332298482179
0.00336503400704
0.00338895263805
0.00340896716382
0.00342978677187
0.00345295233873
0.00347911519542
0.00350967967424
0.00355164820145
0.00363873096596
0.00390887555232
0.00480989174933
0.00737208469614
0.013092542429
0.0235381128635
0.0441128427639
0.124365271965
0.0028598507836
0.00296590424636
0.00323576234755
0.0033352377767
0.00337566389298
0.00339802988642
0.003416544739
0.00343583500432
0.00345737401449
0.00348180135993
0.00351053902862
0.00355038690697
0.00363297421875
0.00388323702957
0.00470318083966
0.00707268314377
0.0125233678848
0.0225299233215
0.0443183280592
0.124315732891
0.00287039712849
0.00297725460146
0.00324733839741
0.00334558309987
0.00338452270413
0.0034054906715
0.00342267791381
0.0034406247947
0.00346075634153
0.00348378166316
0.00351146080908
0.00355205422178
0.00364228841108
0.00391708813902
0.00476389853132
0.007048029565
0.0122785082568
0.0223921968058
0.0409080389085
0.100850295046
0.00287898696327
0.00298672012864
0.00325699245342
0.00335410060953
0.00339168223772
0.00341140799462
0.00342741889519
0.00344415661329
0.00346300289005
0.00348467298533
0.00351084906752
0.00354936015564
0.00363516946424
0.00389845875428
0.00471150961309
0.00684437888079
0.0114830680854
0.0203180434753
0.0356937695616
0.0613905122238
0.00288599971452
0.0029943202537
0.003264743471
0.00336084027518
0.00339721803824
0.00341583989769
0.00343079615591
0.00344644077198
0.00346408663609
0.00348437979492
0.00350879386567
0.0035435966787
0.00361677873142
0.0038364878662
0.00452894238887
0.00637611147801
0.0102839038339
0.0173944440159
0.0302071729766
0.050943424469
0.00289152337974
0.00300012911938
0.00327067538254
0.00336588293521
0.00340120927727
0.00341885260029
0.00343285753667
0.00344749075692
0.0034640009346
0.003482971965
0.00350564756058
0.00353693620858
0.00359770160117
0.00376833651263
0.0043057918864
0.00583173476908
0.00948076159749
0.0174332725802
0.0352634487163
0.0782008357464
0.00289557449194
0.00300424225756
0.00327489608437
0.00336932866292
0.00340373743163
0.00342051736291
0.00343366713105
0.00344736693051
0.00346281715874
0.00348057231335
0.00350168667404
0.00353024191394
0.00358221742865
0.00371646647676
0.00412795005596
0.00537317306911
0.0088547921057
0.0179652665619
0.0405901117654
0.108907465626
0.0028982198027
0.00300683052391
0.00327748443546
0.00337126308625
0.00340488290765
0.00342091296434
0.00343330543334
0.00344616762369
0.00346065320283
0.00347727773636
0.00349702985028
0.00352360926826
0.00357064279923
0.00368561164168
0.00402674088152
0.00509849710369
0.00837264671784
0.017490596542
0.0408493239194
0.0902615022636
0.00289953627796
0.00300791870961
0.0032785861112
0.00337179624069
0.00340474888152
0.00342013447732
0.00343185985286
0.00344397640927
0.00345759355074
0.00347319640693
0.00349177515864
0.00351696576108
0.00356166507731
0.00366900407798
0.00397986424112
0.00495476208579
0.00798251896107
0.0165675691576
0.0414516329744
0.151278282483
0.00289972210752
0.00300770223082
0.00327825345303
0.00337101063217
0.00340342152711
0.00341826081308
0.0034294084095
0.00344087197259
0.00345373331044
0.00346846427272
0.00348608815594
0.00351032865291
0.00355411117822
0.00365933262424
0.0039579499026
0.00486265997606
0.00753751667828
0.0146731424419
0.0342697269669
0.13847424889
0.00289873850561
0.00300612181114
0.00327656089441
0.0033689889339
0.00340098555506
0.00341538352752
0.00342604705734
0.00343695135181
0.00344916949835
0.00346318332607
0.00348006670879
0.00350372100735
0.00354734721442
0.00365240216206
0.00394393169341
0.00478581266825
0.00707508441947
0.0123523647448
0.0228894549545
0.0550037421322
0.00289678546862
0.00300334725689
0.00327363092634
0.00336582081919
0.00339751535264
0.00341156818547
0.0034218344682
0.00343227888154
0.00344396721962
0.00345741115228
0.00347376555064
0.00349716924027
0.00354120454008
0.00364703436452
0.00393338074618
0.00472501417503
0.00677151467538
0.0114035712345
0.0230240069923
0.0536583753008
0.00289403098449
0.00299959844034
0.00326958848352
0.00336159470498
0.00339308264808
0.0034068752909
0.00341682296981
0.00342689670139
0.00343816675003
0.0034511732462
0.00346719274553
0.003490644242
0.00353567012017
0.00364369546921
0.00392975987009
0.00469997468721
0.00670913638017
0.0120866251225
0.0321949817184
0.117105733387
0.00289042856488
0.00299488703691
0.00326450366489
0.00335639865948
0.00338776687747
0.00340137805956
0.00341108365741
0.00342086700399
0.00343181060352
0.00344449028806
0.00346032556855
0.00348405370729
0.00353049008038
0.00364170594283
0.00393087160795
0.00469513750221
0.00670286753861
0.0124933646464
0.0354791388362
0.118482249922
0.00288584802237
0.00298921598572
0.00325846678951
0.00335031672987
0.00338163401694
0.00339512950162
0.00340466036346
0.00341422473348
0.00342492009979
0.00343737443614
0.00345312675921
0.00347727314897
0.0035253198447
0.0036400581663
0.003933246823
0.00469525116594
0.00668024116603
0.012366659661
0.035182316989
0.124263834045
0.00288026882337
0.00298269049824
0.00325158204884
0.00334343814727
0.00337475550601
0.00338818870473
0.00339760370377
0.00340700658939
0.00341753132082
0.00342984575896
0.00344560973803
0.00347026711061
0.00352002448408
0.00363827448465
0.00393508854687
0.0046926909036
0.00664499671812
0.0121469650539
0.0345449851254
0.141663642742
0.00287375220339
0.00297542467519
0.00324394816928
0.00333583938911
0.00336719407816
0.0033806075517
0.0033899567582
0.00339926263524
0.00340968543031
0.00342192597849
0.00343778014851
0.00346303027902
0.0035145367832
0.00363618161909
0.00393574654337
0.00468501278982
0.00659196370367
0.0119053053478
0.0335245859015
0.155063457122
0.00286633304188
0.00296745142415
0.00323560901289
0.00332755883204
0.0033589860515
0.00337241850839
0.0033817487876
0.00339102163973
0.00340140669702
0.00341364557012
0.00342966195704
0.00345556607785
0.00350885088531
0.00363387782
0.00393573462255
0.00467261926579
0.00651401439293
0.0115433065566
0.0319234467631
0.153147628806
0.00285806422174
0.00295883261784
0.00322660700282
0.00331863014655
0.0033501681535
0.00336366772387
0.00337302619902
0.00338231416102
0.00339271652131
0.00340502408626
0.00342127324959
0.00344790754739
0.00350305025019
0.00363162279795
0.00393587378408
0.00465672651217
0.00641172822779
0.0111510529928
0.0306141372067
0.151209496487
0.00284904236687
0.00294962198069
0.00321701734614
0.00330911547686
0.00334078758843
0.0033543871404
0.00336382133519
0.00337317609185
0.00338365866911
0.00339609563223
0.00341266470049
0.00344008130182
0.00349717288188
0.00362954104172
0.00393647557016
0.00463637615661
0.00626787296247
0.0105603180475
0.0273499199832
0.120405377285
0.00283932355988
0.002939920133
0.00320684163104
0.0032990363524
0.00333086294217
0.00334460431067
0.0033541613696
0.00336364138054
0.00337425938992
0.00338690838766
0.00340382556666
0.00343209666544
0.00349113538241
0.00362722014704
0.00393600183466
0.00460587056231
0.00605913257719
0.00974327951791
0.0246322002284
0.108735442419
0.00282889695429
0.00292959770985
0.00319607989319
0.00328839291296
0.00332042383713
0.0033343476674
0.00334407773347
0.00335372726892
0.00336454523162
0.00337743508968
0.00339479982529
0.00342388688799
0.0034847012215
0.00362365474189
0.00393201660342
0.00456761496128
0.00584009113742
0.00899124012231
0.0229077602138
0.0912963051556
0.00281786629811
0.00291873814826
0.00318477029763
0.00327721723041
0.00330948906526
0.00332364388419
0.00333359264625
0.00334346862543
0.00335453899667
0.00336775059349
0.00338557796529
0.00341557717595
0.00347797283345
0.00361908167523
0.00392616430431
0.00453785604276
0.00571181556902
0.0086198589019
0.023547740125
0.139090904826
0.00280629227385
0.00290742141951
0.00317297478963
0.00326557599677
0.00329811993119
0.00331254006399
0.00332274752839
0.0033328947995
0.00334426370274
0.00335784172703
0.00337623011437
0.00340724342412
0.00347153155269
0.00361547015018
0.0039244409524
0.00453187554065
0.00570088479294
0.0085814067016
0.0216327882622
0.126540787065
0.00279416242531
0.00289564562581
0.00316074017679
0.00325350536711
0.0032863472996
0.00330107187734
0.00331158508353
0.00332204886974
0.00333375622582
0.00334775562172
0.00336680012311
0.00339902562555
0.00346573952182
0.00361404505855
0.00392929209177
0.00454514957024
0.00573895803064
0.00878820555952
0.0208646930232
0.0712225151222
0.00278148594985
0.00288346099414
0.00314808282835
0.00324103740225
0.00327421442347
0.00328929156492
0.00330015827774
0.00331098340076
0.00332308494491
0.00333757561984
0.00335732995312
0.00339094727316
0.00346053683695
0.0036144031199
0.0039385049952
0.00456596478104
0.00576502305393
0.00882462795169
0.0216174298504
0.0826383734143
0.0027682676647
0.00287094302849
0.00313506494249