/*--------------------------------*- C++ -*----------------------------------*\
| =========                 |                                                 |
| \\      /  F ield         | OpenFOAM: The Open Source CFD Toolbox           |
|  \\    /   O peration     | Version:  v2012                                 |
|   \\  /    A nd           | Website:  www.openfoam.com                      |
|    \\/     M anipulation  |                                                 |
\*---------------------------------------------------------------------------*/
FoamFile
{
    version     2.0;
    format      ascii;
    class       volScalarField;
    location    "5.6";
    object      epsilon;
}
// * * * * * * * * * * * * * * * * * * * * * * * * * * * * * * * * * * * * * //

dimensions      [0 2 -3 0 0 0 0];


internalField   nonuniform List<scalar> 
164
(
0.000530836358539
0.000536027949923
0.000541952625051
0.000549537608693
0.000561793884777
0.000587821065774
0.000654568049126
0.000843324230552
0.00137780039701
0.00274378851551
0.00618634771664
0.0191918979502
0.0877162923012
0.000418084368023
0.000436784117551
0.0004823603213
0.000502020912932
0.00051787789621
0.000523005901256
0.000528139843422
0.000533716691615
0.000540010007045
0.000547796211348
0.000559909722846
0.000585266439436
0.000651036972248
0.000840472985328
0.0013786069559
0.0027501490394
0.00632137880073
0.0196878435552
0.0853564320645
0.000414107274188
0.000433173550311
0.00047853513567
0.000498195338174
0.000508006475883
0.000514290481317
0.00051958219737
0.000524950885014
0.00053090834063
0.000537669035355
0.000545866274712
0.000558406349485
0.000584478994192
0.00065117005341
0.00084279307287
0.00138631454517
0.00277977163303
0.00671067397025
0.0258728868298
0.173357980436
0.000410075532198
0.000429601342464
0.000474735802686
0.00049430874122
0.000504052523899
0.000510175655679
0.000515179930053
0.000520306036597
0.00052640539939
0.0005336823876
0.000542463747488
0.000556000193922
0.000584982208624
0.000655693979116
0.000851937413119
0.00140217584513
0.00279940165403
0.00673372622597
0.0264862441824
0.180084521321
0.000406127958641
0.000426207006358
0.000471069038174
0.000490397718486
0.000499695081499
0.000504871100301
0.000508194834759
0.0005112410019
0.000516306382027
0.000523845178296
0.00053314188616
0.000548309824303
0.000584864689921
0.000666310511809
0.000874756784427
0.00143820003765
0.00281003553779
0.00627151824555
0.0216056865727
0.144927768115
0.000402366056725
0.000423094402402
0.000467624834162
0.0004864289362
0.000494552325692
0.000496981852408
0.000494670720332
0.000487774097122
0.000487633574155
0.00049405694043
0.000503728354517
0.000522547457357
0.000577282861795
0.000684342201942
0.000920974432314
0.00151037615252
0.002855035995
0.00596825996721
0.0192607092415
0.138574978625
0.000398934026887
0.000420411144891
0.000464545702317
0.000482535781359
0.000488619410851
0.000485833254032
0.000470131234864
0.000430840176918
0.000518123702843
0.000513047103483
0.000524902294332
0.000565493589086
0.000544937106439
0.000718736741613
0.00101045388836
0.0016366805698
0.00296420397773
0.0059879235262
0.0174723282497
0.100916809603
0.00039592126374
0.000418091832365
0.000461927707629
0.000479128432304
0.000483335495662
0.000475916658598
0.000447490970296
0.000464215752885
0.000393930160243
0.000416792100884
0.000460499830415
0.000477238426906
0.000480332151627
0.00047045800598
0.000436308539043
0.0004320399588
0.000393886586849
0.000416766611984
0.000460482260788
0.000477226218373
0.000480321100574
0.000470443209695
0.00043630598733
0.000432113469294
0.000395859749267
0.00041803633893
0.000461888608662
0.00047909617375
0.000483301330165
0.000475877616849
0.000447466460109
0.000464209194407
)
;

boundaryField
{
    back
    {
        lowReCorrection 0;
        blending        stepwise;
        n               2;
        type            epsilonWallFunction;
        value           nonuniform List<scalar> 
164
(
0.000530836358539
0.000536027949923
0.000541952625051
0.000549537608693
0.000561793884777
0.000587821065774
0.000654568049126
0.000843324230552
0.00137780039701
0.00274378851551
0.00618634771664
0.0191918979502
0.0877162923012
0.000418084368023
0.000436784117551
0.0004823603213
0.000502020912932
0.00051787789621
0.000523005901256
0.000528139843422
0.000533716691615
0.000540010007045
0.000547796211348
0.000559909722846
0.000585266439436
0.000651036972248
0.000840472985328
0.0013786069559
0.0027501490394
0.00632137880073
0.0196878435552
0.0853564320645
0.000414107274188
0.000433173550311
0.00047853513567
0.000498195338174
0.000508006475883
0.000514290481317
0.00051958219737
0.000524950885014
0.00053090834063
0.000537669035355
0.000545866274712
0.000558406349485
0.000584478994192
0.00065117005341
0.00084279307287
0.00138631454517
0.00277977163303
0.00671067397025
0.0258728868298
0.173357980436
0.000410075532198
0.000429601342464
0.000474735802686
0.00049430874122
0.000504052523899
0.000510175655679
0.000515179930053
0.000520306036597
0.00052640539939
0.0005336823876
0.000542463747488
0.000556000193922
0.000584982208624
0.000655693979116
0.000851937413119
0.00140217584513
0.00279940165403
0.00673372622597
0.0264862441824
0.180084521321
0.000406127958641
0.000426207006358
0.000471069038174
0.000490397718486
0.000499695081499
0.000504871100301
0.000508194834759
0.0005112410019
0.000516306382027
0.000523845178296
0.00053314188616
0.000548309824303
0.000584864689921
0.000666310511809
0.000874756784427
0.00143820003765
0.00281003553779
0.00627151824555
0.0216056865727
0.144927768115
0.000402366056725
0.000423094402402
0.000467624834162
0.0004864289362
0.000494552325692
0.000496981852408
0.000494670720332
0.000487774097122
0.000487633574155
0.00049405694043
0.000503728354517
0.000522547457357
0.000577282861795
0.000684342201942
0.000920974432314
0.00151037615252
0.002855035995
0.00596825996721
0.0192607092415
0.138574978625
0.000398934026887
0.000420411144891
0.000464545702317
0.000482535781359
0.000488619410851
0.000485833254032
0.000470131234864
0.000430840176918
0.000518123702843
0.000513047103483
0.000524902294332
0.000565493589086
0.000544937106439
0.000718736741613
0.00101045388836
0.0016366805698
0.00296420397773
0.0059879235262
0.0174723282497
0.100916809603
0.00039592126374
0.000418091832365
0.000461927707629
0.000479128432304
0.000483335495662
0.000475916658598
0.000447490970296
0.000464215752885
0.000393930160243
0.000416792100884
0.000460499830415
0.000477238426906
0.000480332151627
0.00047045800598
0.000436308539043
0.0004320399588
0.000393886586849
0.000416766611984
0.000460482260788
0.000477226218373
0.000480321100574
0.000470443209695
0.00043630598733
0.000432113469294
0.000395859749267
0.00041803633893
0.000461888608662
0.00047909617375
0.000483301330165
0.000475877616849
0.000447466460109
0.000464209194407
)
;
    }
    sides
    {
        lowReCorrection 0;
        blending        stepwise;
        n               2;
        type            epsilonWallFunction;
        value           nonuniform List<scalar> 0();
    }
    bottom
    {
        lowReCorrection 0;
        blending        stepwise;
        n               2;
        type            epsilonWallFunction;
        value           nonuniform List<scalar> 10(0.000418084368023 0.000414107274188 0.000410075532198 0.000406127958641 0.000402366056725 0.000398934026887 0.00039592126374 0.000393930160243 0.000393886586849 0.000395859749267);
    }
    front
    {
        lowReCorrection 0;
        blending        stepwise;
        n               2;
        type            epsilonWallFunction;
        value           nonuniform List<scalar> 
164
(
0.000530836358539
0.000536027949923
0.000541952625051
0.000549537608693
0.000561793884777
0.000587821065774
0.000654568049126
0.000843324230552
0.00137780039701
0.00274378851551
0.00618634771664
0.0191918979502
0.0877162923012
0.000418084368023
0.000436784117551
0.0004823603213
0.000502020912932
0.00051787789621
0.000523005901256
0.000528139843422
0.000533716691615
0.000540010007045
0.000547796211348
0.000559909722846
0.000585266439436
0.000651036972248
0.000840472985328
0.0013786069559
0.0027501490394
0.00632137880073
0.0196878435552
0.0853564320645
0.000414107274188
0.000433173550311
0.00047853513567
0.000498195338174
0.000508006475883
0.000514290481317
0.00051958219737
0.000524950885014
0.00053090834063
0.000537669035355
0.000545866274712
0.000558406349485
0.000584478994192
0.00065117005341
0.00084279307287
0.00138631454517
0.00277977163303
0.00671067397025
0.0258728868298
0.173357980436
0.000410075532198
0.000429601342464
0.000474735802686
0.00049430874122
0.000504052523899
0.000510175655679
0.000515179930053
0.000520306036597
0.00052640539939
0.0005336823876
0.000542463747488
0.000556000193922
0.000584982208624
0.000655693979116
0.000851937413119
0.00140217584513
0.00279940165403
0.00673372622597
0.0264862441824
0.180084521321
0.000406127958641
0.000426207006358
0.000471069038174
0.000490397718486
0.000499695081499
0.000504871100301
0.000508194834759
0.0005112410019
0.000516306382027
0.000523845178296
0.00053314188616
0.000548309824303
0.000584864689921
0.000666310511809
0.000874756784427
0.00143820003765
0.00281003553779
0.00627151824555
0.0216056865727
0.144927768115
0.000402366056725
0.000423094402402
0.000467624834162
0.0004864289362
0.000494552325692
0.000496981852408
0.000494670720332
0.000487774097122
0.000487633574155
0.00049405694043
0.000503728354517
0.000522547457357
0.000577282861795
0.000684342201942
0.000920974432314
0.00151037615252
0.002855035995
0.00596825996721
0.0192607092415
0.138574978625
0.000398934026887
0.000420411144891
0.000464545702317
0.000482535781359
0.000488619410851
0.000485833254032
0.000470131234864
0.000430840176918
0.000518123702843
0.000513047103483
0.000524902294332
0.000565493589086
0.000544937106439
0.000718736741613
0.00101045388836
0.0016366805698
0.00296420397773
0.0059879235262
0.0174723282497
0.100916809603
0.00039592126374
0.000418091832365
0.000461927707629
0.000479128432304
0.000483335495662
0.000475916658598
0.000447490970296
0.000464215752885
0.000393930160243
0.000416792100884
0.000460499830415
0.000477238426906
0.000480332151627
0.00047045800598
0.000436308539043
0.0004320399588
0.000393886586849
0.000416766611984
0.000460482260788
0.000477226218373
0.000480321100574
0.000470443209695
0.00043630598733
0.000432113469294
0.000395859749267
0.00041803633893
0.000461888608662
0.00047909617375
0.000483301330165
0.000475877616849
0.000447466460109
0.000464209194407
)
;
    }
    atmosphere
    {
        type            inletOutlet;
        inletValue      uniform 0.1;
        value           nonuniform List<scalar> 7(0.0877162923012 0.0853564320645 0.1 0.1 0.1 0.1 0.1);
    }
    floatingObject
    {
        lowReCorrection 0;
        blending        stepwise;
        n               2;
        type            epsilonWallFunction;
        value           nonuniform List<scalar> 8(0.000518123702843 0.000513047103483 0.000524902294332 0.000565493589086 0.000464215752885 0.0004320399588 0.000432113469294 0.000464209194407);
    }
    procBoundary3to4
    {
        type            processor;
        value           nonuniform List<scalar> 
13
(
0.000533322607579
0.000538164390165
0.0005438070003
0.000421912196219
0.000440336927245
0.000486119984261
0.000505746352823
0.000521197406633
0.000526037889969
0.000526037889969
0.000511737821377
0.000511737821377
0.000511737821377
)
;
    }
    procBoundary3to5
    {
        type            processor;
        value           nonuniform List<scalar> 10(0.000551335911876 0.00056407037508 0.000591551125641 0.00066065826907 0.000850892959758 0.00138573929841 0.00277038614267 0.00633317241401 0.0206983605157 0.121450936053);
    }
    procBoundary3to6
    {
        type            processor;
        value           nonuniform List<scalar> 8(0.000769487259812 0.000851094356269 0.00118264698839 0.00182319231106 0.00311000071051 0.00613788998588 0.0176413104671 0.0743917354162);
    }
    procBoundary3to8
    {
        type            processor;
        value           nonuniform List<scalar> 8(0.000398877391218 0.000420357447389 0.000464502680247 0.000482500869791 0.000488576122285 0.000485750144873 0.000469926877899 0.000430579043768);
    }
}


// ************************************************************************* //
