/*--------------------------------*- C++ -*----------------------------------*\
| =========                 |                                                 |
| \\      /  F ield         | OpenFOAM: The Open Source CFD Toolbox           |
|  \\    /   O peration     | Version:  v2012                                 |
|   \\  /    A nd           | Website:  www.openfoam.com                      |
|    \\/     M anipulation  |                                                 |
\*---------------------------------------------------------------------------*/
FoamFile
{
    version     2.0;
    format      ascii;
    class       surfaceScalarField;
    location    "5.6";
    object      phi;
}
// * * * * * * * * * * * * * * * * * * * * * * * * * * * * * * * * * * * * * //

dimensions      [0 3 -1 0 0 0 0];
oriented        oriented;


internalField   nonuniform List<scalar> 
296
(
6.05776469207e-05
7.53422259e-05
6.96853308548e-05
8.34251523992e-05
7.85259496548e-05
9.32918747528e-05
8.79183874753e-05
0.000103600244643
9.88254627425e-05
0.000114407485867
0.00011103296
0.000127661704529
0.000122233969579
0.00014553993227
0.000129747827189
0.00016638301514
0.000132756510162
0.00019162188161
0.000135671300589
0.000216888298742
0.000148834753504
0.000245218634928
0.000225814579771
0.0004583356954
0.000751032896711
6.19263916774e-06
3.88266256845e-05
1.29506083101e-05
4.32332199838e-05
2.02912494985e-05
4.72664851584e-05
5.050756121e-05
4.6811047131e-05
5.55541591336e-05
5.73336419717e-05
5.89685337556e-05
6.84652844239e-05
6.42001628558e-05
7.89648243246e-05
7.29189414046e-05
8.85973211569e-05
8.36583244028e-05
9.91990275789e-05
9.30039115267e-05
0.000112695348067
0.000100923175803
0.000129077613443
0.000111296904272
0.000143942482898
0.000130695550909
0.000152695834167
0.000157649724572
0.000154218273714
0.000190114965453
0.000150662817217
0.000220450409229
0.00014082916762
0.000255056990054
0.000262805984951
0.000337196475855
0.000200665544814
6.45633356681e-06
3.23673315445e-05
1.35232478867e-05
3.61602413819e-05
2.12732086285e-05
3.95059351128e-05
2.98652122631e-05
4.18999178516e-05
3.94724538174e-05
4.3403910238e-05
5.0323698386e-05
4.46860431123e-05
6.25518214148e-05
4.67249837715e-05
7.56769792806e-05
5.10625609214e-05
8.71980933505e-05
6.13897518289e-05
9.64538703903e-05
7.44003039898e-05
0.000107309501526
8.21527491918e-05
0.000123434401843
8.48092297215e-05
0.000144922362105
8.98249790334e-05
0.000163873626478
0.000111762738059
0.000174838966133
0.000146701976334
0.000177921813978
0.000187045212914
0.000178082417596
0.000220296225543
0.000176333841714
0.000256807879055
8.77549641065e-05
0.00042543487608
0.000337072169682
6.55768365703e-06
2.58038204244e-05
1.37076347987e-05
2.90019552489e-05
2.16097578272e-05
3.15920814352e-05
3.04348656962e-05
3.30596092181e-05
4.0420093417e-05
3.34013479002e-05
5.20030857075e-05
3.30851000922e-05
6.5658245018e-05
3.30528281583e-05
8.13925692975e-05
3.53141125731e-05
9.32464927647e-05
4.95262481553e-05
0.000100652712804
6.69905270948e-05
0.000110921916807
7.18866178662e-05
0.000130283462228
6.54569749346e-05
0.000157701167666
6.24209754274e-05
0.000181028500302
8.84507972161e-05
0.000194394905242
0.000133349638836
0.000200539571139
0.000180910389591
0.000209614891048
0.000211225328168
0.000226655623337
0.000239766210006
0.000109944170708
0.000542098408151
0.000834862627704
6.39189966057e-06
1.94042713569e-05
1.33980477873e-05
2.19861197196e-05
2.10946627053e-05
2.38830639018e-05
2.9650228884e-05
2.44887632011e-05
3.92055448147e-05
2.3828576345e-05
5.0499752195e-05
2.1772543527e-05
6.5409616525e-05
1.81253803702e-05
8.52134628313e-05
1.54953128049e-05
9.81207707656e-05
3.66077641287e-05
0.000105352570181
5.97535709659e-05
0.000116979920086
6.02606585695e-05
0.000139420237464
4.3023677206e-05
0.000168586677383
3.32654276946e-05
0.00019230202156
6.47471777421e-05
0.00020573413868
0.000119927375861
0.000214190504456
0.000172459891688
0.000225536564602
0.000199880693586
0.000241449508062
0.000223854009477
0.00020703016054
0.000576640789433
0.00116739885011
5.9886929026e-06
1.34076992248e-05
1.25909765333e-05
1.53744421379e-05
1.98974605646e-05
1.65649204741e-05
2.76469444873e-05
1.67251108661e-05
3.55340986082e-05
1.59252073075e-05
4.42286270081e-05
1.30608521283e-05
5.9868066736e-05
2.46930121003e-06
8.90263596805e-05
-1.36791222832e-05
0.000105260007036
2.03622958554e-05
0.000119135676784
4.58720977338e-05
0.000138320299442
4.10762287834e-05
0.000172798274272
8.55160176603e-06
0.000187465938474
1.86054361941e-05
0.000194805502403
5.74152116474e-05
0.000203546064784
0.000111191692558
0.000219099142086
0.00015690833182
0.000243843271137
0.000175136014837
0.00027303735809
0.000194665559659
0.000244266140488
0.000605011735414
0.00193779742271
5.26309158859e-06
8.1381408432e-06
1.1201681667e-05
9.42843254843e-06
1.77471757979e-05
1.00101405354e-05
2.49654247023e-05
9.49539598029e-06
3.34646311108e-05
7.41268757497e-06
4.38908276316e-05
2.62031303662e-06
6.01957644759e-05
-1.38514817504e-05
9.04292989181e-05
-4.39269515753e-05
0.000110787086604
0.000156657650811
0.000197735553784
0.000206289782034
0.000196229310209
0.000178657761222
0.000184814669958
0.000213667912525
0.000256039142252
0.000312591910385
0.000390108376618
4.82605439459e-06
3.30834612451e-06
1.028738054e-05
3.96294072852e-06
1.60486230655e-05
4.24325215304e-06
2.13331511115e-05
4.20334862253e-06
2.51310725111e-05
3.60548391163e-06
2.69043764186e-05
8.35942243887e-07
1.98985763816e-05
-6.85764448258e-06
-2.40336795687e-05
4.3547532813e-06
-1.04480029886e-06
9.41143176943e-06
-1.09261015398e-06
1.48185624177e-05
-1.16410846025e-06
2.02637521908e-05
-1.243997374e-06
2.52296347654e-05
-1.36472926696e-06
2.76094749819e-05
-1.55056745774e-06
2.23217800086e-05
-1.57864412858e-06
-1.71648592732e-06
4.3431422019e-06
-5.38021044875e-06
9.37327508008e-06
-6.11551686168e-06
1.47241703577e-05
-6.50938805492e-06
2.00929248159e-05
-6.60979911318e-06
2.49391832015e-05
-6.21128664922e-06
2.73895701023e-05
-4.00531745643e-06
2.19863833452e-05
3.81676275695e-06
2.0264600564e-05
4.80005361286e-06
1.01578824153e-05
1.57750547036e-05
2.08967849441e-05
2.45349751448e-05
2.58535945459e-05
1.91266863731e-05
)
;

boundaryField
{
    back
    {
        type            calculated;
        value           uniform 0;
    }
    sides
    {
        type            calculated;
        value           nonuniform List<scalar> 0();
    }
    bottom
    {
        type            calculated;
        value           uniform 0;
    }
    front
    {
        type            calculated;
        value           uniform 0;
    }
    atmosphere
    {
        type            calculated;
        value           nonuniform List<scalar> 7(0.000300197879077 0.000810280109204 -4.69074278062e-05 -0.000387807794844 -0.000125561368564 -0.000525875909195 -0.00190660011849);
    }
    floatingObject
    {
        type            calculated;
        value           uniform 0;
    }
    procBoundary3to4
    {
        type            processor;
        value           nonuniform List<scalar> 
13
(
-8.46394402436e-05
-9.25412706496e-05
-0.000102130891686
-4.50177454404e-05
-4.99949690738e-05
-5.46173145199e-05
-5.85578255835e-05
-6.52685733035e-05
-5.12970254897e-05
-6.95100320179e-05
2.83228426231e-05
-3.71298927129e-05
-5.30370140728e-05
)
;
    }
    procBoundary3to5
    {
        type            processor;
        value           nonuniform List<scalar> 10(-0.000112984840176 -0.000125295971771 -0.000139841691305 -0.000156707567968 -0.000173862863223 -0.00019460267889 -0.000219787738273 -0.000258378618325 -0.000535378470711 -0.000824430542027);
    }
    procBoundary3to6
    {
        type            processor;
        value           nonuniform List<scalar> 8(2.8671219647e-05 7.49908963382e-05 0.000105036414006 0.000128054132668 0.000132764590096 0.000138108530856 0.000527029918444 0.00423237744041);
    }
    procBoundary3to8
    {
        type            processor;
        value           nonuniform List<scalar> 8(-1.01689917775e-05 -1.14625227857e-05 -1.21177155816e-05 -1.17258211272e-05 -9.84832691148e-06 -5.32745109903e-06 1.05349343544e-05 3.93865173287e-05);
    }
}


// ************************************************************************* //
