/*--------------------------------*- C++ -*----------------------------------*\
| =========                 |                                                 |
| \\      /  F ield         | OpenFOAM: The Open Source CFD Toolbox           |
|  \\    /   O peration     | Version:  v2012                                 |
|   \\  /    A nd           | Website:  www.openfoam.com                      |
|    \\/     M anipulation  |                                                 |
\*---------------------------------------------------------------------------*/
FoamFile
{
    version     2.0;
    format      ascii;
    class       volScalarField;
    location    "3.3";
    object      epsilon;
}
// * * * * * * * * * * * * * * * * * * * * * * * * * * * * * * * * * * * * * //

dimensions      [0 2 -3 0 0 0 0];


internalField   nonuniform List<scalar> 
164
(
0.00206479968127
0.00207337801246
0.00208449480038
0.00210210967989
0.00213812753304
0.00222617224792
0.00246022612572
0.00313216932454
0.00542990427028
0.0152546074381
0.0568902017145
0.168691745165
0.00206849233885
0.00207723644491
0.00208837882899
0.00210559898066
0.00214031897987
0.00222570968322
0.0024542624311
0.00309522115909
0.00518669106247
0.0143691557694
0.0561484453586
0.168427911349
0.00209206994093
0.00210907252093
0.0021428213719
0.00222651330678
0.00245501865428
0.00309997598089
0.00516731146137
0.014181542904
0.05511082935
0.167547048614
0.00209553438859
0.00211249411295
0.00214554304959
0.00222821074452
0.0024615312935
0.00314829670705
0.00539368886381
0.0147575014575
0.0534379074752
0.166520375173
0.00209873714087
0.002115851608
0.00214858039903
0.00223090890091
0.002470527593
0.00320963689585
0.00570582486468
0.0155654137661
0.0517347161049
0.164859107807
0.00210165143944
0.00211920390474
0.00215244049272
0.00223678349515
0.00248599767708
0.0032615283672
0.00585008650094
0.0155215277537
0.0489566033896
0.160351863311
0.0021042591566
0.00212268109743
0.00215805964564
0.00225003537445
0.0025214730585
0.00332587820357
0.00579971183432
0.014323744452
0.0416992160672
0.109801586372
0.00210657285031
0.00212646728497
0.00216639170294
0.00227498176534
0.00259152734455
0.00344398020799
0.00571806268189
0.0128780075973
0.0359062977071
0.0884337255814
0.00210860202039
0.00213057237805
0.00217713495516
0.00230950222741
0.00268897396278
0.00362016942808
0.0057553022037
0.0119076377516
0.0333072831595
0.112849120788
0.00211016999975
0.00213449695326
0.00218797740336
0.00234266311335
0.00278049444898
0.00380516546043
0.0059416900965
0.0115753927221
0.0309087538512
0.112010800248
0.00211099472719
0.00213713882346
0.00219485051897
0.00236113564959
0.00283145587248
0.00393393887925
0.00617148172936
0.0119221403404
0.0346472553411
0.144517897473
0.00211089847492
0.00213789274524
0.00219604606796
0.0023622543312
0.00283738500094
0.00397457019157
0.00626810742016
0.0117583669042
0.0332672265139
0.151221970983
0.00211017720186
0.00213819929486
0.00219742711093
0.0023650962343
0.0028421456689
0.00398088473857
0.00624282165058
0.0111744045962
0.0286430499272
0.145082721373
0.00210907370949
0.00213903649811
0.00220247427359
0.00237956997502
0.00286819394348
0.00400258615998
0.0062510521258
0.0110301219427
0.026621287564
0.137993979541
0.00210729265237
0.0021387618858
0.00220412197382
0.00238257756737
0.00286588235574
0.00398826534832
0.00630043814288
0.0113673832256
0.0256093739428
0.0925498933465
0.00210444071678
0.00213534285786
0.00219430000489
0.00235030982877
0.00278714452329
0.0038816363071
0.00630991854695
0.0117820847696
0.0258955272308
0.0705486328861
)
;

boundaryField
{
    back
    {
        lowReCorrection 0;
        blending        stepwise;
        n               2;
        type            epsilonWallFunction;
        value           nonuniform List<scalar> 
164
(
0.00206479968127
0.00207337801246
0.00208449480038
0.00210210967989
0.00213812753304
0.00222617224792
0.00246022612572
0.00313216932454
0.00542990427028
0.0152546074381
0.0568902017145
0.168691745165
0.00206849233885
0.00207723644491
0.00208837882899
0.00210559898066
0.00214031897987
0.00222570968322
0.0024542624311
0.00309522115909
0.00518669106247
0.0143691557694
0.0561484453586
0.168427911349
0.00209206994093
0.00210907252093
0.0021428213719
0.00222651330678
0.00245501865428
0.00309997598089
0.00516731146137
0.014181542904
0.05511082935
0.167547048614
0.00209553438859
0.00211249411295
0.00214554304959
0.00222821074452
0.0024615312935
0.00314829670705
0.00539368886381
0.0147575014575
0.0534379074752
0.166520375173
0.00209873714087
0.002115851608
0.00214858039903
0.00223090890091
0.002470527593
0.00320963689585
0.00570582486468
0.0155654137661
0.0517347161049
0.164859107807
0.00210165143944
0.00211920390474
0.00215244049272
0.00223678349515
0.00248599767708
0.0032615283672
0.00585008650094
0.0155215277537
0.0489566033896
0.160351863311
0.0021042591566
0.00212268109743
0.00215805964564
0.00225003537445
0.0025214730585
0.00332587820357
0.00579971183432
0.014323744452
0.0416992160672
0.109801586372
0.00210657285031
0.00212646728497
0.00216639170294
0.00227498176534
0.00259152734455
0.00344398020799
0.00571806268189
0.0128780075973
0.0359062977071
0.0884337255814
0.00210860202039
0.00213057237805
0.00217713495516
0.00230950222741
0.00268897396278
0.00362016942808
0.0057553022037
0.0119076377516
0.0333072831595
0.112849120788
0.00211016999975
0.00213449695326
0.00218797740336
0.00234266311335
0.00278049444898
0.00380516546043
0.0059416900965
0.0115753927221
0.0309087538512
0.112010800248
0.00211099472719
0.00213713882346
0.00219485051897
0.00236113564959
0.00283145587248
0.00393393887925
0.00617148172936
0.0119221403404
0.0346472553411
0.144517897473
0.00211089847492
0.00213789274524
0.00219604606796
0.0023622543312
0.00283738500094
0.00397457019157
0.00626810742016
0.0117583669042
0.0332672265139
0.151221970983
0.00211017720186
0.00213819929486
0.00219742711093
0.0023650962343
0.0028421456689
0.00398088473857
0.00624282165058
0.0111744045962
0.0286430499272
0.145082721373
0.00210907370949
0.00213903649811
0.00220247427359
0.00237956997502
0.00286819394348
0.00400258615998
0.0062510521258
0.0110301219427
0.026621287564
0.137993979541
0.00210729265237
0.0021387618858
0.00220412197382
0.00238257756737
0.00286588235574
0.00398826534832
0.00630043814288
0.0113673832256
0.0256093739428
0.0925498933465
0.00210444071678
0.00213534285786
0.00219430000489
0.00235030982877
0.00278714452329
0.0038816363071
0.00630991854695
0.0117820847696
0.0258955272308
0.0705486328861
)
;
    }
    sides
    {
        lowReCorrection 0;
        blending        stepwise;
        n               2;
        type            epsilonWallFunction;
        value           nonuniform List<scalar> 0();
    }
    bottom
    {
        lowReCorrection 0;
        blending        stepwise;
        n               2;
        type            epsilonWallFunction;
        value           nonuniform List<scalar> 0();
    }
    front
    {
        lowReCorrection 0;
        blending        stepwise;
        n               2;
        type            epsilonWallFunction;
        value           nonuniform List<scalar> 
164
(
0.00206479968127
0.00207337801246
0.00208449480038
0.00210210967989
0.00213812753304
0.00222617224792
0.00246022612572
0.00313216932454
0.00542990427028
0.0152546074381
0.0568902017145
0.168691745165
0.00206849233885
0.00207723644491
0.00208837882899
0.00210559898066
0.00214031897987
0.00222570968322
0.0024542624311
0.00309522115909
0.00518669106247
0.0143691557694
0.0561484453586
0.168427911349
0.00209206994093
0.00210907252093
0.0021428213719
0.00222651330678
0.00245501865428
0.00309997598089
0.00516731146137
0.014181542904
0.05511082935
0.167547048614
0.00209553438859
0.00211249411295
0.00214554304959
0.00222821074452
0.0024615312935
0.00314829670705
0.00539368886381
0.0147575014575
0.0534379074752
0.166520375173
0.00209873714087
0.002115851608
0.00214858039903
0.00223090890091
0.002470527593
0.00320963689585
0.00570582486468
0.0155654137661
0.0517347161049
0.164859107807
0.00210165143944
0.00211920390474
0.00215244049272
0.00223678349515
0.00248599767708
0.0032615283672
0.00585008650094
0.0155215277537
0.0489566033896
0.160351863311
0.0021042591566
0.00212268109743
0.00215805964564
0.00225003537445
0.0025214730585
0.00332587820357
0.00579971183432
0.014323744452
0.0416992160672
0.109801586372
0.00210657285031
0.00212646728497
0.00216639170294
0.00227498176534
0.00259152734455
0.00344398020799
0.00571806268189
0.0128780075973
0.0359062977071
0.0884337255814
0.00210860202039
0.00213057237805
0.00217713495516
0.00230950222741
0.00268897396278
0.00362016942808
0.0057553022037
0.0119076377516
0.0333072831595
0.112849120788
0.00211016999975
0.00213449695326
0.00218797740336
0.00234266311335
0.00278049444898
0.00380516546043
0.0059416900965
0.0115753927221
0.0309087538512
0.112010800248
0.00211099472719
0.00213713882346
0.00219485051897
0.00236113564959
0.00283145587248
0.00393393887925
0.00617148172936
0.0119221403404
0.0346472553411
0.144517897473
0.00211089847492
0.00213789274524
0.00219604606796
0.0023622543312
0.00283738500094
0.00397457019157
0.00626810742016
0.0117583669042
0.0332672265139
0.151221970983
0.00211017720186
0.00213819929486
0.00219742711093
0.0023650962343
0.0028421456689
0.00398088473857
0.00624282165058
0.0111744045962
0.0286430499272
0.145082721373
0.00210907370949
0.00213903649811
0.00220247427359
0.00237956997502
0.00286819394348
0.00400258615998
0.0062510521258
0.0110301219427
0.026621287564
0.137993979541
0.00210729265237
0.0021387618858
0.00220412197382
0.00238257756737
0.00286588235574
0.00398826534832
0.00630043814288
0.0113673832256
0.0256093739428
0.0925498933465
0.00210444071678
0.00213534285786
0.00219430000489
0.00235030982877
0.00278714452329
0.0038816363071
0.00630991854695
0.0117820847696
0.0258955272308
0.0705486328861
)
;
    }
    atmosphere
    {
        type            inletOutlet;
        inletValue      uniform 0.1;
        value           nonuniform List<scalar> 
16
(
0.1
0.1
0.1
0.1
0.1
0.1
0.109801586372
0.0884337255814
0.1
0.1
0.1
0.1
0.1
0.1
0.0925498933465
0.0705486328861
)
;
    }
    floatingObject
    {
        lowReCorrection 0;
        blending        stepwise;
        n               2;
        type            epsilonWallFunction;
        value           nonuniform List<scalar> 0();
    }
    procBoundary5to0
    {
        type            processor;
        value           nonuniform List<scalar> 
12
(
0.00206074431028
0.00206922610119
0.00208041171664
0.00209856592097
0.00213614097042
0.00222749096237
0.0024688282337
0.00317490353222
0.00566949716766
0.0159745386508
0.055523423413
0.167162175361
)
;
    }
    procBoundary5to3
    {
        type            processor;
        value           nonuniform List<scalar> 10(0.0021012210844 0.00213138267369 0.00218265770561 0.00231189173725 0.00269337278676 0.00375554857417 0.00631852909699 0.012165968377 0.0275215655978 0.0985572818545);
    }
    procBoundary5to4
    {
        type            processor;
        value           nonuniform List<scalar> 
18
(
0.00205750941688
0.00206100887705
0.00207180010498
0.0020807901785
0.0020807901785
0.00208400137154
0.00208683556667
0.00208925075259
0.00209120915266
0.00209269477051
0.0020936724869
0.00209405383444
0.00209374072527
0.00209266737482
0.00209087502066
0.00208842510454
0.0020852655838
0.00208139566111
)
;
    }
}


// ************************************************************************* //
