/*--------------------------------*- C++ -*----------------------------------*\
| =========                 |                                                 |
| \\      /  F ield         | OpenFOAM: The Open Source CFD Toolbox           |
|  \\    /   O peration     | Version:  v2012                                 |
|   \\  /    A nd           | Website:  www.openfoam.com                      |
|    \\/     M anipulation  |                                                 |
\*---------------------------------------------------------------------------*/
FoamFile
{
    version     2.0;
    format      ascii;
    class       surfaceVectorField;
    location    "3.3";
    object      Uf_0;
}
// * * * * * * * * * * * * * * * * * * * * * * * * * * * * * * * * * * * * * //

dimensions      [0 1 -1 0 0 0 0];


internalField   nonuniform List<vector> 
300
(
(0.0614171385422 -0.0122907678438 -6.65569942017e-24)
(0.0615616414771 -0.0103576303444 -1.32612966941e-24)
(0.0632474618553 -0.0146478675241 -3.66066828775e-24)
(0.0634652994527 -0.012458727646 -2.45127890394e-24)
(0.0652279370319 -0.0173875453866 1.58248367371e-23)
(0.065567776081 -0.0149083560839 8.50488758685e-24)
(0.0673170047104 -0.0205790443897 8.22311949936e-23)
(0.0678465052374 -0.0177848497132 4.15756764012e-23)
(0.0694163362372 -0.0243587120271 1.19968512763e-22)
(0.0702511908007 -0.0211988039181 1.79210557859e-22)
(0.071468398031 -0.0288378751386 -1.39465729208e-22)
(0.0727116405105 -0.0252356088991 1.98839796862e-22)
(0.0738399449381 -0.0342891699893 -1.35059594963e-21)
(0.075258055761 -0.0300548644446 -5.18205732534e-22)
(0.077136108208 -0.0411282707527 -4.40698761868e-21)
(0.0786669219887 -0.0372130740458 -2.24637255836e-21)
(0.0812116454033 -0.0498360341685 -5.70804982382e-21)
(0.0834081427441 -0.0458734184744 -3.52449659243e-21)
(0.0812183322282 -0.0628196137705 -6.00066681267e-21)
(0.0901833529632 -0.0436432332081 -4.05420673574e-21)
(0.0521512608444 -0.0907086656254 -3.30360872945e-21)
(0.0930447279615 -0.065160015281 -4.95719928124e-21)
(0.0284170828386 -0.104782569131 1.34757593868e-20)
(0.0635197077242 -0.010378741886 2.87829084683e-24)
(0.065699601583 -0.012538451695 9.71427697067e-24)
(0.0681092141761 -0.0150879981621 3.4255727251e-23)
(0.0681172695917 -0.0124776825561 2.21152401252e-23)
(0.0707296566237 -0.0181211063962 1.38555039267e-22)
(0.0708796114038 -0.01512110572 6.72888491528e-23)
(0.0735188932056 -0.0217748311935 2.58081841958e-22)
(0.0739049596802 -0.0183107307531 2.36589567265e-22)
(0.0764983094636 -0.0262286922026 -1.79900206463e-22)
(0.0771655812158 -0.0221596576579 2.90862427159e-22)
(0.0801304073138 -0.0318082827293 -1.41398234126e-21)
(0.0808377389237 -0.0268639096924 -7.82251011177e-22)
(0.0851066405449 -0.0389540553246 -1.36388153211e-21)
(0.085812764035 -0.0340161011671 -2.77646283241e-21)
(0.0928111420672 -0.0481804254743 -1.87065350435e-21)
(0.0926345263985 -0.0434629415184 -2.54655957503e-22)
(0.103532202847 -0.063692944286 -3.01073920431e-21)
(0.105696789825 -0.042121638375 -1.98177970666e-21)
(0.0726161050431 -0.0856416604035 1.1822168835e-20)
(0.114992923027 -0.0571164654879 -4.28204146334e-21)
(0.0384357164033 -0.098913913598 1.67836477655e-20)
(0.0707645775056 -0.0123002140974 5.5148362027e-23)
(0.070385415729 -0.0096105724236 3.7910112187e-23)
(0.0739372430868 -0.0150449491187 1.65323377152e-22)
(0.0736243641519 -0.0119088000126 8.72381262817e-23)
(0.0774557008168 -0.0183988993035 2.69370152466e-22)
(0.0772589624861 -0.0147128438763 2.79712040497e-22)
(0.0814401308224 -0.0225782404089 -3.11488377554e-22)
(0.0813449993635 -0.0181428754813 2.59768777415e-22)
(0.086447825312 -0.02793809793 -2.14473150233e-21)
(0.0861976785206 -0.0223770325477 -9.97179093253e-22)
(0.0933277883883 -0.0349332529521 -1.66723725781e-21)
(0.0928079778369 -0.0289476355935 -3.9167827424e-21)
(0.10533252501 -0.044565521821 -3.6578215981e-22)
(0.102266809219 -0.0392239960496 -2.1188970268e-21)
(0.117161840309 -0.0603269355405 -3.25308196569e-21)
(0.121459011039 -0.0393514881326 9.54688434999e-23)
(0.083831347874 -0.0677266016855 6.79437467092e-22)
(0.122392079926 -0.0479495786335 -3.79845078109e-21)
(0.0556913351397 -0.0825670551622 6.31786996008e-21)
(0.0730693727183 -0.00902746588268 6.99998764417e-23)
(0.0722717125916 -0.00633500707181 5.13411657249e-23)
(0.0767589143504 -0.0113380609079 2.01626789627e-22)
(0.0759349916119 -0.00818517101571 1.01607313852e-22)
(0.0809671262154 -0.0141772402994 2.70110665446e-22)
(0.0800981980182 -0.0104540796516 2.84822191426e-22)
(0.0859470847471 -0.0177625529818 -4.25921938283e-22)
(0.0849303830238 -0.0132343922466 -1.16223316417e-22)
(0.0924207664074 -0.0225055970542 -2.76923033332e-21)
(0.0909407930111 -0.0166606195168 -1.36503932516e-21)
(0.101473065474 -0.0290537158793 -4.36844251138e-21)
(0.0993561449797 -0.0219768327057 -3.11678995033e-21)
(0.117432644146 -0.0384203667953 -1.65764602349e-21)
(0.111633481201 -0.032811779328 -5.25076330422e-21)
(0.11927262309 -0.0516881793676 -4.49899971898e-22)
(0.134726234335 -0.0348601109824 -1.3123328777e-20)
(0.0844115658988 -0.0504199179067 1.8399817119e-21)
(0.121124578612 -0.0404927397012 -1.38366533176e-20)
(0.0717606496401 -0.0640945652644 -6.49303176158e-21)
(0.0749109164379 -0.00533046772268 8.29486031348e-23)
(0.0737001697255 -0.00270930394993 5.6564086456e-23)
(0.0790255881132 -0.00710451959486 1.84802715651e-22)
(0.0777090746355 -0.00404324936078 1.17483544956e-22)
(0.0837824663609 -0.00928749058261 -1.01511790437e-22)
(0.0822812149731 -0.00568952474601 1.41410899077e-22)
(0.0896135826691 -0.0119954101279 -1.05534070329e-21)
(0.0876383569311 -0.00767954904027 -6.68431098334e-22)
(0.0975847894276 -0.0157220823381 -1.71259894216e-21)
(0.0946675170161 -0.0101336594284 -2.08421492319e-21)
(0.109123937995 -0.0214722630024 -3.99911074316e-21)
(0.105106359329 -0.0138385384332 -3.07210648717e-21)
(0.127684671855 -0.0300642647909 -1.67164460577e-20)
(0.120225499245 -0.0245689862418 -7.03765507972e-21)
(0.138042237887 -0.0395684642864 -2.65100821227e-20)
(0.144229864684 -0.0285218772962 -2.4055356802e-20)
(0.106934263104 -0.0487954219997 -2.21696667911e-20)
(0.130352273559 -0.0293280131023 -2.35599975298e-20)
(0.0744808239841 -0.0442632202401 -7.97067825838e-21)
(0.0762149636555 -0.00130589852852 9.10990282771e-23)
(0.0746198622904 0.00119616883501 6.34351349117e-23)
(0.0806376991741 -0.00249475188824 7.40917283824e-23)
(0.0788979387311 0.000397067395987 1.2136542297e-22)
(0.0857607703622 -0.00395098383382 -4.2550840882e-22)
(0.083737466832 -0.000635496767327 4.55879606297e-23)
(0.0922522740156 -0.00576410497203 -1.69730531823e-21)
(0.0894515032238 -0.00186493531153 -7.48281430158e-22)
(0.101677786486 -0.00839196434356 -3.44372246819e-21)
(0.0972954003653 -0.00345268481596 -1.93221820039e-21)
(0.115579566293 -0.0129996732085 -6.11065082373e-21)
(0.109714081677 -0.005625565023 -6.76422856489e-21)
(0.135596208663 -0.0200957901784 -1.43765658239e-20)
(0.127321616066 -0.0152932909582 -5.66854119859e-21)
(0.138782943357 -0.0257146289576 -2.11052722091e-20)
(0.149849009196 -0.0205987659776 -9.43930039245e-21)
(0.101609535271 -0.026804278416 -9.36100899717e-21)
(0.131441818092 -0.0137120782985 -9.68876795343e-21)
(0.0853721432953 0.00544727425683 7.51753748042e-20)
(0.076978949493 0.00293138675646 9.37015296047e-23)
(0.0750238775238 0.00531787148922 2.18485144508e-23)
(0.0816238830417 0.00231367612891 9.28616552174e-23)
(0.0795156258542 0.00504547304318 -3.68383808514e-23)
(0.0869567408724 0.00145517419648 -2.77185060709e-22)
(0.0845959502219 0.00454385251067 -1.00935602484e-22)
(0.0938852853461 0.000400878855239 -9.8319431232e-22)
(0.0905057833016 0.00387421117625 -3.83220527507e-22)
(0.10454634559 -0.00136031564059 -5.25272429709e-21)
(0.0990565811106 0.00267233414871 6.52033716169e-22)
(0.120580114255 -0.00464759935922 -6.32211893975e-21)
(0.113001351615 0.00153997018023 -1.55463185467e-21)
(0.140572567516 -0.00988558943051 -7.31275767097e-22)
(0.132559589257 -0.00602036721455 2.74938547947e-21)
(0.132981028077 -0.0114676891985 1.97720386323e-21)
(0.151431981597 -0.0109469011678 8.26354047613e-21)
(0.102493688816 0.0274879948807 7.48476158479e-20)
(0.0924837868553 0.00160486970859 9.81402761688e-21)
(0.0816323781481 0.0669152357534 9.09793232756e-20)
(0.0772382391576 0.00736668739946 -1.08691396005e-22)
(0.0749650233726 0.00962471046236 -5.53808427807e-23)
(0.0820783075746 0.00722657826512 -2.30635638553e-22)
(0.0796556752594 0.00987197609803 -2.09131215809e-22)
(0.0876387332214 0.00685739989081 -2.06971069283e-22)
(0.0849650657765 0.00983456085405 -1.08109564751e-22)
(0.0950368107073 0.00610766477938 1.25200750098e-21)
(0.0912554536823 0.00952070468218 1.55006299735e-21)
(0.10677953417 0.00467611306078 4.35012615859e-21)
(0.100488070497 0.00826279291658 1.02073575787e-20)
(0.124209912658 0.0020236993011 7.51687256456e-21)
(0.115653715847 0.00773862423317 2.48329361829e-20)
(0.142733542156 -0.0012792648093 1.17442017227e-20)
(0.135862509994 0.00334158503996 4.1603034564e-20)
(0.100336696216 -0.000833977566095 1.61003642298e-20)
(0.15098711235 0.00086257280611 4.55493026843e-20)
(0.0710843903932 0.0680050017147 2.59457350446e-20)
(0.0236508857596 0.0103847163619 5.19409802664e-20)
(0.0821970085402 0.0364017727035 3.67947892052e-20)
(0.0770138107989 0.0120476504764 -1.55820662584e-22)
(0.0743722352152 0.0141259705594 -6.21523505731e-23)
(0.0821169872229 0.012373230875 -8.66051420063e-23)
(0.0793300098701 0.0149082619836 -5.62658168436e-23)
(0.0880990987604 0.0123277097879 1.64892450188e-21)
(0.0850104791315 0.0153570875958 9.07974156142e-22)
(0.0961585963941 0.0117025680551 1.05054130751e-20)
(0.0918804716932 0.0154465695952 7.47292309123e-21)
(0.108669566247 0.0105854208764 3.06901676031e-20)
(0.101605092385 0.0144006288839 3.16160503359e-20)
(0.126079279657 0.00971835527056 5.89190981824e-20)
(0.116520680126 0.0146392452663 7.44848023734e-20)
(0.142813661462 0.0104780182653 7.54081355256e-20)
(0.135102801341 0.0133062717573 1.15169105671e-19)
(0.093965631572 0.012661008869 8.13899187209e-20)
(0.148804039148 0.013751348101 1.29840077682e-19)
(0.0542023606227 -0.0135695314856 6.27900344271e-20)
(0.0498814379502 0.018462943577 1.38618354496e-19)
(0.0775432210552 -0.0234214263044 8.25078469353e-20)
(0.0763127423983 0.0169251554704 3.74024951675e-23)
(0.0732133192923 0.0188658872068 1.8238650032e-23)
(0.0817780434677 0.017788703517 9.38313481304e-22)
(0.0784663679695 0.0202789304262 2.23863001755e-22)
(0.0882826889666 0.0182199977024 6.73197274549e-21)
(0.0845790292911 0.0213755942586 2.20641504077e-21)
(0.0968182477046 0.0180795674129 2.85835603521e-20)
(0.0920207024868 0.0221973905109 1.39303707775e-20)
(0.108909330678 0.0177179178396 7.54106851062e-20)
(0.101966530338 0.022050760416 5.17719764605e-20)
(0.124452685188 0.0190858005142 1.30734809862e-19)
(0.115152625148 0.0233791162792 1.19536537245e-19)
(0.139731386745 0.0239670792684 1.69601047828e-19)
(0.130221430239 0.0240965878845 1.80791296821e-19)
(0.108618314725 0.0276441679278 1.87068513457e-19)
(0.145127291518 0.0264094980527 2.15303844576e-19)
(0.0788138848426 -0.00804684213935 1.58336167004e-19)
(0.0855724708476 0.0328226345291 2.21041788221e-19)
(0.0954363267573 -0.0232201383099 1.2377012644e-19)
(0.0750148732118 0.0221256155122 2.0469915662e-22)
(0.0713795778821 0.0238677811587 2.29992868577e-22)
(0.080846619361 0.023735440221 1.49196456122e-21)
(0.0768564449663 0.0261066342442 3.87252373075e-22)
(0.0878282579096 0.0250019817525 9.40481307276e-21)
(0.0833122649578 0.0281709567508 2.13785862987e-21)
(0.0965555525378 0.0258846099629 3.71187868859e-20)
(0.0911377651166 0.0301615875523 1.21112295516e-20)
(0.107637033518 0.0270066611347 9.58978285988e-20)
(0.100844142995 0.0315330688463 4.51946990359e-20)
(0.120213433842 0.0298476907235 1.69593024203e-19)
(0.112311322219 0.0342327906794 1.0689030593e-19)
(0.134861989402 0.0373259920107 2.26494093568e-19)
(0.122742993925 0.0361203480897 1.72399505799e-19)
(0.120072694742 0.0415523396709 2.49277119339e-19)
(0.140901110378 0.038510999525 2.14298299612e-19)
(0.108069968979 0.0213098567735 1.86475747657e-19)
(0.105815299826 0.0495424805216 2.13313148457e-19)
(0.149569654819 -0.0251876292484 1.47000552833e-19)
(0.0729061276808 0.0276747599561 4.12546085033e-22)
(0.0687022834703 0.0289881455645 2.41287284896e-22)
(0.0789649126388 0.0303295064674 1.03314644173e-21)
(0.0742015639216 0.032178708921 1.35935430987e-22)
(0.0862259864256 0.032893838183 4.84427510873e-21)
(0.0807475907795 0.035445116813 7.38857472308e-22)
(0.0948908090502 0.0353861283445 2.01871417016e-20)
(0.0886449965147 0.0389253422461 4.2967922347e-21)
(0.10489875511 0.038253851447 5.61871763675e-20)
(0.0979759039343 0.0423135113611 2.0557999101e-20)
(0.114237074585 0.0424223411457 1.09696787526e-19)
(0.108142421771 0.0473619330852 5.43048503846e-20)
(0.128129501856 0.0508273299071 1.60203711843e-19)
(0.114337808242 0.0500219184921 8.85679764166e-20)
(0.12685515466 0.0574930783109 1.7833432873e-19)
(0.134235534033 0.0505399603662 1.1410261119e-19)
(0.163951291397 0.0395473855695 1.73837953633e-19)
(0.123761786722 0.0680322427368 1.07171856061e-19)
(0.280333167521 -0.0413231631263 4.61961200894e-20)
(0.0697143286976 0.0332282942308 -3.53233691499e-23)
(0.065164271623 0.033998855962 2.07535917456e-22)
(0.0756254043212 0.036971285006 -1.58353538434e-22)
(0.0704583123172 0.0380798648726 -5.58985727572e-23)
(0.0826869516355 0.040962385932 1.91374598278e-22)
(0.076755936383 0.0424641110876 3.47399758342e-22)
(0.0910663507053 0.0453613638506 4.66764963404e-21)
(0.0842452780868 0.0473598797013 1.01227170982e-21)
(0.100475425928 0.0505040173248 1.86756731181e-20)
(0.0928324796373 0.0526935438834 7.19960235412e-21)
(0.107815509591 0.0573365521689 3.31760392747e-20)
(0.101309289352 0.0609768853216 1.79320511485e-20)
(0.120323254014 0.0657642300969 4.24668757632e-20)
(0.10590985754 0.0651591005279 1.62482539315e-20)
(0.127914032173 0.0733119515952 4.29401385214e-20)
(0.126687805858 0.0640194891437 2.74188457147e-20)
(0.266265875217 0.0661529524454 -2.04699774819e-20)
(0.130922862371 0.0873002550876 2.24262690235e-20)
(0.502689501806 -0.0381638041318 4.00226156233e-20)
(0.0656673863625 0.0385187967314 1.86960713848e-22)
(0.0608705043772 0.0387919896325 2.54256887914e-22)
(0.0712253977108 0.043137229683 4.49854724019e-22)
(0.0658391039333 0.0436546542162 8.4693382869e-23)
(0.0777218266236 0.048240660704 1.16829686989e-21)
(0.0716512980474 0.0489679157876 7.74280667065e-22)
(0.0851584977828 0.0541249935192 3.5442244299e-21)
(0.0783595158739 0.0549744494123 1.64499925523e-21)
(0.09292458023 0.0614524447569 6.45598038454e-21)
(0.0855036239023 0.0616537526639 4.3523266342e-21)
(0.0988948200989 0.0712651244137 1.00426580525e-21)
(0.0914955534399 0.0724960401858 8.95408980566e-21)
(0.111155623806 0.0815379035697 1.20022388301e-21)
(0.0956365885088 0.0787443760794 -6.87873418368e-21)
(0.120312759744 0.091081345602 6.90497621681e-21)
(0.117144320139 0.078563712168 1.36598239414e-21)
(0.37871774974 0.105859811018 8.29188621287e-20)
(0.116144652289 0.102154383765 1.19112143705e-21)
(0.7441606314 0.0323618392981 1.04016126598e-19)
(0.0609033683116 0.0435583619155 1.51989556935e-22)
(0.0558796986837 0.0433283699421 3.29575617972e-22)
(0.0660831583879 0.048974492284 4.09119325915e-22)
(0.0604213310158 0.0489270667475 3.06125158817e-22)
(0.0720200137183 0.0549987311734 1.25098305241e-21)
(0.0656248722928 0.0551440821439 1.13596370865e-21)
(0.0782745822507 0.0618708278681 2.45310145952e-21)
(0.0714849649441 0.0621949511416 1.69392330953e-21)
(0.0834182577859 0.0704709204614 6.85043605532e-21)
(0.0769013336712 0.0698390225766 3.38090386806e-21)
(0.0871920913897 0.0817873219254 1.07108981672e-21)
(0.0801776070386 0.0817516837705 7.03105507562e-21)
(0.0991600456598 0.0948227943736 -6.71297567256e-21)
(0.0826004633828 0.0884545260906 -5.11769308076e-22)
(0.107314818427 0.109429671154 -4.34787238562e-21)
(0.10253757037 0.0915218849496 7.58019011294e-21)
(0.498688298664 0.129544097779 2.22883859061e-20)
(0.0960281036169 0.10984042785 -2.31713404319e-20)
(0.827846779671 0.437288201895 -4.60685774575e-21)
(0.0553860859277 0.0483236259876 4.83711219854e-22)
(0.0600292335943 0.0545765372124 1.03296954155e-21)
(0.0652758649011 0.0616173485972 1.57890396577e-21)
(0.0704514324224 0.0694631120493 2.62172571807e-21)
(0.0735827465449 0.0785444975305 3.56152288836e-21)
(0.0748784230499 0.0894102650093 5.44819595082e-21)
(0.084021179557 0.103122812754 1.37813964774e-20)
(0.0721801064066 0.122860563858 -1.12432779333e-20)
(0.201421577546 0.209250324803 -5.00665840837e-20)
)
;

boundaryField
{
    back
    {
        type            calculated;
        value           uniform (0 0 0);
    }
    sides
    {
        type            calculated;
        value           nonuniform List<vector> 0();
    }
    bottom
    {
        type            calculated;
        value           nonuniform List<vector> 0();
    }
    front
    {
        type            calculated;
        value           uniform (0 0 0);
    }
    atmosphere
    {
        type            calculated;
        value           nonuniform List<vector> 
16
(
(0 -0.0936083174053 0)
(0 -0.095660129858 0)
(0 -0.0849821145602 0)
(0 -0.0664891202942 0)
(0 -0.0515154888824 0)
(0 -0.0376955080906 0)
(0.0901616861413 0.0312278268356 1.47763199717e-19)
(0.0926661016114 0.0674364158852 3.41954468338e-20)
(0 -0.00891647270252 0)
(0 -0.0259404496444 0)
(0 -0.0328241963048 0)
(0 -0.091217461671 0)
(0 -0.156205621388 0)
(0 -0.135611290738 0)
(0.892141666394 0.0458585506565 4.8296847048e-20)
(0.351074997116 1.25127734401 -5.75105625395e-20)
)
;
    }
    floatingObject
    {
        type            calculated;
        value           nonuniform List<vector> 0();
    }
    procBoundary5to0
    {
        type            processor;
        value           nonuniform List<vector> 
12
(
(0.0595121236584 -0.0120304527247 -7.7447890611e-24)
(0.0611083872957 -0.0143038556687 -1.26783895968e-23)
(0.0628282048494 -0.0169112098156 8.69933476555e-24)
(0.0646550299894 -0.0199211066122 3.2828902282e-23)
(0.0664714629753 -0.0234151350802 1.13663024946e-22)
(0.0682323426967 -0.0274558036574 1.90324164204e-22)
(0.0698065858074 -0.0321438757402 -3.65618314668e-22)
(0.0718276704953 -0.0390027885329 -1.63740164498e-21)
(0.0747003197269 -0.0472111270415 -2.74744939292e-21)
(0.0771989160908 -0.0444577062687 -6.20731507997e-21)
(0.0651554296629 -0.064453745284 -9.19144236541e-21)
(0.0255166468589 -0.0931229471049 5.37688810707e-22)
)
;
    }
    procBoundary5to3
    {
        type            processor;
        value           nonuniform List<vector> 10((0.0502247055292 0.0474487343569 9.38720876608e-22) (0.0541661852982 0.0536310644311 7.71790592787e-22) (0.05858115902 0.0606276793616 1.28765098166e-21) (0.063636218863 0.0686255463176 1.17035338059e-21) (0.0678173457527 0.0771718503625 2.73806355975e-21) (0.0693100842625 0.0893551124325 -1.61933572708e-22) (0.0688871656329 0.0940304622895 5.8462611626e-21) (0.0827998051051 0.100836860011 2.13929688726e-20) (0.00963831624196 0.113087243865 -2.28669557907e-21) (-0.214179716814 0.556885387173 -3.25807199262e-20));
    }
    procBoundary5to4
    {
        type            processor;
        value           nonuniform List<vector> 
18
(
(0.059756241067 -0.0102408645411 -7.68309676247e-24)
(0.0615732035739 -0.00853652714921 1.19465853115e-24)
(0.0634036103421 -0.00839828792937 1.24206389688e-23)
(0.0656249068972 -0.0102638486069 1.10961089172e-23)
(0.0679188812167 -0.0100319905921 2.34970720717e-23)
(0.0698141789707 -0.00714114799323 3.34597020281e-23)
(0.0713037178473 -0.00390201711966 2.98234321137e-23)
(0.0723273067727 -0.000386203056066 4.14279886992e-23)
(0.0728710973155 0.00333544293632 4.73472237837e-23)
(0.0729399013453 0.00730791599419 6.00197834513e-24)
(0.0725106031609 0.0114549566463 -1.2955757624e-23)
(0.0715670754847 0.0157662884574 1.49051523691e-23)
(0.0700396535336 0.0202918225628 5.78457203942e-23)
(0.0678010267496 0.0249973090971 2.58697135028e-22)
(0.0647231018329 0.0296901250088 1.20474076429e-22)
(0.0609156604392 0.0342252412144 2.36986714292e-22)
(0.0564415672428 0.0385681589338 1.93272269065e-22)
(0.0513101334549 0.0426703445441 3.66080664631e-22)
)
;
    }
}


// ************************************************************************* //
