/*--------------------------------*- C++ -*----------------------------------*\
| =========                 |                                                 |
| \\      /  F ield         | OpenFOAM: The Open Source CFD Toolbox           |
|  \\    /   O peration     | Version:  v2012                                 |
|   \\  /    A nd           | Website:  www.openfoam.com                      |
|    \\/     M anipulation  |                                                 |
\*---------------------------------------------------------------------------*/
FoamFile
{
    version     2.0;
    format      ascii;
    class       surfaceVectorField;
    location    "1.9";
    object      ddtCorrDdt0(Uf);
}
// * * * * * * * * * * * * * * * * * * * * * * * * * * * * * * * * * * * * * //

dimensions      [0 1 -2 0 0 0 0];


internalField   nonuniform List<vector> 
304
(
(0.0832057019606 0.0659439225004 6.00814972358e-23)
(0.0737956169693 0.0690123853368 -3.99431108604e-22)
(0.0775586173645 0.0639534645767 7.74611901452e-23)
(0.0610363374111 0.0704830981274 -9.03421126898e-22)
(0.0675101222283 0.0645104536878 -9.41638965431e-22)
(0.0438965850298 0.0703513051504 -1.11645894038e-21)
(0.0536038348828 0.063991967202 -1.38235214499e-21)
(0.0223489135248 0.0681128828993 6.75847800324e-21)
(0.0358220909135 0.0606622598061 -5.09672461541e-21)
(-0.00508183156974 0.0625021774029 1.05691844128e-20)
(0.014458017354 0.0358376949088 1.62136715689e-20)
(0.00916369673997 0.0513514182962 1.88465137972e-21)
(-0.021591948659 0.0201262559603 -9.27696355908e-22)
(0.085389392628 0.0480367570564 -2.51159858477e-20)
(0.0329952263714 0.0457064397425 -1.44992775649e-20)
(0.0871673854275 0.034856440257 -2.67565875498e-20)
(0.0733399298718 0.0592373137402 -4.64746666681e-22)
(0.0774240663358 0.0561630351272 5.16674483552e-24)
(0.0629347769355 0.0568943424024 -1.42056998352e-21)
(0.0698519175064 0.0540278325487 -5.6709179276e-22)
(0.0485018877113 0.0510026156492 -5.36261782003e-21)
(0.059494221494 0.0501179664191 -1.59422274653e-21)
(0.0324305181354 0.0431955975149 4.35846895025e-21)
(0.0436280440592 0.0402835914369 -1.18025174871e-20)
(0.00778288922223 0.0214108097164 4.71679080018e-21)
(0.0362423502137 0.0170344913762 -1.94475507676e-21)
(-0.00403084223953 -0.00218848550886 -1.73116253005e-20)
(0.00200278627216 -0.0107410390136 -1.54310605578e-20)
(0.0280785476035 0.0563988657109 -1.6139879267e-20)
(-0.025602526042 -0.025368729847 -3.29548329733e-20)
(0.0642314231474 0.00530074162976 -6.81402298634e-21)
(0.0755607869762 0.0516305074663 -9.71783812434e-23)
(0.0791366411959 0.0508151571919 -1.4028119785e-22)
(0.0683210295674 0.0469360647592 -7.40744555764e-22)
(0.0745434871009 0.046830431649 -8.88001213034e-22)
(0.0580239421818 0.0385737699593 -8.03412241358e-21)
(0.0678539921745 0.0403192763649 -4.80147425928e-22)
(0.0520024235194 0.0233396943564 -1.81057415141e-20)
(0.0588603628647 0.0243764029553 -5.38652718702e-21)
(0.0350330172462 -0.0059989846924 -2.20926064347e-20)
(0.0655803928722 0.00672795516559 -8.11662138246e-21)
(-0.0170849355723 -0.0382163524256 -3.10742682306e-20)
(0.0342175786942 -0.0209791797794 -1.85942085032e-20)
(0.0327955298116 0.0079952886581 -2.36289766926e-20)
(-0.0718199870014 -0.0564424203964 -2.17403686317e-20)
(0.158686472062 -0.252229215029 -2.53332456445e-21)
(0.0819918814675 0.0499294661962 -2.25104501057e-22)
(0.083009763311 0.049840598266 -1.43436618934e-22)
(0.0794858835849 0.0470645529191 -9.3110402964e-22)
(0.0819963680776 0.0482573696759 -1.85060479913e-22)
(0.0760203830075 0.0407545288369 -6.27404083198e-22)
(0.0808488954512 0.0434526894668 -1.55531788505e-21)
(0.071433598996 0.0293988216878 2.16744780062e-21)
(0.0792058316452 0.03622245591 1.31181264966e-21)
(0.0743668182455 0.0102834227216 4.60259294461e-21)
(0.0779732834967 0.0175553473206 9.28299562867e-21)
(0.0651646505355 -0.0160891240984 -4.61822345091e-21)
(0.091952099801 0.00833227705906 1.15270578532e-20)
(0.0424365550866 -0.0443016969992 -9.2603089043e-21)
(0.062428107311 -0.0158217402523 -7.8172508305e-21)
(0.104560419722 -0.252433779992 -6.44716503507e-22)
(0.136308439049 -0.0588014872675 -5.03916587469e-21)
(0.33367332252 -0.404976925325 -4.69753735474e-21)
(0.0836968037163 0.0489934405424 -1.0339259779e-22)
(0.0835282523534 0.0500085217418 -9.37331352979e-23)
(0.0841419370871 0.045975832482 -8.09274335328e-22)
(0.0850065296923 0.0486601499329 -5.53361089872e-22)
(0.0848704718069 0.0396231151141 3.83898847802e-22)
(0.0871951698398 0.0442897358449 -2.37274456988e-21)
(0.0862394245911 0.0284442294937 8.42736047771e-21)
(0.0903795837317 0.0382509174172 1.65804357304e-22)
(0.0951801046618 0.0111566835467 1.62074605373e-20)
(0.0952576255355 0.020806221578 3.9039856519e-21)
(0.086388758987 -0.00936501922964 8.32803047362e-21)
(0.112472781497 0.0215582887892 1.75636050226e-20)
(0.154405296275 -0.0192987630991 -3.59610780089e-21)
(0.0723599953916 -0.00273713266176 7.20185531338e-21)
(0.345867749368 -0.244094477485 -9.09198672592e-21)
(0.361098132703 -0.0848962380784 -2.42900018141e-20)
(0.476954313887 -0.191933782792 -5.78981317651e-20)
(0.0851511140028 0.0504421620728 -5.4370162738e-22)
(0.0836207153558 0.0521543999647 -2.06142762543e-23)
(0.0882125625912 0.0483069882621 -2.11683132442e-21)
(0.0871325309695 0.0516986497117 -7.97157785289e-22)
(0.0926426727901 0.0434965113902 -2.59083906038e-21)
(0.0919977603034 0.0487846953597 -3.16998978594e-21)
(0.0988907926722 0.0347818917892 -4.3575704685e-21)
(0.0990879349312 0.0451961824796 -3.79281744136e-21)
(0.111595929598 0.0211774155097 5.26013013718e-21)
(0.108858346723 0.0307278028031 8.88752491026e-22)
(0.0966240706613 0.0066808819527 1.64374298623e-20)
(0.126968187338 0.0419020910944 1.10846090703e-20)
(0.232399592192 0.00912572786312 -1.34920386998e-20)
(0.0699118142913 0.0154651847592 2.96236972012e-20)
(0.463896647845 -0.0353799554263 -7.30961468532e-20)
(0.405591417237 -0.0756920324781 2.54429234618e-20)
(0.596213028754 0.679407120104 -7.09253831121e-20)
(0.0818435312878 0.0531655473473 1.58350176745e-23)
(0.0788498350744 0.0537967025016 7.05966886319e-24)
(0.0856596945253 0.0540950025456 -2.74070434163e-22)
(0.0826800756816 0.0559572337543 4.3936513993e-24)
(0.0907894433438 0.0533686038133 -1.85031624681e-21)
(0.0878487376382 0.0568429642155 -4.88239067623e-22)
(0.0979976354206 0.0507189056931 -4.37196816693e-21)
(0.0946385106668 0.0559512245183 -4.32469096677e-21)
(0.10812384977 0.04541010629 1.45350551817e-21)
(0.104389725085 0.055474255501 -3.74148598246e-21)
(0.122736354127 0.0368133425936 6.71323142418e-21)
(0.117451045454 0.0443795212596 7.29009698317e-21)
(0.0983713452948 0.0287822737224 2.42708764092e-20)
(0.134998123301 0.0659984186055 -4.99341824995e-21)
(0.145836788722 0.0389768302796 6.85586593628e-20)
(0.059703530184 0.0372513365523 1.97563290958e-21)
(0.0574986411561 0.412150530644 2.76136872029e-20)
(0.0324729167165 -0.0945493484346 -5.82689720442e-20)
(-0.757590935491 1.19820780141 -1.00767141262e-19)
(0.0758814954025 0.053921427524 4.10725376394e-23)
(0.072039831856 0.0535876839831 1.11896635175e-22)
(0.0796888224563 0.0570876588719 -4.38169741198e-24)
(0.0756713246541 0.0576033075907 3.4352804962e-23)
(0.0847477794687 0.0593294434691 -2.0977498206e-22)
(0.0804267570681 0.0610055968216 2.24838394596e-23)
(0.0913733878962 0.0604400527006 -2.96261378758e-21)
(0.0867273390348 0.0635300516462 -3.68126293722e-22)
(0.100437379497 0.0603207891885 -3.6942087823e-21)
(0.0947482664433 0.0648492600226 -2.55619359184e-21)
(0.112822668804 0.0585342611977 2.09510548254e-21)
(0.106168915728 0.0677010166453 -6.96415896001e-22)
(0.128285203927 0.0552491521709 -4.41655269096e-21)
(0.120731973572 0.0601403557185 -1.25688196193e-21)
(0.0951797168936 0.0526313129519 -2.72886617496e-20)
(0.137614761081 0.0909269407726 -1.87604255785e-20)
(-0.028997103984 0.0638765251064 -1.24851998497e-19)
(0.0484635305833 0.0609172212896 -3.242271651e-20)
(-0.436891143392 0.384021047086 -1.86649800509e-19)
(-0.287697674706 -0.11295955233 -1.39179504319e-19)
(-1.53885196653 1.36591803824 -5.71095567136e-21)
(0.0718204824109 0.0576219497755 1.05176902498e-22)
(0.0762995335186 0.0619198459476 6.12183418336e-23)
(0.0713603046902 0.0620852425701 8.60631994665e-23)
(0.0821579377445 0.0656717603272 -1.35867472203e-22)
(0.0766629837656 0.0668529493048 2.02964754355e-23)
(0.0896643086574 0.0688042516999 3.82939020185e-23)
(0.0835838456481 0.0711385736828 -1.90952915282e-22)
(0.0997948987511 0.0713503729284 4.41599294461e-22)
(0.0921925621865 0.0746890476093 -1.59242786727e-21)
(0.113179144508 0.0731061452985 -4.04840334047e-21)
(0.104405787418 0.0808680672558 -7.04084019945e-22)
(0.128840024277 0.0745550211147 -1.56007548495e-20)
(0.11927898565 0.0766723202989 -5.4349731515e-21)
(0.0897131783233 0.0766438158586 -2.3894480339e-20)
(0.135524818477 0.115297022586 -2.24812138204e-20)
(-0.277095557347 0.0866857381399 -4.67502223316e-20)
(0.0384247313494 0.0850098401946 1.46511984626e-21)
(-1.43607366048 0.706257987096 4.17593405189e-20)
(-0.907281860098 0.0743717880821 -8.17803815382e-20)
(-2.82061051768 1.8921343421 9.11914498394e-20)
(0.0715410963188 0.0672888802812 4.51413330684e-23)
(0.0658243202563 0.0669102575802 5.80067415713e-23)
(0.077774220132 0.0726181213632 -3.47889676443e-23)
(0.0713221196408 0.0730746037546 -5.54285641576e-23)
(0.0856250789798 0.0777937685611 -1.82167468458e-21)
(0.078397490869 0.0791334219083 -7.4810540765e-22)
(0.0961361000936 0.0829209105433 -2.73811118168e-21)
(0.0870561059189 0.0848019650858 -2.15959532989e-21)
(0.1097193237 0.0879411498453 -2.09065383098e-21)
(0.0993784480175 0.0941634029322 -6.65092062799e-22)
(0.125242531563 0.0933609294546 -1.23154321224e-20)
(0.1138552705 0.0930250793163 -7.48438102267e-21)
(0.0845071227794 0.0990984165689 2.87838636487e-21)
(0.129786166826 0.138770280858 -1.22636389105e-20)
(-0.705397745602 0.100166451627 -3.35650393603e-20)
(0.0373723914696 0.10815634768 1.32391113499e-20)
(-2.46075543046 1.15892642583 -3.23482722176e-20)
(-1.96610278307 0.570991276812 3.20938601601e-20)
(-4.42118427001 1.86066716267 2.40534144882e-19)
(0.0653776876155 0.0728494160216 -4.25631556547e-23)
(0.0590606383879 0.0717723053571 5.19605804178e-24)
(0.0716013926864 0.0797441568084 -7.68745004163e-22)
(0.0644165559104 0.0792846361926 -5.77548791192e-23)
(0.0793402048684 0.0868768217807 -1.08602605296e-21)
(0.0712547601638 0.0870503402518 -9.63757624823e-22)
(0.0896944840019 0.0944055923241 -8.65762110026e-23)
(0.0795185669943 0.0946774691902 -2.49692305264e-21)
(0.102835634335 0.102320960677 -6.05881925449e-21)
(0.0914563708597 0.106952076511 8.33874261067e-22)
(0.117681325068 0.111350824849 -7.4325878108e-21)
(0.104821710628 0.108769738774 -5.10687256744e-21)
(0.0832328966047 0.12095165889 -1.90291392546e-21)
(0.120184262987 0.161272248598 -1.6312420339e-20)
(-0.963626026032 0.110948713418 7.88980108703e-20)
(0.0473821527373 0.127922862613 -4.51863229071e-21)
(-3.58111652441 0.215944204185 3.0497627726e-19)
(-2.07112734824 1.1451313466 -2.54760521962e-21)
(-5.82311314101 -0.491012239491 1.98164674261e-19)
(0.0578618965109 0.0782646709732 -9.99566542268e-24)
(0.0511290347974 0.0763881098955 -3.5799849848e-24)
(0.0637390267979 0.0866179405075 -2.52767499779e-22)
(0.0560535800899 0.0851454209525 7.61274635609e-24)
(0.0709591815032 0.0955411370704 -2.3746546245e-21)
(0.0623223870341 0.0944623872526 -3.24303818054e-22)
(0.0806783726209 0.105326196491 -1.57647258057e-21)
(0.0697253950035 0.103870339285 -3.33462497239e-21)
(0.0928456065035 0.116010141676 1.78582094812e-21)
(0.0807661954173 0.118716149803 7.67150297743e-22)
(0.106618238377 0.128197617461 -1.39867050957e-20)
(0.0926308011517 0.123284485886 2.22835181835e-21)
(0.0830511029329 0.141586406044 -1.89281387043e-20)
(0.106794541145 0.182225482809 -2.92653785369e-20)
(-0.879049315989 0.131511631577 -8.59642483806e-20)
(0.0574501371756 0.142662996957 -1.59547671009e-20)
(-4.54928623797 -0.504363269425 -1.09359208219e-19)
(-1.43526909873 0.735573661246 -3.80312975961e-19)
(-5.85981385209 -5.92173038135 -4.50658369453e-20)
(0.0491069824678 0.0832420377088 1.4028426794e-23)
(0.0421420971193 0.0805128603033 -8.85969229555e-23)
(0.054333060598 0.092908723074 -6.39235719192e-23)
(0.0463783893549 0.0903588974678 -1.48935377922e-23)
(0.0607044290894 0.103475989204 -1.28427416594e-21)
(0.0517468655484 0.101012124753 4.8158003235e-23)
(0.0693237274751 0.115104960531 -9.91002094077e-22)
(0.0580890402021 0.111951352152 -9.77094767984e-22)
(0.0800844715824 0.128305411609 1.20968116797e-21)
(0.0675600089807 0.129034015221 -8.63249625306e-22)
(0.0925892174734 0.143087092064 -1.30503216229e-20)
(0.0778459974685 0.136017435696 2.24453248753e-20)
(0.0808215329813 0.158773416522 -2.62920069335e-20)
(0.0911074027464 0.200675618806 -3.25496543907e-20)
(-0.405558952316 0.149078099983 -3.10303494681e-19)
(0.0671308382197 0.153671891167 -3.65787115765e-20)
(-0.118698721767 -1.31275129374 -3.16019604688e-19)
(0.0266026335056 0.0492372807902 -3.1509478381e-19)
(7.16305012436 -6.56776521244 4.77036980617e-20)
(0.0392233929558 0.0875282078596 -1.17518887542e-22)
(0.0322640209823 0.0839311759473 -4.48148562511e-22)
(0.0435317287855 0.0983009558026 9.71880373621e-23)
(0.0355983548476 0.0946531513026 -1.83902958079e-22)
(0.0487824320549 0.110226828352 3.55337401191e-22)
(0.0398136883781 0.106392978181 4.28709367184e-22)
(0.0558673281122 0.1234639511 -8.49342299213e-22)
(0.0448452324704 0.118505439095 -1.70484479697e-21)
(0.0647136070981 0.138776458064 2.0372394082e-20)
(0.0522423232153 0.137398530019 6.19066808575e-21)
(0.0755690123319 0.156075477577 2.9459921074e-21)
(0.0605441707783 0.146015961152 2.10780093161e-21)
(0.0758917145898 0.172735495156 -4.28363590337e-20)
(0.0744465683443 0.214782959706 -4.20553356402e-20)
(0.40147669757 0.162366614525 -4.13700007054e-20)
(0.07750889921 0.16075565965 -9.57842907305e-21)
(5.73630478943 -0.875297617605 4.86285189391e-20)
(1.06426938666 -0.0785406970379 -5.58858543516e-20)
(11.8192750755 -3.00898152276 1.55638234773e-19)
(0.0259842146562 0.0803346813169 9.24191162831e-23)
(0.0198943422742 0.0760527798447 1.63823110449e-21)
(0.0284963113197 0.0908860358389 -5.14532633049e-22)
(0.0217071595137 0.0863568211903 -1.53863012021e-21)
(0.031674503535 0.102505793787 1.47618371743e-22)
(0.0239722840916 0.0977020723152 -6.31277660498e-22)
(0.0356102364379 0.115491587085 -1.63147283097e-21)
(0.0268213411093 0.110264405939 2.28479194518e-22)
(0.0411371751956 0.129933008953 5.335165588e-21)
(0.0303977958224 0.123455433681 -2.77241988045e-21)
(0.048523759905 0.146370444768 -1.20739250646e-20)
(0.035800254042 0.144211939956 5.70353479447e-21)
(0.0606437184136 0.164493274787 -4.2893526816e-20)
(0.0424188861027 0.154405819136 -1.5317085482e-20)
(0.0823470731868 0.183161238363 -8.79740567953e-21)
(0.0557780029539 0.227497607028 -1.57525173952e-20)
(0.836470576388 0.177343952508 -2.40942827192e-20)
(0.0833333918292 0.16714633762 2.45982525459e-20)
(7.28910818801 -0.790913380364 5.11238614821e-20)
(2.03251117742 -0.120680862025 -3.86598988894e-20)
(14.2858088872 -0.127712426446 7.50668608044e-19)
(0.015077366972 0.081957098838 7.18186800154e-24)
(0.00982645419102 0.0755746060053 1.05280094066e-21)
(0.0165917729092 0.0929333653281 -1.65537514765e-21)
(0.0107259634022 0.085963090704 -1.39125538367e-21)
(0.0184464048179 0.105113700529 -5.50416837723e-22)
(0.0117861436847 0.0974096838023 -1.11343428926e-21)
(0.0206672372589 0.119017521462 -9.12467854955e-22)
(0.0129115252168 0.110017786309 1.85038993837e-22)
(0.0238141151187 0.135215878891 -2.40405067398e-21)
(0.0141939818268 0.12326402746 -6.43970737315e-21)
(0.0289438956534 0.154153940261 2.46037437707e-21)
(0.0168580778411 0.143974951651 4.19010010467e-21)
(0.0340167932014 0.17360180979 1.18239239388e-20)
(0.0229688925386 0.15360142032 3.77503713504e-21)
(0.0378304980063 0.196110630127 1.76431408302e-20)
(0.0332686787495 0.234384287505 -3.70403036319e-20)
(0.993005001657 0.240420339191 1.00326363757e-20)
(0.0390303023534 0.16806329423 -3.81827442997e-20)
(7.73690476296 0.0648992362509 6.60884847673e-19)
(2.20804394708 -0.177264048028 6.53748841463e-19)
(11.1086375345 5.86790727138 5.53074266916e-19)
(0.00673243950538 0.07936640824 -3.45636311013e-22)
(0.00725188499971 0.0900896972723 -8.49314525283e-22)
(0.0076382504226 0.101872915724 -3.77978457705e-22)
(0.00774188391177 0.114781599676 -5.34220052436e-21)
(0.00769108688773 0.128973209727 1.54443405493e-22)
(0.00954367673464 0.145829736343 5.50476286264e-21)
(0.0213402952235 0.168798124568 -4.50891904356e-20)
(0.0421855168412 0.202066848716 -9.28661887617e-20)
(0.864216371286 0.24110183446 6.05533460788e-19)
(4.85787353229 2.44914750924 5.45938260707e-19)
)
;

boundaryField
{
    back
    {
        type            calculated;
        value           uniform (0 0 0);
    }
    sides
    {
        type            calculated;
        value           uniform (0 0 0);
    }
    bottom
    {
        type            calculated;
        value           nonuniform List<vector> 0();
    }
    front
    {
        type            calculated;
        value           uniform (0 0 0);
    }
    atmosphere
    {
        type            calculated;
        value           nonuniform List<vector> 
17
(
(0.131698586638 -0.060876525733 -4.77543552848e-20)
(-0.000473125534295 0.0793305497386 3.16800263875e-23)
(0 -0.0864626343862 0)
(1.72660910432 -0.427423281697 1.13258705697e-19)
(0.316877373218 -0.387378513377 -1.11101743379e-21)
(-0.403197768621 -0.154649822644 4.93262854723e-21)
(3.03451599707 1.7659500485 -1.37293678442e-18)
(14.6051322508 1.16526705293 -1.47658529812e-18)
(0.956940270939 1.98809155346 -1.49869203501e-20)
(6.03102170125 2.75947374111 -1.07191055771e-19)
(-15.5268009513 1.61786254319 1.43645472855e-19)
(38.8179071027 -0.467565062122 -2.61494563876e-19)
(-94.8269854581 -14.3357074651 6.52456799728e-19)
(10.7396198584 -5.53149372103 1.31322758886e-19)
(13.0012237777 -3.25744727829 1.79953768748e-19)
(13.527558241 3.24207431594 1.32138355403e-18)
(8.04047495113 13.55778978 -2.15234009798e-19)
)
;
    }
    floatingObject
    {
        type            calculated;
        value           nonuniform List<vector> 0();
    }
    procBoundary11to9
    {
        type            processor;
        value           nonuniform List<vector> 9((0.088955994763 0.0685491860295 -3.28974907554e-22) (0.0806254461753 0.0735108157411 -1.20770431237e-22) (0.0689798421488 0.0775979759709 -1.14985091498e-21) (0.0534723160604 0.0811774638934 -3.19823498441e-21) (0.0335841873023 0.0843953578574 -1.39369363019e-21) (0.00884775385722 0.0614976412331 1.73329438034e-20) (-0.0327344745072 0.0597727144558 3.48529797739e-21) (0.0297171352681 0.0943171451708 -1.05018626678e-21) (-0.0217253248884 -0.0436762150559 -2.2117121536e-20));
    }
    procBoundary11to10
    {
        type            processor;
        value           nonuniform List<vector> 
23
(
(0.0901265731148 0.0622029733408 -3.08530340757e-23)
(0.0852212881305 0.0615871250018 -7.83484637562e-23)
(0.0810403573337 0.0591029786337 -6.09687708468e-23)
(0.0808517668085 0.0533466453942 -6.800870936e-24)
(0.0826622404552 0.0518112772018 -9.16241741438e-23)
(0.0839432981704 0.0502853983895 -8.26148926437e-23)
(0.0835108417734 0.0495259036586 -7.09518779154e-23)
(0.0829901719126 0.0505507581092 -3.45841945497e-23)
(0.0810610834106 0.0509757243813 1.86509937911e-24)
(0.0790189307393 0.0509778558637 8.7823915179e-24)
(0.0759813384494 0.0506928039403 4.27952602941e-23)
(0.0729885468873 0.0500036208097 4.06710172007e-23)
(0.0683880697326 0.0528678478651 8.01190679406e-23)
(0.067268525125 0.0570240442305 1.03947117091e-22)
(0.0667193302972 0.0617722586414 8.48334140599e-23)
(0.0605190353309 0.0661031865448 1.17169768012e-22)
(0.0532487388183 0.0703481474193 8.46250998929e-23)
(0.044988945151 0.0742682078653 5.11801584391e-23)
(0.0358167010237 0.077659933177 -2.5175741e-22)
(0.0296198635276 0.0741303154683 2.88810268794e-22)
(0.0239959693762 0.0706176981013 7.41748257417e-22)
(0.0138661251649 0.0718936087293 9.73076834063e-22)
(0.00625238950894 0.0695425527655 2.94231288828e-23)
)
;
    }
}


// ************************************************************************* //
