/*--------------------------------*- C++ -*----------------------------------*\
| =========                 |                                                 |
| \\      /  F ield         | OpenFOAM: The Open Source CFD Toolbox           |
|  \\    /   O peration     | Version:  v2012                                 |
|   \\  /    A nd           | Website:  www.openfoam.com                      |
|    \\/     M anipulation  |                                                 |
\*---------------------------------------------------------------------------*/
FoamFile
{
    version     2.0;
    format      ascii;
    class       volVectorField;
    location    "1.9";
    object      ddtCorrDdt0(U);
}
// * * * * * * * * * * * * * * * * * * * * * * * * * * * * * * * * * * * * * //

dimensions      [0 1 -2 0 0 0 0];


internalField   nonuniform List<vector> 
167
(
(0.0872083597947 0.0648684171611 -2.93928104606e-23)
(0.0792030441265 0.0684207268357 1.49555804932e-22)
(0.0683881898121 0.0705631429766 -9.48418022141e-22)
(0.0536844850101 0.0717636456504 -8.58424231655e-22)
(0.0341086850496 0.0714376756794 -1.3744936491e-21)
(0.010589142 0.0471536416456 1.48914496556e-20)
(-0.0207528051395 0.0407461852937 6.24691917005e-21)
(0.0390801986194 0.0753002439734 -2.47761641061e-21)
(0.131698586637 -0.0194753006578 -4.77543552847e-20)
(0.0777107077887 0.0594862023178 5.36657535815e-24)
(0.0689691519549 0.058457764399 -9.3485990872e-22)
(0.0569004019161 0.0562202887535 -1.90628005833e-21)
(0.0401033735066 0.0498868439328 -8.81895558173e-21)
(0.0247576627642 0.024521748172 1.75358934822e-20)
(-0.00919188431972 -0.000493673373219 -8.10231188186e-21)
(0.00113019984066 0.0161126355116 -2.65209387192e-20)
(0.0550268953664 0.0891881811718 -5.75881981484e-21)
(0.0785625959104 0.0528398679366 4.9669143129e-24)
(0.0725589780419 0.0495979006984 -1.993236768e-22)
(0.0640830810929 0.0440156440847 -1.28216543473e-21)
(0.0519648032708 0.030680338941 -1.47860793924e-20)
(0.052040043768 0.00954723458036 -2.14254036358e-20)
(0.0180259907244 -0.0209884046539 -2.27598092337e-20)
(-0.0521958618689 -0.0668500952055 -3.93887272274e-20)
(0.117786921492 -0.0785866979123 -7.86922615784e-21)
(0.0831035960155 0.0502847909392 -1.64679692103e-22)
(0.0808801669194 0.0487904464471 -2.85529310012e-22)
(0.0780916002505 0.0440629625996 -1.57667874927e-21)
(0.0739491657645 0.036622908645 3.21870582873e-22)
(0.0689180322275 0.0180724669695 4.01302501837e-21)
(0.0798156042636 0.00390867575083 5.19216087084e-21)
(0.0505136968073 -0.020969954905 -1.44286077727e-20)
(0.0343594133659 -0.0460347455873 -4.09201003595e-21)
(0.174761426079 -0.425871732146 2.80257702894e-21)
(0.0835641024262 0.0493964055927 -1.22193545766e-22)
(0.0838295050064 0.0477242929046 -8.45916498133e-23)
(0.0844543691678 0.0428424163339 -1.53395702084e-21)
(0.0852865744459 0.035822003175 2.30175471645e-21)
(0.0871922747362 0.0170382276717 1.4552966239e-20)
(0.103167934587 0.0127558783673 1.78619548356e-20)
(0.0696095833866 -0.0106735255995 -1.20589388835e-21)
(0.239201009162 -0.0715682289477 -5.98632171343e-21)
(0.452534489574 -0.384082118503 -1.21976517384e-20)
(0.0838865948799 0.0506206378908 -6.52727248298e-23)
(0.0864156331256 0.0495960069613 -1.02213052993e-21)
(0.0900094920568 0.0457370553558 -3.21153211892e-21)
(0.0952758535233 0.0406798316594 -1.97014600184e-21)
(0.102505731821 0.0245742154843 -6.74499493517e-21)
(0.120686127374 0.030360699211 1.72652552095e-20)
(0.0725620139481 0.00519926027603 1.56096045151e-20)
(0.392237170436 -0.098224247209 -4.25936819147e-20)
(0.535556125254 0.000214552918741 -1.03598611792e-19)
(0.0802241305314 0.0521066497839 7.62586302773e-24)
(0.0834629320441 0.0536881620386 2.40441723212e-23)
(0.0878564570065 0.0538012924621 -5.72185040648e-22)
(0.0937224296812 0.0518323353637 -3.12844745297e-21)
(0.10227284116 0.0497125332998 -5.61548888088e-21)
(0.113974858381 0.0368813901219 8.52249991722e-21)
(0.131497849874 0.0534434829779 4.90396293115e-21)
(0.065244840716 0.0257311092425 4.36377898872e-20)
(0.226428736728 -0.0531598177472 9.34795288383e-20)
(-0.111431454416 1.35859968729 -3.82521544326e-20)
(0.0742400572644 0.0519766605965 7.56516005801e-23)
(0.0775229335407 0.0554867552192 6.49347469865e-24)
(0.0818547113719 0.05822630547 -1.52568695226e-23)
(0.0876408475656 0.0598846359688 -4.04293094597e-22)
(0.0951059282269 0.060070113673 -5.52093448056e-21)
(0.105768830766 0.0612359777021 -1.86748308404e-21)
(0.119876506841 0.0518776523973 6.05769404912e-21)
(0.136693901013 0.0785533542331 -1.4890799431e-20)
(0.0536655327745 0.0487715638621 -3.96865240681e-20)
(-0.111659740742 -0.135938879122 -2.10017472927e-19)
(-0.762122546041 1.03781591553 -1.63282128092e-19)
(0.0698737541188 0.0551987073697 1.4814166977e-22)
(0.0737672107029 0.0597198599623 6.22121352254e-23)
(0.0788318563342 0.0637848881733 6.02245484419e-23)
(0.0854840191547 0.0671754673235 -3.31959492847e-22)
(0.0938445981602 0.0696284063722 4.08547296884e-22)
(0.105745199342 0.0741660555884 4.74651292039e-22)
(0.120613089675 0.0684030590398 -8.57145797298e-21)
(0.137066958879 0.103300527312 -2.2630051726e-20)
(0.0423593977678 0.0730628787172 -2.51589089519e-20)
(-0.596550512461 -0.0899802255385 -6.83415357113e-20)
(-2.27559680851 1.69402016095 1.51860216749e-19)
(0.0688251450582 0.0644506251779 1.09914263708e-22)
(0.0742570475795 0.0699210104363 -1.96315975709e-23)
(0.0812913926845 0.0751016800421 -4.99463377177e-23)
(0.089958765275 0.0797496888464 -3.59340303143e-21)
(0.102313434912 0.0875700789232 -1.88281933193e-21)
(0.117125212488 0.084941581558 -2.29848833003e-21)
(0.133359850639 0.12729351786 -2.23323759147e-20)
(0.0356543949201 0.0969568016719 2.80891486445e-20)
(-1.44644988612 0.238723801703 -9.5219227365e-20)
(-3.4750609748 2.09024852325 3.05226829297e-20)
(0.0626500824901 0.0693698899824 6.09921943496e-24)
(0.068105292741 0.076228197073 -9.12255307444e-23)
(0.0750974926319 0.0831651637745 -1.44626447758e-21)
(0.083582917105 0.0898542413252 -7.25787628337e-22)
(0.0958060508988 0.100756726941 5.52635206332e-22)
(0.10986521777 0.101108577075 -1.26702737153e-20)
(0.125497432366 0.150247043856 -2.19490190629e-21)
(0.0409683608433 0.119355893689 -1.61092594463e-21)
(-1.96822041291 0.903258751921 1.59406947685e-19)
(-5.19401263591 1.63108580208 4.50545606834e-19)
(0.0552789812289 0.0741747207318 4.29289664861e-24)
(0.060444811793 0.0823410753122 -2.4284227494e-23)
(0.0670332418029 0.0909355167291 -4.81250772064e-22)
(0.0748851212034 0.0995006970552 -4.26805847694e-21)
(0.0864716240384 0.113147426081 1.1151133158e-21)
(0.0992195889686 0.116430900474 2.45652858043e-21)
(0.114016887785 0.172297453341 -3.04299387718e-20)
(0.0520853180813 0.136489831536 -7.42633863678e-21)
(-1.81018395006 1.38700394128 -1.64502158124e-19)
(-7.28838852589 -2.61311028106 -5.42162583129e-20)
(0.0468053402001 0.0786014990592 -1.14528666182e-23)
(0.0514086247354 0.0879497665928 3.95097202061e-23)
(0.0572574964605 0.0979892577762 -1.67356864045e-22)
(0.0641513617184 0.108239981515 -2.40119146784e-21)
(0.0744960932319 0.124284873526 4.19187279683e-22)
(0.0856728499329 0.130138071298 2.00017505626e-21)
(0.0995055850139 0.192153512277 -2.81008183021e-20)
(0.0621374809486 0.148836162377 -2.4483195565e-20)
(-0.873255385581 0.0841433812111 -5.96123793797e-19)
(0.635857942048 -9.23035048164 -3.59154155777e-20)
(0.037322331532 0.0824242215474 -1.65740979293e-22)
(0.0411244543795 0.0927680283428 -6.92967957905e-23)
(0.0459390031914 0.10403499173 2.63672870515e-22)
(0.0516258609185 0.115662722789 4.47001931868e-22)
(0.060108795306 0.133783156916 -2.14568653029e-21)
(0.0693184188903 0.141896800094 4.28904746943e-20)
(0.0818196057734 0.209197725335 -3.69984904794e-20)
(0.0699638234062 0.158507619957 -4.8674227588e-20)
(0.732989571733 0.0143311803693 -3.40657738229e-20)
(10.7396200071 -3.90517994324 1.31322811701e-19)
(0.0248732830662 0.0753295345187 9.15394378295e-22)
(0.0270951462461 0.0854381303472 -7.30556145729e-22)
(0.0298974763933 0.0965382742624 -2.98509120368e-22)
(0.0334515306767 0.108750964632 5.93745863854e-22)
(0.037768942199 0.121348155401 -3.8566915258e-21)
(0.0445054081921 0.141013903123 1.45270227018e-20)
(0.0525421116179 0.15013512221 -3.8674872831e-20)
(0.0687453252093 0.220368194077 -4.71121808009e-20)
(0.0959488211643 0.163003699343 2.95173694419e-20)
(1.57699233161 -0.171412574445 -7.77059348803e-20)
(13.0012240444 -2.11278310229 1.79953657844e-19)
(0.0144012456878 0.0767760251707 2.36106783068e-21)
(0.0157534882563 0.0872755120333 -2.34670409468e-21)
(0.0174300575621 0.098865870368 -9.64046200627e-22)
(0.0194627520737 0.111777847247 -1.36787474818e-22)
(0.0218717224441 0.125562711962 -1.68814823509e-21)
(0.0257565077933 0.14740997679 -3.11995311286e-21)
(0.0321312835135 0.158676516063 8.04070186701e-21)
(0.0359023028894 0.234627019978 1.56071460105e-20)
(0.0397586931231 0.171288975897 1.96791356499e-20)
(1.94625131019 -0.0699491496056 3.86137101466e-22)
(13.5275582157 1.85735824939 1.32138355824e-18)
(0.00647237341239 0.0743731868398 -2.5546594936e-22)
(0.00699250559836 0.0846506693748 -4.35806672665e-22)
(0.00751126440106 0.0959534972366 -1.2628223779e-21)
(0.00776523644415 0.108257725372 5.06865462492e-22)
(0.00771853137939 0.120965342959 -1.11912665112e-20)
(0.00766364239606 0.140539926512 1.15001533222e-20)
(0.0114237110732 0.148526324578 -4.90627596925e-22)
(0.0312568793738 0.234141555031 -8.96877532742e-20)
(0.0531141543086 0.164837612562 -9.60446242492e-20)
(1.67531858826 -0.284578946449 1.30711154582e-18)
(8.04042847631 9.87845629336 -2.15235024411e-19)
)
;

boundaryField
{
    back
    {
        type            calculated;
        value           uniform (0 0 0);
    }
    sides
    {
        type            calculated;
        value           uniform (0 0 0);
    }
    bottom
    {
        type            calculated;
        value           nonuniform List<vector> 0();
    }
    front
    {
        type            calculated;
        value           uniform (0 0 0);
    }
    atmosphere
    {
        type            calculated;
        value           nonuniform List<vector> 
17
(
(0.131698586638 -0.0194753006578 -4.77543552848e-20)
(-0.000473125534295 0.0891881811718 3.16800263875e-23)
(0 -0.0785866979123 0)
(1.72660910432 -0.425871732146 1.13258705697e-19)
(0.316877373218 -0.384082118503 -1.11101743379e-21)
(-0.403197768621 0.000214552918741 4.93262854723e-21)
(3.03451599707 1.35859968729 -1.37293678442e-18)
(14.6051322508 1.03781591553 -1.47658529812e-18)
(0.956940270939 1.69402016095 -1.49869203501e-20)
(6.03102170125 2.09024852325 -1.07191055771e-19)
(-15.5268009513 1.63108580208 1.43645472855e-19)
(38.8179071027 -2.61311028106 -2.61494563876e-19)
(-94.8269854581 -9.23035048164 6.52456799728e-19)
(10.7396198584 -3.90517994324 1.31322758886e-19)
(13.0012237777 -2.11278310229 1.79953768748e-19)
(13.527558241 1.85735824939 1.32138355403e-18)
(8.04047495113 9.87845629336 -2.15234009798e-19)
)
;
    }
    floatingObject
    {
        type            calculated;
        value           nonuniform List<vector> 0();
    }
    procBoundary11to9
    {
        type            processor;
        value           nonuniform List<vector> 9((0.0922478927451 0.0722299548979 -6.28557004648e-22) (0.0836385720818 0.0786009046465 -3.91096667406e-22) (0.0718039542432 0.0846328089652 -1.35128380782e-21) (0.0561233486828 0.0905912821364 -5.53804573716e-21) (0.0364219110959 0.0973530400355 -1.41289361128e-21) (0.0131638970071 0.0758416408206 1.97744379512e-20) (-0.0413962724548 0.0787992436178 7.23676784723e-22) (0.00949610683282 0.113334046368 3.77243877055e-22) (-0.212490141007 -0.067877129454 3.52011221267e-21));
    }
    procBoundary11to10
    {
        type            processor;
        value           nonuniform List<vector> 
23
(
(0.0930447864349 0.0602172868022 -3.23132576907e-23)
(0.0843700068787 0.0583058328424 -1.27304117052e-22)
(0.0843700068787 0.0583058328424 -1.27304117052e-22)
(0.0831409377066 0.0533377634644 -1.85686561849e-23)
(0.0831409377066 0.0533377634644 -1.85686561849e-23)
(0.0847830003252 0.0497143992533 -5.50093184686e-25)
(0.0834575811206 0.049002850695 -1.97102100648e-23)
(0.0820937489452 0.0498447989787 -3.89566426951e-24)
(0.0820937489452 0.0498447989787 -3.89566426951e-24)
(0.0778137309472 0.0494089472842 9.93892000807e-24)
(0.0778137309472 0.0494089472842 9.93892000807e-24)
(0.0717370365102 0.0477880848647 5.6904338213e-24)
(0.0669023853464 0.0502538174189 1.20964661108e-23)
(0.0646135155362 0.0588493810912 5.97525644123e-23)
(0.0646135155362 0.0588493810912 5.97525644123e-23)
(0.0583879881717 0.0626727186543 2.28240316589e-22)
(0.0512184964077 0.0664322783677 1.64957303137e-22)
(0.0431725501018 0.0699115736079 1.13813183496e-22)
(0.0343110705153 0.0729310964179 -3.37773840707e-22)
(0.0343110705153 0.0729310964179 -3.37773840707e-22)
(0.0231186556862 0.0659623003728 5.68102136538e-22)
(0.013331004642 0.0670968327379 -4.14914162558e-22)
(0.0060324056055 0.0649252297562 3.14312207126e-22)
)
;
    }
}


// ************************************************************************* //
