/*--------------------------------*- C++ -*----------------------------------*\
| =========                 |                                                 |
| \\      /  F ield         | OpenFOAM: The Open Source CFD Toolbox           |
|  \\    /   O peration     | Version:  v2012                                 |
|   \\  /    A nd           | Website:  www.openfoam.com                      |
|    \\/     M anipulation  |                                                 |
\*---------------------------------------------------------------------------*/
FoamFile
{
    version     2.0;
    format      ascii;
    class       surfaceScalarField;
    location    "3.5";
    object      alphaPhi0.water;
}
// * * * * * * * * * * * * * * * * * * * * * * * * * * * * * * * * * * * * * //

dimensions      [0 3 -1 0 0 0 0];
oriented        oriented;


internalField   nonuniform List<scalar> 
3840
(
-8.46924336634e-06
8.46921911131e-06
-1.89042410641e-05
1.04349739924e-05
-3.01379211355e-05
1.12336676625e-05
-4.16416577491e-05
1.15037506221e-05
-5.33283949632e-05
1.16867911104e-05
-6.53329960152e-05
1.20048611351e-05
-7.78405702452e-05
1.25080604837e-05
-9.09959456144e-05
1.31560471432e-05
-0.000104976929962
1.39817495316e-05
-0.000119992800501
1.5016495171e-05
-0.000136227757116
1.62357095156e-05
-0.000153964852869
1.77379465131e-05
-0.00017328553456
1.93213719196e-05
-0.000194359492821
2.107430712e-05
-0.000218111421853
2.37522652561e-05
-0.000248039679198
2.99285770419e-05
-0.000251194053263
4.36238670533e-05
-1.98353611703e-06
3.34083247075e-05
-1.07075085973e-06
-7.08120601264e-09
9.96856108887e-10
-1.0407379754e-05
1.88765705178e-05
-2.10542770565e-05
2.10818455167e-05
-3.21420774176e-05
2.23214600471e-05
-4.36764416707e-05
2.30381365448e-05
-5.5600196455e-05
2.36106097613e-05
-6.79741407554e-05
2.4379063439e-05
-8.08596455756e-05
2.53941430544e-05
-9.44108379052e-05
2.67076013198e-05
-0.000108781046702
2.83531093631e-05
-0.000124145357854
3.03813846782e-05
-0.000140770068349
3.28611894322e-05
-0.000158937317467
3.59060888338e-05
-0.000179039557087
3.94248340083e-05
-0.000201464847938
4.35004743953e-05
-0.000226691713771
4.89795815025e-05
-0.000256729156248
5.99666454548e-05
-0.00025680035893
8.35061888843e-05
-1.16302879568e-06
5.26829161037e-05
-5.1472130269e-08
-9.2075343001e-10
8.35469815174e-16
-1.09997474387e-05
2.98762810907e-05
-2.18730492889e-05
3.19551154221e-05
-3.30262529119e-05
3.34746509302e-05
-4.45549134873e-05
3.45668178238e-05
-5.65095079251e-05
3.55652642507e-05
-6.8911352313e-05
3.67811727133e-05
-8.18093620614e-05
3.82924340811e-05
-9.53513293252e-05
4.025051427e-05
-0.000109670469984
4.26727736327e-05
-0.000124932892072
4.56447617597e-05
-0.000141359611525
4.92888542764e-05
-0.000159231343071
5.37783766227e-05
-0.000179023325004
5.92180118715e-05
-0.000201243071678
6.57213020611e-05
-0.000226083854904
7.38207151111e-05
-0.000252385564807
8.62692549978e-05
-0.0002439690745
0.000111741583306
-1.04258050838e-06
7.07623054697e-05
-3.10249703847e-08
-7.90350207885e-09
7.26260539101e-11
-1.08944842041e-05
4.07707198735e-05
-2.18060924604e-05
4.28666841258e-05
-3.29227382265e-05
4.45912774463e-05
-4.43400847603e-05
4.59841773422e-05
-5.61459190036e-05
4.73711413766e-05
-6.83282170651e-05
4.8963616338e-05
-8.10133469679e-05
5.09779980684e-05
-9.42391777286e-05
5.34765745955e-05
-0.000108121362021
5.65567314281e-05
-0.000122884117623
6.04088914664e-05
-0.000138671462954
6.5077250955e-05
-0.000155679428131
7.07874879505e-05
-0.000174367391014
7.79066505454e-05
-0.000194954490339
8.63088545947e-05
-0.000217490019087
9.63566698251e-05
-0.000240448582007
0.000109228611916
-0.000229411807617
0.00013327483196
-7.47202234607e-07
8.32626330357e-05
-1.01781158667e-07
1.50361320542e-08
2.67321994383e-14
-1.05038881606e-05
5.12745571888e-05
-2.12441396854e-05
5.36068919699e-05
-3.21871548003e-05
5.55342705302e-05
-4.33671930002e-05
5.71642262302e-05
-5.48422308207e-05
5.88462155768e-05
-6.66741525955e-05
6.0795612017e-05
-7.88948751459e-05
6.31989518504e-05
-9.15740251906e-05
6.61562346401e-05
-0.000104870008625
6.98538463083e-05
-0.000118814291198
7.43550723537e-05
-0.000133575094295
7.98399539273e-05
-0.000149299095668
8.65131271545e-05
-0.000166075962998
9.46839226505e-05
-0.000184146095776
0.000104379473855
-0.000203649897991
0.000115861009718
-0.000223488675429
0.000129067954363
-0.000212387487183
0.000150110671671
2.49716968473e-07
8.90909535761e-05
-1.76009117856e-08
-1.39887172641e-08
3.55761657548e-09
-1.00521021523e-05
6.13266076657e-05
-2.04061407648e-05
6.39608877848e-05
-3.10288059423e-05
6.61569163316e-05
-4.19036377284e-05
6.8039071328e-05
-5.29823754461e-05
6.99249993619e-05
-6.43567412584e-05
7.21700417779e-05
-7.60212185801e-05
7.48635425889e-05
-8.80824666619e-05
7.82179384685e-05
-0.00010053631167
8.23087034108e-05
-0.000113486904044
8.73074320056e-05
-0.000126942043019
9.32969913191e-05
-0.000141065335508
0.000100637555463
-0.000155713682218
0.000109333016346
-0.000171006611065
0.000119673048344
-0.000186705042407
0.000131560166973
-0.000202645774178
0.000145009397002
-0.00019168741396
0.000161977206355
5.5501408341e-08
9.02869841046e-05
-4.09623524337e-08
-9.55651227321e-09
6.32293910941e-11
-9.57070563684e-06
7.08972650388e-05
-1.95638211757e-05
7.3953966113e-05
-2.97613004871e-05
7.63543832492e-05
-4.01852217229e-05
7.84630121438e-05
-5.08032910971e-05
8.05431198978e-05
-6.16034953804e-05
8.29703284627e-05
-7.26736884591e-05
8.59338552831e-05
-8.40069991045e-05
8.95517525481e-05
-9.55708098794e-05
9.38734440578e-05
-0.000107471339172
9.92094959364e-05
-0.000119690580907
0.000105518331729
-0.000132112856576
0.00011306090782
-0.000144674523167
0.000121895660287
-0.000156928989375
0.000131928366301
-0.000169329197957
0.000143961147251
-0.000181331018843
0.000157011857153
-0.000171976847453
0.000170711314039
-8.54596962441e-08
8.96041328697e-05
-1.65050923123e-10
4.98576620447e-09
-4.68697366064e-12
-9.10269740423e-06
7.99999202668e-05
-1.86010977524e-05
8.34523372695e-05
-2.83640394233e-05
8.61173217913e-05
-3.83064494444e-05
8.84054480292e-05
-4.8412233266e-05
9.06489580295e-05
-5.86259629606e-05
9.31841456723e-05
-6.90416034194e-05
9.63496416896e-05
-7.95925299268e-05
0.000100103175978
-9.0348995541e-05
0.000104630845839
-0.000101194631554
0.000110056361599
-0.000112080388945
0.00011640593897
-0.000122911319945
0.000123892946753
-0.000133463714124
0.000132449085973
-0.000143677333234
0.000142142883074
-0.000153130636651
0.000153414959834
-0.000162018430118
0.000165899878057
-0.000154042056483
0.000176880752795
3.51802419425e-08
9.06777063913e-05
-2.12114023123e-10
-1.40127175296e-09
-3.96656786155e-11
-8.60769610051e-06
8.86075805001e-05
-1.76057161805e-05
9.24503354538e-05
-2.68747350396e-05
9.53863447577e-05
-3.63045178411e-05
9.78352603459e-05
-4.58414312726e-05
0.000100185917081
-5.55208874394e-05
0.000102863664244
-6.52341268902e-05
0.000106063010383
-7.508937761e-05
0.000109958828385
-8.49313137568e-05
0.00011447372077
-9.47841559819e-05
0.00011991062425
-0.000104550162016
0.000126173954764
-0.00011402309007
0.000133367160984
-0.000122943125426
0.000141370455078
-0.000130997290931
0.000150198414455
-0.000138055841988
0.000160473543929
-0.000144603483227
0.000172447536011
-0.000138129694019
0.000181595579973
-1.57611327815e-08
9.10658296545e-05
-3.35006004532e-10
8.37211161438e-10
-1.00481960381e-10
-8.09685855209e-06
9.67044064352e-05
-1.66192271169e-05
0.000100972684773
-2.53484868691e-05
0.0001041156088
-3.42333689849e-05
0.000106720163374
-4.32176887529e-05
0.000109170254324
-5.22716078082e-05
0.00011191760237
-6.13943625585e-05
0.000115185862368
-7.04875566401e-05
0.00011905239317
-7.96143642236e-05
0.000123601490852
-8.85451439847e-05
0.000128842732761
-9.72787444342e-05
0.000134909671662
-0.000105552428635
0.000141642187345
-0.000113101640126
0.000148921029944
-0.000119485079933
0.00015658321767
-0.000124521068097
0.000165509692477
-0.00012877234465
0.000176698858681
-0.000122753101705
0.000184578421102
1.15214592119e-08
8.97873718376e-05
-1.02401298798e-09
-1.48993181261e-11
-8.5346058653e-12
-7.5804812678e-06
0.000104284852064
-1.55416722563e-05
0.000108933850098
-2.37628766769e-05
0.000112336804788
-3.21183621567e-05
0.000115075638153
-4.05382275302e-05
0.000117590097836
-4.90056481296e-05
0.000120385084437
-5.74968908418e-05
0.000123677112781
-6.59924713039e-05
0.000127548297262
-7.43527536255e-05
0.000131962574834
-8.26127676024e-05
0.000137104033202
-9.0502590272e-05
0.000142801486528
-9.79063995703e-05
0.000149047346025
-0.000104538355153
0.000155554385888
-0.000109984408437
0.000162030576324
-0.000113945619502
0.000169471120156
-0.000116335694673
0.000179089022718
-0.00010881167774
0.000184645327514
9.69955194343e-09
8.61663626516e-05
-2.39145603236e-10
-5.92674402624e-11
-3.27866917905e-11
-7.06153029048e-06
0.000111346336715
-1.44693196307e-05
0.000116341597355
-2.21342767421e-05
0.00012000173531
-2.99442554603e-05
0.000122885549889
-3.78189666503e-05
0.00012546474957
-4.5725182695e-05
0.000128291212839
-5.36335888926e-05
0.00013158548344
-6.15141675173e-05
0.000135429078237
-6.93396467859e-05
0.000139788810413
-7.6952024388e-05
0.000144717479503
-8.42730642193e-05
0.000150124435405
-9.11132659294e-05
0.000155888883448
-9.72977122931e-05
0.00016174026308
-0.000102643638662
0.000167377808274
-0.000106486097762
0.000173313767206
-0.000107533788115
0.000180136751761
-9.74344753355e-05
0.000181333826653
-2.89490518683e-08
8.17679698061e-05
-3.36306664891e-08
5.00270789208e-11
1.99628405273e-09
-6.5005006805e-06
0.000117846772711
-1.33783179235e-05
0.000123219347777
-2.04933503227e-05
0.000127116680669
-2.77509840226e-05
0.000130143082832
-3.50754692923e-05
0.000132789104093
-4.24375501307e-05
0.000135653206848
-4.98225527364e-05
0.00013897037854
-5.71568384613e-05
0.000142763524165
-6.44594497154e-05
0.000147092003231
-7.15984564963e-05
0.000151857502917
-7.84861441251e-05
0.000157013826738
-8.49937676368e-05
0.000162397772348
-9.09387781477e-05
0.000167686710785
-9.60571740956e-05
0.000172497582518
-9.94005288169e-05
0.000176657247782
-9.90733104683e-05
0.000179809557856
-8.81353383e-05
0.000176885582219
-1.6135243555e-07
7.96412187177e-05
-1.54040303471e-07
-3.20651901445e-10
9.45921156945e-08
-5.94158191583e-06
0.000123788267532
-1.22975665973e-05
0.000129575243393
-1.88391917992e-05
0.000133658189664
-2.55243909526e-05
0.00013682820281
-3.23063678734e-05
0.000139570962806
-3.91360485466e-05
0.000142482717272
-4.60037076677e-05
0.000145837908965
-5.28874594985e-05
0.000149647414144
-5.97240720775e-05
0.000153929339006
-6.64719696043e-05
0.000158606543216
-7.30687655556e-05
0.000163612496736
-7.93997767574e-05
0.000168730367525
-8.53107633427e-05
0.000173599492181
-9.04583488633e-05
0.000177646958105
-9.3743082546e-05
0.000179942013673
-9.31070033965e-05
0.000179173477436
-8.33239758865e-05
0.000173846957973
-2.62302160208e-07
7.98831092911e-05
-2.46602728701e-07
-7.99652985078e-10
-3.38460675705e-08
-5.37812599691e-06
0.000129166290819
-1.11103337287e-05
0.000135307335466
-1.71221360996e-05
0.000139669895895
-2.32492645334e-05
0.00014295521659
-2.95007406614e-05
0.000145822347708
-3.58230998037e-05
0.00014880487823
-4.21814953947e-05
0.000152196326306
-4.86095806036e-05
0.000156075869439
-5.50674445274e-05
0.000160388351293
-6.15172724906e-05
0.000165057596735
-6.79144945498e-05
0.000170012713561
-7.41434345243e-05
0.000174961510338
-8.00233434441e-05
0.000179482039247
-8.50533792153e-05
0.000182679302997
-8.81217326864e-05
0.000183010417278
-8.86274546367e-05
0.000179679198502
-8.22549222478e-05
0.000174929602831
-2.26068232873e-07
8.2126378946e-05
-2.09282830007e-07
5.2257671012e-11
4.3028246907e-08
-4.78766121361e-06
0.000133953833173
-9.93557432764e-06
0.000140455130732
-1.53499808792e-05
0.00014508420802
-2.09444996892e-05
0.00014854961339
-2.66116865973e-05
0.000151489487968
-3.23835449827e-05
0.000154576648433
-3.82754389984e-05
0.000158088198704
-4.4269855542e-05
0.000162070997772
-5.03844108312e-05
0.00016650370035
-5.66331185593e-05
0.000171308272577
-6.29207871669e-05
0.000176303186944
-6.9265331921e-05
0.000181308804528
-7.55746477219e-05
0.000185794069121
-8.14904601475e-05
0.00018859805903
-8.61092821206e-05
0.00018762927422
-8.92106873242e-05
0.000182780603138
-8.46189850344e-05
0.00017889978821
-3.58113983831e-08
8.38889075976e-05
-1.09525063391e-08
-9.16256934968e-12
3.20757380063e-08
-4.18549435115e-06
0.000138139181691
-8.7451680174e-06
0.000145014667344
-1.35389244793e-05
0.000149877832515
-1.85149478448e-05
0.000153525643175
-2.36178534489e-05
0.000156592405255
-2.88504119357e-05
0.000159809663816
-3.4218301514e-05
0.000163456528527
-3.97921180339e-05
0.000167645341785
-4.55793037978e-05
0.000172292690249
-5.15979886271e-05
0.000177329288297
-5.79138395283e-05
0.000182622629103
-6.45774967872e-05
0.00018797646184
-7.1685692707e-05
0.000192906914767
-7.92555206052e-05
0.000196172100657
-8.67681662321e-05
0.000195142030367
-9.26223708719e-05
0.000188634915442
-8.76105025196e-05
0.000183713739074
-9.83798766792e-08
8.49362198969e-05
-6.21287496389e-08
-5.87751139424e-12
3.23309122353e-09
-3.58719914628e-06
0.000141726186835
-7.48469904711e-06
0.000148911961316
-1.16654429224e-05
0.000154058447687
-1.60182034244e-05
0.000157878413439
-2.05118403349e-05
0.000161086425724
-2.51607963458e-05
0.000164459193437
-3.00214430188e-05
0.00016831774925
-3.51068030149e-05
0.000172731617985
-4.04497822723e-05
0.000177636988476
-4.61276830128e-05
0.000183008805491
-5.22725334556e-05
0.000188769482835
-5.89895836374e-05
0.000194695869938
-6.6543858244e-05
0.000200463965629
-7.51346551192e-05
0.000204765913177
-8.44205056746e-05
0.000204427940554
-9.23179627249e-05
0.000196532490766
-8.77324831919e-05
0.000189922571084
-4.46857449341e-08
8.62563897473e-05
-3.32539149357e-09
2.09433979901e-11
3.4503785961e-11
-2.923337439e-06
0.000144649198859
-6.18892555506e-06
0.000152177206102
-9.71782450996e-06
0.000157587030713
-1.34285270936e-05
0.000161589134087
-1.7300273995e-05
0.000164958698121
-2.13576331436e-05
0.000168516847684
-2.56238121183e-05
0.000172585376766
-3.01342109503e-05
0.000177243307268
-3.49908106763e-05
0.0001824953118
-4.01893458617e-05
0.000188209509987
-4.59863865478e-05
0.000194569068433
-5.24875827528e-05
0.000201199929639
-5.97876900605e-05
0.000207767204832
-6.8222296089e-05
0.00021320387822
-7.77565447866e-05
0.000213962286932
-8.72150499192e-05
0.000205991000164
-8.47676998547e-05
0.000198852797642
-4.78399775383e-08
8.88969669845e-05
-1.13769223623e-09
3.11285810753e-11
4.54543051835e-12
-2.24266215887e-06
0.000146891533546
-4.88290962998e-06
0.000154817104045
-7.7289892464e-06
0.000160432732112
-1.07693124877e-05
0.000164629336845
-1.39846657107e-05
0.000168174427761
-1.73684987221e-05
0.000171902051266
-2.09657586942e-05
0.000176183628107
-2.48403285283e-05
0.000181119351193
-2.90631129553e-05
0.00018672025425
-3.38017163153e-05
0.000192950886146
-3.90262248346e-05
0.000199796882206
-4.49765075554e-05
0.000207153872684
-5.18073864619e-05
0.000214601964292
-5.96951957456e-05
0.000221095583662
-6.91251997211e-05
0.000223392419793
-8.03469694676e-05
0.000217212772029
-8.09796666299e-05
0.000211268928988
-4.62398831988e-08
9.33361970883e-05
-4.54568127924e-12
-4.71065202489e-11
-3.04275556828e-18
-1.56884747744e-06
0.000148459976935
-3.46208793196e-06
0.000156709923989
-5.62538414026e-06
0.000162595677287
-7.96858157089e-06
0.000166972449702
-1.04715611696e-05
0.000170677409688
-1.31276014956e-05
0.000174558417669
-1.60198050213e-05
0.000179076794779
-1.91936177153e-05
0.000184294770514
-2.27533126516e-05
0.000190282357634
-2.67916148761e-05
0.000196992370432
-3.14409037411e-05
0.000204450021982
-3.68111459236e-05
0.000212528413664
-4.30839909983e-05
0.000220879306859
-5.04758979374e-05
0.000228491875435
-5.99355237804e-05
0.000232852195222
-7.32170802729e-05
0.000230494331953
-7.7682173198e-05
0.000227860536274
-4.83186080941e-08
0.000100714424172
-1.13192578186e-08
3.60984848888e-11
-5.96258852951e-16
-8.3629980733e-07
0.000149295781003
-2.02390152506e-06
0.000157896998292
-3.44113986721e-06
0.00016401245434
-5.04230767162e-06
0.000168573169705
-6.79310738509e-06
0.000172428005576
-8.65655853482e-06
0.000176422051387
-1.07899525041e-05
0.000181210966535
-1.31898935073e-05
0.000186696272531
-1.59545507687e-05
0.00019304945009
-1.92241471509e-05
0.00020026531926
-2.3124798652e-05
0.000208354834494
-2.7824482498e-05
0.000217232809393
-3.35350667319e-05
0.00022659480659
-4.05656056134e-05
0.00023552711045
-5.01751236539e-05
0.000242461877709
-6.52401728906e-05
0.000245559384088
-7.45079763252e-05
0.000249430948507
-2.56669937471e-08
0.000111596628534
-1.45444185771e-10
5.1147759314e-11
-1.67762276261e-11
-1.12686593614e-07
0.00014940772635
-5.30926671822e-07
0.000158314449583
-1.17698630619e-06
0.000164657700566
-1.98647879079e-06
0.000169381909859
-2.9133833397e-06
0.000173354191157
-4.03691569628e-06
0.000177545149556
-5.29262581232e-06
0.000182466810355
-6.82209368545e-06
0.000188226904224
-8.7034625817e-06
0.000194933047135
-1.10693836478e-05
0.000202634748412
-1.40559342307e-05
0.000211346109385
-1.78896432007e-05
0.000221072155637
-2.28546552356e-05
0.000231565845103
-2.94785128322e-05
0.000242156713835
-3.89834185408e-05
0.00025196699241
-5.5389085517e-05
0.000261965063626
-6.91487959099e-05
0.000275207450842
-1.36589902153e-08
0.000125576677947
-3.77612879431e-10
5.22862459565e-11
-3.94389093067e-10
6.27480081102e-07
0.00014877915647
9.91820269559e-07
0.000157948859757
1.14652282535e-06
0.000164501583949
1.15738585598e-06
0.000169369478543
1.06286703552e-06
0.000173447146252
8.44090203743e-07
0.000177762644205
4.95569239354e-07
0.000182814762557
-8.24459236479e-08
0.000188805418578
-9.64344346912e-07
0.000195817153731
-2.27938190591e-06
0.000203953925723
-4.18094977946e-06
0.000213253720483
-6.94017278042e-06
0.000223838802282
-1.08841909663e-05
0.000235517779872
-1.66356840243e-05
0.000247915546716
-2.57534864521e-05
0.000261085092444
-4.17713268611e-05
0.000277982921262
-5.79607375071e-05
0.000302175455186
9.99092167082e-10
0.000141014490487
-1.37967829337e-08
-8.9012940744e-11
-6.29400747905e-10
1.39997759112e-06
0.000147377863425
2.55195616392e-06
0.000156795286806
3.51891664732e-06
0.000163532735435
4.37161527891e-06
0.000168514642083
5.15465236722e-06
0.000172661866784
5.87319279599e-06
0.000177042119092
6.49588521813e-06
0.000182190877191
6.97386602875e-06
0.000188327618249
7.22569200961e-06
0.000195567532417
7.12822710503e-06
0.000204056185558
6.49911837735e-06
0.000213889593244
5.08460843335e-06
0.000225261558002
2.56806513275e-06
0.000238043027926
-1.93352763558e-06
0.000252425049098
-9.67957937422e-06
0.000268832180261
-2.29106800469e-05
0.00029121422303
-3.78889233092e-05
0.000325375607844
2.52736059462e-08
0.000157524785538
-2.26723773403e-08
-2.02103934157e-09
-1.40693974441e-08
2.18705463109e-06
0.000145188810556
4.13627957045e-06
0.000154843609094
5.93002292488e-06
0.000161736096743
7.64028051618e-06
0.000166801078992
9.32557937394e-06
0.000170973071305
1.10025436419e-05
0.00017536194596
1.26596373486e-05
0.000180531599975
1.42760340597e-05
0.00018671107927
1.57654685219e-05
0.000194080819972
1.70566965789e-05
0.000202771640209
1.7967753199e-05
0.000212987973696
1.8309104889e-05
0.000224931861563
1.75883825005e-05
0.000238776265068
1.52101670028e-05
0.000254814987638
9.59766247224e-06
0.000274451943149
8.83632642135e-07
0.000299929326354
-1.11860174948e-05
0.000341899730122
-4.51194256548e-08
0.000176803638447
-1.10720184991e-07
-1.85594538297e-09
-1.20163712654e-09
2.98291299456e-06
0.000142204318979
5.73323326406e-06
0.000152091382908
8.34544646325e-06
0.000159121705138
1.09152403576e-05
0.000164228903709
1.35098383952e-05
0.000168376067159
1.61662503829e-05
0.00017270344571
1.88963950229e-05
0.000177800209874
2.16782569726e-05
0.000183929459683
2.45128931981e-05
0.000191248800458
2.73361701046e-05
0.000199953722697
3.00505643603e-05
0.000210280164748
3.24829235777e-05
0.000222506564083
3.42899404284e-05
0.000236976438734
3.49252603487e-05
0.000254185991993
3.32494483021e-05
0.000276131526244
2.61718079885e-05
0.000307007419189
8.140544626e-06
0.000354314889472
3.54641192431e-10
0.000196178800948
-2.08563295459e-08
-2.79870319122e-08
-7.16886856519e-12
3.72595932606e-06
0.000138476553411
7.25978235744e-06
0.000148555475562
1.06910247892e-05
0.000155688175168
1.41163773927e-05
0.000160801163651
1.76188156048e-05
0.000164871349959
2.12538821052e-05
0.000169066535643
2.50581386483e-05
0.000173994955319
2.90676166824e-05
0.000179920910237
3.32991422267e-05
0.00018702196074
3.77606870258e-05
0.00019550038959
4.24414107305e-05
0.000205608937789
4.72720807417e-05
0.000217682737143
5.20978752129e-05
0.000232156944421
5.65224777237e-05
0.000249766843135
5.99129424934e-05
0.000272744867961
5.91847669272e-05
0.000307735743742
4.13259121953e-05
0.000359628620329
1.54847902048e-07
0.000216161133924
1.09598813837e-07
2.84294920635e-08
-1.39377738187e-09
4.42507578809e-06
0.000134049530276
8.70978379549e-06
0.000144268613617
1.29344096886e-05
0.000151461268904
1.71867305827e-05
0.000156546569424
2.157066908e-05
0.000160485390333
2.61601976718e-05
0.000164475588719
3.1037779782e-05
0.000169116971137
3.62376688182e-05
0.000174722809688
4.18639960686e-05
0.000181400570881
4.7992345242e-05
0.000189379348236
5.47244360089e-05
0.000198887566699
6.21589890895e-05
0.000210255143432
7.03381871739e-05
0.000223983813502
7.90026796581e-05
0.000241107182584
8.71718881991e-05
0.000264578825005
9.52176637557e-05
0.000299690015036
8.01226624433e-05
0.000352155919949
1.67662436313e-06
0.000233113607793
-9.69137983819e-08
7.43755350938e-08
8.3746857114e-09
5.1157943852e-06
0.000128931835642
1.00774897331e-05
0.00013930490544
1.50198209783e-05
0.000146516884358
2.0065900801e-05
0.000151498547956
2.52826306328e-05
0.000155267100159
3.07711640943e-05
0.000158986242252
3.66287684684e-05
0.000163259716996
4.29751725315e-05
0.000168379072877
4.99249534407e-05
0.000174456606173
5.76406128641e-05
0.000181671583841
6.632161707e-05
0.000190218036291
7.62421219297e-05
0.000200341279056
8.77943371595e-05
0.000212436718481
0.000101231264573
0.000227673938572
0.000115946464054
0.000249864865815
0.000128993996294
0.000286642578613
0.000145924206662
0.000339858287631
1.05357193632e-05
0.000245029392061
7.16241064129e-08
3.52558200109e-07
4.95030545662e-08
5.71428783099e-06
0.000123215909632
1.13342142905e-05
0.000133683336843
1.69404039488e-05
0.000140909100243
2.26833245732e-05
0.000145754236801
2.86675082768e-05
0.000149282005372
3.49858548791e-05
0.000152667818555
4.17299548028e-05
0.000156516747274
4.90886522216e-05
0.000161023765313
5.71630474799e-05
0.000166388406848
6.624940668e-05
0.000172593059676
7.66117710772e-05
0.000179867534401
8.86762596642e-05
0.000188282337405
0.000103030581179
0.000198085673033
0.000120022858533
0.000210682054787
0.000138549544744
0.000231337268216
0.00015477234737
0.000270418144198
0.000172017224537
0.000324153555691
2.21197662305e-05
0.000246595170475
3.45914557317e-07
-2.9096020353e-08
1.75774687426e-07
6.21959642277e-06
0.000116995142906
1.24265296777e-05
0.000127475343169
1.87019710375e-05
0.000134632727498
2.51107157684e-05
0.000139344833725
3.17740607347e-05
0.00014261853182
3.87994843115e-05
0.000145643102133
4.6317011112e-05
0.000149001041816
5.44370490421e-05
0.000152907490749
6.34005692439e-05
0.000157430676047
7.34469953776e-05
0.000162553466628
8.49970268208e-05
0.000168326285832
9.8483607057e-05
0.000174799410895
0.00011443086639
0.000182138324932
0.000133539782349
0.00019157063535
0.000154001259942
0.000210871103024
0.000171563262068
0.000252851691234
0.000186272576513
0.000309698028111
3.64408966998e-05
0.000233133020206
9.96734844148e-07
-3.53618599505e-06
4.6488392926e-07
6.68783850735e-06
0.000110306781021
1.34042826075e-05
0.000120758593021
2.022807342e-05
0.000127808824554
2.72193670286e-05
0.000132353737416
3.44678255279e-05
0.000135370790891
4.21037491924e-05
0.000138008628472
5.02563324791e-05
0.0001408507829
5.90519453243e-05
0.000144115493724
6.86733685189e-05
0.00014781355581
7.93183729695e-05
0.000151912483389
9.13270001014e-05
0.000156323425772
0.000105247913873
0.000160876959358
0.000121628814756
0.000165753714906
0.000140617134455
0.000172574601501
0.000161243630775
0.000190234608689
0.000181360525083
0.000232726770124
0.000196646255486
0.000294430897898
5.01365004672e-05
0.000211284526033
1.92805172443e-07
-1.3506871736e-05
-4.44711210642e-07
7.09716030961e-06
0.000103209876603
1.42501027402e-05
0.000113606213326
2.15271494242e-05
0.000120532577422
2.89988906925e-05
0.000124883105633
3.67594755279e-05
0.000127611760543
4.49057605287e-05
0.000129864431321
5.35220874293e-05
0.000132237045897
6.27438949186e-05
0.000134896482589
7.27407240989e-05
0.000137818433272
8.37021975304e-05
0.000140950881879
9.58404339738e-05
0.000144184769192
0.000109443335442
0.00014726897413
0.000124811729073
0.000150374726533
0.000142023838718
0.000155348547685
0.000162118164961
0.000170124627148
0.000188688638483
0.000206143496774
0.000225682035572
0.000257430292863
6.65750297649e-05
0.000191698707724
3.40010162861e-07
-1.94148677121e-05
-2.86187469872e-07
7.41459088008e-06
9.57963873496e-05
1.49405654283e-05
0.000106081711095
2.26226215525e-05
0.000112852248853
3.05118270907e-05
0.000116995908233
3.86742716067e-05
0.000119451650707
4.72038479623e-05
0.000121337456189
5.61756006682e-05
0.000123267893078
6.56988465801e-05
0.000125374705927
7.5850089957e-05
0.000127665312565
8.67858319951e-05
0.000130010120608
9.86286523531e-05
0.000132332261439
0.000111418384611
0.000134467470807
0.0001252657771
0.000136509749159
0.000140550714529
0.000140041940988
0.000160071121192
0.000150582788718
0.000193058707631
0.000173137961887
0.000249209098385
0.000201270660388
9.0031693428e-05
0.000164727469632
-3.10540925581e-07
-2.43617865524e-05
-5.96730225461e-07
7.64738100637e-06
8.81509358761e-05
1.54758471348e-05
9.82555789023e-05
2.34982470886e-05
0.00010483244182
3.1733390274e-05
0.000108763602713
4.02314201221e-05
0.000110956650015
4.90593231226e-05
0.000112512535967
5.83001738458e-05
0.000114029455844
6.80094752582e-05
0.000115665212243
7.8271641526e-05
0.000117397379527
8.90786343858e-05
0.000119192354529
0.00010052177406
0.000120871987956
0.000112564536201
0.000122406141895
0.000125266385934
0.00012378372451
0.000139398122869
0.000125881939045
0.000159151320381
0.00013080156216
0.000194115163149
0.000138151406208
0.000259705925538
0.000135668370339
0.000115041833934
0.00012583499737
1.03903033945e-06
-3.18556140652e-05
-1.07170045607e-07
7.82593397934e-06
8.03276466322e-05
1.5872596126e-05
9.02119670336e-05
2.41562576526e-05
9.65521020151e-05
3.26668251103e-05
0.000100256571033
4.14488491369e-05
0.000102178219265
5.0531636594e-05
0.000103432991361
5.99827079418e-05
0.000104580512065
6.98514223631e-05
0.000105794685463
8.01587385746e-05
0.000107080972833
9.09745614757e-05
0.00010836149662
0.000102322529688
0.000109498976665
0.000114265903141
0.000110439025688
0.000126870453435
0.000111150087696
0.000140949036287
0.000111770178469
0.000160170945842
0.000111546379584
0.000192602988837
0.000105693036341
0.000254911301348
7.33465876342e-05
0.000134865313779
7.92629266077e-05
4.02955486145e-06
-4.29100414384e-05
-1.64603420398e-06
7.90008619005e-06
7.24307223091e-05
1.61242863619e-05
8.19913076001e-05
2.46208392528e-05
8.80593810047e-05
3.33647199141e-05
9.15167310821e-05
4.23644727587e-05
9.31824739022e-05
5.1668505364e-05
9.41323740701e-05
6.1285894098e-05
9.49650284267e-05
7.12695028538e-05
9.58081210785e-05
8.16102771278e-05
9.67292718866e-05
9.23232044121e-05
9.76315616506e-05
0.000103524012581
9.82696845058e-05
0.000115376375896
9.85599569481e-05
0.00012806494789
9.84290392006e-05
0.000142465834311
9.73326474442e-05
0.000161051191139
9.29247257815e-05
0.000190226804726
7.64892972886e-05
0.000236987772335
2.6570922297e-05
0.000143613144695
3.43421240203e-05
6.27970517878e-06
-5.55092005144e-05
1.60600798927e-06
7.89310127355e-06
6.45410143172e-05
1.62168189024e-05
7.36713244614e-05
2.48733213125e-05
7.94069466646e-05
3.38056426561e-05
8.25887415167e-05
4.30081444509e-05
8.39842711194e-05
5.24870064532e-05
8.46571271618e-05
6.22890922617e-05
8.51648065266e-05
7.23601305261e-05
8.57342892797e-05
8.26533814898e-05
8.64255839671e-05
9.31672055091e-05
8.71006858839e-05
0.000103871618284
8.75355705329e-05
0.000114853592026
8.75492592402e-05
0.000126316671923
8.69304123048e-05
0.000138851977885
8.47564215064e-05
0.000154419023284
7.73164591081e-05
0.000176572734079
5.43018492682e-05
0.000199913939536
3.21068036358e-06
0.000124427469224
1.12799028717e-05
2.36414613557e-07
-6.65890454027e-05
2.95408370236e-07
7.82758240068e-06
5.6716890323e-05
1.6219700128e-05
6.5282990157e-05
2.49417248883e-05
7.06891695584e-05
3.4020318332e-05
7.35147428964e-05
4.33867951297e-05
7.4622213818e-05
5.30676565486e-05
7.49802744202e-05
6.30454179753e-05
7.51911359016e-05
7.32572788082e-05
7.55211031985e-05
8.36129769333e-05
7.60610812967e-05
9.39532027582e-05
7.67464377058e-05
0.000104185391185
7.72733942911e-05
0.000114306739619
7.73969278965e-05
0.000124165708528
7.70296874841e-05
0.000133221241118
7.56512074614e-05
0.00014250257493
6.79852279815e-05
0.000152618475725
4.41460862093e-05
0.000151336714955
4.47048004427e-06
8.06632221919e-05
2.45507604255e-05
4.01344447046e-07
-5.72264169924e-05
-2.77426208619e-07
7.71841322593e-06
4.90017993728e-05
1.60610116181e-05
5.69442281515e-05
2.48692571997e-05
6.1885271661e-05
3.39979752904e-05
6.43917256087e-05
4.3513409735e-05
6.51124259061e-05
5.33968988965e-05
6.51044384407e-05
6.36173719478e-05
6.49755894215e-05
7.41268953115e-05
6.50127202527e-05
8.46839687853e-05
6.55011112766e-05
9.50332561763e-05
6.63842253496e-05
0.000105220518968
6.70627023766e-05
0.000115483603653
6.71013579406e-05
0.000125434406337
6.70364253396e-05
0.000133255747051
6.77795178819e-05
0.000137641372788
6.35490184674e-05
0.000137012983857
4.47331938025e-05
0.000124852288377
1.66089253134e-05
5.75161341231e-05
5.17505290293e-05
-1.08903890977e-06