/*--------------------------------*- C++ -*----------------------------------*\
| =========                 |                                                 |
| \\      /  F ield         | OpenFOAM: The Open Source CFD Toolbox           |
|  \\    /   O peration     | Version:  v2012                                 |
|   \\  /    A nd           | Website:  www.openfoam.com                      |
|    \\/     M anipulation  |                                                 |
\*---------------------------------------------------------------------------*/
FoamFile
{
    version     2.0;
    format      ascii;
    class       volScalarField;
    location    "1.5";
    object      p_rgh;
}
// * * * * * * * * * * * * * * * * * * * * * * * * * * * * * * * * * * * * * //

dimensions      [1 -1 -2 0 0 0 0];


internalField   nonuniform List<scalar> 
167
(
8493.22159374
8492.04839521
8490.04892491
8486.94120553
8482.77087222
8477.51410493
8471.13869265
8463.60625633
8494.41602438
8493.24486083
8491.26174829
8488.18377753
8484.04452662
8478.82298732
8472.48865941
8465.00401128
8496.386231
8495.22328628
8493.26508127
8490.22343566
8486.13342885
8480.97445561
8474.71603562
8467.3199642
8499.41484516
8498.25921092
8496.33811638
8493.35056431
8489.33344976
8484.26612846
8478.11819894
8470.85234917
8462.42311049
8503.42177516
8502.28733744
8500.4154853
8497.49983955
8493.57954241
8488.63415256
8482.63360377
8475.54059567
8467.31133213
8457.8937164
8508.38059277
8507.27690108
8505.46548246
8502.63951468
8498.83977961
8494.04627744
8488.22946932
8481.35253371
8473.37213265
8464.23766637
8514.26263758
8513.19694152
8511.4568735
8508.73786856
8505.08193466
8500.46972142
8494.87245819
8488.25415575
8480.57222862
8471.77694496
8521.03383191
8520.01257791
8518.35455144
8515.75923465
8512.26967802
8507.86744093
8502.52482047
8496.20705045
8488.87270827
8480.47331923
8528.65432015
8527.68346416
8526.11771411
8523.66210077
8520.3606181
8516.19603655
8511.14211227
8505.16575235
8498.2272952
8490.28006742
8537.07868993
8536.16372765
8534.69981131
8532.39897744
8529.30607494
8525.40543456
8520.67272475
8515.07709908
8508.58136447
8501.1413746
8546.25651584
8545.4024775
8544.04908643
8541.91691315
8539.05154748
8535.43926849
8531.05818397
8525.88036404
8519.8719042
8512.99221281
8556.13284503
8555.34424322
8554.10901705
8552.1579102
8549.53709024
8546.23520037
8542.23336686
8537.50732427
8532.02745629
8525.75779621
8566.64868045
8565.92942031
8564.81875717
8563.05934263
8560.69769464
8557.72524931
8554.12674009
8549.88239505
8544.96786944
8539.35333025
8577.74155813
8577.09483488
8576.11371248
8574.55451922
8572.46384123
8569.83630252
8566.66084001
8562.92302715
8558.60481695
8553.68372012
8589.34622886
8588.77442665
8587.92624499
8586.57340566
8584.76224347
8582.49097931
8579.753294
8576.54040186
8572.84178924
8568.64434153
8601.39543099
8600.90003964
8600.18649397
8599.04350781
8597.51697775
8595.60859053
8593.3169465
8590.64028074
8587.57628443
8584.1208768
8613.82074946
8613.40228587
8612.82331241
8611.89105081
8610.64988269
8609.10571638
8607.26246309
8626.55348957
8626.21147916
8625.76530152
8625.04123149
8624.08263881
8638.94154649
8638.42062571
)
;

boundaryField
{
    back
    {
        type            fixedFluxPressure;
        gradient        uniform 0;
        value           nonuniform List<scalar> 
167
(
8493.22159374
8492.04839521
8490.04892491
8486.94120553
8482.77087222
8477.51410493
8471.13869265
8463.60625633
8494.41602438
8493.24486083
8491.26174829
8488.18377753
8484.04452662
8478.82298732
8472.48865941
8465.00401128
8496.386231
8495.22328628
8493.26508127
8490.22343566
8486.13342885
8480.97445561
8474.71603562
8467.3199642
8499.41484516
8498.25921092
8496.33811638
8493.35056431
8489.33344976
8484.26612846
8478.11819894
8470.85234917
8462.42311049
8503.42177516
8502.28733744
8500.4154853
8497.49983955
8493.57954241
8488.63415256
8482.63360377
8475.54059567
8467.31133213
8457.8937164
8508.38059277
8507.27690108
8505.46548246
8502.63951468
8498.83977961
8494.04627744
8488.22946932
8481.35253371
8473.37213265
8464.23766637
8514.26263758
8513.19694152
8511.4568735
8508.73786856
8505.08193466
8500.46972142
8494.87245819
8488.25415575
8480.57222862
8471.77694496
8521.03383191
8520.01257791
8518.35455144
8515.75923465
8512.26967802
8507.86744093
8502.52482047
8496.20705045
8488.87270827
8480.47331923
8528.65432015
8527.68346416
8526.11771411
8523.66210077
8520.3606181
8516.19603655
8511.14211227
8505.16575235
8498.2272952
8490.28006742
8537.07868993
8536.16372765
8534.69981131
8532.39897744
8529.30607494
8525.40543456
8520.67272475
8515.07709908
8508.58136447
8501.1413746
8546.25651584
8545.4024775
8544.04908643
8541.91691315
8539.05154748
8535.43926849
8531.05818397
8525.88036404
8519.8719042
8512.99221281
8556.13284503
8555.34424322
8554.10901705
8552.1579102
8549.53709024
8546.23520037
8542.23336686
8537.50732427
8532.02745629
8525.75779621
8566.64868045
8565.92942031
8564.81875717
8563.05934263
8560.69769464
8557.72524931
8554.12674009
8549.88239505
8544.96786944
8539.35333025
8577.74155813
8577.09483488
8576.11371248
8574.55451922
8572.46384123
8569.83630252
8566.66084001
8562.92302715
8558.60481695
8553.68372012
8589.34622886
8588.77442665
8587.92624499
8586.57340566
8584.76224347
8582.49097931
8579.753294
8576.54040186
8572.84178924
8568.64434153
8601.39543099
8600.90003964
8600.18649397
8599.04350781
8597.51697775
8595.60859053
8593.3169465
8590.64028074
8587.57628443
8584.1208768
8613.82074946
8613.40228587
8612.82331241
8611.89105081
8610.64988269
8609.10571638
8607.26246309
8626.55348957
8626.21147916
8625.76530152
8625.04123149
8624.08263881
8638.94154649
8638.42062571
)
;
    }
    sides
    {
        type            fixedFluxPressure;
        gradient        uniform 0;
        value           nonuniform List<scalar> 8(8493.22159374 8492.04839521 8490.04892491 8486.94120553 8482.77087222 8477.51410493 8471.13869265 8463.60625633);
    }
    bottom
    {
        type            fixedFluxPressure;
        gradient        uniform 0;
        value           nonuniform List<scalar> 
18
(
8493.22159374
8494.41602438
8496.386231
8499.41484516
8503.42177516
8508.38059277
8514.26263758
8521.03383191
8528.65432015
8537.07868993
8546.25651584
8556.13284503
8566.64868045
8577.74155813
8589.34622886
8601.39543099
8613.82074946
8626.55348957
)
;
    }
    front
    {
        type            fixedFluxPressure;
        gradient        uniform 0;
        value           nonuniform List<scalar> 
167
(
8493.22159374
8492.04839521
8490.04892491
8486.94120553
8482.77087222
8477.51410493
8471.13869265
8463.60625633
8494.41602438
8493.24486083
8491.26174829
8488.18377753
8484.04452662
8478.82298732
8472.48865941
8465.00401128
8496.386231
8495.22328628
8493.26508127
8490.22343566
8486.13342885
8480.97445561
8474.71603562
8467.3199642
8499.41484516
8498.25921092
8496.33811638
8493.35056431
8489.33344976
8484.26612846
8478.11819894
8470.85234917
8462.42311049
8503.42177516
8502.28733744
8500.4154853
8497.49983955
8493.57954241
8488.63415256
8482.63360377
8475.54059567
8467.31133213
8457.8937164
8508.38059277
8507.27690108
8505.46548246
8502.63951468
8498.83977961
8494.04627744
8488.22946932
8481.35253371
8473.37213265
8464.23766637
8514.26263758
8513.19694152
8511.4568735
8508.73786856
8505.08193466
8500.46972142
8494.87245819
8488.25415575
8480.57222862
8471.77694496
8521.03383191
8520.01257791
8518.35455144
8515.75923465
8512.26967802
8507.86744093
8502.52482047
8496.20705045
8488.87270827
8480.47331923
8528.65432015
8527.68346416
8526.11771411
8523.66210077
8520.3606181
8516.19603655
8511.14211227
8505.16575235
8498.2272952
8490.28006742
8537.07868993
8536.16372765
8534.69981131
8532.39897744
8529.30607494
8525.40543456
8520.67272475
8515.07709908
8508.58136447
8501.1413746
8546.25651584
8545.4024775
8544.04908643
8541.91691315
8539.05154748
8535.43926849
8531.05818397
8525.88036404
8519.8719042
8512.99221281
8556.13284503
8555.34424322
8554.10901705
8552.1579102
8549.53709024
8546.23520037
8542.23336686
8537.50732427
8532.02745629
8525.75779621
8566.64868045
8565.92942031
8564.81875717
8563.05934263
8560.69769464
8557.72524931
8554.12674009
8549.88239505
8544.96786944
8539.35333025
8577.74155813
8577.09483488
8576.11371248
8574.55451922
8572.46384123
8569.83630252
8566.66084001
8562.92302715
8558.60481695
8553.68372012
8589.34622886
8588.77442665
8587.92624499
8586.57340566
8584.76224347
8582.49097931
8579.753294
8576.54040186
8572.84178924
8568.64434153
8601.39543099
8600.90003964
8600.18649397
8599.04350781
8597.51697775
8595.60859053
8593.3169465
8590.64028074
8587.57628443
8584.1208768
8613.82074946
8613.40228587
8612.82331241
8611.89105081
8610.64988269
8609.10571638
8607.26246309
8626.55348957
8626.21147916
8625.76530152
8625.04123149
8624.08263881
8638.94154649
8638.42062571
)
;
    }
    atmosphere
    {
        type            totalPressure;
        rho             rho;
        psi             none;
        gamma           1;
        p0              nonuniform List<scalar> 0();
        value           nonuniform List<scalar> 0();
    }
    floatingObject
    {
        type            fixedFluxPressure;
        gradient        nonuniform List<scalar> 0();
        value           nonuniform List<scalar> 0();
    }
    procBoundary2to0
    {
        type            processor;
        value           nonuniform List<scalar> 
14
(
8605.12572709
8602.69953443
8599.99368635
8622.8992546
8605.12572709
8621.49902917
8639.52560662
8639.258614
8622.8992546
8637.73762078
8639.258614
8652.28310452
8637.73762078
8651.95745
)
;
    }
    procBoundary2to1
    {
        type            processor;
        value           nonuniform List<scalar> 
18
(
8454.872241
8456.32407597
8458.7427124
8458.7427124
8452.78101104
8452.78101104
8447.22985918
8453.88922949
8461.80881289
8470.95017738
8481.26679091
8492.70234507
8505.19011142
8518.65243458
8532.99966876
8548.12991144
8563.92823094
8580.26911475
)
;
    }
}


// ************************************************************************* //
