/*--------------------------------*- C++ -*----------------------------------*\
| =========                 |                                                 |
| \\      /  F ield         | OpenFOAM: The Open Source CFD Toolbox           |
|  \\    /   O peration     | Version:  v2012                                 |
|   \\  /    A nd           | Website:  www.openfoam.com                      |
|    \\/     M anipulation  |                                                 |
\*---------------------------------------------------------------------------*/
FoamFile
{
    version     2.0;
    format      ascii;
    class       surfaceVectorField;
    location    "1.5";
    object      Uf_0;
}
// * * * * * * * * * * * * * * * * * * * * * * * * * * * * * * * * * * * * * //

dimensions      [0 1 -1 0 0 0 0];


internalField   nonuniform List<vector> 
305
(
(0.00156457317682 -0.00143727833808 1.09572045689e-21)
(0.0014372622373 -0.00158180238633 3.27908744728e-22)
(0.00210794379704 -0.00389832499981 8.3462888085e-22)
(0.00246103007451 -0.00271533472057 1.3695332761e-21)
(0.00211956684552 -0.00648955516109 -2.14106485436e-22)
(0.00259121630196 -0.00571906568233 -9.31226037641e-23)
(0.00206510915407 -0.00902503643733 -4.82139116872e-22)
(0.00253547251493 -0.00832564062249 -6.41673397353e-22)
(0.00205080674512 -0.0115488326094 -5.65121526195e-22)
(0.00252379401932 -0.0109409312509 -2.21451592147e-21)
(0.00207126374902 -0.0141106160644 -4.90746280315e-22)
(0.00256180561718 -0.0136000526305 -1.14936624123e-21)
(0.00211593018105 -0.0167456529521 6.83673806854e-22)
(0.00263508831587 -0.0163322725205 -1.50402224394e-21)
(0.00273755041869 -0.0191604588252 6.10016406872e-22)
(0.00275033194732 -0.00247515664052 6.01721563932e-22)
(0.00391240133354 -0.00216386161776 5.41355613076e-22)
(0.00340867500655 -0.00497806910967 4.41781791484e-22)
(0.0049639253693 -0.00338321533463 2.8259642389e-21)
(0.00348599657701 -0.0075655785002 -5.20689515681e-22)
(0.00517871207309 -0.00633485391467 3.19740599545e-22)
(0.00348143110798 -0.0102424234788 -2.37405020195e-21)
(0.00521230955839 -0.00900614991579 -6.42573386289e-22)
(0.00352988380856 -0.0129940080588 -2.7987606365e-21)
(0.00527537788021 -0.0117273892467 -2.30862478017e-21)
(0.00363042087199 -0.015823800187 -2.16264220486e-21)
(0.00539161978089 -0.0145239363171 -1.03865917245e-21)
(0.00377361831091 -0.0187459696753 -1.57767964393e-21)
(0.00555731421463 -0.0174084070737 -1.44369692617e-21)
(0.00577186216253 -0.0203947935841 -1.42698391117e-22)
(0.00568010118651 -0.00263843983919 2.76559828804e-21)
(0.00655082291887 -0.00219218085449 1.00951061813e-21)
(0.00627868401182 -0.00519582241682 2.70392304696e-21)
(0.00752129036444 -0.00342925353278 3.7658910423e-21)
(0.00643580657838 -0.00779671032021 1.97856728938e-22)
(0.00777958600011 -0.0064162081498 6.4221665335e-22)
(0.0065271611543 -0.010491159216 -5.77147964503e-22)
(0.00790675011502 -0.00909214835364 -1.21204926202e-22)
(0.00665283607192 -0.0132677419505 -5.48523316112e-22)
(0.00805195903245 -0.0118111187801 -4.84604637029e-22)
(0.00683031276336 -0.0161256815303 -3.19713893767e-22)
(0.00824958037369 -0.0146029294272 -5.76971778716e-24)
(0.00706306615305 -0.0190756918005 -8.71567336512e-24)
(0.0085073569229 -0.0174796312109 -7.25280496184e-23)
(0.00883139533169 -0.0204535963699 1.62908950831e-22)
(0.00834472089014 -0.00253596808014 2.00980337238e-21)
(0.00908677241123 -0.00209814035889 5.1991613209e-22)
(0.0089724219791 -0.00511968886861 1.70418464869e-21)
(0.0101049931928 -0.00330536748256 3.46909995635e-21)
(0.00919039919083 -0.00773779539886 3.23154998211e-22)
(0.010397677942 -0.00631622759781 8.45019782938e-22)
(0.00936099581387 -0.0104157395132 -2.86615987283e-23)
(0.01058468478 -0.00897083618363 9.10591043523e-23)
(0.00956825168227 -0.013160120774 5.81489612958e-23)
(0.0107963367959 -0.0116515803846 -4.30098724343e-23)
(0.00983537662623 -0.0159777050835 2.41416126362e-22)
(0.0110671737867 -0.0143937142803 1.4081441889e-22)
(0.0101724491276 -0.0188802960158 9.90965745773e-23)
(0.011409990946 -0.0172117930318 1.67056468853e-22)
(0.0105888788503 -0.0218842164715 -7.3310080548e-23)
(0.0118353690785 -0.0201176400852 -4.61694568157e-23)
(0.0123552839421 -0.0231261156093 -4.00251201677e-23)
(0.0108686723802 -0.00242058189196 1.97921271605e-21)
(0.0115073356181 -0.0020121664599 -1.22679232087e-22)
(0.011566370984 -0.00497856603291 2.6099350906e-21)
(0.0126629591174 -0.00317196260193 3.64951910431e-21)
(0.0118272558266 -0.00757608291199 6.1292388908e-22)
(0.0129951796605 -0.00615900295523 1.04560989036e-21)
(0.0120516690703 -0.0102136656815 7.67108306464e-23)
(0.0132222571668 -0.00876647401891 1.44864703467e-22)
(0.0123229134403 -0.0129019921467 3.96555851603e-23)
(0.0134846585058 -0.0113889586082 2.13888359601e-23)
(0.0126651974357 -0.0156518878987 6.64547613816e-23)
(0.0138170733972 -0.0140608271734 3.44511782094e-23)
(0.0130915395686 -0.0184757849367 2.17904374599e-23)
(0.0142339133117 -0.0167970803699 4.01454035311e-23)
(0.0136147708316 -0.0213885359946 -1.28844964355e-23)
(0.0147481942214 -0.0196083093033 -1.81924053559e-23)
(0.0142503327042 -0.0244079467014 2.27821459844e-23)
(0.0153748203502 -0.0225070884802 -1.35782464217e-23)
(0.0161327221437 -0.0255057680323 1.59857700574e-23)
(0.0133120573862 -0.00232426450484 1.54762715617e-21)
(0.0138315814755 -0.00194190278276 1.33711150753e-23)
(0.0141103514071 -0.00482701046353 2.08519390408e-21)
(0.0151656866837 -0.00304811693654 2.13760350054e-21)
(0.0144088538745 -0.0073739516944 5.77550704749e-22)
(0.0155421052424 -0.00597888393801 5.59763819496e-22)
(0.0146721207442 -0.00995147124062 8.95427087808e-23)
(0.0157997655851 -0.00851972970401 9.37938121868e-23)
(0.0149929447984 -0.0125679515429 1.61844290091e-23)
(0.0161011339197 -0.0110690585889 1.29669848576e-23)
(0.0153964532865 -0.0152340576522 8.14182035886e-24)
(0.0164831831133 -0.0136567684882 6.27746407004e-25)
(0.0158969463413 -0.0179611272622 1.62560715238e-25)
(0.0169610036438 -0.0162962718537 1.09014070991e-24)
(0.0165092820501 -0.0207617617693 -1.88861553421e-23)
(0.0175489023229 -0.0189959636547 -1.38829714121e-23)
(0.0172515376361 -0.0236504129954 -2.03746223487e-23)
(0.0182636170297 -0.0217655585573 -1.68216235409e-23)
(0.0191263595292 -0.0246134675798 -2.2768693585e-23)
(0.0156881852282 -0.00223670315651 6.03347459441e-22)
(0.0160682660386 -0.00187809730507 1.10546255707e-22)
(0.0166034056241 -0.00466858614295 6.12173415957e-22)
(0.0175975511048 -0.00292739164481 2.34971272514e-21)
(0.016938239691 -0.00714675373699 7.60069269337e-23)
(0.0180202566787 -0.00578369498927 5.23905783306e-22)
(0.0172318347383 -0.00964949333668 1.72180882636e-23)
(0.0183024933172 -0.00824432139242 7.27646479156e-23)
(0.0175912274808 -0.0121815209041 -2.58969774452e-24)
(0.0186331562387 -0.0107089519424 -6.76692479897e-25)
(0.0180433859341 -0.0147513719471 -6.42393324195e-24)
(0.0190530394552 -0.0132016322451 -3.08231384558e-24)
(0.0186033099573 -0.0173681058314 -1.29553914175e-23)
(0.0195777604326 -0.0157330675653 -1.09847381297e-23)
(0.0192869946429 -0.0200414018569 -1.18184396109e-23)
(0.0202222768018 -0.0183087787005 -1.558286837e-23)
(0.0201140526986 -0.0227819711473 -1.92156947772e-23)
(0.0210043446451 -0.020935211767 -4.99289677383e-24)
(0.0219464485312 -0.0236167191552 -2.75127933042e-23)
(0.0179856972381 -0.00215133757799 1.8569115214e-21)
(0.0182195849907 -0.00181565733224 2.88141193797e-22)
(0.0190236044729 -0.00450296424189 2.26144509249e-21)
(0.0199491589265 -0.00280626881744 2.93993053682e-21)
(0.0193928365394 -0.00690098459822 5.20663504288e-22)
(0.0204182602632 -0.00557753695774 7.52813000931e-22)
(0.0197097916129 -0.00931842019093 5.48698671722e-23)
(0.0207199161515 -0.00794869923341 6.26214600851e-23)
(0.0200975464756 -0.0117562934892 -1.16930858096e-24)
(0.0210710237271 -0.0103202753098 1.00261938859e-24)
(0.0205855141241 -0.0142202813459 -7.6431187333e-24)
(0.0215170332198 -0.012709956587 -4.052618271e-24)
(0.021189143996 -0.016716542744 -1.36122150822e-23)
(0.0220740479388 -0.0151252091233 -1.38124030351e-23)
(0.0219249649349 -0.0192514164306 -8.75732553291e-24)
(0.0227572338521 -0.0175682879656 -1.02391767659e-23)
(0.0228133567268 -0.0218316359899 -1.32899953008e-23)
(0.0235847376863 -0.020042118176 -2.29524514126e-24)
(0.0245795899996 -0.0225469483818 -1.59331546807e-23)
(0.0201980166807 -0.00206591026814 1.37116020922e-21)
(0.0202854764389 -0.00175248319824 4.80675573696e-22)
(0.0213590089044 -0.00433156430738 1.43129844527e-21)
(0.0222147936751 -0.00268431227766 3.07571429522e-21)
(0.0217597309878 -0.00664243478943 2.94770956728e-22)
(0.0227291131841 -0.0053643926056 8.2699696325e-22)
(0.0220932319293 -0.00896763914091 8.75421230158e-24)
(0.0230451067037 -0.00764039304139 6.75350803744e-23)
(0.0224992474466 -0.0113047781669 -1.88069030145e-24)
(0.0234081559718 -0.00991372406544 4.52199925083e-24)
(0.0230098701809 -0.0136564655111 -1.02219025728e-23)
(0.0238687267176 -0.0121955534641 -1.67788956585e-24)
(0.0236407732473 -0.0160256849401 -1.04393647188e-23)
(0.0244432955301 -0.0144899055147 -1.29298047972e-23)
(0.0244085393732 -0.0184151999756 -3.77709637426e-24)
(0.0251468380259 -0.0167955930354 -5.31726407409e-25)
(0.0253337091184 -0.0208276299055 -4.93840452111e-24)
(0.0259973508217 -0.0191118730231 -1.976510654e-24)
(0.0270177834969 -0.0214348255477 -6.89506545237e-24)
(0.0223234545472 -0.00198002907997 2.1852296597e-21)
(0.0222654863263 -0.00168797349504 1.54160706499e-23)
(0.0236055587295 -0.0041566757289 2.4714128132e-21)
(0.0243914203767 -0.00256254019612 1.84863345739e-21)
(0.0240343850528 -0.00637667836651 5.99761086896e-22)
(0.0249490972251 -0.00514831211327 4.65045766761e-22)
(0.0243777036623 -0.00860590843514 6.33028673236e-23)
(0.0252743216465 -0.00732648098683 -4.50982820274e-26)
(0.0247920959735 -0.0108388480826 4.72479998644e-24)
(0.0256410875802 -0.00949938152119 -6.38921748154e-24)
(0.025312343392 -0.0130750842518 -4.38579179023e-24)
(0.0261049682405 -0.0116716406504 -2.31144715375e-24)
(0.0259540613818 -0.015314360824 -3.02216648575e-24)
(0.0266826009095 -0.013843833734 -5.72516967085e-24)
(0.0267334161399 -0.0175557827381 1.26885931285e-24)
(0.0273883519323 -0.0160113164793 1.72098235537e-24)
(0.027670523451 -0.019797739979 -3.93317158526e-24)
(0.0282394969382 -0.0181696277208 -1.05958453708e-25)
(0.0292582412083 -0.0203106338576 -6.44768301295e-24)
(0.0243614526226 -0.00189438117152 -3.21180131659e-22)
(0.0241598477823 -0.00162236145606 -7.89629004793e-22)
(0.0257616630358 -0.00398114390333 -1.5773358905e-22)
(0.0264781623388 -0.00244277887749 5.50316250554e-22)
(0.0262150597522 -0.00610919576443 -1.34760418417e-22)
(0.0270771292206 -0.00493343899817 -4.57114393774e-23)
(0.0265616761154 -0.00824152670175 -6.97371830872e-23)
(0.0274066357819 -0.00701373352221 -1.18667692016e-22)
(0.0269749664108 -0.0103697777547 -1.34254646217e-23)
(0.0277693287462 -0.00908679607954 -2.62370807211e-23)
(0.0274922810853 -0.012490667154 -3.65082503438e-24)
(0.0282258614278 -0.0111508018401 -8.4591422311e-24)
(0.028128830305 -0.0146007817314 -9.8202082974e-25)
(0.0287927433059 -0.0132029988879 -5.30472865597e-24)
(0.0288998544721 -0.0166955971871 3.46164588809e-25)
(0.0294832590697 -0.0152354078183 -3.8366971167e-24)
(0.0298244026156 -0.0187692799358 -2.6204698814e-24)
(0.0303133685521 -0.0172399160042 -2.69043793177e-24)
(0.0313037617204 -0.0192042292489 -4.73965030415e-24)
(0.0263124372929 -0.00181021692867 8.18673774211e-23)
(0.0259700444298 -0.00155625667696 -9.27590736772e-22)
(0.0278273655709 -0.00380811580452 6.62338400227e-22)
(0.028476039587 -0.00232718268106 2.36534713136e-21)
(0.0283019338697 -0.00584537018075 -2.96187129759e-23)
(0.029114362327 -0.00472383146588 4.7379112428e-22)
(0.0286457538159 -0.00788239186735 -7.51675896494e-23)
(0.0294436387125 -0.00670852015155 -3.05973083749e-23)
(0.0290491261547 -0.00990825750012 -2.12707583305e-23)
(0.0297951821427 -0.00868486503815 -1.48119919972e-23)
(0.0295517866059 -0.0119170541878 -1.01130458527e-23)
(0.0302346593651 -0.0106447935381 -1.04196476438e-23)
(0.0301681434455 -0.0139024089718 -8.15940494292e-24)
(0.030778123068 -0.0125824495089 -1.32272034221e-23)
(0.0309119579704 -0.0158563425035 -6.87329963727e-24)
(0.031437280968 -0.0144867710245 -1.53549811538e-23)
(0.031800505146 -0.0177689094304 -4.80961835452e-24)
(0.0322261156212 -0.0163462033364 -9.90589916629e-24)
(0.0331629895949 -0.0181445072982 -8.17167246052e-24)
(0.028178369643 -0.00172892388302 1.35588901716e-21)
(0.0276989476321 -0.00149035311712 -1.06750829763e-21)
(0.029804605493 -0.00364067234022 2.17679985541e-21)
(0.0303877657862 -0.00221783578123 2.35646130038e-21)
(0.0302973630849 -0.00559021936986 4.72812528881e-22)
(0.031063886863 -0.00452316043971 6.93161809824e-22)
(0.0306330117078 -0.00753574627081 2.97582892773e-23)
(0.0313891449361 -0.00641651687235 2.43222229896e-23)
(0.0310186523739 -0.00946408054336 -3.96088131049e-24)
(0.0317235016922 -0.00830149275323 -1.04076397797e-23)
(0.03149620232 -0.0113669879317 -1.35338052132e-23)
(0.0321375648456 -0.010164111853 -6.70905810449e-24)
(0.0320788506195 -0.0132354421112 -2.0422779633e-23)
(0.0326465983961 -0.0119957407139 -1.46819374399e-23)
(0.0327783070473 -0.0150583083254 -1.83875806829e-23)
(0.0332602278022 -0.0137826124262 -2.74545356621e-23)
(0.0336093336051 -0.0168218504702 -1.32679532723e-23)
(0.0339898265684 -0.0155100776854 -1.72492328587e-23)
(0.0348505706508 -0.0171583681344 -8.38725907278e-24)
(0.0299627258854 -0.00165176548056 -6.69360144139e-23)
(0.0293506925574 -0.00142526588854 -9.90046030716e-22)
(0.0316970580824 -0.00348151495861 8.7282325479e-22)
(0.0322174930555 -0.00211648181116 1.51968359829e-21)
(0.0322056887739 -0.00534806922758 2.44671503932e-22)
(0.0329304180868 -0.00433442590869 1.55328680942e-22)
(0.0325288187169 -0.00720781014718 -1.58437060675e-23)
(0.0332488639124 -0.00614237917999 -5.9829208702e-23)
(0.032890286842 -0.00904569154671 -1.31558165737e-23)
(0.0335613663805 -0.00794321738035 -3.53911727435e-23)
(0.0333340009929 -0.0108515572396 -7.85719033117e-24)
(0.0339434260244 -0.00971757483105 -1.07677541076e-23)
(0.0338715219827 -0.0126141604805 -2.1713693469e-23)
(0.0344092184376 -0.0114544166487 -1.07599063344e-23)
(0.0345119415186 -0.0143196303178 -2.6316187838e-23)
(0.0349657702363 -0.0131377183594 -2.42338261531e-23)
(0.035266815579 -0.0159508771688 -1.23685386592e-23)
(0.0356212237118 -0.0147502458282 -1.99722531699e-23)
(0.0363869295582 -0.0162693236651 -1.85089544532e-24)
(0.0316701939849 -0.00157971848332 5.9657358199e-22)
(0.0309303916367 -0.00136146603929 -1.02024095345e-21)
(0.0335097658092 -0.00333272882666 8.02189024444e-22)
(0.0339704824756 -0.00202437791771 4.85508289634e-22)
(0.0340328353687 -0.00512226577477 -1.49172031692e-22)
(0.0347199328009 -0.00415974905839 -3.77612213584e-22)
(0.0343404352274 -0.00690344330494 -7.9376675378e-23)
(0.0350300197251 -0.00588949998894 -1.45779325566e-22)
(0.0346730634759 -0.00865984118191 -3.30031102774e-23)
(0.0353177473331 -0.00761492241738 -4.28031674802e-23)
(0.0350764157714 -0.0103798711372 -1.36704701109e-23)
(0.035663448575 -0.00931183661493 -1.11107033759e-23)
(0.0355600174133 -0.0120503963955 -1.32800390186e-23)
(0.0360797558605 -0.0109672751274 -4.73224060594e-24)
(0.0361298651571 -0.0136553440739 -1.78898914851e-23)
(0.0365707828843 -0.0125635699171 -9.21164552671e-24)
(0.036793743945 -0.0151749932994 -9.45460995605e-24)
(0.0371410266765 -0.0140814875977 -9.453006679e-24)
(0.0377973705354 -0.0154960562869 1.2698928552e-23)
(0.0333063213648 -0.00151343330529 -1.1313062458e-21)
(0.0324438084097 -0.00129921180483 -1.65847857911e-21)
(0.0352487469956 -0.00319566480496 -6.94292948393e-22)
(0.0356526954604 -0.0019421638341 -8.60129688583e-22)
(0.0357859149587 -0.0049149780849 -3.74219507457e-22)
(0.0364392261929 -0.00400023365355 -5.06899132214e-22)
(0.0360766123617 -0.00662598484908 -1.09205817668e-22)
(0.0367410071979 -0.0056597474286 -1.88240834955e-22)
(0.0363778049032 -0.0083112600524 -2.09107605788e-23)
(0.0370030014524 -0.00731930790136 -5.03770553704e-23)
(0.0367368084703 -0.00995811965467 -2.172473871e-24)
(0.0373102983878 -0.0089507799449 -7.51594538693e-25)
(0.0371608171659 -0.0115523895519 -6.63847114072e-25)
(0.0376740366281 -0.0105399235457 4.25014177796e-24)
(0.0376522848293 -0.0130764554143 -7.74760720611e-25)
(0.0382147195616 -0.0145084372416 1.27005318291e-23)
(0.0348771140517 -0.00145308246955 -1.38730202189e-21)
(0.0338968778579 -0.00123844962062 -1.70325391418e-21)
(0.0369205832928 -0.00307077301491 -6.72735872404e-22)
(0.0372703715532 -0.00186972149153 -5.83604390939e-22)
(0.0374727426362 -0.00472711314064 -3.20920459711e-22)
(0.038095550174 -0.00385565700432 -3.45214273012e-22)
(0.0377469518439 -0.00637665758274 -1.29412072657e-22)
(0.0383905268351 -0.0054530059105 -1.55723499546e-22)
(0.0380164967392 -0.00800164114659 -3.02178893304e-23)
(0.0386279661883 -0.00705663116967 -3.50298023704e-23)
(0.0383302729461 -0.00958943799481 5.67102111027e-24)
(0.0363885187809 -0.00139827565496 -8.9955628323e-22)
(0.0385318437614 -0.00295735036297 -2.56082791547e-22)
(0.0391011919126 -0.00455746121066 -1.80017312847e-22)
(0.039695643551 -0.00372435656095 -6.57756157075e-23)
(0.0393614247873 -0.0061542448399 -6.13412292593e-23)
(0.0399872937385 -0.00526710702112 -7.55312222684e-23)
(0.040678658768 -0.00440339181876 3.87104748708e-23)
)
;

boundaryField
{
    back
    {
        type            calculated;
        value           uniform (0 0 0);
    }
    sides
    {
        type            calculated;
        value           uniform (0 0 0);
    }
    bottom
    {
        type            calculated;
        value           uniform (0 0 0);
    }
    front
    {
        type            calculated;
        value           uniform (0 0 0);
    }
    atmosphere
    {
        type            calculated;
        value           nonuniform List<vector> 0();
    }
    floatingObject
    {
        type            calculated;
        value           nonuniform List<vector> 0();
    }
    procBoundary2to0
    {
        type            processor;
        value           nonuniform List<vector> 
14
(
(0.03809491168 -0.0120680030564 4.16790531184e-25)
(0.0385730999393 -0.0135142546682 -4.32114065113e-24)
(0.0391107293603 -0.0148519182879 1.82910021171e-23)
(0.0388980837619 -0.00863537537422 -5.86902919411e-25)
(0.0386927073178 -0.0111252550301 5.33077942322e-24)
(0.0392098571747 -0.0101742926515 -3.27851764755e-25)
(0.0352951451437 -0.00117891889124 -9.72446740289e-22)
(0.0388294354213 -0.00180614607212 3.24717876176e-22)
(0.0396019118669 -0.00773051520873 -5.39881595942e-24)
(0.040204216546 -0.0068243763098 -4.93374054176e-24)
(0.0400884707694 -0.0028535953861 5.15025052016e-22)
(0.0412454271802 -0.00360309141204 1.05668108488e-22)
(0.0409297016162 -0.00595536256253 -1.91237335508e-23)
(0.0415392496933 -0.00509760069992 -3.34119520672e-23)
)
;
    }
    procBoundary2to1
    {
        type            processor;
        value           nonuniform List<vector> 
18
(
(0.00218028497314 -0.0194831312125 1.84890762712e-21)
(0.00395690840401 -0.0217802204983 1.70695293162e-22)
(0.00735538650381 -0.02213512404 3.18442780418e-22)
(0.00922948987408 -0.0235414510969 8.22237490399e-23)
(0.0110960885075 -0.0250097955341 8.03716811465e-23)
(0.012985029584 -0.0262531774278 1.43178947299e-22)
(0.0150180630048 -0.0275553630492 1.02013063295e-23)
(0.0181467328409 -0.0266438510527 -1.80653582048e-23)
(0.0211092516924 -0.0256018402376 -2.00176918174e-23)
(0.0238799575551 -0.0244645420271 -3.92232469758e-23)
(0.0264421881451 -0.0232655738794 -5.63166372649e-25)
(0.0287909287979 -0.0220379414585 -8.15550897409e-24)
(0.0309268979863 -0.0208145461628 -1.1672164889e-23)
(0.0328561866389 -0.0196278917484 -8.05303959855e-24)
(0.0345913336837 -0.0185092063262 -2.20356712836e-23)
(0.0361516759243 -0.0174870224618 -1.22114015063e-23)
(0.0375627021777 -0.0165852563459 -9.36593322217e-24)
(0.0388543307252 -0.0158216058483 7.32588831793e-24)
)
;
    }
}


// ************************************************************************* //
