/*--------------------------------*- C++ -*----------------------------------*\
| =========                 |                                                 |
| \\      /  F ield         | OpenFOAM: The Open Source CFD Toolbox           |
|  \\    /   O peration     | Version:  v2012                                 |
|   \\  /    A nd           | Website:  www.openfoam.com                      |
|    \\/     M anipulation  |                                                 |
\*---------------------------------------------------------------------------*/
FoamFile
{
    version     2.0;
    format      ascii;
    class       surfaceVectorField;
    location    "0.2";
    object      ddtCorrDdt0(Uf);
}
// * * * * * * * * * * * * * * * * * * * * * * * * * * * * * * * * * * * * * //

dimensions      [0 1 -2 0 0 0 0];


internalField   nonuniform List<vector> 
300
(
(0.140935179469 -0.00347845975166 -6.69913151317e-22)
(0.145232369251 -0.00241941184249 -9.45453623879e-22)
(0.144364299956 -0.00726700863974 -8.36060945125e-22)
(0.15016133644 -0.00382243690624 -1.37691960539e-22)
(0.146385360983 -0.0113126748003 -3.55920238019e-22)
(0.15221602663 -0.0073460676279 -7.12659949172e-22)
(0.148767428611 -0.0157146893056 -8.15539591704e-23)
(0.154441070959 -0.0109812236763 -2.03895430193e-22)
(0.151756015225 -0.0206000880397 -1.35991810696e-23)
(0.157320288974 -0.0148941099324 -3.76815396975e-23)
(0.155325528322 -0.0261037516801 -6.77655586691e-24)
(0.160858721815 -0.0193785448197 -6.30737723301e-23)
(0.159410799281 -0.0323669860005 -1.19811113249e-24)
(0.165003298752 -0.0245771910696 -2.25614268278e-23)
(0.169676716156 -0.0306452866884 -1.22415093193e-24)
(0.143863014356 -0.00274973550541 -4.13232433101e-22)
(0.147983184584 -0.00200072696686 -1.48000219219e-21)
(0.147582280097 -0.00580898004118 -1.42909645859e-23)
(0.153221239988 -0.00261840347446 2.73537879783e-21)
(0.149913555619 -0.009137733339 -5.60635141346e-22)
(0.155544603407 -0.00535062097637 -5.0178750038e-22)
(0.15272265409 -0.0128468709296 -1.6002301072e-22)
(0.15814894881 -0.0081952192628 -1.35388600299e-22)
(0.156276115755 -0.0170769167603 -8.71561309581e-23)
(0.161548048892 -0.0113415603217 -3.48843001845e-23)
(0.160558881872 -0.0219807089779 -7.8858643291e-23)
(0.165759327619 -0.0150961817477 -6.80144893142e-23)
(0.165515561853 -0.0277229191681 -2.25874666272e-23)
(0.170742233579 -0.01962068837 -2.4715613905e-23)
(0.176431137845 -0.0250974002825 -1.04819325539e-24)
(0.145989757608 -0.00190099227677 1.66860903874e-21)
(0.149884963984 -0.00150864611238 -1.83591642956e-21)
(0.150001568162 -0.00410459275881 2.24788226203e-21)
(0.155425193055 -0.00123858214073 2.4434708371e-21)
(0.15265592395 -0.0065831015031 -7.65409593337e-23)
(0.158022612666 -0.00304703191746 -5.84434277025e-23)
(0.155915609819 -0.00945718140919 -1.02498897634e-23)
(0.161021448282 -0.00495971472804 -1.13453044853e-22)
(0.160071811879 -0.0128787631819 -1.57426585407e-23)
(0.164967072745 -0.00718683068528 -1.55357345584e-23)
(0.165125760621 -0.0170174959671 -1.38714599283e-23)
(0.169894894403 -0.0100431261646 -1.65698214507e-23)
(0.171039037923 -0.0220624259474 -3.17634053316e-24)
(0.175783971037 -0.0137079288939 -3.44174592562e-24)
(0.177745041029 -0.0282227526764 -5.1258652738e-23)
(0.182589566546 -0.018391374053 6.16608757743e-25)
(0.185138579546 -0.0357274237654 -1.08234353427e-22)
(0.190233195983 -0.0243342256778 -1.5608240447e-22)
(0.198589004769 -0.0318047379619 -5.72553417748e-23)
(0.147194825224 -0.000928547620663 -1.0610546312e-21)
(0.150814114329 -0.000940780311314 -9.38286121389e-22)
(0.151492497158 -0.00214497714344 1.37145147371e-22)
(0.156641740701 0.000315750558085 3.09281902202e-21)
(0.154471993564 -0.00363261755948 -9.53555132222e-23)
(0.159509460499 -0.000432523872347 2.20530684809e-23)
(0.158192748355 -0.00551784604332 -1.18738889648e-22)
(0.162904766879 -0.00126433640102 -2.18936548188e-22)
(0.16297403798 -0.00796030800682 -1.63628974685e-23)
(0.167406674122 -0.00240775210249 -2.27972631333e-23)
(0.168840612711 -0.0111441934066 -6.14010744809e-24)
(0.173075490115 -0.00417799748027 -6.73723942745e-23)
(0.175780351754 -0.0152818958699 3.51203365277e-25)
(0.179918713488 -0.00676899482773 2.0851365404e-24)
(0.18375422055 -0.0206170354757 -1.04207142974e-22)
(0.187923773088 -0.0104175103605 8.04074554717e-23)
(0.192682709284 -0.0274262528683 -1.05103392817e-22)
(0.197045440003 -0.0154048934028 -2.27135668856e-22)
(0.207187863982 -0.0220583240761 -9.43414256303e-23)
(0.147356118821 0.000165503837867 3.21558753182e-21)
(0.150649084494 -0.00029728556351 -4.06770701165e-22)
(0.151922854073 6.84209691463e-05 2.97772694313e-21)
(0.156738749852 0.00203526082558 3.35225519165e-21)
(0.155215463071 -0.000283526887453 -1.01527966485e-22)
(0.159860353806 0.00248174143769 -3.49683303888e-22)
(0.159388411768 -0.00101731456473 -1.22994921673e-22)
(0.163636335678 0.00288193653581 -1.92682870459e-22)
(0.1647942743 -0.00229488652729 -7.38067599393e-23)
(0.168681093403 0.00299514670788 -3.56074195299e-23)
(0.171489364252 -0.0043098916125 -5.9147150286e-23)
(0.17508705062 0.00251528968521 -9.52258438475e-23)
(0.179498882306 -0.00729498656029 8.21413886468e-23)
(0.182901019704 0.00123978216395 3.18833031922e-23)
(0.188825611146 -0.0115275589695 -4.25210704099e-23)
(0.192156197664 -0.00109036373545 8.48623569435e-23)
(0.199432971817 -0.0173356430118 -2.16373701669e-22)
(0.202858023731 -0.00479597203118 -1.81865176452e-22)
(0.214962557028 -0.0102662984638 -1.43478959942e-22)
(0.146354192965 0.00137447225335 -2.70103041337e-22)
(0.149274962367 0.000418293642116 -6.62811258082e-22)
(0.151160894629 0.00252280442654 2.48449446364e-23)
(0.155590148307 0.00390035979417 1.7414204619e-21)
(0.154737448719 0.00344808882209 -4.40838207862e-22)
(0.158933749389 0.0056676796882 -2.37714164164e-22)
(0.159328803217 0.00403184327327 -1.05295368315e-22)
(0.163050055588 0.00744552791874 -1.01598097691e-22)
(0.165326926034 0.00411656286899 -5.70265034381e-23)
(0.168592941768 0.00899006490913 -4.81402001364e-23)
(0.172829489639 0.00350610633571 -4.19539036927e-24)
(0.175693919672 0.0100165227978 -7.61807115264e-23)
(0.181911498231 0.00195412441091 3.46042714889e-23)
(0.184450363515 0.0103220786262 4.61450741369e-24)
(0.19263459305 -0.000846193936763 -5.44817490984e-23)
(0.19495709571 0.0096345612122 -2.36997739744e-23)
(0.205027529127 -0.00527368186902 -1.08970434725e-22)
(0.207291483291 0.00760021282157 -1.53920976808e-22)
(0.221489341784 0.00376948161775 -5.3532062349e-23)
(0.144082553396 0.00268298670734 1.34871224515e-21)
(0.146592159516 0.00119763579648 -4.1524036995e-22)
(0.149083300542 0.00518936321595 1.4788613531e-21)
(0.15308325357 0.00587685524241 2.09390124895e-21)
(0.152891687063 0.00752430065336 1.01525946007e-22)
(0.156597177098 0.0090749116424 2.08410360459e-22)
(0.157837104902 0.00958697084079 -4.44429295115e-23)
(0.160984519201 0.0123635150981 -2.2051183345e-23)
(0.164354581939 0.0112356159281 -6.72944082247e-23)
(0.166940575727 0.0155060076257 -5.37241029366e-23)
(0.172593542953 0.0122810852558 -6.73708137434e-23)
(0.174644737166 0.0182567052238 -6.4594797235e-23)
(0.182693206909 0.0124741485037 -5.36895380496e-23)
(0.184254837021 0.020425033231 -8.06701205504e-23)
(0.194792840336 0.011488164515 -1.23139001684e-22)
(0.1959444211 0.0217392014581 -6.02683577051e-23)
(0.209013854732 0.00890068290426 -9.84826044319e-23)
(0.209886515823 0.0218277713514 -1.75145098976e-22)
(0.22623110613 0.0201911014075 -7.08897027375e-23)
(0.140456501622 0.00406556064837 3.29948633844e-22)
(0.142526530942 0.00202565661913 -2.43597251246e-22)
(0.145585024905 0.00801921257254 8.23450256307e-22)
(0.149128736959 0.00791296421659 2.6516722828e-21)
(0.149544668019 0.0118780057444 8.48332311067e-23)
(0.152736341665 0.0126274424327 2.29090865237e-22)
(0.15474166564 0.0155685044986 -3.133235677e-23)
(0.15729073914 0.0175382507598 -1.30288607098e-23)
(0.161656742042 0.0189758959359 -5.10244919469e-23)
(0.163529129507 0.0224259732231 -4.21720828729e-23)
(0.170497218952 0.0219342133178 -7.7894104042e-23)
(0.171682571107 0.0271048637379 -5.79666880319e-23)
(0.181481644186 0.0242057375373 -8.72489402059e-23)
(0.181981040245 0.0314188680045 -1.04916896708e-22)
(0.194848115751 0.0254624891898 -1.12274454997e-22)
(0.194689826072 0.0351164081168 -1.31285275566e-22)
(0.210840174362 0.0252549156816 -1.47552197282e-22)
(0.210103331197 0.037831806419 -1.50239050548e-22)
(0.228525590314 0.0390411851744 -6.49331552618e-23)
(0.13542339387 0.00548177837031 2.07812639771e-21)
(0.137044307618 0.00287173662648 1.01587993383e-22)
(0.140584610727 0.0109397128068 2.05731289173e-21)
(0.143669456701 0.0099366389992 2.77589465434e-21)
(0.144584101984 0.0164123706738 1.3122877342e-22)
(0.147261104429 0.0162288367675 2.37314321349e-22)
(0.149889400381 0.0218548329944 -2.38685868126e-23)
(0.151844462202 0.0228384465818 -3.22464259897e-23)
(0.157023209719 0.0271936772313 -4.91142789578e-23)
(0.158185795648 0.0295790765094 -2.20327526376e-23)
(0.166254649327 0.0323075992593 -8.49894806981e-23)
(0.166564581598 0.0363554674043 -8.29286127068e-23)
(0.177891701273 0.0369975241803 -1.48953232068e-22)
(0.177288958837 0.0430746363477 8.83119450587e-24)
(0.192292100576 0.0409555405797 -1.69249871117e-22)
(0.19073471378 0.0495356281734 -1.38494842214e-22)
(0.209854361429 0.0437387140648 -6.7620008528e-23)
(0.207330954353 0.055413519271 -3.19140065831e-22)
(0.227582323149 0.0602037363653 -3.32168477369e-22)
(0.128947934163 0.00686122591255 7.99356250011e-22)
(0.130182106421 0.003708501345 -1.87945776768e-22)
(0.134023474284 0.0138616407653 9.55896083958e-22)
(0.136667059216 0.0119048366742 8.87309340987e-22)
(0.13793129003 0.0210108793941 7.38391219394e-23)
(0.140108595992 0.0197845865012 6.36784285717e-23)
(0.14316591356 0.0282810113665 -3.04105918147e-23)
(0.144569824168 0.0281004262672 2.11193043646e-23)
(0.150276555321 0.0356755974317 -5.58470863866e-23)
(0.150786115131 0.0367284113929 -5.76855053265e-23)
(0.159597821074 0.0431498469596 1.08920624972e-23)
(0.159085854013 0.0457086319975 -1.21371781973e-22)
(0.171537289666 0.0505748308595 1.92895843597e-23)
(0.169861707046 0.0550424921029 4.25277001321e-23)
(0.186581954848 0.0576948955873 -2.88385036929e-22)
(0.183617982976 0.0646075304405 -5.13114867387e-23)
(0.205314880918 0.0641258867934 -5.83688534672e-22)
(0.200911708921 0.0741738419519 -2.84833976104e-22)
(0.222496367268 0.0833283844842 -5.20387814992e-22)
(0.121073882062 0.00818506216031 -9.99926857918e-23)
(0.121995393304 0.00467198821423 -3.30444424891e-22)
(0.125892605262 0.0167572206593 -4.90831439929e-24)
(0.128092135692 0.013760668523 -9.6035044089e-24)
(0.129573475508 0.0255503396703 1.09586109969e-23)
(0.131311362141 0.0231674210595 -1.09106861274e-22)
(0.134527027506 0.0346229124525 -6.15560914724e-24)
(0.135491873766 0.0330976328148 3.20248903839e-23)
(0.141302238579 0.0441167770242 -1.23210200913e-22)
(0.141286332215 0.043548142689 -5.7313422238e-23)
(0.150305117413 0.0540861738862 -8.97361443385e-23)
(0.149111301882 0.054747004179 6.19133580606e-23)
(0.162063289768 0.0645180408197 -2.80733709664e-23)
(0.159427126383 0.0668329780219 1.58903504708e-23)
(0.177179646276 0.0752072958956 -4.77604259136e-23)
(0.172931950546 0.0797555621234 2.80130063732e-23)
(0.196423759424 0.085943416195 -2.21533256423e-22)
(0.190187265847 0.0934508540215 -1.86395024425e-23)
(0.212288748948 0.107738609211 -3.73315332402e-22)
(0.111408982833 0.00976030968646 -2.40055243508e-22)
(0.112232656133 0.00542225421369 -2.15838313194e-22)
(0.116295444564 0.0195262676241 -1.13802051283e-22)
(0.118322524702 0.0153410968974 -2.25594312434e-22)
(0.119623555953 0.029658334338 -8.80405818866e-23)
(0.121174211115 0.026081698668 -1.77547856071e-22)
(0.124005023831 0.0405028584617 -1.91329227068e-23)
(0.124640947727 0.0374759382514 1.65124696254e-22)
(0.130072405842 0.0520831230627 1.27810136736e-22)
(0.129699145068 0.0496359490542 8.3439050765e-23)
(0.138223641425 0.0645787384771 1.6753985287e-22)
(0.136609651461 0.0629202455275 6.14836952779e-23)
(0.149188979814 0.0782539637646 7.19767278103e-23)
(0.145748506262 0.0778225731106 1.62891306712e-22)
(0.163618821277 0.0927626541848 5.71339298443e-23)
(0.158425894302 0.0942142309365 -3.10492365624e-22)
(0.182388189657 0.10839055573 -1.70421578421e-22)
(0.174570087206 0.112255947745 5.78329654061e-23)
(0.195984685528 0.132332290967 -1.05352459851e-22)
(0.101359730575 0.0105896510789 -2.0137738212e-22)
(0.101639753414 0.00606084144478 1.55788263298e-22)
(0.105579578894 0.0216988717068 -2.89340117221e-22)
(0.107208707419 0.0165179842064 -7.12110874711e-22)
(0.108237902345 0.0333800680617 7.56174220703e-23)
(0.109486895 0.0282957115118 -4.75273198723e-22)
(0.111735098487 0.0457699595854 2.67696669726e-22)
(0.112243574942 0.0409241037293 2.3192306881e-22)
(0.116693766635 0.0592561577359 1.71126093071e-23)
(0.116204994153 0.0545811106255 1.30151621575e-22)
(0.12353760909 0.0740938998154 5.68351491206e-23)
(0.121765061824 0.069763802015 6.90075885731e-23)
(0.132854916048 0.0903138815837 -2.19577786722e-22)
(0.129524563639 0.0871510460722 4.72350380614e-22)
(0.145444286511 0.109266563219 -3.09793330062e-22)
(0.139475304643 0.106824909429 -6.28141552535e-23)
(0.162486465696 0.130249409416 1.22902083976e-22)
(0.153597244274 0.129327290897 3.55388074968e-22)
(0.172727082134 0.155527851133 -2.60197791687e-22)
(0.0902667823541 0.0114959476537 -3.54945229293e-22)
(0.0901397244686 0.00670632660161 4.31221110002e-22)
(0.0938650405824 0.0234092222057 -8.98043956212e-22)
(0.0952898509582 0.0171834140128 -5.14832670531e-22)
(0.0956504832767 0.0360618152434 -3.18967551982e-22)
(0.0968271089985 0.0297036846714 -4.88676244854e-22)
(0.0979875748841 0.0497454563707 9.43780206594e-23)
(0.0985513900891 0.0432148948452 2.78086832176e-22)
(0.101396836956 0.0648580983096 1.82046600841e-22)
(0.101083507251 0.0579618183954 9.26005670556e-23)
(0.106287418275 0.081891703031 4.84522820067e-22)
(0.104724038133 0.0746390825203 6.21504055164e-23)
(0.113052317038 0.101571159649 6.29114012083e-22)
(0.10984112513 0.093915389905 5.13262534606e-22)
(0.122638724863 0.124039492722 6.02367249777e-22)
(0.117010191775 0.116423084877 -2.30861015719e-22)
(0.136456627568 0.150289085096 -2.77118006954e-23)
(0.127361188573 0.143171535454 3.31498146712e-22)
(0.14238466568 0.175171267486 3.04392365221e-23)
(0.0785264343807 0.0118700432759 2.71333668763e-22)
(0.0782631606957 0.00706768504852 2.75622121179e-21)
(0.0814187357355 0.0244038065988 -1.05464959173e-22)
(0.0827481465066 0.0173006457313 -2.12585225356e-22)
(0.0822113617715 0.0377528131092 1.08378139304e-22)
(0.0834686647415 0.0301743482891 -7.60748095148e-24)
(0.0831335474873 0.0523027016543 2.76309378572e-22)
(0.0839916942918 0.0441125104566 2.02873226416e-22)
(0.0845851836378 0.0685712797994 -2.72956282692e-23)
(0.0848058231813 0.0593910461742 2.64797279792e-22)
(0.0868287091141 0.0871949554689 9.08901200552e-23)
(0.0860937484725 0.0768634274851 -3.80879554326e-23)
(0.090260861237 0.108928985738 -3.46712493196e-22)
(0.0881076107665 0.0973402224155 -2.45576968214e-22)
(0.0956635464788 0.13469569861 -5.01730118784e-22)
(0.0912530571056 0.121840607344 2.03413956084e-22)
(0.10423069377 0.165711939231 3.89649183929e-22)
(0.096372700145 0.15176851254 -3.30398239054e-23)
(0.104632763811 0.188652614567 7.01393323684e-24)
(0.0664849554608 0.0119838138517 2.27230231767e-21)
(0.0662695940747 0.0072747365014 5.01412179371e-21)
(0.0686361881827 0.0246738339303 -1.14727747134e-22)
(0.0700467399013 0.0168719573085 -6.12387346551e-22)
(0.0683569045977 0.0382423621001 8.68876061601e-23)
(0.0698888412159 0.0296200068914 7.68657501928e-22)
(0.0676979225065 0.053116091088 1.91361127635e-22)
(0.0691044207547 0.0434509379747 1.28585196306e-22)
(0.0669109070505 0.0698925088734 2.54004952628e-22)
(0.0680216720207 0.0585994642448 4.66973654745e-22)
(0.0661050949168 0.0893179439303 -3.74555043702e-22)
(0.0666648527189 0.0760501729488 8.44123066965e-22)
(0.0654647997513 0.112340797139 3.04549481066e-22)
(0.0650881998097 0.0966985997267 4.9227634042e-24)
(0.0654174167609 0.14025566279 6.72104250963e-22)
(0.0667419722925 0.174746710714 -4.15675074598e-22)
(0.0546727474382 0.0117085557153 2.12943212949e-21)
(0.0560335269111 0.0241342583271 2.7099790251e-22)
(0.0546595997297 0.0374088291517 8.10355092074e-22)
(0.052362752578 0.0519971616918 4.04197723417e-22)
(0.0492180417912 0.0685118099349 1.05709176908e-21)
(0.051490182751 0.0554713803173 3.24416225997e-22)
(0.0451210124851 0.0877574232209 1.22360087407e-21)
)
;

boundaryField
{
    back
    {
        type            calculated;
        value           uniform (0 0 0);
    }
    sides
    {
        type            calculated;
        value           nonuniform List<vector> 0();
    }
    bottom
    {
        type            calculated;
        value           uniform (0 0 0);
    }
    front
    {
        type            calculated;
        value           uniform (0 0 0);
    }
    atmosphere
    {
        type            calculated;
        value           nonuniform List<vector> 0();
    }
    floatingObject
    {
        type            calculated;
        value           nonuniform List<vector> 0();
    }
    procBoundary4to0
    {
        type            processor;
        value           nonuniform List<vector> 8((0.141751238534 -0.00276915624309 -1.01502670211e-22) (0.146370765792 -0.00485660358987 -1.3861267326e-22) (0.148169630181 -0.00904677911251 -3.68163376195e-22) (0.150040027918 -0.0133412048011 -1.291013454e-22) (0.152437543735 -0.0178821831654 -3.13570393458e-23) (0.155359016485 -0.0229480518035 -6.65406643803e-24) (0.158744528069 -0.0286626171773 -3.84327866746e-23) (0.162511465921 -0.0351559343883 1.58193902591e-23));
    }
    procBoundary4to3
    {
        type            processor;
        value           nonuniform List<vector> 
13
(
(0.0633572623122 0.121818488472 9.46332274694e-22)
(0.0619051802605 0.153131668345 1.59744218661e-21)
(0.0613935173853 0.192917501683 -1.136619706e-21)
(0.0545491433184 0.00727712524128 2.78345730767e-21)
(0.0576073729914 0.0158511625507 -2.61533674308e-21)
(0.0565945057055 0.0280060240861 5.95510830634e-22)
(0.05450528172 0.0411668548801 1.65022360155e-22)
(0.0474165198147 0.0719695998935 1.11304618181e-21)
(0.0399051240108 0.110768877621 6.46705557032e-22)
(0.0420834612519 0.0915097560427 1.30497655826e-21)
(0.0378696037616 0.0488942725764 8.5240862736e-23)
(0.0324739934155 0.0643261356454 3.80370638729e-22)
(0.0360419314823 0.0501118393979 4.16623537366e-22)
)
;
    }
    procBoundary4to5
    {
        type            processor;
        value           nonuniform List<vector> 
18
(
(0.163921010161 -0.0395359362574 -2.51513580792e-23)
(0.171063253087 -0.0344799352984 -5.45001895474e-23)
(0.182727975662 -0.031728395137 -1.0471064903e-22)
(0.189492023414 -0.0397289300483 -5.90463407124e-23)
(0.193061477762 -0.0448194312448 -4.86411133987e-23)
(0.202427409896 -0.0360187559068 1.52207679414e-23)
(0.211222305601 -0.0251020179271 -9.48913739473e-23)
(0.219058673976 -0.0117901253138 -5.19636296992e-23)
(0.22542742516 0.00417143201597 -2.09963528376e-22)
(0.229676826683 0.0229751966481 1.10050001392e-23)
(0.230996151549 0.0446986954591 -2.49853433867e-22)
(0.228410414949 0.069229579537 1.18905895737e-22)
(0.220797063916 0.0961683920849 -1.94546132794e-22)
(0.206940394222 0.124710540257 -3.66484126721e-22)
(0.185640685115 0.153522199331 -2.21963267627e-23)
(0.156056486998 0.180652711919 -9.17438261741e-23)
(0.117677760488 0.203491606477 -1.65242440621e-22)
(0.0709626041306 0.218033499484 -1.3211236418e-23)
)
;
    }
}


// ************************************************************************* //
