/*--------------------------------*- C++ -*----------------------------------*\
| =========                 |                                                 |
| \\      /  F ield         | OpenFOAM: The Open Source CFD Toolbox           |
|  \\    /   O peration     | Version:  v2012                                 |
|   \\  /    A nd           | Website:  www.openfoam.com                      |
|    \\/     M anipulation  |                                                 |
\*---------------------------------------------------------------------------*/
FoamFile
{
    version     2.0;
    format      ascii;
    class       volScalarField;
    location    "0.2";
    object      k_0;
}
// * * * * * * * * * * * * * * * * * * * * * * * * * * * * * * * * * * * * * //

dimensions      [0 2 -2 0 0 0 0];


internalField   nonuniform List<scalar> 
164
(
0.0580906005235
0.0644084184536
0.0650036414998
0.0650536591477
0.0650597479782
0.0650635817075
0.0650678660527
0.065072687605
0.058113545476
0.0644277901611
0.0650229435724
0.0650733158618
0.065079909804
0.0650843717593
0.0650894009453
0.0650950768179
0.0581365093398
0.0644474469398
0.0650426462719
0.0650934713305
0.0651006925826
0.0651059352335
0.0651118922305
0.0651186358413
0.0651260707266
0.0651340722966
0.0581591603518
0.0644671759309
0.0650625675155
0.0651139617033
0.0651219541916
0.0651281576319
0.0651352600374
0.0651433264986
0.0651522512841
0.0651618944505
0.0581810846596
0.0644867063632
0.0650824704665
0.0651345717961
0.0651435045725
0.0651508807347
0.0651593863354
0.065169080504
0.0651798473731
0.0651915315013
0.0582017873385
0.0645057048313
0.0651020581959
0.0651550262846
0.0651650962154
0.0651738930751
0.0651841048359
0.0651957879865
0.0652088186175
0.0652230268518
0.0582206755725
0.064523764703
0.0651209664938
0.0651749834575
0.065186415144
0.0651969204128
0.0652091922058
0.0652232898598
0.0652390861165
0.0652564001802
0.0582370563058
0.0645403988713
0.0651387530538
0.0651940257222
0.0652070731276
0.0652196150156
0.0652343580492
0.0652513674687
0.0652705226044
0.0652916385778
0.0582501413112
0.0645550371142
0.0651548915978
0.0652116503485
0.0652265987385
0.0652415475682
0.0652592313434
0.0652797315358
0.0653029413441
0.0653286860797
0.0582590695714
0.0645670244841
0.0651687661179
0.0652272637988
0.0652444296373
0.0652622016501
0.0652833547963
0.0653080084434
0.0653360845614
0.0653674313413
0.0582629182164
0.0645755980103
0.0651796624604
0.0652401808314
0.0652599123344
0.0652809678882
0.0653061813203
0.0653357337945
0.0653696101274
0.0654076945029
0.058260820228
0.0645795225103
0.0651867157971
0.0652496304793
0.0652723078962
0.0652971492648
0.0653270698229
0.0653623505416
0.0654030805241
0.0654492098634
0.0582565576641
0.0645736693301
0.0651881824667
0.0652547182303
0.0652808318699
0.0653099490704
0.0653452471187
0.0653871807923
0.0654359648856
0.0654916121809
0.058249158126
0.0645583230586
0.065183336919
0.0652546305981
0.0652846984391
0.0653186312939
0.0653600146502
0.0654094793629
0.0654674466281
0.0655343254128
0.0582351160107
0.0645348358789
0.0651719237962
0.0652486172518
0.0652830548132
0.0653223711022
0.0653706482853
0.065428736194
0.065497189493
0.0655767759621
0.0582129301658
0.0645035273627
0.0651534731643
0.0652359852968
0.0652751254244
0.0653203030063
0.0653762118516
0.0654440795707
0.0655248079408
0.0656192119531
0.0581819702219
0.0644644204274
0.0651275976337
0.0652161774624
0.0652602603967
0.0653116877292
0.065375948848
0.0652380317226
)
;

boundaryField
{
    back
    {
        type            kqRWallFunction;
        value           nonuniform List<scalar> 
164
(
0.0580906005235
0.0644084184536
0.0650036414998
0.0650536591477
0.0650597479782
0.0650635817075
0.0650678660527
0.065072687605
0.058113545476
0.0644277901611
0.0650229435724
0.0650733158618
0.065079909804
0.0650843717593
0.0650894009453
0.0650950768179
0.0581365093398
0.0644474469398
0.0650426462719
0.0650934713305
0.0651006925826
0.0651059352335
0.0651118922305
0.0651186358413
0.0651260707266
0.0651340722966
0.0581591603518
0.0644671759309
0.0650625675155
0.0651139617033
0.0651219541916
0.0651281576319
0.0651352600374
0.0651433264986
0.0651522512841
0.0651618944505
0.0581810846596
0.0644867063632
0.0650824704665
0.0651345717961
0.0651435045725
0.0651508807347
0.0651593863354
0.065169080504
0.0651798473731
0.0651915315013
0.0582017873385
0.0645057048313
0.0651020581959
0.0651550262846
0.0651650962154
0.0651738930751
0.0651841048359
0.0651957879865
0.0652088186175
0.0652230268518
0.0582206755725
0.064523764703
0.0651209664938
0.0651749834575
0.065186415144
0.0651969204128
0.0652091922058
0.0652232898598
0.0652390861165
0.0652564001802
0.0582370563058
0.0645403988713
0.0651387530538
0.0651940257222
0.0652070731276
0.0652196150156
0.0652343580492
0.0652513674687
0.0652705226044
0.0652916385778
0.0582501413112
0.0645550371142
0.0651548915978
0.0652116503485
0.0652265987385
0.0652415475682
0.0652592313434
0.0652797315358
0.0653029413441
0.0653286860797
0.0582590695714
0.0645670244841
0.0651687661179
0.0652272637988
0.0652444296373
0.0652622016501
0.0652833547963
0.0653080084434
0.0653360845614
0.0653674313413
0.0582629182164
0.0645755980103
0.0651796624604
0.0652401808314
0.0652599123344
0.0652809678882
0.0653061813203
0.0653357337945
0.0653696101274
0.0654076945029
0.058260820228
0.0645795225103
0.0651867157971
0.0652496304793
0.0652723078962
0.0652971492648
0.0653270698229
0.0653623505416
0.0654030805241
0.0654492098634
0.0582565576641
0.0645736693301
0.0651881824667
0.0652547182303
0.0652808318699
0.0653099490704
0.0653452471187
0.0653871807923
0.0654359648856
0.0654916121809
0.058249158126
0.0645583230586
0.065183336919
0.0652546305981
0.0652846984391
0.0653186312939
0.0653600146502
0.0654094793629
0.0654674466281
0.0655343254128
0.0582351160107
0.0645348358789
0.0651719237962
0.0652486172518
0.0652830548132
0.0653223711022
0.0653706482853
0.065428736194
0.065497189493
0.0655767759621
0.0582129301658
0.0645035273627
0.0651534731643
0.0652359852968
0.0652751254244
0.0653203030063
0.0653762118516
0.0654440795707
0.0655248079408
0.0656192119531
0.0581819702219
0.0644644204274
0.0651275976337
0.0652161774624
0.0652602603967
0.0653116877292
0.065375948848
0.0652380317226
)
;
    }
    sides
    {
        type            kqRWallFunction;
        value           nonuniform List<scalar> 0();
    }
    bottom
    {
        type            kqRWallFunction;
        value           nonuniform List<scalar> 
17
(
0.0580906005235
0.058113545476
0.0581365093398
0.0581591603518
0.0581810846596
0.0582017873385
0.0582206755725
0.0582370563058
0.0582501413112
0.0582590695714
0.0582629182164
0.058260820228
0.0582565576641
0.058249158126
0.0582351160107
0.0582129301658
0.0581819702219
)
;
    }
    front
    {
        type            kqRWallFunction;
        value           nonuniform List<scalar> 
164
(
0.0580906005235
0.0644084184536
0.0650036414998
0.0650536591477
0.0650597479782
0.0650635817075
0.0650678660527
0.065072687605
0.058113545476
0.0644277901611
0.0650229435724
0.0650733158618
0.065079909804
0.0650843717593
0.0650894009453
0.0650950768179
0.0581365093398
0.0644474469398
0.0650426462719
0.0650934713305
0.0651006925826
0.0651059352335
0.0651118922305
0.0651186358413
0.0651260707266
0.0651340722966
0.0581591603518
0.0644671759309
0.0650625675155
0.0651139617033
0.0651219541916
0.0651281576319
0.0651352600374
0.0651433264986
0.0651522512841
0.0651618944505
0.0581810846596
0.0644867063632
0.0650824704665
0.0651345717961
0.0651435045725
0.0651508807347
0.0651593863354
0.065169080504
0.0651798473731
0.0651915315013
0.0582017873385
0.0645057048313
0.0651020581959
0.0651550262846
0.0651650962154
0.0651738930751
0.0651841048359
0.0651957879865
0.0652088186175
0.0652230268518
0.0582206755725
0.064523764703
0.0651209664938
0.0651749834575
0.065186415144
0.0651969204128
0.0652091922058
0.0652232898598
0.0652390861165
0.0652564001802
0.0582370563058
0.0645403988713
0.0651387530538
0.0651940257222
0.0652070731276
0.0652196150156
0.0652343580492
0.0652513674687
0.0652705226044
0.0652916385778
0.0582501413112
0.0645550371142
0.0651548915978
0.0652116503485
0.0652265987385
0.0652415475682
0.0652592313434
0.0652797315358
0.0653029413441
0.0653286860797
0.0582590695714
0.0645670244841
0.0651687661179
0.0652272637988
0.0652444296373
0.0652622016501
0.0652833547963
0.0653080084434
0.0653360845614
0.0653674313413
0.0582629182164
0.0645755980103
0.0651796624604
0.0652401808314
0.0652599123344
0.0652809678882
0.0653061813203
0.0653357337945
0.0653696101274
0.0654076945029
0.058260820228
0.0645795225103
0.0651867157971
0.0652496304793
0.0652723078962
0.0652971492648
0.0653270698229
0.0653623505416
0.0654030805241
0.0654492098634
0.0582565576641
0.0645736693301
0.0651881824667
0.0652547182303
0.0652808318699
0.0653099490704
0.0653452471187
0.0653871807923
0.0654359648856
0.0654916121809
0.058249158126
0.0645583230586
0.065183336919
0.0652546305981
0.0652846984391
0.0653186312939
0.0653600146502
0.0654094793629
0.0654674466281
0.0655343254128
0.0582351160107
0.0645348358789
0.0651719237962
0.0652486172518
0.0652830548132
0.0653223711022
0.0653706482853
0.065428736194
0.065497189493
0.0655767759621
0.0582129301658
0.0645035273627
0.0651534731643
0.0652359852968
0.0652751254244
0.0653203030063
0.0653762118516
0.0654440795707
0.0655248079408
0.0656192119531
0.0581819702219
0.0644644204274
0.0651275976337
0.0652161774624
0.0652602603967
0.0653116877292
0.065375948848
0.0652380317226
)
;
    }
    atmosphere
    {
        type            inletOutlet;
        inletValue      nonuniform List<scalar> 0();
        value           nonuniform List<scalar> 0();
    }
    floatingObject
    {
        type            kqRWallFunction;
        value           nonuniform List<scalar> 0();
    }
    procBoundary4to0
    {
        type            processor;
        value           nonuniform List<scalar> 8(0.0580679299806 0.0643894885803 0.0649848720468 0.0650346182145 0.0650403059662 0.0650436403203 0.0650473334092 0.0650514781388);
    }
    procBoundary4to3
    {
        type            processor;
        value           nonuniform List<scalar> 
13
(
0.0654548201912
0.0655496655811
0.0656611718686
0.0581422342409
0.0644181578184
0.0650943036274
0.0651889497989
0.065295941946
0.0654548201912
0.0653692084679
0.0651889497989
0.065295941946
0.0652083868512
)
;
    }
    procBoundary4to5
    {
        type            processor;
        value           nonuniform List<scalar> 
18
(
0.0650779705589
0.0651013140742
0.0651013140742
0.065108003342
0.0651424935671
0.0651720875788
0.0652039414325
0.0652381982913
0.06527499726
0.0653144666529
0.0653567157437
0.0654018230958
0.0654498225571
0.065500686259
0.065554301333
0.0656104428355
0.0656682048236
0.0657279454688
)
;
    }
}


// ************************************************************************* //
