/*--------------------------------*- C++ -*----------------------------------*\
| =========                 |                                                 |
| \\      /  F ield         | OpenFOAM: The Open Source CFD Toolbox           |
|  \\    /   O peration     | Version:  v2012                                 |
|   \\  /    A nd           | Website:  www.openfoam.com                      |
|    \\/     M anipulation  |                                                 |
\*---------------------------------------------------------------------------*/
FoamFile
{
    version     2.0;
    format      ascii;
    class       volVectorField;
    location    "0.2";
    object      U;
}
// * * * * * * * * * * * * * * * * * * * * * * * * * * * * * * * * * * * * * //

dimensions      [0 1 -1 0 0 0 0];


internalField   nonuniform List<vector> 
164
(
(0.0589109436979 -0.00199604439861 -2.21329282162e-23)
(0.0597117150838 -0.00502029148711 -7.85132245122e-23)
(0.0596996556098 -0.00860422201221 -5.68500284984e-23)
(0.0595894653233 -0.0122092265499 -2.25816525255e-23)
(0.059406118487 -0.0158922718107 -1.77841041983e-24)
(0.0591204744516 -0.0197041231382 1.98388624282e-24)
(0.0586949145274 -0.023660166981 2.29365553845e-25)
(0.0580852050056 -0.0277709356178 4.371274742e-25)
(0.0623259100928 -0.00200754553761 -1.53367882385e-22)
(0.0632086467231 -0.00503957546551 1.34891674358e-22)
(0.0632665204007 -0.00865312419414 -8.39159813447e-23)
(0.0632571487811 -0.0123058682969 -1.72140313484e-23)
(0.0632033805738 -0.0160650466694 -4.44529320742e-24)
(0.0630712517299 -0.0199896177199 -6.13984042613e-24)
(0.0628167368953 -0.0241027144011 -3.34136113861e-24)
(0.0623874199619 -0.0284220476383 6.99614996229e-25)
(0.065737880231 -0.00199695350136 -1.9173553687e-22)
(0.0667103619975 -0.00500210603697 1.41429728287e-22)
(0.0668549704299 -0.00860738360043 3.05604169821e-23)
(0.0669723872525 -0.0122731766965 -5.37701237786e-25)
(0.0670829834363 -0.0160782427751 -1.56359036417e-24)
(0.0671478103379 -0.0200910150252 -4.38632205111e-24)
(0.0671161065808 -0.0243442302505 -2.11200284714e-25)
(0.0669265984872 -0.0288648600216 8.99210286917e-25)
(0.0665076548428 -0.0336695998905 8.90436068843e-25)
(0.0657781476781 -0.0387617464111 3.7250790347e-24)
(0.0691043076074 -0.00195901341404 -1.73134409154e-22)
(0.0701746259584 -0.00489455245405 1.93560190807e-23)
(0.0704250089533 -0.00844409840642 1.37391671841e-24)
(0.0706986138557 -0.0120786979559 -2.76301746619e-23)
(0.0710133269959 -0.015889881745 -9.35628552592e-24)
(0.0713253364295 -0.019956935235 -1.90923016308e-24)
(0.0715771104351 -0.0243243262746 -1.55729409912e-26)
(0.0716981214837 -0.0290308130684 1.26098321504e-24)
(0.0716044645757 -0.0341044831778 -1.48551207882e-24)
(0.0711992357957 -0.0395588513426 1.1756260694e-24)
(0.0723730393703 -0.00188763584724 -5.88473159137e-23)
(0.073549354637 -0.00470170077845 6.19775430784e-22)
(0.0739264172169 -0.00813736492435 -2.31224703682e-23)
(0.0743890148261 -0.0116858124217 -2.21980954502e-23)
(0.074952505268 -0.0154520590923 -1.28827591182e-23)
(0.0755687982072 -0.0195279299899 -1.23524976325e-23)
(0.0761740958576 -0.0239720533427 -4.576480909e-25)
(0.0766886785809 -0.0288379758705 1.26955217286e-23)
(0.0770158184543 -0.0341687987465 -5.5659092457e-24)
(0.0770413848789 -0.0399924296408 -6.47641593315e-24)
(0.0754817618427 -0.00177635984987 -1.68513963167e-22)
(0.0767718680176 -0.00440747344237 5.81354897715e-23)
(0.0772978072682 -0.00765896552764 -4.4384487625e-23)
(0.077984886268 -0.0110537305244 -5.73911058334e-23)
(0.0788462289401 -0.0147110022468 -9.8614166607e-24)
(0.0798304863232 -0.0187363367585 -7.60915401225e-24)
(0.08086876538 -0.0232052524015 -3.81672024582e-24)
(0.0818729896611 -0.0281896771449 2.37733004345e-25)
(0.0827337395688 -0.0337521406111 -3.9805545711e-25)
(0.0833187674379 -0.0399402722403 -3.11855898711e-24)
(0.0783568114963 -0.00161822207158 -1.09375685449e-22)
(0.0797676788875 -0.00399475540004 3.99149158049e-22)
(0.0804654956434 -0.00697906139451 1.48346013322e-23)
(0.0814141320603 -0.0101387431832 -2.92104054392e-23)
(0.0826255202161 -0.0136077235606 -1.00584938122e-23)
(0.0840471206748 -0.017506600164 -2.87693955611e-23)
(0.085606632309 -0.0219304151402 -1.47909612852e-23)
(0.0872096404697 -0.026973544241 -1.75661501459e-23)
(0.0887352005052 -0.0327232687651 -9.6595557173e-24)
(0.0900330469309 -0.0392535659302 2.78147251489e-24)
(0.080912935792 -0.0014061853333 -1.60335760414e-22)
(0.0824498456021 -0.00344632153147 2.25418283281e-22)
(0.0833419956062 -0.00606694721072 6.8010339691e-24)
(0.0845894056024 -0.00889524052877 -4.70025589525e-23)
(0.0862044222593 -0.0120793818889 -3.36053279686e-23)
(0.0881364289241 -0.0157562810117 -4.40387664725e-23)
(0.0903129613612 -0.0200432717553 -3.04301543459e-23)
(0.0926359376846 -0.0250612110131 -8.85661802027e-24)
(0.0949760616766 -0.0309285009063 -2.56841860543e-23)
(0.0971665910625 -0.0377534184896 -1.60860167963e-23)
(0.083053963496 -0.00113368924196 -6.65380474005e-23)
(0.0847188554925 -0.00274618068048 4.20580401614e-22)
(0.0858250906684 -0.00489280482032 1.18354587001e-23)
(0.0874062612612 -0.00727729334537 -6.05769306339e-23)
(0.0894774646951 -0.0100612683527 -3.96425879893e-23)
(0.091993790151 -0.0133980164849 -5.56889924298e-23)
(0.0948874749507 -0.0174302792186 -1.99109054921e-23)
(0.0980617538921 -0.0223094194033 -4.66904671572e-23)
(0.101383358746 -0.0281912822548 -4.49786827013e-23)
(0.104673408232 -0.0352282994385 -2.06948997163e-23)
(0.0846751679338 -0.000796229584018 -1.12452757385e-22)
(0.086462051376 -0.00188137497394 1.26104999687e-22)
(0.0877967189691 -0.0034292448902 -7.41536708004e-23)
(0.0897419437093 -0.00524085059767 -4.93472762133e-23)
(0.0923174039412 -0.00748947587633 -4.12231055362e-23)
(0.0954889890708 -0.0103435032104 -6.04695955904e-23)
(0.0991995280686 -0.0139722516195 -6.72997672544e-23)
(0.103361884861 -0.0185621664914 6.62879280447e-24)
(0.107845946135 -0.0243135755391 -6.91393257763e-23)
(0.112467414302 -0.0314329291936 -5.83989137349e-23)
(0.0856528605617 -0.000395016474641 -1.32513108766e-22)
(0.0875496646577 -0.000841575850937 -1.24953551427e-23)
(0.0891221887865 -0.00165142336832 -6.35803682427e-23)
(0.0914558204922 -0.00274656976295 -6.48933199281e-23)
(0.0945745525623 -0.00430590419771 -2.15741375603e-23)
(0.0984627154246 -0.00650860390661 -3.82675654951e-24)
(0.103082744789 -0.00955075291621 -1.81585151081e-23)
(0.108367965004 -0.0136568092508 -5.24298925357e-24)
(0.114203043943 -0.0190797933259 -3.20599003814e-23)
(0.120407894429 -0.0260902770759 -4.81757917118e-23)
(0.0858119277719 0.000109927283731 -1.28003715189e-22)
(0.0878340389709 0.000397051467106 -8.54095889622e-23)
(0.0896567288977 0.000461780449399 -3.02538927422e-23)
(0.0923905356766 0.000233081908225 -5.33396974327e-23)
(0.0960754789715 -0.00046761519951 -4.47422131397e-23)
(0.100724824385 -0.00182366667804 -9.00239381379e-23)
(0.106329616445 -0.00405720920906 -6.82469506708e-23)
(0.112861174362 -0.00743291517822 -9.33267934841e-23)
(0.120230341576 -0.0122647911766 -6.28409538127e-23)
(0.128281324094 -0.018897264378 8.83837532045e-24)
(0.0850223710343 0.000658403972389 -1.64806588595e-22)
(0.0871767662209 0.00182042689404 -1.59765865446e-22)
(0.089257120223 0.00289785827531 -3.33340556581e-23)
(0.0923827498294 0.00369412926961 -9.56156145369e-23)
(0.096630712297 0.00404240478694 -7.37248423441e-23)
(0.102051544126 0.00375671327365 -4.98967678832e-23)
(0.108684752837 0.00259604049513 -6.35709812664e-23)
(0.116553458193 0.000254803587865 5.6418649262e-23)
(0.125629294001 -0.00364935297496 -1.23698508788e-22)
(0.135783584443 -0.00953614517742 -1.43543694277e-22)
(0.0833026079258 0.00128273654172 1.04884098995e-23)
(0.085507366135 0.00340704186368 -2.36709598858e-22)
(0.0877864667269 0.00562715023768 -2.53360733526e-23)
(0.0912584883708 0.00760904359202 -6.73655058954e-23)
(0.0960249356337 0.00920454661581 -6.83682758449e-23)
(0.102184801677 0.0102364608569 -9.0021202303e-23)
(0.109849578061 0.0104516842747 -1.00290398114e-22)
(0.119104122741 0.0095180673632 -6.66844116152e-23)
(0.129999941555 0.00697416365933 -1.93903295603e-22)
(0.14248448875 0.00230724483657 -5.11307486866e-23)
(0.0804971855165 0.00197228949029 7.83795085202e-23)
(0.0827024881934 0.00513065055043 -2.11339822707e-22)
(0.0851101159349 0.00860431858015 -2.71759986154e-23)
(0.088842455467 0.011919193276 -5.22589312129e-23)
(0.0940286184678 0.014958384372 -5.75582576899e-23)
(0.100833002126 0.0175760655262 -5.58441806914e-23)
(0.10945337663 0.0195147210253 -1.26666404199e-22)
(0.120078505438 0.0204115355945 2.6047895166e-23)
(0.132861788803 0.0197404871699 -1.02281447815e-22)
(0.147862182467 0.0169129541667 -2.75846353288e-23)
(0.0764815181504 0.00268200096223 3.86655603473e-22)
(0.0786493824635 0.00693361063107 -1.39749987107e-22)
(0.0811055685337 0.0117453597669 7.24030717406e-24)
(0.0849703329615 0.0165161084407 -2.43530426038e-23)
(0.0904143702443 0.0211797501395 -4.63616932444e-23)
(0.0976818567308 0.0256489396248 -6.62114911461e-23)
(0.107079211597 0.0296888287823 -3.02807450265e-23)
(0.118941061378 0.032925197951 -1.18574217709e-22)
(0.133591202618 0.0347631297153 -6.36173166177e-23)
(0.151211403344 0.0344840992455 8.17076371729e-24)
(0.0712165298665 0.00339161116024 5.06983870619e-22)
(0.0732878233516 0.00874636373423 -1.81259872199e-22)
(0.0756829098451 0.0149246146535 4.27601463551e-23)
(0.0795004878886 0.0212262975521 1.85358292896e-23)
(0.0849612839431 0.0276595647893 -5.8057469199e-23)
(0.0924027516189 0.0342307535617 -1.22586160714e-22)
(0.102273054268 0.0407668868111 -9.23182935438e-23)
(0.0774864495899 0.0340794636578 -1.46576627999e-23)
)
;

boundaryField
{
    back
    {
        type            noSlip;
    }
    sides
    {
        type            noSlip;
    }
    bottom
    {
        type            noSlip;
    }
    front
    {
        type            noSlip;
    }
    atmosphere
    {
        type            pressureInletOutletVelocity;
        value           nonuniform List<vector> 0();
    }
    floatingObject
    {
        type            movingWallVelocity;
        value           nonuniform List<vector> 0();
    }
    procBoundary4to0
    {
        type            processor;
        value           nonuniform List<vector> 8((0.0555267893006 -0.00196713998759 -1.48395091765e-22) (0.0562530050609 -0.00495610078143 1.74502373767e-22) (0.0561857296796 -0.00848083029432 -2.484473337e-23) (0.0559972758837 -0.0120115197304 -1.3690323473e-23) (0.0557143001386 -0.0155961021275 -1.97983482291e-24) (0.0553121705511 -0.0192783049669 9.46928671898e-26) (0.054759165723 -0.0230673456309 -1.27349516013e-24) (0.0540184087805 -0.0269682640024 2.01508431668e-25));
    }
    procBoundary4to3
    {
        type            processor;
        value           nonuniform List<vector> 
13
(
(0.115094975409 0.046921363005 -2.21234696401e-22)
(0.131455634914 0.0520045115857 -2.2941995626e-22)
(0.15163407827 0.0551438444803 3.31693828634e-23)
(0.0647360014705 0.00406662068199 5.21481848472e-23)
(0.0666277744851 0.0104673670567 -2.51631577737e-22)
(0.0688163095196 0.0179685048171 -1.83389609273e-24)
(0.0723464244678 0.0258008395393 5.27166665629e-25)
(0.0846714882593 0.0429561715139 -7.58312526592e-23)
(0.115094975409 0.046921363005 -2.21234696401e-22)
(0.0945252310617 0.0523786364913 -9.23016820159e-23)
(0.0723464244678 0.0258008395393 5.27166665629e-25)
(0.0846714882593 0.0429561715139 -7.58312526592e-23)
(0.0678837449898 0.0399896719342 7.40149191645e-23)
)
;
    }
    procBoundary4to5
    {
        type            processor;
        value           nonuniform List<vector> 
18
(
(0.0572411870451 -0.0320384405144 5.07453690796e-25)
(0.0617229869454 -0.0329558302167 9.88178990401e-25)
(0.0617229869454 -0.0329558302167 9.88178990401e-25)
(0.0607563576403 -0.0377003025788 2.07930664707e-24)
(0.0646491815197 -0.0441279312372 4.62395420864e-24)
(0.0703739144097 -0.0453886145241 5.32235574594e-25)
(0.0766345244235 -0.046316105132 2.01030681404e-24)
(0.0834725684263 -0.046779933109 5.49984187546e-24)
(0.0909215218741 -0.0466169229602 7.80374799465e-24)
(0.0989997507679 -0.0456252152166 1.92686735005e-23)
(0.10770048241 -0.0435587802863 -1.63063452567e-23)
(0.116978080435 -0.0401226991316 2.1494857356e-23)
(0.126729920881 -0.0349711781961 -2.63460150881e-24)
(0.136773761602 -0.0277098927064 -1.23788217747e-22)
(0.146819298873 -0.0179045415278 -1.05484925541e-23)
(0.156444066428 -0.00510379990814 -2.76440543423e-22)
(0.165028393767 0.0111523382938 6.19700896999e-24)
(0.17182386035 0.0312179904158 -3.18073290808e-23)
)
;
    }
}


// ************************************************************************* //
