/*--------------------------------*- C++ -*----------------------------------*\
| =========                 |                                                 |
| \\      /  F ield         | OpenFOAM: The Open Source CFD Toolbox           |
|  \\    /   O peration     | Version:  v2012                                 |
|   \\  /    A nd           | Website:  www.openfoam.com                      |
|    \\/     M anipulation  |                                                 |
\*---------------------------------------------------------------------------*/
FoamFile
{
    version     2.0;
    format      ascii;
    class       volScalarField;
    location    "4.2";
    object      epsilon;
}
// * * * * * * * * * * * * * * * * * * * * * * * * * * * * * * * * * * * * * //

dimensions      [0 2 -3 0 0 0 0];


internalField   nonuniform List<scalar> 
167
(
0.000679594487655
0.000763309862304
0.000819618625695
0.00084233939643
0.000853724931605
0.000861506042736
0.000868276204659
0.00087495855819
0.000766724206678
0.000785286241656
0.000856074668792
0.00088376599793
0.000896390369574
0.000904015457975
0.000910149068274
0.000916052853244
0.000824882990477
0.000858850120011
0.000941080971882
0.00097310245617
0.000987213376684
0.000995356737512
0.00100176849958
0.00100792620512
0.000848663058696
0.000888574688728
0.000975654482027
0.00100945740109
0.00102403584153
0.00103221518812
0.00103857477887
0.00104472853024
0.00105148091257
0.000860250165
0.000902102050477
0.000991195347757
0.00102563629394
0.00104023499995
0.00104823745604
0.00105440262728
0.00106039853299
0.0010670719802
0.00107565545015
0.000867597103449
0.000909809498347
0.000999784375694
0.0010343888141
0.00104882892237
0.00105657180266
0.00106247896627
0.00106824709938
0.001074724507
0.00108312127943
0.000873480606758
0.000915501494961
0.00100591908217
0.00104051780643
0.00105474678118
0.00106221408212
0.00106784522829
0.00107335853671
0.00107958835159
0.00108771130251
0.000878861072394
0.000920499213535
0.0010112111601
0.00104576524487
0.00105978867109
0.00106699570587
0.00107236108443
0.00107761680732
0.00108359191262
0.00109140728039
0.00088400615264
0.000925249070478
0.00101621336014
0.00105072846276
0.00106457231488
0.00107154855895
0.00107667153848
0.00108168738223
0.00108740838074
0.00109492460496
0.000889001926254
0.000929866257678
0.00102109094191
0.00105559045676
0.00106928586349
0.00107606253611
0.0010809730096
0.0010857701907
0.00109126412644
0.00109848704244
0.000893876349651
0.000934348135411
0.00102587259957
0.00106038754292
0.00107396785427
0.00108057778995
0.00108530454933
0.00108991357519
0.00109519691411
0.0011021575387
0.000898606368392
0.000938756985254
0.00103056538293
0.00106511466734
0.00107860897423
0.0010850824846
0.00108965624626
0.00109410307295
0.00109921257226
0.00110592176231
0.000903156918662
0.000943015051251
0.00103514588483
0.00106975615219
0.00108318809818
0.00108955346391
0.00109400182237
0.00109831730625
0.00110327268032
0.0011097680677
0.000907544770529
0.000947157818379
0.00103960259904
0.00107428719959
0.00108768090649
0.00109396230793
0.00109831207074
0.00110252331605
0.00110735975111
0.00111365713703
0.000911762293137
0.00095111113859
0.00104390210239
0.00107868710493
0.0010920646964
0.00109828434562
0.00110255724416
0.00110669439304
0.00111143396209
0.00111756535813
0.000915795575365
0.000954928763616
0.00104804037947
0.00108293559358
0.00109630896703
0.00110249333902
0.00110671700339
0.0011107941405
0.00111545166396
0.00112145768017
0.000919627113989
0.000958579460941
0.00105200498952
0.00108700341258
0.00110040983893
0.00110657017406
0.00111076001015
0.000923247477671
0.000962018205666
0.00105576637961
0.00109091002663
0.00110433323509
0.00105934237323
0.00109461052654
)
;

boundaryField
{
    back
    {
        lowReCorrection 0;
        blending        stepwise;
        n               2;
        type            epsilonWallFunction;
        value           nonuniform List<scalar> 
167
(
0.000679594487655
0.000763309862304
0.000819618625695
0.00084233939643
0.000853724931605
0.000861506042736
0.000868276204659
0.00087495855819
0.000766724206678
0.000785286241656
0.000856074668792
0.00088376599793
0.000896390369574
0.000904015457975
0.000910149068274
0.000916052853244
0.000824882990477
0.000858850120011
0.000941080971882
0.00097310245617
0.000987213376684
0.000995356737512
0.00100176849958
0.00100792620512
0.000848663058696
0.000888574688728
0.000975654482027
0.00100945740109
0.00102403584153
0.00103221518812
0.00103857477887
0.00104472853024
0.00105148091257
0.000860250165
0.000902102050477
0.000991195347757
0.00102563629394
0.00104023499995
0.00104823745604
0.00105440262728
0.00106039853299
0.0010670719802
0.00107565545015
0.000867597103449
0.000909809498347
0.000999784375694
0.0010343888141
0.00104882892237
0.00105657180266
0.00106247896627
0.00106824709938
0.001074724507
0.00108312127943
0.000873480606758
0.000915501494961
0.00100591908217
0.00104051780643
0.00105474678118
0.00106221408212
0.00106784522829
0.00107335853671
0.00107958835159
0.00108771130251
0.000878861072394
0.000920499213535
0.0010112111601
0.00104576524487
0.00105978867109
0.00106699570587
0.00107236108443
0.00107761680732
0.00108359191262
0.00109140728039
0.00088400615264
0.000925249070478
0.00101621336014
0.00105072846276
0.00106457231488
0.00107154855895
0.00107667153848
0.00108168738223
0.00108740838074
0.00109492460496
0.000889001926254
0.000929866257678
0.00102109094191
0.00105559045676
0.00106928586349
0.00107606253611
0.0010809730096
0.0010857701907
0.00109126412644
0.00109848704244
0.000893876349651
0.000934348135411
0.00102587259957
0.00106038754292
0.00107396785427
0.00108057778995
0.00108530454933
0.00108991357519
0.00109519691411
0.0011021575387
0.000898606368392
0.000938756985254
0.00103056538293
0.00106511466734
0.00107860897423
0.0010850824846
0.00108965624626
0.00109410307295
0.00109921257226
0.00110592176231
0.000903156918662
0.000943015051251
0.00103514588483
0.00106975615219
0.00108318809818
0.00108955346391
0.00109400182237
0.00109831730625
0.00110327268032
0.0011097680677
0.000907544770529
0.000947157818379
0.00103960259904
0.00107428719959
0.00108768090649
0.00109396230793
0.00109831207074
0.00110252331605
0.00110735975111
0.00111365713703
0.000911762293137
0.00095111113859
0.00104390210239
0.00107868710493
0.0010920646964
0.00109828434562
0.00110255724416
0.00110669439304
0.00111143396209
0.00111756535813
0.000915795575365
0.000954928763616
0.00104804037947
0.00108293559358
0.00109630896703
0.00110249333902
0.00110671700339
0.0011107941405
0.00111545166396
0.00112145768017
0.000919627113989
0.000958579460941
0.00105200498952
0.00108700341258
0.00110040983893
0.00110657017406
0.00111076001015
0.000923247477671
0.000962018205666
0.00105576637961
0.00109091002663
0.00110433323509
0.00105934237323
0.00109461052654
)
;
    }
    sides
    {
        lowReCorrection 0;
        blending        stepwise;
        n               2;
        type            epsilonWallFunction;
        value           nonuniform List<scalar> 8(0.000679594487655 0.000763309862304 0.000819618625695 0.00084233939643 0.000853724931605 0.000861506042736 0.000868276204659 0.00087495855819);
    }
    bottom
    {
        lowReCorrection 0;
        blending        stepwise;
        n               2;
        type            epsilonWallFunction;
        value           nonuniform List<scalar> 
18
(
0.000679594487655
0.000766724206678
0.000824882990477
0.000848663058696
0.000860250165
0.000867597103449
0.000873480606758
0.000878861072394
0.00088400615264
0.000889001926254
0.000893876349651
0.000898606368392
0.000903156918662
0.000907544770529
0.000911762293137
0.000915795575365
0.000919627113989
0.000923247477671
)
;
    }
    front
    {
        lowReCorrection 0;
        blending        stepwise;
        n               2;
        type            epsilonWallFunction;
        value           nonuniform List<scalar> 
167
(
0.000679594487655
0.000763309862304
0.000819618625695
0.00084233939643
0.000853724931605
0.000861506042736
0.000868276204659
0.00087495855819
0.000766724206678
0.000785286241656
0.000856074668792
0.00088376599793
0.000896390369574
0.000904015457975
0.000910149068274
0.000916052853244
0.000824882990477
0.000858850120011
0.000941080971882
0.00097310245617
0.000987213376684
0.000995356737512
0.00100176849958
0.00100792620512
0.000848663058696
0.000888574688728
0.000975654482027
0.00100945740109
0.00102403584153
0.00103221518812
0.00103857477887
0.00104472853024
0.00105148091257
0.000860250165
0.000902102050477
0.000991195347757
0.00102563629394
0.00104023499995
0.00104823745604
0.00105440262728
0.00106039853299
0.0010670719802
0.00107565545015
0.000867597103449
0.000909809498347
0.000999784375694
0.0010343888141
0.00104882892237
0.00105657180266
0.00106247896627
0.00106824709938
0.001074724507
0.00108312127943
0.000873480606758
0.000915501494961
0.00100591908217
0.00104051780643
0.00105474678118
0.00106221408212
0.00106784522829
0.00107335853671
0.00107958835159
0.00108771130251
0.000878861072394
0.000920499213535
0.0010112111601
0.00104576524487
0.00105978867109
0.00106699570587
0.00107236108443
0.00107761680732
0.00108359191262
0.00109140728039
0.00088400615264
0.000925249070478
0.00101621336014
0.00105072846276
0.00106457231488
0.00107154855895
0.00107667153848
0.00108168738223
0.00108740838074
0.00109492460496
0.000889001926254
0.000929866257678
0.00102109094191
0.00105559045676
0.00106928586349
0.00107606253611
0.0010809730096
0.0010857701907
0.00109126412644
0.00109848704244
0.000893876349651
0.000934348135411
0.00102587259957
0.00106038754292
0.00107396785427
0.00108057778995
0.00108530454933
0.00108991357519
0.00109519691411
0.0011021575387
0.000898606368392
0.000938756985254
0.00103056538293
0.00106511466734
0.00107860897423
0.0010850824846
0.00108965624626
0.00109410307295
0.00109921257226
0.00110592176231
0.000903156918662
0.000943015051251
0.00103514588483
0.00106975615219
0.00108318809818
0.00108955346391
0.00109400182237
0.00109831730625
0.00110327268032
0.0011097680677
0.000907544770529
0.000947157818379
0.00103960259904
0.00107428719959
0.00108768090649
0.00109396230793
0.00109831207074
0.00110252331605
0.00110735975111
0.00111365713703
0.000911762293137
0.00095111113859
0.00104390210239
0.00107868710493
0.0010920646964
0.00109828434562
0.00110255724416
0.00110669439304
0.00111143396209
0.00111756535813
0.000915795575365
0.000954928763616
0.00104804037947
0.00108293559358
0.00109630896703
0.00110249333902
0.00110671700339
0.0011107941405
0.00111545166396
0.00112145768017
0.000919627113989
0.000958579460941
0.00105200498952
0.00108700341258
0.00110040983893
0.00110657017406
0.00111076001015
0.000923247477671
0.000962018205666
0.00105576637961
0.00109091002663
0.00110433323509
0.00105934237323
0.00109461052654
)
;
    }
    atmosphere
    {
        type            inletOutlet;
        inletValue      nonuniform List<scalar> 0();
        value           nonuniform List<scalar> 0();
    }
    floatingObject
    {
        lowReCorrection 0;
        blending        stepwise;
        n               2;
        type            epsilonWallFunction;
        value           nonuniform List<scalar> 0();
    }
    procBoundary2to0
    {
        type            processor;
        value           nonuniform List<scalar> 
14
(
0.00111478798949
0.00111940946053
0.00112530975591
0.00111048647617
0.00111478798949
0.00111467219912
0.000926604408332
0.00096526893298
0.00111048647617
0.00110807465694
0.00096526893298
0.00106270709033
0.00110807465694
0.0010981086319
)
;
    }
    procBoundary2to1
    {
        type            processor;
        value           nonuniform List<scalar> 
18
(
0.000882016578977
0.000922370884698
0.00101462505619
0.00101462505619
0.00106015607348
0.00106015607348
0.00108910533564
0.00109622910196
0.00110039307726
0.00110363135988
0.00110667984615
0.00110979232156
0.00111303469355
0.00111640162994
0.00111986019198
0.00112338867196
0.00112697411579
0.0011305752552
)
;
    }
}


// ************************************************************************* //
