/*--------------------------------*- C++ -*----------------------------------*\
| =========                 |                                                 |
| \\      /  F ield         | OpenFOAM: The Open Source CFD Toolbox           |
|  \\    /   O peration     | Version:  v2012                                 |
|   \\  /    A nd           | Website:  www.openfoam.com                      |
|    \\/     M anipulation  |                                                 |
\*---------------------------------------------------------------------------*/
FoamFile
{
    version     2.0;
    format      ascii;
    class       surfaceVectorField;
    location    "3.8";
    object      Uf_0;
}
// * * * * * * * * * * * * * * * * * * * * * * * * * * * * * * * * * * * * * //

dimensions      [0 1 -1 0 0 0 0];


internalField   nonuniform List<vector> 
293
(
(-0.0461053554592 -0.0293654238062 5.65769914509e-18)
(-0.0442903195649 -0.0253278607905 5.18996111332e-18)
(-0.020037129366 -0.0462592317306 4.18685211523e-18)
(-0.0210295546908 -0.046800549548 4.4997729092e-18)
(-0.0068162915852 -0.053496780239 2.72506374792e-18)
(-0.00889956874266 -0.059973196857 3.09588920217e-18)
(-0.0027069824804 -0.0561049860036 1.86521831817e-18)
(-0.00200806493486 -0.0622068003168 2.23911956745e-18)
(-0.00524939406668 -0.0560909652696 1.43357300105e-18)
(-0.0034087166381 -0.0659808665376 1.6900759176e-18)
(-0.00698570052071 -0.0537371665293 1.25611159027e-18)
(-0.0081703116212 -0.0472821994276 1.52127624427e-18)
(-0.00169437932832 -0.0586350159873 1.13787057007e-18)
(-0.00304112921538 -0.0574050544003 1.38123942983e-18)
(0.00545105170472 -0.0749430481798 1.26908897434e-18)
(-0.0210865538479 -0.0432610883572 4.03203487743e-18)
(-0.00102915074902 -0.0324691554863 4.18724152661e-18)
(-0.009110656664 -0.0628893876332 3.40880999615e-18)
(-0.00140121370633 -0.054646027895 3.90074723317e-18)
(-0.00340975315919 -0.0697953677538 2.6099450217e-18)
(-0.00199361172889 -0.0691506703917 2.94193267833e-18)
(-0.00261888754478 -0.0689503611201 2.06397716689e-18)
(-0.00285313284709 -0.0708105909239 2.28816660178e-18)
(-0.00615107842556 -0.067878694011 1.77777916082e-18)
(-0.00448040002863 -0.0740836061764 1.86749830101e-18)
(-0.00415252838595 -0.0693315667368 1.64640408384e-18)
(-0.00671748488083 -0.0580464817341 1.75239937505e-18)
(0.00484652910171 -0.0739994834418 1.5124578341e-18)
(0.00162405625319 -0.0710631559109 1.74232777881e-18)
(0.00316716284731 -0.0830022070853 1.56595685563e-18)
(0.0187924399395 -0.0434566483775 4.05595388236e-18)
(0.0424276072623 -0.0255636959042 5.20797366611e-18)
(0.00594485768233 -0.0634858914551 3.43386991535e-18)
(0.0186280848079 -0.0473930983389 4.52838021496e-18)
(-0.00119581200655 -0.0709896851687 2.6201542584e-18)
(0.00551017914979 -0.0612762042543 3.11772458585e-18)
(-0.00427624424041 -0.0720362104366 2.0916877359e-18)
(-0.00180664641257 -0.0646770711943 2.23372987368e-18)
(-0.00382865167416 -0.0747454793169 1.84211851524e-18)
(-0.00177111549296 -0.0706005069164 1.71847401342e-18)
(-0.000266664423503 -0.0816205098525 1.84832307002e-18)
(0.000157752362137 -0.0572090548476 1.55829975495e-18)
(0.0036860971067 -0.0812778618157 1.79582680034e-18)
(0.00125230744658 -0.0707340027758 1.52779747055e-18)
(0.00606056171183 -0.0881152402636 1.37288905908e-18)
(0.0442880706693 -0.030011510805 5.68039999872e-18)
(0.0176632805011 -0.0474961024932 4.21223488546e-18)
(0.003876212355 -0.0557540343293 2.73130020113e-18)
(0.013768127739 -0.0449810063375 3.50206299821e-18)
(-0.000618197640706 -0.0596538667238 1.8605161512e-18)
(0.00209316289159 -0.050183740172 2.0293633749e-18)
(0.00203350259422 -0.0628221941197 1.43465525314e-18)
(0.00139721406383 -0.0585827543638 1.32801633484e-18)
(0.00397065577617 -0.0689461696296 1.23777415548e-18)
(0.00628153997909 -0.0460370749042 1.09870091087e-18)
(0.000991265668982 -0.08027024139 1.10485972929e-18)
(0.0125871595782 -0.0581863179796 9.55740557024e-19)
(0.00490884146658 -0.0884458802862 8.80874348478e-19)
(0.0110102928435 -0.0397150372556 2.80012617198e-18)
(0.0210979335526 -0.0344499702776 3.33607043995e-18)
(0.00372670511186 -0.0463356468711 1.49686355854e-18)
(0.00871376409479 -0.0387331406874 1.58657415257e-18)
(0.00566037735811 -0.0506022886682 9.92061992578e-19)
(0.0056638613942 -0.0488249269435 8.58541541694e-19)
(0.0141915237578 -0.055516968639 8.16667312419e-19)
(0.0111961121766 -0.0374694749659 6.39993231996e-19)
(0.0133053550636 -0.0721773789848 7.31755176216e-19)
(0.0292529986946 -0.0489084082721 5.54811948811e-19)
(0.00859735156179 -0.0745600561947 5.07968768617e-19)
(0.0184788055961 -0.0335888618307 2.12251842054e-18)
(0.0252265528356 -0.03031702227 2.08675088046e-18)
(0.00983439665888 -0.0392346951252 9.48252135725e-19)
(0.0143596102724 -0.0321777794728 8.85767370559e-19)
(0.00996247020616 -0.0441836231944 5.06472781112e-19)
(0.0106128168564 -0.0430954343842 4.07526850068e-19)
(0.0238065542398 -0.0457149229742 3.78137868388e-19)
(0.0127274800069 -0.0329852591787 2.75463931158e-19)
(0.0256161673868 -0.0523221373388 3.31025541212e-19)
(0.0358497421131 -0.0440190719108 2.36367240446e-19)
(0.0161841258438 -0.0499227048504 2.16893980394e-19)
(0.0212059521947 -0.0299516484372 8.49999830479e-19)
(0.0268598273582 -0.0275957843726 7.63222174925e-19)
(0.0146387450189 -0.0349165842267 3.45042084903e-19)
(0.0193245989562 -0.0283614994041 2.86796558322e-19)
(0.0119032046151 -0.0399517127504 1.76518000115e-19)
(0.0156479939318 -0.0403387391451 1.22281635022e-19)
(0.0217973113474 -0.038657559382 1.33693303216e-19)
(0.0114333548094 -0.0310547706559 7.37300459193e-20)
(0.0264566345781 -0.0335090228085 1.22235679627e-19)
(0.0306973002915 -0.0440692741144 6.28554513661e-20)
(0.0236029155053 -0.0367078076477 5.88102145597e-20)
(0.0248558010347 -0.0275368246302 2.00018902769e-19)
(0.0283934101056 -0.0258855370651 1.71647928397e-19)
(0.0205032082345 -0.0328438343684 6.40361084409e-20)
(0.0246317203719 -0.0263157812774 4.41931551301e-20)
(0.0151171298396 -0.0390635308561 1.94936808264e-20)
(0.0218677826135 -0.0397033777721 5.14094824153e-21)
(0.0183216396801 -0.0404482667654 2.89219406986e-21)
(0.0128182273698 -0.0297915372707 -1.24808469886e-20)
(0.0252292399234 -0.0354635954882 -5.70013701378e-22)
(0.0256953357134 -0.0477411159313 -2.29415624025e-20)
(0.0291544745731 -0.0439510608433 -1.94974940419e-20)
(0.0283748281228 -0.0261164803473 1.58221807579e-20)
(0.0299717797426 -0.0248337778896 1.82196269012e-20)
(0.0266131538015 -0.0313820965527 -1.47020050693e-20)
(0.0298975132009 -0.0250269886758 -1.53532780412e-20)
(0.0205593427266 -0.038575666323 -2.68335795735e-20)
(0.0290614566297 -0.0380766096003 -3.12077115906e-20)
(0.0219010370493 -0.0432502396149 -3.83146034609e-20)
(0.0174928653611 -0.0273740906914 -4.42265834326e-20)
(0.0294851272387 -0.0475409290652 -4.1869042743e-20)
(0.0299794571264 -0.0485406107106 -5.07569042882e-20)
(0.034545621586 -0.0600505960252 -4.45989780917e-20)
(0.0314083413122 -0.02494591773 -1.29558318979e-20)
(0.0315045198195 -0.0241302702702 -7.7613560591e-21)
(0.0321523314694 -0.0292056666683 -3.18589845625e-20)
(0.0341574937512 -0.0243940048198 -3.44218855897e-20)
(0.0264899540926 -0.0350768569307 -4.86007154497e-20)
(0.0349327579165 -0.0353799152511 -5.76270590896e-20)
(0.0295329577414 -0.0416698000263 -5.66688842599e-20)
(0.0240857156365 -0.0243703400821 -7.74145917879e-20)
(0.0368058081774 -0.0582256443596 -5.34868396369e-20)
(0.0465431943144 -0.0460102490371 -7.93710685333e-20)
(0.0404331015303 -0.0693238209807 -6.9982544118e-20)
(0.0342093135964 -0.0247548106141 -2.92274097509e-20)
(0.0334950844369 -0.0238789169845 -1.73166940017e-20)
(0.0367114590794 -0.0280458132594 -6.01899601167e-20)
(0.0374487533109 -0.0248192202652 -5.79485535724e-20)
(0.0322832086712 -0.0324166034232 -8.64409354278e-20)
(0.0393036642541 -0.0348208413653 -9.88980576066e-20)
(0.0411822012102 -0.0384873733953 -1.00116776061e-19)
(0.030156387624 -0.0241795094081 -1.28639625464e-19)
(0.0502164294823 -0.0568945572088 -9.58667730143e-20)
(0.0649588502348 -0.0449024704456 -1.40766061482e-19)
(0.0489239011567 -0.0642502704176 -1.23698005737e-19)
(0.037189225465 -0.0252171672588 -4.60378378233e-20)
(0.0364097898455 -0.0233945800859 -2.5159472997e-20)
(0.0409796433896 -0.0290208621461 -9.66566510623e-20)
(0.0412526892199 -0.0248894937889 -7.44481457823e-20)
(0.0376306497014 -0.0344532585837 -1.41096747643e-19)
(0.0447361747967 -0.0342734642972 -1.38826927496e-19)
(0.0507404607035 -0.0398046876471 -1.69288910885e-19)
(0.0355078201172 -0.024777514758 -1.78911111683e-19)
(0.0629224526098 -0.0468748081313 -1.68597294205e-19)
(0.0720278061225 -0.0455910613778 -1.92057831238e-19)
(0.0612264168978 -0.059026353695 -1.64725398862e-19)
(0.0405660712469 -0.0243941666504 -5.3569780956e-20)
(0.0394688656022 -0.0217625829142 -2.46930831064e-20)
(0.0453257188914 -0.0276660290213 -1.16618422216e-19)
(0.0445247465 -0.0233657188075 -7.90676133679e-20)
(0.0430422576277 -0.032533175699 -1.76641291536e-19)
(0.049603422985 -0.0313273022485 -1.5325794473e-19)
(0.0583708144853 -0.0387886594883 -2.01680032036e-19)
(0.0417633978158 -0.0232076247221 -1.90229978485e-19)
(0.0716027437981 -0.0498202272434 -1.88185935895e-19)
(0.0830489368582 -0.0447114623357 -1.90435092825e-19)
(0.0720913758827 -0.0611452010635 -1.60005557988e-19)
(0.0437282211584 -0.0220276755564 -5.01909155184e-20)
(0.0426531877807 -0.0189478319503 -1.99985228225e-20)
(0.0492597644572 -0.0252046241526 -1.15707135883e-19)
(0.0477018298667 -0.0210214501338 -6.49964980074e-20)
(0.0490932265636 -0.0293697762324 -1.6684663168e-19)
(0.053768654006 -0.0278852978608 -1.31332748512e-19)
(0.0682394527775 -0.0359646111382 -1.78985039274e-19)
(0.0483582945607 -0.020156964306 -1.60170537607e-19)
(0.0846558344148 -0.0511475404608 -1.62254714918e-19)
(0.0982239581675 -0.0427830194071 -1.65127222848e-19)
(0.0836870453585 -0.0687900409719 -1.32877583888e-19)
(0.0467773596919 -0.0188010136919 -3.48041053115e-20)
(0.045749478006 -0.0155436665612 -1.58924930791e-20)
(0.0529187809268 -0.02184521619 -8.06221106366e-20)
(0.0507461165229 -0.0181657757332 -4.19704500708e-20)
(0.0550621068829 -0.0256509745688 -1.24656654439e-19)
(0.0575744850011 -0.0238250086356 -8.74053940907e-20)
(0.0816830990005 -0.0335615210638 -1.46312721181e-19)
(0.0562688785474 -0.014720088339 -1.131976066e-19)
(0.0981438336198 -0.059399562105 -1.35750091818e-19)
(0.124054022459 -0.0384427722567 -1.30731861151e-19)
(0.0970208334244 -0.0749050013841 -1.02758185077e-19)
(0.0497724492158 -0.0151547213488 -2.30588378384e-20)
(0.0487356941575 -0.0112276796024 -1.0065983167e-20)
(0.0557233862502 -0.0176984157939 -4.8753733525e-20)
(0.0532898761041 -0.0135857717477 -2.4212315183e-20)
(0.0596086032024 -0.0194954408018 -7.59463462516e-20)
(0.0593715812935 -0.0175931704645 -4.84559589223e-20)
(0.0983558968795 -0.0256900215618 -9.761674657e-20)
(0.0624634495756 -0.00642449198977 -6.73732048541e-20)
(0.120993512451 -0.054654314141 -9.77399544101e-20)
(0.153013162763 -0.0274748253488 -8.60437910093e-20)
(0.114557372263 -0.0673547899122 -7.38619645344e-20)
(0.0520044898825 -0.00966069581012 -1.12194605116e-20)
(0.0510692546929 -0.00513330398662 -5.69182274699e-21)
(0.0564340084276 -0.0108432482239 -2.39145405804e-20)
(0.0544725756089 -0.00654921914979 -1.25180241431e-20)
(0.0614553242634 -0.0093372307 -3.98828175249e-20)
(0.0578656483189 -0.00819969421468 -2.77703297394e-20)
(0.114157655548 -0.0122841487121 -5.58002492935e-20)
(0.0654102236816 0.00312879560118 -3.90185209988e-20)
(0.144375803327 -0.0364814608791 -6.21658011337e-20)
(0.177225230803 -0.0110285456248 -7.13999523481e-20)
(0.132589068585 -0.0476042377116 -6.38191551116e-20)
(0.0531720802457 -0.00200596769242 -6.99038637853e-21)
(0.0523221201954 0.00263144583409 -4.54942838263e-21)
(0.0557013860644 -0.00225539259993 -1.63738133022e-20)
(0.0547222883136 0.00248635134619 -9.49027317171e-21)
(0.061305438427 -0.000721390785835 -2.69060332134e-20)
(0.0563318014674 0.00359793624592 -1.87867164019e-20)
(0.125192572855 -0.00108407897473 -5.46182240534e-20)
(0.0657732980773 0.0119742857016 -2.92705454306e-20)
(0.16534960863 -0.0151649756231 -7.30533063261e-20)
(0.191294510586 0.0049716177396 -5.91056703761e-20)
(0.153564744684 -0.0287212856056 -4.18755839673e-20)
(0.0533536555257 0.0071279768602 -7.04931517581e-21)
(0.0520749445155 0.0112021651077 -6.27699952185e-21)
(0.054909880166 0.00765518676104 -1.19031762714e-20)
(0.0541955993132 0.0127677067246 -8.89444247694e-21)
(0.06019389484 0.00868845147588 -2.1151228619e-20)
(0.0552988750589 0.0155273133515 -1.61582262756e-20)
(0.12937284501 0.0106259234387 -3.37579917532e-20)
(0.0638358117838 0.019885160013 -1.97824362809e-20)
(0.180839117374 0.00552401571901 -2.79279480173e-20)
(0.196380776812 0.0205969954863 -1.85839868825e-20)
(0.185194799609 -0.014226517556 -2.40066109449e-20)
(0.0524134992145 0.0166166320359 -8.12212682298e-21)
(0.0500757091189 0.0194755879611 -5.07606160906e-21)
(0.0539297514706 0.0182510017869 -1.31494924812e-20)
(0.0525620615423 0.0229291807194 -8.32346666335e-21)
(0.0574063622268 0.0199066241905 -1.47894339375e-20)
(0.0536437146418 0.0260517099629 -1.60148649337e-20)
(0.12310271687 0.0269043495104 -4.6084314102e-21)
(0.0568380271693 0.0269343381803 -1.48660756018e-20)
(0.176084132856 0.0446200860904 -1.46626498101e-20)
(0.178657218848 0.0334243264819 -2.73461543466e-20)
(0.264948558073 -0.0309926079428 1.84249787264e-21)
(0.0498283111969 0.0252547943834 -5.27740144942e-21)
(0.04648988995 0.0266685591944 -2.9539130251e-21)
(0.0520392030653 0.028179403065 -1.11888391159e-20)
(0.0496386150811 0.0319264108035 -4.65149024413e-21)
(0.0538514700037 0.0298062508968 -1.6091506598e-20)
(0.0520173652695 0.035869037204 -1.39795771387e-20)
(0.115814239821 0.0323055518194 -3.76037985382e-20)
(0.0543393435981 0.0356366439535 -1.81581802142e-20)
(0.278657341168 0.0291615681117 -1.08410066639e-20)
(0.181796971839 0.0456897237449 -2.99930975741e-20)
(0.401691152748 -0.0307095114107 2.84919629032e-20)
(0.0456186000868 0.0325467431286 -2.3280018198e-21)
(0.0415555855911 0.0325324527037 -2.60670353559e-21)
(0.0484275880145 0.0373943083893 -7.44222826691e-21)
(0.0447926795415 0.0393580471283 -2.18400048384e-21)
(0.0497539179987 0.0422821823936 -1.60462507549e-20)
(0.0471301205831 0.0445941519639 -1.04861053547e-20)
(0.108652727016 0.0497897796727 -1.05474792501e-20)
(0.0468322661739 0.0454102521242 -1.81645848596e-20)
(0.32198655573 0.0599088299094 9.33987199302e-21)
(0.171675764702 0.0575440038578 -1.11063428491e-20)
(0.535934635199 0.197789669996 1.20835297523e-20)
(0.0399924411119 0.0382965825997 -2.46270219963e-21)
(0.0356262696946 0.0370483598471 -2.22621685696e-21)
(0.0424590829378 0.0448406465263 -5.22787757162e-21)
(0.0382504481198 0.0450296008328 -4.60010254264e-21)
(0.0425347233817 0.052548642873 -1.26044394594e-20)
(0.0394230021776 0.050566803355 -1.17471142722e-20)
(0.0931703197337 0.0631555615076 -1.87234484586e-20)
(0.0362239881287 0.0518415207219 -1.71738434746e-20)
(0.317841974751 0.127078071234 -8.36268508979e-21)
(0.107757738842 0.0627189488048 -6.60243480644e-21)
(0.0570222911744 0.354453273848 -2.04893543746e-20)
(0.0333563358716 0.0424264740364 -4.36361719997e-21)
(0.034878699276 0.0499245256339 -1.11193392432e-20)
(0.0338450525704 0.0583306815748 -1.63165182875e-20)
(0.0310175877062 0.0539286277398 -1.62195538107e-20)
(0.0615195454606 0.0660346938385 -5.05282982249e-21)
(0.0285204089103 0.055276509777 -1.13701522453e-20)
(-0.13608780893 0.0944535137316 -1.87291040912e-20)
(0.0793390604599 0.067486265451 -7.51811223397e-21)
(-0.334412434046 0.129564680519 -2.45497799518e-20)
(0.0258160744331 0.0621951731489 -1.12731877686e-20)
(0.0221055298038 0.0555342155701 -1.337275963e-20)
(0.0536643223566 0.0688193148692 -1.38354346568e-20)
(0.021896926421 0.0570303408821 -2.73146887695e-21)
(-0.0878804863613 0.0567567827647 -1.33387880946e-20)
(0.0914145085968 0.0710888525767 -2.78227329436e-20)
(-0.139302224445 -0.0650185611231 -2.23328942675e-21)
(0.0179758941002 0.0642633926139 -4.83104073838e-21)
(0.0130922092566 0.0557115315793 -1.23181597201e-20)
(0.054884276894 0.0713389584978 -1.67187671637e-20)
(0.014819747601 0.0571601026196 -5.52314328072e-21)
(0.0473915876539 0.0621091555593 -1.67172342758e-20)
(0.10065917538 0.0706203745206 -2.58056958829e-20)
(0.10638602321 -0.116238185536 -1.90005608563e-20)
(0.00980261711735 0.0644333742471 -1.30102622625e-20)
(0.0560369452457 0.0726634020037 -1.46100719999e-20)
(0.222393759396 0.0596773393055 -2.80890224635e-20)
)
;

boundaryField
{
    back
    {
        type            calculated;
        value           uniform (0 0 0);
    }
    sides
    {
        type            calculated;
        value           nonuniform List<vector> 0();
    }
    bottom
    {
        type            calculated;
        value           nonuniform List<vector> 0();
    }
    front
    {
        type            calculated;
        value           uniform (0 0 0);
    }
    atmosphere
    {
        type            calculated;
        value           nonuniform List<vector> 
27
(
(0 -0.0630963561962 0)
(0 -0.0717124703347 0)
(0 -0.084144005163 0)
(0 -0.0791280816059 0)
(0 -0.0758709497895 0)
(0 -0.0598990694483 0)
(0 -0.0409234304452 0)
(0 -0.0409986399372 0)
(0 -0.0529256553257 0)
(0 -0.0641204091189 0)
(0 -0.0653932831503 0)
(0 -0.0591760825152 0)
(0 -0.0606751531033 0)
(0 -0.0627352480029 0)
(0 -0.0727255252234 0)
(0 -0.0721861042902 0)
(0 -0.05452637741 0)
(0 -0.0361298096605 0)
(0 -0.0260905924068 0)
(0 -0.035125225163 0)
(0 -0.107577070267 0)
(0 -0.0743316813183 0)
(0.49097297894 0.605992934036 2.92657698578e-21)
(-0.362853743813 0.485886401171 -4.3905285735e-20)
(0 -0.138373297702 0)
(0 -0.183614995366 0)
(0 -0.342882421788 0)
)
;
    }
    floatingObject
    {
        type            calculated;
        value           nonuniform List<vector> 4((0 0 0) (0 0 0) (-1.04083408559e-16 0 0) (0 0 0));
    }
    procBoundary6to3
    {
        type            processor;
        value           nonuniform List<vector> 8((-0.0736557933734 -0.030609481024 8.01872232638e-18) (-0.0379233957535 -0.0325493530403 6.17973631551e-18) (-0.0161370612665 -0.0431861759505 3.49675537957e-18) (-0.00461613016484 -0.0471481441956 2.06287388062e-18) (-0.00339459361719 -0.0542738905293 1.34654563315e-18) (-0.00581640123612 -0.0372496699788 1.12079598579e-18) (-0.0079396383567 -0.0462660277473 9.87859921434e-19) (0.000990574508132 -0.0642805497675 9.02706144435e-19));
    }
    procBoundary6to7
    {
        type            processor;
        value           nonuniform List<vector> 
11
(
(0.0500114009944 0.00687977812333 -3.83030485718e-21)
(0.048872612328 0.0146157315314 -5.00459306538e-21)
(0.0460065364911 0.0216665027163 -1.9261235555e-21)
(0.0417927558414 0.0276089924488 -1.96007234533e-21)
(0.0366334685459 0.032363067379 -1.30465971529e-21)
(0.0308377553905 0.0359421890852 -1.51783675778e-21)
(0.0291461144067 0.0403099772218 -2.12930149619e-21)
(0.0307542527106 0.0491050189998 -6.63507632601e-21)
(0.0266043467531 0.0532816300675 -1.17352908936e-20)
(0.0181029748725 0.055249217388 -6.50710537865e-21)
(0.00964574257886 0.0557102840311 -6.14041576606e-21)
)
;
    }
    procBoundary6to8
    {
        type            processor;
        value           nonuniform List<vector> 
16
(
(0.0724392163689 -0.0311931829125 8.03752187649e-18)
(0.0361127444532 -0.0337277883355 6.1904053132e-18)
(0.0277307303754 -0.0323853074503 5.48023342595e-18)
(0.0307388950967 -0.0294603300187 4.08063965603e-18)
(0.0291035119763 -0.0283185178319 1.8064666708e-18)
(0.0288482539487 -0.0260034995099 4.62682249939e-19)
(0.0293302216459 -0.0245385225661 6.48190024526e-20)
(0.030112694774 -0.0234137388748 3.21809781358e-21)
(0.0314912812705 -0.0227648978025 -7.25471564476e-21)
(0.0335355515136 -0.0223031051032 -1.32573099275e-20)
(0.0364798766373 -0.0213356245188 -1.69378877787e-20)
(0.0395305245862 -0.018843714064 -1.32367355187e-20)
(0.0423463995436 -0.0157049034757 -1.24461855745e-20)
(0.0452108927053 -0.0121686049254 -8.58492385367e-21)
(0.0478285705598 -0.00732744699875 -4.92174990228e-21)
(0.0495476608778 -0.000753463529627 -3.09254233536e-21)
)
;
    }
    procBoundary6to9
    {
        type            processor;
        value           nonuniform List<vector> 4((0.00436934251811 0.0544118117922 -9.78833292869e-21) (0.00659021763925 0.0557780143228 -1.57000013838e-20) (0.113587579159 0.0714559963695 -1.73582973385e-20) (0.508860538321 0.0759324482506 -2.14548939443e-20));
    }
}


// ************************************************************************* //
