/*--------------------------------*- C++ -*----------------------------------*\
| =========                 |                                                 |
| \\      /  F ield         | OpenFOAM: The Open Source CFD Toolbox           |
|  \\    /   O peration     | Version:  v2012                                 |
|   \\  /    A nd           | Website:  www.openfoam.com                      |
|    \\/     M anipulation  |                                                 |
\*---------------------------------------------------------------------------*/
FoamFile
{
    version     2.0;
    format      ascii;
    class       volScalarField;
    location    "4.5";
    object      ddt0(k);
}
// * * * * * * * * * * * * * * * * * * * * * * * * * * * * * * * * * * * * * //

dimensions      [0 2 -3 0 0 0 0];


internalField   nonuniform List<scalar> 
166
(
-0.000656166957099
-0.000817972120543
-0.000871838465518
-0.000891129926803
-0.000897994273441
-0.000900790507838
-0.000902489753468
-0.000904027181514
-0.000905629989008
-0.000907206760141
-0.000908170423995
-0.000906060026971
-0.000889700660522
-0.00080876493954
-0.000464965762458
0.000810377402998
0.00440258419032
0.00601845579791
-0.0241921091776
-0.189929865838
-0.000654570815492
-0.000815664039262
-0.000869081843808
-0.000888102795858
-0.000894820363825
-0.000897514811779
-0.000899117113537
-0.000900546310625
-0.000902028082889
-0.00090349555207
-0.000904472821218
-0.000902893116487
-0.000888931419066
-0.000817472859513
-0.000511268315471
0.000679235621811
0.00474045282013
0.00914368816866
-0.0320705152026
-0.213099926227
-0.000652985296026
-0.000813318656656
-0.000866250976632
-0.000884994022282
-0.000891557312927
-0.000894146674821
-0.000895648868036
-0.000896968562517
-0.000898333853729
-0.000899704359199
-0.000900741341185
-0.000899874960267
-0.000888955581314
-0.00082951332255
-0.000573814584074
0.000427420360396
0.00444229939247
0.0133402742059
-0.0099265346987
-0.0186653252742
-0.000651550945057
-0.000810965691386
-0.000863393525266
-0.00088183780851
-0.000888239920081
-0.00089072303819
-0.000892122829372
-0.000893340083726
-0.00089459841452
-0.00089590417666
-0.000897057498688
-0.000897065257859
-0.000889731165942
-0.000844041982351
-0.000644466681644
0.000103535619798
0.00354051700807
0.0162601817431
0.0282654975715
0.00367997307323
-0.000650314471816
-0.000808572164446
-0.000860529093191
-0.000878670367669
-0.000884904579883
-0.000887279328625
-0.000888593640119
-0.000889707743532
-0.000890870305335
-0.000892135803696
-0.000893493580023
-0.000894557289155
-0.000891218939846
-0.000860140200349
-0.000716472979182
-0.000205189568121
0.00232881950462
0.0146677883048
0.0379678901198
0.0111468013911
-0.000649431113775
-0.000806184430128
-0.000857687955189
-0.000875516440028
-0.000881595025606
-0.000883863762851
-0.000885094538841
-0.000886127001773
-0.000887206831234
-0.000888452626693
-0.000890116912405
-0.000892384027451
-0.000893401571949
-0.000878338241999
-0.000789183315732
-0.00048558223922
0.00121125886803
0.0117775705357
0.0339865169754
0.0119439598662
-0.000647620052239
-0.000804408898556
-0.00085526284867
-0.000872583567534
-0.000878405330773
-0.000880545722614
-0.000881670526081
-0.000882631492517
-0.000883646137928
-0.000884930034884
-0.000886946843868
-0.000890636571176
-0.00089648397366
-0.000897550533075
-0.000864731289614
-0.000759255516096
0.000134151495314
0.00889145320154
0.0295609988859
0.0103000160414
-0.000645292193121
-0.000802907491642
-0.000853132649426
-0.000869910910457
-0.000875395514893
-0.000877342957793
-0.000878367777748
-0.000879244284019
-0.000880225389847
-0.000881604785089
-0.000884163973766
-0.000889454115771
-0.000900148939822
-0.000917833195463
-0.000945359487533
-0.001039474603
-0.00109129471259
0.004912774097
0.0346571053801
0.0150385022282
-0.00064302791305
-0.00080160400022
-0.000851159243506
-0.000640906422445
-0.000638907090443
-0.000637146313191
)
;

boundaryField
{
    back
    {
        type            calculated;
        value           nonuniform List<scalar> 
166
(
-0.000656166957099
-0.000817972120543
-0.000871838465518
-0.000891129926803
-0.000897994273441
-0.000900790507838
-0.000902489753468
-0.000904027181514
-0.000905629989008
-0.000907206760141
-0.000908170423995
-0.000906060026971
-0.000889700660522
-0.00080876493954
-0.000464965762458
0.000810377402999
0.00440258419032
0.00601845579791
-0.0241921091776
-0.189929865838
-0.000654570815492
-0.000815664039262
-0.000869081843808
-0.000888102795858
-0.000894820363825
-0.000897514811779
-0.000899117113537
-0.000900546310625
-0.000902028082889
-0.00090349555207
-0.000904472821218
-0.000902893116487
-0.000888931419066
-0.000817472859513
-0.000511268315471
0.000679235621811
0.00474045282013
0.00914368816867
-0.0320705152026
-0.213099926227
-0.000652985296026
-0.000813318656656
-0.000866250976632
-0.000884994022282
-0.000891557312927
-0.000894146674821
-0.000895648868036
-0.000896968562517
-0.000898333853729
-0.000899704359199
-0.000900741341185
-0.000899874960267
-0.000888955581314
-0.00082951332255
-0.000573814584074
0.000427420360396
0.00444229939247
0.0133402742059
-0.0099265346987
-0.0186653252742
-0.000651550945057
-0.000810965691386
-0.000863393525266
-0.00088183780851
-0.000888239920082
-0.00089072303819
-0.000892122829372
-0.000893340083726
-0.00089459841452
-0.00089590417666
-0.000897057498688
-0.000897065257859
-0.000889731165942
-0.000844041982351
-0.000644466681644
0.000103535619798
0.00354051700807
0.0162601817431
0.0282654975715
0.00367997307323
-0.000650314471816
-0.000808572164446
-0.000860529093191
-0.000878670367669
-0.000884904579883
-0.000887279328625
-0.000888593640119
-0.000889707743532
-0.000890870305335
-0.000892135803696
-0.000893493580023
-0.000894557289155
-0.000891218939845
-0.000860140200349
-0.000716472979182
-0.000205189568121
0.00232881950462
0.0146677883048
0.0379678901198
0.0111468013911
-0.000649431113775
-0.000806184430128
-0.000857687955189
-0.000875516440028
-0.000881595025606
-0.000883863762851
-0.000885094538841
-0.000886127001773
-0.000887206831234
-0.000888452626693
-0.000890116912405
-0.000892384027451
-0.000893401571949
-0.000878338241999
-0.000789183315732
-0.00048558223922
0.00121125886803
0.0117775705357
0.0339865169754
0.0119439598662
-0.000647620052239
-0.000804408898556
-0.00085526284867
-0.000872583567534
-0.000878405330773
-0.000880545722614
-0.000881670526081
-0.000882631492517
-0.000883646137928
-0.000884930034884
-0.000886946843868
-0.000890636571176
-0.00089648397366
-0.000897550533075
-0.000864731289614
-0.000759255516096
0.000134151495314
0.00889145320154
0.0295609988859
0.0103000160414
-0.000645292193121
-0.000802907491642
-0.000853132649426
-0.000869910910457
-0.000875395514893
-0.000877342957793
-0.000878367777748
-0.000879244284019
-0.000880225389847
-0.000881604785089
-0.000884163973766
-0.000889454115771
-0.000900148939822
-0.000917833195463
-0.000945359487533
-0.001039474603
-0.00109129471259
0.004912774097
0.0346571053801
0.0150385022282
-0.00064302791305
-0.00080160400022
-0.000851159243505
-0.000640906422445
-0.000638907090443
-0.000637146313191
)
;
    }
    sides
    {
        type            calculated;
        value           nonuniform List<scalar> 0();
    }
    bottom
    {
        type            calculated;
        value           nonuniform List<scalar> 
12
(
-0.000656166957099
-0.000654570815492
-0.000652985296026
-0.000651550945057
-0.000650314471816
-0.000649431113775
-0.000647620052239
-0.000645292193121
-0.00064302791305
-0.000640906422445
-0.000638907090443
-0.000637146313191
)
;
    }
    front
    {
        type            calculated;
        value           nonuniform List<scalar> 
166
(
-0.000656166957099
-0.000817972120543
-0.000871838465518
-0.000891129926803
-0.000897994273441
-0.000900790507838
-0.000902489753468
-0.000904027181514
-0.000905629989008
-0.000907206760141
-0.000908170423995
-0.000906060026971
-0.000889700660522
-0.00080876493954
-0.000464965762458
0.000810377402999
0.00440258419032
0.00601845579791
-0.0241921091776
-0.189929865838
-0.000654570815492
-0.000815664039262
-0.000869081843808
-0.000888102795858
-0.000894820363825
-0.000897514811779
-0.000899117113537
-0.000900546310625
-0.000902028082889
-0.00090349555207
-0.000904472821218
-0.000902893116487
-0.000888931419066
-0.000817472859513
-0.000511268315471
0.000679235621811
0.00474045282013
0.00914368816867
-0.0320705152026
-0.213099926227
-0.000652985296026
-0.000813318656656
-0.000866250976632
-0.000884994022282
-0.000891557312927
-0.000894146674821
-0.000895648868036
-0.000896968562517
-0.000898333853729
-0.000899704359199
-0.000900741341185
-0.000899874960267
-0.000888955581314
-0.00082951332255
-0.000573814584074
0.000427420360396
0.00444229939247
0.0133402742059
-0.0099265346987
-0.0186653252742
-0.000651550945057
-0.000810965691386
-0.000863393525266
-0.00088183780851
-0.000888239920082
-0.00089072303819
-0.000892122829372
-0.000893340083726
-0.00089459841452
-0.00089590417666
-0.000897057498688
-0.000897065257859
-0.000889731165942
-0.000844041982351
-0.000644466681644
0.000103535619798
0.00354051700807
0.0162601817431
0.0282654975715
0.00367997307323
-0.000650314471816
-0.000808572164446
-0.000860529093191
-0.000878670367669
-0.000884904579883
-0.000887279328625
-0.000888593640119
-0.000889707743532
-0.000890870305335
-0.000892135803696
-0.000893493580023
-0.000894557289155
-0.000891218939845
-0.000860140200349
-0.000716472979182
-0.000205189568121
0.00232881950462
0.0146677883048
0.0379678901198
0.0111468013911
-0.000649431113775
-0.000806184430128
-0.000857687955189
-0.000875516440028
-0.000881595025606
-0.000883863762851
-0.000885094538841
-0.000886127001773
-0.000887206831234
-0.000888452626693
-0.000890116912405
-0.000892384027451
-0.000893401571949
-0.000878338241999
-0.000789183315732
-0.00048558223922
0.00121125886803
0.0117775705357
0.0339865169754
0.0119439598662
-0.000647620052239
-0.000804408898556
-0.00085526284867
-0.000872583567534
-0.000878405330773
-0.000880545722614
-0.000881670526081
-0.000882631492517
-0.000883646137928
-0.000884930034884
-0.000886946843868
-0.000890636571176
-0.00089648397366
-0.000897550533075
-0.000864731289614
-0.000759255516096
0.000134151495314
0.00889145320154
0.0295609988859
0.0103000160414
-0.000645292193121
-0.000802907491642
-0.000853132649426
-0.000869910910457
-0.000875395514893
-0.000877342957793
-0.000878367777748
-0.000879244284019
-0.000880225389847
-0.000881604785089
-0.000884163973766
-0.000889454115771
-0.000900148939822
-0.000917833195463
-0.000945359487533
-0.001039474603
-0.00109129471259
0.004912774097
0.0346571053801
0.0150385022282
-0.00064302791305
-0.00080160400022
-0.000851159243505
-0.000640906422445
-0.000638907090443
-0.000637146313191
)
;
    }
    atmosphere
    {
        type            calculated;
        value           nonuniform List<scalar> 8(-1.69586130189 -1.66955041634 0.000676779345397 0.00234000201134 0.00241307848187 -0.00333926582289 -0.00763227493981 -0.00557466868431);
    }
    floatingObject
    {
        type            calculated;
        value           nonuniform List<scalar> 0();
    }
    procBoundary9to6
    {
        type            processor;
        value           nonuniform List<scalar> 4(0.00400538320571 0.00490148590084 -0.00298434984878 -0.0107267776961);
    }
    procBoundary9to7
    {
        type            processor;
        value           nonuniform List<scalar> 
16
(
-0.000657801354676
-0.000820199415989
-0.00087448242636
-0.000894030644438
-0.000901039279572
-0.000903937719514
-0.000905734082352
-0.000907380272685
-0.000909106480728
-0.000910801452667
-0.000911792572907
-0.000909346255685
-0.000891549685009
-0.00080603268137
-0.000446961633473
0.000837126881656
)
;
    }
    procBoundary9to10
    {
        type            processor;
        value           nonuniform List<scalar> 
15
(
-0.000867410627094
-0.000872532672346
-0.000874282358633
-0.000875182875662
-0.000875966692532
-0.000876880707535
-0.000878239327022
-0.000880949836061
-0.000800449137868
-0.000867410627094
-0.000849376971289
-0.000800449137868
-0.000799477409568
-0.000798721136612
-0.000635521883749
)
;
    }
    procBoundary9to11
    {
        type            processor;
        value           nonuniform List<scalar> 9(-0.000887355115796 -0.000901943662008 -0.000933398077882 -0.00100892601467 -0.00125476781718 -0.00187160547109 0.000165021683954 0.0321992040047 0.086863374026);
    }
}


// ************************************************************************* //
