/*--------------------------------*- C++ -*----------------------------------*\
| =========                 |                                                 |
| \\      /  F ield         | OpenFOAM: The Open Source CFD Toolbox           |
|  \\    /   O peration     | Version:  v2012                                 |
|   \\  /    A nd           | Website:  www.openfoam.com                      |
|    \\/     M anipulation  |                                                 |
\*---------------------------------------------------------------------------*/
FoamFile
{
    version     2.0;
    format      ascii;
    class       volScalarField;
    location    "4.5";
    object      epsilon;
}
// * * * * * * * * * * * * * * * * * * * * * * * * * * * * * * * * * * * * * //

dimensions      [0 2 -3 0 0 0 0];


internalField   nonuniform List<scalar> 
166
(
0.000792486172658
0.000824138121045
0.000904353759602
0.00093473139913
0.000946586889366
0.000952269805119
0.000956320614114
0.000960308940698
0.000964813425778
0.000970276171818
0.000977677899207
0.000989933505571
0.00101608519132
0.00108645875475
0.00131223728436
0.00212540204389
0.00525523059725
0.0172228825427
0.0537152827274
0.154019128812
0.000791200227394
0.000822772334365
0.000902918252725
0.000933279776735
0.000945117251608
0.000950766890502
0.000954769720187
0.000958699849193
0.000963144253594
0.000968564586294
0.000975978832362
0.000988343141452
0.00101461010042
0.00108426608254
0.0013037387329
0.0020750132509
0.00501203302844
0.0168161815459
0.0557055034235
0.155415745522
0.000789611021556
0.00082110074207
0.000901163550277
0.000931512782179
0.000943341445663
0.000948967863284
0.000952933613645
0.000956817315163
0.000961213465213
0.000966603500946
0.000974043947879
0.000986520525233
0.00101287223399
0.00108154227225
0.00129334463427
0.00201650772842
0.00468682035541
0.0157240177458
0.0569942540754
0.167318814504
0.000787692477731
0.000819123772516
0.000899097534604
0.000929441091976
0.000941271210627
0.000946884608689
0.000950823830106
0.000954670682995
0.000959029701353
0.000964400514444
0.000971883109967
0.000984495142181
0.00101096328168
0.00107865793805
0.00128287111273
0.00195923441899
0.00432543649025
0.0140081757783
0.0551645382587
0.167809376793
0.000785519815254
0.000816846742036
0.000896728579721
0.000927075571306
0.000938918258519
0.000944529640871
0.000948451382046
0.000952272369662
0.000956606426251
0.000961972037843
0.000969508513761
0.000982299130287
0.00100897884731
0.00107597384529
0.00127322823039
0.0019076216329
0.0040160744902
0.0123009152013
0.0500921023063
0.166021319637
0.000783137325555
0.000814277801119
0.000894062515321
0.000924422828427
0.000936291663175
0.000941913915416
0.000945830262924
0.00094963839266
0.00095395929088
0.000959333310587
0.000966946384861
0.000979962154582
0.00100697796762
0.00107357723964
0.00126484536358
0.00186328823336
0.00375487925419
0.0108885482528
0.0453658067247
0.164080264489
0.000780584960867
0.00081144558922
0.000891110031397
0.000921492043321
0.000933401974837
0.000939049819542
0.000942975868621
0.000946782226771
0.000951102516391
0.00095650532668
0.000964227892333
0.00097751551125
0.0010049768939
0.00107153029131
0.00125798458987
0.00182495864177
0.00353046683747
0.00965363272644
0.0416610529408
0.16285937725
0.000777759064401
0.000808381686145
0.000887913235921
0.000918310232596
0.000930267667709
0.000935951478749
0.000939897629544
0.000943714652422
0.000948052194597
0.00095350402522
0.000961360656088
0.000974946732645
0.00100290489965
0.00106967608801
0.00125282544855
0.00179706867661
0.00336315760096
0.00844486300393
0.0362463760362
0.160016829884
0.000774646842493
0.000805097023719
0.000884477385261
0.000771270273642
0.00076763245143
0.000763779082654
)
;

boundaryField
{
    back
    {
        lowReCorrection 0;
        blending        stepwise;
        n               2;
        type            epsilonWallFunction;
        value           nonuniform List<scalar> 
166
(
0.000792486172658
0.000824138121045
0.000904353759602
0.00093473139913
0.000946586889366
0.000952269805119
0.000956320614114
0.000960308940698
0.000964813425778
0.000970276171818
0.000977677899207
0.000989933505571
0.00101608519132
0.00108645875475
0.00131223728436
0.00212540204389
0.00525523059725
0.0172228825427
0.0537152827274
0.154019128812
0.000791200227394
0.000822772334365
0.000902918252725
0.000933279776735
0.000945117251608
0.000950766890502
0.000954769720187
0.000958699849193
0.000963144253594
0.000968564586294
0.000975978832362
0.000988343141452
0.00101461010042
0.00108426608254
0.0013037387329
0.0020750132509
0.00501203302844
0.0168161815459
0.0557055034235
0.155415745522
0.000789611021556
0.00082110074207
0.000901163550277
0.000931512782179
0.000943341445663
0.000948967863284
0.000952933613645
0.000956817315163
0.000961213465213
0.000966603500946
0.000974043947879
0.000986520525233
0.00101287223399
0.00108154227225
0.00129334463427
0.00201650772842
0.00468682035541
0.0157240177458
0.0569942540754
0.167318814504
0.000787692477731
0.000819123772516
0.000899097534604
0.000929441091976
0.000941271210627
0.000946884608689
0.000950823830106
0.000954670682995
0.000959029701353
0.000964400514444
0.000971883109967
0.000984495142181
0.00101096328168
0.00107865793805
0.00128287111273
0.00195923441899
0.00432543649025
0.0140081757783
0.0551645382587
0.167809376793
0.000785519815254
0.000816846742036
0.000896728579721
0.000927075571306
0.000938918258519
0.000944529640871
0.000948451382046
0.000952272369662
0.000956606426251
0.000961972037843
0.000969508513761
0.000982299130287
0.00100897884731
0.00107597384529
0.00127322823039
0.0019076216329
0.0040160744902
0.0123009152013
0.0500921023063
0.166021319637
0.000783137325555
0.000814277801119
0.000894062515321
0.000924422828427
0.000936291663175
0.000941913915416
0.000945830262924
0.00094963839266
0.00095395929088
0.000959333310587
0.000966946384861
0.000979962154582
0.00100697796762
0.00107357723964
0.00126484536358
0.00186328823336
0.00375487925419
0.0108885482528
0.0453658067247
0.164080264489
0.000780584960867
0.00081144558922
0.000891110031397
0.000921492043321
0.000933401974837
0.000939049819542
0.000942975868621
0.000946782226771
0.000951102516391
0.00095650532668
0.000964227892333
0.00097751551125
0.0010049768939
0.00107153029131
0.00125798458987
0.00182495864177
0.00353046683747
0.00965363272644
0.0416610529408
0.16285937725
0.000777759064401
0.000808381686145
0.000887913235921
0.000918310232596
0.000930267667709
0.000935951478749
0.000939897629544
0.000943714652422
0.000948052194597
0.00095350402522
0.000961360656088
0.000974946732645
0.00100290489965
0.00106967608801
0.00125282544855
0.00179706867661
0.00336315760096
0.00844486300393
0.0362463760362
0.160016829884
0.000774646842493
0.000805097023719
0.000884477385261
0.000771270273642
0.00076763245143
0.000763779082654
)
;
    }
    sides
    {
        lowReCorrection 0;
        blending        stepwise;
        n               2;
        type            epsilonWallFunction;
        value           nonuniform List<scalar> 0();
    }
    bottom
    {
        lowReCorrection 0;
        blending        stepwise;
        n               2;
        type            epsilonWallFunction;
        value           nonuniform List<scalar> 
12
(
0.000792486172658
0.000791200227394
0.000789611021556
0.000787692477731
0.000785519815254
0.000783137325555
0.000780584960867
0.000777759064401
0.000774646842493
0.000771270273642
0.00076763245143
0.000763779082654
)
;
    }
    front
    {
        lowReCorrection 0;
        blending        stepwise;
        n               2;
        type            epsilonWallFunction;
        value           nonuniform List<scalar> 
166
(
0.000792486172658
0.000824138121045
0.000904353759602
0.00093473139913
0.000946586889366
0.000952269805119
0.000956320614114
0.000960308940698
0.000964813425778
0.000970276171818
0.000977677899207
0.000989933505571
0.00101608519132
0.00108645875475
0.00131223728436
0.00212540204389
0.00525523059725
0.0172228825427
0.0537152827274
0.154019128812
0.000791200227394
0.000822772334365
0.000902918252725
0.000933279776735
0.000945117251608
0.000950766890502
0.000954769720187
0.000958699849193
0.000963144253594
0.000968564586294
0.000975978832362
0.000988343141452
0.00101461010042
0.00108426608254
0.0013037387329
0.0020750132509
0.00501203302844
0.0168161815459
0.0557055034235
0.155415745522
0.000789611021556
0.00082110074207
0.000901163550277
0.000931512782179
0.000943341445663
0.000948967863284
0.000952933613645
0.000956817315163
0.000961213465213
0.000966603500946
0.000974043947879
0.000986520525233
0.00101287223399
0.00108154227225
0.00129334463427
0.00201650772842
0.00468682035541
0.0157240177458
0.0569942540754
0.167318814504
0.000787692477731
0.000819123772516
0.000899097534604
0.000929441091976
0.000941271210627
0.000946884608689
0.000950823830106
0.000954670682995
0.000959029701353
0.000964400514444
0.000971883109967
0.000984495142181
0.00101096328168
0.00107865793805
0.00128287111273
0.00195923441899
0.00432543649025
0.0140081757783
0.0551645382587
0.167809376793
0.000785519815254
0.000816846742036
0.000896728579721
0.000927075571306
0.000938918258519
0.000944529640871
0.000948451382046
0.000952272369662
0.000956606426251
0.000961972037843
0.000969508513761
0.000982299130287
0.00100897884731
0.00107597384529
0.00127322823039
0.0019076216329
0.0040160744902
0.0123009152013
0.0500921023063
0.166021319637
0.000783137325555
0.000814277801119
0.000894062515321
0.000924422828427
0.000936291663175
0.000941913915416
0.000945830262924
0.00094963839266
0.00095395929088
0.000959333310587
0.000966946384861
0.000979962154582
0.00100697796762
0.00107357723964
0.00126484536358
0.00186328823336
0.00375487925419
0.0108885482528
0.0453658067247
0.164080264489
0.000780584960867
0.00081144558922
0.000891110031397
0.000921492043321
0.000933401974837
0.000939049819542
0.000942975868621
0.000946782226771
0.000951102516391
0.00095650532668
0.000964227892333
0.00097751551125
0.0010049768939
0.00107153029131
0.00125798458987
0.00182495864177
0.00353046683747
0.00965363272644
0.0416610529408
0.16285937725
0.000777759064401
0.000808381686145
0.000887913235921
0.000918310232596
0.000930267667709
0.000935951478749
0.000939897629544
0.000943714652422
0.000948052194597
0.00095350402522
0.000961360656088
0.000974946732645
0.00100290489965
0.00106967608801
0.00125282544855
0.00179706867661
0.00336315760096
0.00844486300393
0.0362463760362
0.160016829884
0.000774646842493
0.000805097023719
0.000884477385261
0.000771270273642
0.00076763245143
0.000763779082654
)
;
    }
    atmosphere
    {
        type            inletOutlet;
        inletValue      uniform 0.1;
        value           nonuniform List<scalar> 8(0.154019128812 0.155415745522 0.167318814504 0.1 0.1 0.1 0.1 0.1);
    }
    floatingObject
    {
        lowReCorrection 0;
        blending        stepwise;
        n               2;
        type            epsilonWallFunction;
        value           nonuniform List<scalar> 0();
    }
    procBoundary9to6
    {
        type            processor;
        value           nonuniform List<scalar> 4(0.00537735244908 0.0174784318847 0.0540083797747 0.162864849452);
    }
    procBoundary9to7
    {
        type            processor;
        value           nonuniform List<scalar> 
16
(
0.000793424020839
0.000825187265824
0.000905454850535
0.000935851394838
0.000947734780849
0.000953462750817
0.000957574022548
0.000961634003823
0.000966213746386
0.000971736547016
0.000979144097408
0.00099129253639
0.00101722865478
0.00108753412184
0.0013151559065
0.00214521867495
)
;
    }
    procBoundary9to10
    {
        type            processor;
        value           nonuniform List<scalar> 
15
(
0.000914893010488
0.000926903080787
0.000932632503324
0.000936611286945
0.000940454605909
0.000944824882838
0.000950337635776
0.000958336871719
0.000801586018203
0.000914893010488
0.000880810868372
0.000801586018203
0.000797874547251
0.000793986655324
0.000759688749218
)
;
    }
    procBoundary9to11
    {
        type            processor;
        value           nonuniform List<scalar> 9(0.00097222943886 0.00100063429316 0.00106758339196 0.00124889407984 0.0017821106558 0.003291134391 0.00773852028938 0.0291084825582 0.143732989565);
    }
}


// ************************************************************************* //
