/*--------------------------------*- C++ -*----------------------------------*\
| =========                 |                                                 |
| \\      /  F ield         | OpenFOAM: The Open Source CFD Toolbox           |
|  \\    /   O peration     | Version:  v2012                                 |
|   \\  /    A nd           | Website:  www.openfoam.com                      |
|    \\/     M anipulation  |                                                 |
\*---------------------------------------------------------------------------*/
FoamFile
{
    version     2.0;
    format      ascii;
    class       volScalarField;
    location    "4.5";
    object      nut;
}
// * * * * * * * * * * * * * * * * * * * * * * * * * * * * * * * * * * * * * //

dimensions      [0 2 -1 0 0 0 0];


internalField   nonuniform List<scalar> 
166
(
0.000347271988665
0.000516318321404
0.000532536997091
0.000538435743648
0.000540709394686
0.000541797189283
0.000542572500364
0.000543334801163
0.000544194460758
0.000545237245227
0.00054665647059
0.000549030315798
0.000554155660438
0.000567896785189
0.000609092745791
0.000727000515256
0.00099914226026
0.00146431387237
0.00204773640275
0.00265323935542
0.000347092794769
0.000516049120195
0.000532275248696
0.000538179608065
0.000540453469774
0.000541536819738
0.000542304456807
0.000543057215693
0.000543907235215
0.000544943921142
0.000546366801994
0.0005487582661
0.00055388536445
0.000567414410385
0.000607322768344
0.000720364785421
0.000986785235813
0.00146315431095
0.00204245055531
0.00262385004452
0.000346867499043
0.000515713888906
0.000531949114406
0.000537861337453
0.000540137824138
0.000541218972588
0.000541981262661
0.000542726944833
0.000543569755035
0.000544602795479
0.000546031852896
0.000548440393966
0.000553558439209
0.000566806061745
0.000605097318965
0.000711703856681
0.000965463819714
0.00145071109077
0.00208938949668
0.00278829124897
0.000346590660937
0.000515312176329
0.000531559507927
0.000537482544909
0.000539764283339
0.000540845490899
0.000541604693122
0.000542345257444
0.000543183109662
0.000544214558918
0.000545652667657
0.000548081757683
0.00055319258641
0.000566146345251
0.000602774068701
0.000702371261076
0.000936879347988
0.00142076781658
0.00219588708161
0.00308782055385
0.000346273054249
0.000514845180286
0.000531107638233
0.000537044756181
0.000539334547418
0.000540418252452
0.000541176141387
0.000541913912577
0.000542749257781
0.000543781830249
0.000545230725358
0.000547687465981
0.000552806101588
0.000565509410064
0.000600569284857
0.000693634292607
0.000907727368103
0.00136411288866
0.00217320794641
0.00309981443908
0.000345919661315
0.000514313760655
0.000530594022879
0.000536548724819
0.000538849683213
0.000539938671476
0.000540697796476
0.000541435271643
0.000542270469277
0.000543306840068
0.000544770247308
0.00054726264721
0.000552409927006
0.000564904423705
0.000598556763011
0.000685874365384
0.000880918227489
0.00130277649191
0.00210408736477
0.00309055563688
0.00034554608088
0.000513717815941
0.000530016977352
0.00053599421738
0.00053831085446
0.000539408384146
0.000540171945056
0.000540911373059
0.00054174885354
0.000542792692751
0.000544276563405
0.000546812076405
0.000552004706416
0.000564352887903
0.000596758026444
0.00067881486875
0.000856029803162
0.00124223450605
0.00203446723363
0.00308014519217
0.000345136291628
0.000513066261229
0.000529384733255
0.000535385047235
0.00053771994562
0.000538829173451
0.000539599600776
0.000540343621885
0.000541186695424
0.000542241033993
0.000543750186277
0.000546332233951
0.000551580347109
0.000563825695343
0.000595185501553
0.000672953331136
0.000834028410533
0.00117500997325
0.0019773627519
0.00307381419141
0.000344681118535
0.000512362229529
0.00052870002823
0.000344182714787
0.00034364182533
0.000343063194934
)
;

boundaryField
{
    back
    {
        type            nutkWallFunction;
        blending        stepwise;
        Cmu             0.09;
        kappa           0.41;
        E               9.8;
        value           nonuniform List<scalar> 
166
(
4.93485028358e-05
5.44953372522e-05
5.60527604089e-05
5.6617549467e-05
5.68346446551e-05
5.69381480115e-05
5.70117242364e-05
5.7083979392e-05
5.71653638638e-05
5.72637981871e-05
5.7396855798e-05
5.76165776067e-05
5.80821320317e-05
5.9303544054e-05
6.29008168067e-05
7.3076177468e-05
9.65185004776e-05
0.000138082921706
0.000243469026776
0.000329852918534
4.93244591788e-05
5.44683031208e-05
5.60262306141e-05
5.6591400068e-05
5.68084316836e-05
5.69114603957e-05
5.69842628686e-05
5.70555636599e-05
5.71359786701e-05
5.72337867613e-05
5.7367222647e-05
5.75890058266e-05
5.80564887469e-05
5.92648303779e-05
6.27663400122e-05
7.2527048026e-05
9.52137408946e-05
0.000137297667241
0.000245389988211
0.000329692526699
4.92945919911e-05
5.44350447871e-05
5.59936226243e-05
5.65593845879e-05
5.67765751132e-05
5.6879336797e-05
5.69515799664e-05
5.70221543941e-05
5.71018281204e-05
5.71992444501e-05
5.73333208361e-05
5.75572322681e-05
5.80260492537e-05
5.92164666644e-05
6.25998418571e-05
7.18588095705e-05
9.33068840631e-05
0.000134938644026
0.000238998001732
0.000340068536305
4.92583353213e-05
5.43955378364e-05
5.59550512237e-05
5.65216717577e-05
5.67392628134e-05
5.68419673278e-05
5.69138591911e-05
5.69838933482e-05
5.70630402425e-05
5.71602760759e-05
5.72952949365e-05
5.75217582492e-05
5.79924209262e-05
5.91648162143e-05
6.24294912834e-05
7.11754000827e-05
9.09950171519e-05
0.000130801501944
0.000212898848753
0.000348381383996
4.92170866814e-05
5.43498677264e-05
5.59106425352e-05
5.6478428634e-05
5.66966774064e-05
5.6799549882e-05
5.68712663912e-05
5.69409742275e-05
5.70198277186e-05
5.7117149846e-05
5.72533295614e-05
5.74831213744e-05
5.79572805874e-05
5.91161419572e-05
6.2270487622e-05
7.05433865128e-05
8.88309206385e-05
0.000125806820615
0.000201448463739
0.000347834030507
4.9171619061e-05
5.42981516444e-05
5.58604674982e-05
5.64297427657e-05
5.66489484735e-05
5.67522486207e-05
5.68240259785e-05
5.68936532898e-05
5.69724396656e-05
5.70701085746e-05
5.72078631907e-05
5.74418287951e-05
5.79216575092e-05
5.9071766989e-05
6.21295129198e-05
6.99877673914e-05
8.6887959081e-05
0.000121078224623
0.000192692733249
0.000346655673487
4.9122990214e-05
5.42407927898e-05
5.58046109961e-05
5.63757117443e-05
5.6596226695e-05
5.67002515179e-05
5.67723833485e-05
5.68421442167e-05
5.69211020829e-05
5.70194945108e-05
5.71594293714e-05
5.73984032294e-05
5.78857789268e-05
5.90329985843e-05
6.20102084929e-05
6.9493928289e-05
8.51218427217e-05
0.00011652863511
0.000185944770254
0.000345792053325
4.90691749578e-05
5.41784568637e-05
5.57438426883e-05
5.63167773146e-05
5.6538788403e-05
5.66437732734e-05
5.67164712976e-05
5.67866084843e-05
5.68660707878e-05
5.69655473696e-05
5.71081305749e-05
5.73525857298e-05
5.78484758621e-05
5.89971923146e-05
6.19150809382e-05
6.91144464874e-05
8.36899357879e-05
0.000111604849713
0.000177919962595
0.000344231050417
4.90096610269e-05
5.41113571793e-05
5.56782761195e-05
4.89447997657e-05
4.88746235678e-05
4.87999117232e-05
)
;
    }
    sides
    {
        type            nutkWallFunction;
        blending        stepwise;
        Cmu             0.09;
        kappa           0.41;
        E               9.8;
        value           nonuniform List<scalar> 0();
    }
    bottom
    {
        type            nutkWallFunction;
        blending        stepwise;
        Cmu             0.09;
        kappa           0.41;
        E               9.8;
        value           nonuniform List<scalar> 
12
(
2.61956011549e-05
2.61827392693e-05
2.61667620905e-05
2.61473668265e-05
2.61253010211e-05
2.61009781393e-05
2.60749639882e-05
2.60461751433e-05
2.60143374979e-05
2.59796389325e-05
2.59420966975e-05
2.59021276115e-05
)
;
    }
    front
    {
        type            nutkWallFunction;
        blending        stepwise;
        Cmu             0.09;
        kappa           0.41;
        E               9.8;
        value           nonuniform List<scalar> 
166
(
4.93485028358e-05
5.44953372522e-05
5.60527604089e-05
5.6617549467e-05
5.68346446551e-05
5.69381480115e-05
5.70117242364e-05
5.7083979392e-05
5.71653638638e-05
5.72637981871e-05
5.7396855798e-05
5.76165776067e-05
5.80821320317e-05
5.9303544054e-05
6.29008168067e-05
7.3076177468e-05
9.65185004776e-05
0.000138082921706
0.000243469026776
0.000329852918534
4.93244591788e-05
5.44683031208e-05
5.60262306141e-05
5.6591400068e-05
5.68084316836e-05
5.69114603957e-05
5.69842628686e-05
5.70555636599e-05
5.71359786701e-05
5.72337867613e-05
5.7367222647e-05
5.75890058266e-05
5.80564887469e-05
5.92648303779e-05
6.27663400122e-05
7.2527048026e-05
9.52137408946e-05
0.000137297667241
0.000245389988211
0.000329692526699
4.92945919911e-05
5.44350447871e-05
5.59936226243e-05
5.65593845879e-05
5.67765751132e-05
5.6879336797e-05
5.69515799664e-05
5.70221543941e-05
5.71018281204e-05
5.71992444501e-05
5.73333208361e-05
5.75572322681e-05
5.80260492537e-05
5.92164666644e-05
6.25998418571e-05
7.18588095705e-05
9.33068840631e-05
0.000134938644026
0.000238998001732
0.000340068536305
4.92583353213e-05
5.43955378364e-05
5.59550512237e-05
5.65216717577e-05
5.67392628134e-05
5.68419673278e-05
5.69138591911e-05
5.69838933482e-05
5.70630402425e-05
5.71602760759e-05
5.72952949365e-05
5.75217582492e-05
5.79924209262e-05
5.91648162143e-05
6.24294912834e-05
7.11754000827e-05
9.09950171519e-05
0.000130801501944
0.000212898848753
0.000348381383996
4.92170866814e-05
5.43498677264e-05
5.59106425352e-05
5.6478428634e-05
5.66966774064e-05
5.6799549882e-05
5.68712663912e-05
5.69409742275e-05
5.70198277186e-05
5.7117149846e-05
5.72533295614e-05
5.74831213744e-05
5.79572805874e-05
5.91161419572e-05
6.2270487622e-05
7.05433865128e-05
8.88309206385e-05
0.000125806820615
0.000201448463739
0.000347834030507
4.9171619061e-05
5.42981516444e-05
5.58604674982e-05
5.64297427657e-05
5.66489484735e-05
5.67522486207e-05
5.68240259785e-05
5.68936532898e-05
5.69724396656e-05
5.70701085746e-05
5.72078631907e-05
5.74418287951e-05
5.79216575092e-05
5.9071766989e-05
6.21295129198e-05
6.99877673914e-05
8.6887959081e-05
0.000121078224623
0.000192692733249
0.000346655673487
4.9122990214e-05
5.42407927898e-05
5.58046109961e-05
5.63757117443e-05
5.6596226695e-05
5.67002515179e-05
5.67723833485e-05
5.68421442167e-05
5.69211020829e-05
5.70194945108e-05
5.71594293714e-05
5.73984032294e-05
5.78857789268e-05
5.90329985843e-05
6.20102084929e-05
6.9493928289e-05
8.51218427217e-05
0.00011652863511
0.000185944770254
0.000345792053325
4.90691749578e-05
5.41784568637e-05
5.57438426883e-05
5.63167773146e-05
5.6538788403e-05
5.66437732734e-05
5.67164712976e-05
5.67866084843e-05
5.68660707878e-05
5.69655473696e-05
5.71081305749e-05
5.73525857298e-05
5.78484758621e-05
5.89971923146e-05
6.19150809382e-05
6.91144464874e-05
8.36899357879e-05
0.000111604849713
0.000177919962595
0.000344231050417
4.90096610269e-05
5.41113571793e-05
5.56782761195e-05
4.89447997657e-05
4.88746235678e-05
4.87999117232e-05
)
;
    }
    atmosphere
    {
        type            calculated;
        value           nonuniform List<scalar> 8(0.00265323935542 0.00262385004452 0.00278829124897 0.009 0.009 0.009 0.009 0.009);
    }
    floatingObject
    {
        type            nutkWallFunction;
        blending        stepwise;
        Cmu             0.09;
        kappa           0.41;
        E               9.8;
        value           nonuniform List<scalar> 0();
    }
    procBoundary9to6
    {
        type            processor;
        value           nonuniform List<scalar> 4(0.00100427372543 0.00147001080417 0.00211007727414 0.00304276672778);
    }
    procBoundary9to7
    {
        type            processor;
        value           nonuniform List<scalar> 
16
(
0.000347398290789
0.000516520006948
0.000532732057208
0.000538627363826
0.000540903322776
0.000541998113728
0.000542783701084
0.000543558314585
0.000544430709461
0.000545483136653
0.00054690215472
0.000549257282313
0.000554353559205
0.000568121440874
0.000609728575469
0.0007294104752
)
;
    }
    procBoundary9to10
    {
        type            processor;
        value           nonuniform List<scalar> 
15
(
0.000534725041645
0.000537080337355
0.000538203535948
0.000538983682404
0.000539735748207
0.000540587847362
0.000541656981491
0.000543193045026
0.000511604363821
0.000534725041645
0.000527963672135
0.000511604363821
0.000510798076309
0.000509948189897
0.000342444667693
)
;
    }
    procBoundary9to11
    {
        type            processor;
        value           nonuniform List<scalar> 9(0.000545825743618 0.000551120968883 0.000563265719962 0.000593926861466 0.000669092675175 0.000821419405784 0.00111653509163 0.00185479082561 0.00308723112584);
    }
}


// ************************************************************************* //
