/*--------------------------------*- C++ -*----------------------------------*\
| =========                 |                                                 |
| \\      /  F ield         | OpenFOAM: The Open Source CFD Toolbox           |
|  \\    /   O peration     | Version:  v2012                                 |
|   \\  /    A nd           | Website:  www.openfoam.com                      |
|    \\/     M anipulation  |                                                 |
\*---------------------------------------------------------------------------*/
FoamFile
{
    version     2.0;
    format      ascii;
    class       volScalarField;
    location    "4.5";
    object      rAU;
}
// * * * * * * * * * * * * * * * * * * * * * * * * * * * * * * * * * * * * * //

dimensions      [-1 3 1 0 0 0 0];


internalField   nonuniform List<scalar> 
166
(
1.65707122518e-05
1.64795463609e-05
1.64626249543e-05
1.64592082169e-05
1.64575389571e-05
1.64560101266e-05
1.64546796168e-05
1.64534751801e-05
1.64522809619e-05
1.64510946852e-05
1.64494290123e-05
1.64469406069e-05
1.64407603062e-05
1.64391894251e-05
1.64370149382e-05
1.63170890611e-05
1.6145144821e-05
2.8307387879e-05
0.00438998070262
0.0148357056763
1.65743051488e-05
1.64821133305e-05
1.64642407359e-05
1.64603757101e-05
1.64582181141e-05
1.6456295253e-05
1.64546946016e-05
1.64533623263e-05
1.64521251363e-05
1.64511380376e-05
1.64500209657e-05
1.64485694564e-05
1.64440322706e-05
1.6440769798e-05
1.64369772921e-05
1.63234812712e-05
1.62705171648e-05
2.75631583009e-05
0.00421267580619
0.0156279204977
1.65794843089e-05
1.64856327722e-05
1.6465992931e-05
1.64614250965e-05
1.64585112855e-05
1.64561048483e-05
1.64541053307e-05
1.64527821165e-05
1.64515505435e-05
1.64502786417e-05
1.64494746617e-05
1.6448448076e-05
1.64457246825e-05
1.64415775002e-05
1.64357729041e-05
1.6322400462e-05
1.62764962578e-05
2.63425760921e-05
0.00241801365004
0.0155049582203
1.65877996161e-05
1.64894921594e-05
1.64677686935e-05
1.64618557552e-05
1.64581956819e-05
1.64553277634e-05
1.64536066528e-05
1.64522259238e-05
1.6450969031e-05
1.64492704744e-05
1.64487325577e-05
1.64477720159e-05
1.64460648444e-05
1.64402965211e-05
1.64342827777e-05
1.63342608284e-05
1.62955270884e-05
2.53278186958e-05
0.00103680831207
0.0121215031319
1.6601967707e-05
1.64920876394e-05
1.64681367322e-05
1.64608141265e-05
1.64568926235e-05
1.64545776868e-05
1.64528224081e-05
1.64511243887e-05
1.64501228453e-05
1.64494569214e-05
1.64484384796e-05
1.6446839432e-05
1.64463961934e-05
1.64393558478e-05
1.64300639258e-05
1.63424944159e-05
1.62043672547e-05
2.41424563115e-05
0.000622288647567
0.0114861771194
1.65824641212e-05
1.64852658512e-05
1.64641045308e-05
1.64575776869e-05
1.64542334884e-05
1.64522946703e-05
1.64509859595e-05
1.64497948997e-05
1.64487766071e-05
1.64485458729e-05
1.64468088993e-05
1.64456664002e-05
1.64450027118e-05
1.64373266648e-05
1.64238857581e-05
1.6358324346e-05
1.62350622562e-05
2.32705304728e-05
0.000429136106054
0.0109900245748
1.64994663369e-05
1.64578023217e-05
1.64527021001e-05
1.64508656749e-05
1.64499466842e-05
1.6448977491e-05
1.6448535974e-05
1.64481275518e-05
1.64471278426e-05
1.64459023547e-05
1.64449762926e-05
1.64441544881e-05
1.64419230717e-05
1.64358273114e-05
1.64188005809e-05
1.63782995632e-05
1.62681982524e-05
2.24305952579e-05
0.000315537859754
0.0104389092537
1.64721452824e-05
1.64349125396e-05
1.64387489179e-05
1.64416360195e-05
1.64442930086e-05
1.64457713361e-05
1.64460165144e-05
1.64457045597e-05
1.64451831134e-05
1.64443628455e-05
1.644396247e-05
1.64424375725e-05
1.6440115596e-05
1.64356318649e-05
1.64134750978e-05
1.63912096736e-05
1.63174685056e-05
2.16687773477e-05
0.000236904304188
0.00979187788742
1.65107175368e-05
1.6435886472e-05
1.64339534004e-05
1.65272685648e-05
1.65351259884e-05
1.65396600524e-05
)
;

boundaryField
{
    back
    {
        type            calculated;
        value           nonuniform List<scalar> 
166
(
1.65707122518e-05
1.64795463609e-05
1.64626249543e-05
1.64592082169e-05
1.64575389571e-05
1.64560101266e-05
1.64546796168e-05
1.64534751801e-05
1.64522809619e-05
1.64510946852e-05
1.64494290123e-05
1.64469406069e-05
1.64407603062e-05
1.64391894251e-05
1.64370149382e-05
1.63170890611e-05
1.6145144821e-05
2.8307387879e-05
0.00438998070262
0.0148357056763
1.65743051488e-05
1.64821133305e-05
1.64642407359e-05
1.64603757101e-05
1.64582181141e-05
1.6456295253e-05
1.64546946016e-05
1.64533623263e-05
1.64521251363e-05
1.64511380376e-05
1.64500209657e-05
1.64485694564e-05
1.64440322706e-05
1.6440769798e-05
1.64369772921e-05
1.63234812712e-05
1.62705171648e-05
2.75631583009e-05
0.00421267580619
0.0156279204977
1.65794843089e-05
1.64856327722e-05
1.6465992931e-05
1.64614250965e-05
1.64585112855e-05
1.64561048483e-05
1.64541053307e-05
1.64527821165e-05
1.64515505435e-05
1.64502786417e-05
1.64494746617e-05
1.6448448076e-05
1.64457246825e-05
1.64415775002e-05
1.64357729041e-05
1.6322400462e-05
1.62764962578e-05
2.63425760921e-05
0.00241801365004
0.0155049582203
1.65877996161e-05
1.64894921594e-05
1.64677686935e-05
1.64618557552e-05
1.64581956819e-05
1.64553277634e-05
1.64536066528e-05
1.64522259238e-05
1.6450969031e-05
1.64492704744e-05
1.64487325577e-05
1.64477720159e-05
1.64460648444e-05
1.64402965211e-05
1.64342827777e-05
1.63342608284e-05
1.62955270884e-05
2.53278186958e-05
0.00103680831207
0.0121215031319
1.6601967707e-05
1.64920876394e-05
1.64681367322e-05
1.64608141265e-05
1.64568926235e-05
1.64545776868e-05
1.64528224081e-05
1.64511243887e-05
1.64501228453e-05
1.64494569214e-05
1.64484384796e-05
1.6446839432e-05
1.64463961934e-05
1.64393558478e-05
1.64300639258e-05
1.63424944159e-05
1.62043672547e-05
2.41424563115e-05
0.000622288647567
0.0114861771194
1.65824641212e-05
1.64852658512e-05
1.64641045308e-05
1.64575776869e-05
1.64542334884e-05
1.64522946703e-05
1.64509859595e-05
1.64497948997e-05
1.64487766071e-05
1.64485458729e-05
1.64468088993e-05
1.64456664002e-05
1.64450027118e-05
1.64373266648e-05
1.64238857581e-05
1.6358324346e-05
1.62350622562e-05
2.32705304728e-05
0.000429136106054
0.0109900245748
1.64994663369e-05
1.64578023217e-05
1.64527021001e-05
1.64508656749e-05
1.64499466842e-05
1.6448977491e-05
1.6448535974e-05
1.64481275518e-05
1.64471278426e-05
1.64459023547e-05
1.64449762926e-05
1.64441544881e-05
1.64419230717e-05
1.64358273114e-05
1.64188005809e-05
1.63782995632e-05
1.62681982524e-05
2.24305952579e-05
0.000315537859754
0.0104389092537
1.64721452824e-05
1.64349125396e-05
1.64387489179e-05
1.64416360195e-05
1.64442930086e-05
1.64457713361e-05
1.64460165144e-05
1.64457045597e-05
1.64451831134e-05
1.64443628455e-05
1.644396247e-05
1.64424375725e-05
1.6440115596e-05
1.64356318649e-05
1.64134750978e-05
1.63912096736e-05
1.63174685056e-05
2.16687773477e-05
0.000236904304188
0.00979187788742
1.65107175368e-05
1.6435886472e-05
1.64339534004e-05
1.65272685648e-05
1.65351259884e-05
1.65396600524e-05
)
;
    }
    sides
    {
        type            calculated;
        value           nonuniform List<scalar> 0();
    }
    bottom
    {
        type            calculated;
        value           nonuniform List<scalar> 
12
(
1.65707122518e-05
1.65743051488e-05
1.65794843089e-05
1.65877996161e-05
1.6601967707e-05
1.65824641212e-05
1.64994663369e-05
1.64721452824e-05
1.65107175368e-05
1.65272685648e-05
1.65351259884e-05
1.65396600524e-05
)
;
    }
    front
    {
        type            calculated;
        value           nonuniform List<scalar> 
166
(
1.65707122518e-05
1.64795463609e-05
1.64626249543e-05
1.64592082169e-05
1.64575389571e-05
1.64560101266e-05
1.64546796168e-05
1.64534751801e-05
1.64522809619e-05
1.64510946852e-05
1.64494290123e-05
1.64469406069e-05
1.64407603062e-05
1.64391894251e-05
1.64370149382e-05
1.63170890611e-05
1.6145144821e-05
2.8307387879e-05
0.00438998070262
0.0148357056763
1.65743051488e-05
1.64821133305e-05
1.64642407359e-05
1.64603757101e-05
1.64582181141e-05
1.6456295253e-05
1.64546946016e-05
1.64533623263e-05
1.64521251363e-05
1.64511380376e-05
1.64500209657e-05
1.64485694564e-05
1.64440322706e-05
1.6440769798e-05
1.64369772921e-05
1.63234812712e-05
1.62705171648e-05
2.75631583009e-05
0.00421267580619
0.0156279204977
1.65794843089e-05
1.64856327722e-05
1.6465992931e-05
1.64614250965e-05
1.64585112855e-05
1.64561048483e-05
1.64541053307e-05
1.64527821165e-05
1.64515505435e-05
1.64502786417e-05
1.64494746617e-05
1.6448448076e-05
1.64457246825e-05
1.64415775002e-05
1.64357729041e-05
1.6322400462e-05
1.62764962578e-05
2.63425760921e-05
0.00241801365004
0.0155049582203
1.65877996161e-05
1.64894921594e-05
1.64677686935e-05
1.64618557552e-05
1.64581956819e-05
1.64553277634e-05
1.64536066528e-05
1.64522259238e-05
1.6450969031e-05
1.64492704744e-05
1.64487325577e-05
1.64477720159e-05
1.64460648444e-05
1.64402965211e-05
1.64342827777e-05
1.63342608284e-05
1.62955270884e-05
2.53278186958e-05
0.00103680831207
0.0121215031319
1.6601967707e-05
1.64920876394e-05
1.64681367322e-05
1.64608141265e-05
1.64568926235e-05
1.64545776868e-05
1.64528224081e-05
1.64511243887e-05
1.64501228453e-05
1.64494569214e-05
1.64484384796e-05
1.6446839432e-05
1.64463961934e-05
1.64393558478e-05
1.64300639258e-05
1.63424944159e-05
1.62043672547e-05
2.41424563115e-05
0.000622288647567
0.0114861771194
1.65824641212e-05
1.64852658512e-05
1.64641045308e-05
1.64575776869e-05
1.64542334884e-05
1.64522946703e-05
1.64509859595e-05
1.64497948997e-05
1.64487766071e-05
1.64485458729e-05
1.64468088993e-05
1.64456664002e-05
1.64450027118e-05
1.64373266648e-05
1.64238857581e-05
1.6358324346e-05
1.62350622562e-05
2.32705304728e-05
0.000429136106054
0.0109900245748
1.64994663369e-05
1.64578023217e-05
1.64527021001e-05
1.64508656749e-05
1.64499466842e-05
1.6448977491e-05
1.6448535974e-05
1.64481275518e-05
1.64471278426e-05
1.64459023547e-05
1.64449762926e-05
1.64441544881e-05
1.64419230717e-05
1.64358273114e-05
1.64188005809e-05
1.63782995632e-05
1.62681982524e-05
2.24305952579e-05
0.000315537859754
0.0104389092537
1.64721452824e-05
1.64349125396e-05
1.64387489179e-05
1.64416360195e-05
1.64442930086e-05
1.64457713361e-05
1.64460165144e-05
1.64457045597e-05
1.64451831134e-05
1.64443628455e-05
1.644396247e-05
1.64424375725e-05
1.6440115596e-05
1.64356318649e-05
1.64134750978e-05
1.63912096736e-05
1.63174685056e-05
2.16687773477e-05
0.000236904304188
0.00979187788742
1.65107175368e-05
1.6435886472e-05
1.64339534004e-05
1.65272685648e-05
1.65351259884e-05
1.65396600524e-05
)
;
    }
    atmosphere
    {
        type            calculated;
        value           nonuniform List<scalar> 8(0.0148357056763 0.0156279204977 0.0155049582203 0.0121215031319 0.0114861771194 0.0109900245748 0.0104389092537 0.00979187788742);
    }
    floatingObject
    {
        type            calculated;
        value           nonuniform List<scalar> 0();
    }
    procBoundary9to6
    {
        type            processor;
        value           nonuniform List<scalar> 4(1.61855892534e-05 2.93099112606e-05 0.00447777137856 0.0130961126733);
    }
    procBoundary9to7
    {
        type            processor;
        value           nonuniform List<scalar> 
16
(
1.65684171042e-05
1.64776202276e-05
1.64610806822e-05
1.645807226e-05
1.64567691631e-05
1.64555607614e-05
1.64544370889e-05
1.64533224381e-05
1.64521388186e-05
1.64507794184e-05
1.64490692452e-05
1.64460064684e-05
1.64380711732e-05
1.64389105609e-05
1.6437669286e-05
1.63180053421e-05
)
;
    }
    procBoundary9to10
    {
        type            processor;
        value           nonuniform List<scalar> 
15
(
1.64371783906e-05
1.64402677032e-05
1.64425593031e-05
1.64435783736e-05
1.64438439279e-05
1.64440185819e-05
1.6444025911e-05
1.64430494511e-05
1.64427755731e-05
1.64371783906e-05
1.6435320158e-05
1.64427755731e-05
1.64483551015e-05
1.64522660702e-05
1.654279817e-05
)
;
    }
    procBoundary9to11
    {
        type            processor;
        value           nonuniform List<scalar> 9(1.64415959434e-05 1.64393368138e-05 1.64333368611e-05 1.64159045538e-05 1.63920570514e-05 1.63481407082e-05 2.09882023963e-05 0.000188576422579 0.00937152287687);
    }
}


// ************************************************************************* //
