/*--------------------------------*- C++ -*----------------------------------*\
| =========                 |                                                 |
| \\      /  F ield         | OpenFOAM: The Open Source CFD Toolbox           |
|  \\    /   O peration     | Version:  v2012                                 |
|   \\  /    A nd           | Website:  www.openfoam.com                      |
|    \\/     M anipulation  |                                                 |
\*---------------------------------------------------------------------------*/
FoamFile
{
    version     2.0;
    format      ascii;
    class       surfaceVectorField;
    location    "4.5";
    object      Uf;
}
// * * * * * * * * * * * * * * * * * * * * * * * * * * * * * * * * * * * * * //

dimensions      [0 1 -1 0 0 0 0];


internalField   nonuniform List<vector> 
300
(
(0.0320678685026 -0.000784511434636 -3.1560583377e-22)
(0.0328052920263 -0.000351264519659 -4.0630923461e-22)
(0.0313435853762 -0.00161316544715 -1.77918011622e-22)
(0.0321194306974 -0.00110920490357 -2.3403086016e-22)
(0.0308596557777 -0.00249628682917 -4.44484827264e-23)
(0.0313980746539 -0.00190569423562 -1.08246660928e-22)
(0.0308547190747 -0.00343169070123 2.52113638596e-23)
(0.0312049419454 -0.00275803402144 1.91397361544e-23)
(0.0311927279187 -0.00441937223666 1.6032860137e-23)
(0.0314404960154 -0.00366648927352 1.21639669435e-23)
(0.031736101419 -0.00546574937018 3.95163894052e-24)
(0.0319363698073 -0.00462965287651 -7.30369450422e-25)
(0.0324113101884 -0.00658156033248 -1.83781004669e-24)
(0.0325916215445 -0.00565703903044 -4.81992580296e-24)
(0.033186521286 -0.00777913986899 -1.95018888466e-24)
(0.0333626829201 -0.00676256281245 2.53419934337e-24)
(0.0340457303594 -0.00907149009057 -1.8266558366e-24)
(0.0342316460848 -0.00795922329156 -4.78158134626e-25)
(0.034978288008 -0.0104725005733 7.52082866072e-24)
(0.0351846954499 -0.00925970973002 9.41485709751e-24)
(0.0359822328208 -0.0119950611402 2.49418238616e-23)
(0.0362122840077 -0.0106749620533 6.04889208917e-24)
(0.0370486839877 -0.0136900433261 4.94279624786e-23)
(0.0373397992503 -0.0122453295176 -3.04453059236e-23)
(0.0381661550133 -0.0155910525481 -4.98218872513e-23)
(0.0385365908041 -0.0139984783733 -5.57891598979e-23)
(0.0392030807112 -0.017786015982 -8.12492523177e-22)
(0.0398194080236 -0.0159318185087 -4.50463467694e-22)
(0.0397640960937 -0.0204058496921 -4.87174391161e-22)
(0.0409593184789 -0.0180104995785 -1.52192928045e-21)
(0.0396138004107 -0.0239704469295 -3.47165741469e-21)
(0.0416332227891 -0.0215015570139 6.20695833127e-22)
(0.0392501581075 -0.0276332285245 -1.10656335206e-20)
(0.0412085111181 -0.0295988957485 -7.21100775034e-21)
(0.0367676595098 -0.0290803501737 -1.47801043707e-20)
(0.0398498862726 -0.0306381462342 -1.42483534751e-20)
(0.0183555948439 -0.0128065074854 -1.45342214129e-20)
(0.0240036126652 -0.0239135060799 -1.42826347967e-20)
(0.000376866023427 0.031818914879 -6.61151215779e-22)
(0.0328196127376 -0.000665193544322 -3.24734261e-22)
(0.0334705516385 -0.000284079935042 -4.08415333004e-22)
(0.0321448093885 -0.0013861254876 -1.64359509466e-22)
(0.0328404298734 -0.000930025169974 -2.29560735101e-22)
(0.0317136361629 -0.00215617304363 -4.46584420469e-23)
(0.0321682012805 -0.00160556634916 -9.91076602953e-23)
(0.0317618986814 -0.00298137969378 6.09233923833e-24)
(0.032030256155 -0.00233925761163 -9.19318576523e-24)
(0.0321564191906 -0.00386028133502 -4.59926264386e-24)
(0.0323195483115 -0.00313265230241 -5.16984701716e-24)
(0.0327658441929 -0.00480141556782 -9.5019341939e-24)
(0.0328777078945 -0.00398219765529 -1.16044737768e-23)
(0.0335193171124 -0.00581569328656 -4.47916412895e-25)
(0.0336061616775 -0.00489942321579 -2.80689956341e-24)
(0.0343866786984 -0.00691980130494 4.00623009341e-24)
(0.0344671137131 -0.0059003894414 3.71499573871e-25)
(0.0353543438117 -0.00812579057814 1.07633547995e-23)
(0.0354380199354 -0.00699939804673 9.11521995555e-24)
(0.0364133487262 -0.0094567522426 7.94292052597e-24)
(0.0365161084016 -0.00821208822321 2.02343550794e-23)
(0.037566231185 -0.0109366251206 -4.93382376961e-23)
(0.0376926846613 -0.009545740442 -1.22287745783e-23)
(0.0388214860565 -0.0125630480675 -1.356624283e-22)
(0.0389668365829 -0.0110497459028 -1.18375204976e-22)
(0.0401969633459 -0.0144038744462 -4.56430740341e-22)
(0.0403781172245 -0.0127572374532 -2.60571605612e-22)
(0.0416287741883 -0.0165552321733 -1.15990022497e-21)
(0.0419715284725 -0.0146726041573 -8.48071391049e-22)
(0.0429170583155 -0.0192566049865 -4.14059056162e-22)
(0.0436614366987 -0.0167948883277 -1.09813348955e-21)
(0.0434682620036 -0.0229457950234 -3.11865450253e-21)
(0.0453229638208 -0.0200045925575 -2.60717413246e-22)
(0.0422773295519 -0.027541180062 -1.03937277048e-20)
(0.0458041006646 -0.0283888466732 -4.42767951193e-21)
(0.0207801076479 -0.0306544433804 -1.3750883901e-20)
(0.0429634436623 -0.0287535337592 -1.36881136277e-20)
(-0.00411677751548 0.0299500874699 -4.09564599505e-22)
(-0.0366006175437 -0.0211921205601 -1.5179925227e-20)
(-0.0144216425715 0.0500930668974 1.87268818682e-21)
(0.033450007946 -0.000546963342974 -3.13241807105e-22)
(0.0340175551004 -0.000209422464242 -4.08850256101e-22)
(0.0328271515278 -0.00113370149814 -1.6430888593e-22)
(0.0334272138964 -0.000730469077024 -2.32537046842e-22)
(0.0324500456239 -0.00178365740991 -6.36424040136e-23)
(0.0328182264737 -0.00127273679121 -1.2231447946e-22)
(0.0325518709288 -0.00248242402261 -2.04553720207e-23)
(0.0327291385862 -0.00187617216897 -4.67544581061e-23)
(0.0330052070665 -0.00323828783822 -1.217505815e-23)
(0.0330755938631 -0.00254159330698 -2.65529103133e-23)
(0.0336846944034 -0.00406070405297 -4.90943914626e-24)
(0.0337003829887 -0.00326307584516 -1.33664543988e-23)
(0.0345232760265 -0.00496019103036 -1.98748357664e-24)
(0.0345059891156 -0.0040544800622 -5.00413802739e-24)
(0.0354899870458 -0.00595634309748 5.48048943602e-24)
(0.0354636878912 -0.00493639286503 3.09151701991e-25)
(0.0365737234847 -0.00705985763125 1.85862202355e-23)
(0.0365420386546 -0.0059214152582 1.18019374992e-23)
(0.0377729733873 -0.00829545612592 6.26599751025e-26)
(0.0377522968999 -0.00702363801308 1.14761313972e-23)
(0.0390804439089 -0.00968785621197 -8.12657418587e-23)
(0.0390857676779 -0.00826260924345 -1.36065148429e-23)
(0.0405221554531 -0.01124262422 -2.43284382288e-22)
(0.0405223843499 -0.00967419950278 -1.63595380787e-22)
(0.0421621722487 -0.0130195565605 -6.52212256321e-22)
(0.0421559136671 -0.0112953752363 -4.06524819978e-22)
(0.0440330123154 -0.0151239021765 -7.8630465563e-22)
(0.0440767818194 -0.0131472942817 -1.13016703174e-21)
(0.0461389543615 -0.0177993372081 -9.44791846631e-22)
(0.0463377239481 -0.0152743402521 -1.18647281787e-21)
(0.0477879917751 -0.0214679718741 -1.56974242265e-21)
(0.0489922179175 -0.0180050543448 -8.27264137889e-22)
(0.0465116164293 -0.0264588815825 -7.72206543483e-21)
(0.0507952461852 -0.0264060808603 -1.71266910809e-22)
(-0.020131831775 -0.0317053133021 -1.51171549536e-20)
(0.0482100431639 -0.025478103161 -1.05650159791e-20)
(-0.0428148883177 0.0346982428017 -1.28976724406e-20)
(-0.103003404056 -0.0289915432763 -1.16485459908e-20)
(0.0138233513285 -0.0150370999479 -7.55629537613e-21)
(0.0339463838497 -0.000400427006105 -3.28145495838e-22)
(0.0344179952084 -0.000130478975917 -4.26236778366e-22)
(0.0333773452474 -0.000850962520848 -1.90542640372e-22)
(0.0338777784299 -0.000511518366745 -2.7185048363e-22)
(0.0330572322585 -0.00136080002783 -1.05426533552e-22)
(0.0333281297082 -0.000907653914141 -1.83081923145e-22)
(0.0332142193899 -0.00192745780067 -5.28519963986e-23)
(0.0332959237517 -0.00137027806563 -8.68103397952e-23)
(0.0337288698583 -0.00255188005601 -2.77443065621e-23)
(0.0337002277424 -0.00189351659086 -4.50765490455e-23)
(0.0344826000561 -0.0032390871268 -1.346115328e-23)
(0.034387896399 -0.0024705746688 -1.31127444558e-23)
(0.0354088699869 -0.00401637312694 -2.70750274876e-24)
(0.0352836785122 -0.00312060649082 -1.01133667111e-23)
(0.0364773772992 -0.00488052155796 6.6305997652e-24)
(0.0363283344789 -0.00386788173627 8.55371011501e-24)
(0.0376811400739 -0.00585976970896 4.69184866091e-24)
(0.0375218808298 -0.00471921003129 5.77141463031e-24)
(0.039028843715 -0.00696422669346 -2.19304342087e-24)
(0.0388574499725 -0.005680761278 -2.01987126432e-24)
(0.0405055736028 -0.00825148356416 -9.59361537715e-23)
(0.0403738325371 -0.00680210192465 1.73447746514e-23)
(0.0421375069675 -0.00972867283209 -3.26835818477e-22)
(0.042000496913 -0.00810410905761 -1.73280034181e-22)
(0.0440392063114 -0.0114070778804 -8.84479595395e-22)
(0.0438353371015 -0.00960730651989 -4.94932406734e-22)
(0.0463543249379 -0.0133871878858 -1.53033519397e-21)
(0.0460579523918 -0.0113486695702 -1.64017585221e-21)
(0.0491957801479 -0.0159574280728 -1.06894510912e-21)
(0.0489089427866 -0.0134963441379 -2.65050405187e-21)
(0.05205200851 -0.019437684086 5.71211373955e-22)
(0.0524731875823 -0.0156259920172 4.80134749737e-22)
(0.0530424794978 -0.0243180870385 -3.01421745509e-21)
(0.0556759253085 -0.0237049284396 1.58570314538e-22)
(-0.0181363050445 -0.0332988119628 -7.09640701626e-21)
(0.0571908868709 -0.0214054557438 -9.54329212239e-21)
(-0.038437804889 -0.0623767139592 -6.30716892629e-21)
(-0.0739244847454 -0.0363404945968 -8.69765602261e-21)
(0.0155300515514 -0.076256276549 -8.9426633933e-21)
(0.0342981141913 -0.000249368487294 -3.69941766158e-22)
(0.0346673597185 -4.40507209552e-05 -4.27064683966e-22)
(0.0337829484024 -0.000552535294688 -2.64389766403e-22)
(0.0341809775494 -0.00027459121532 -2.86012122094e-22)
(0.0335203678454 -0.000909480388752 -1.64465729388e-22)
(0.0336851591102 -0.000513683527366 -2.14154076781e-22)
(0.0337366574927 -0.00132448149535 -7.90348924421e-23)
(0.0337110758689 -0.000821109674406 -9.40563078722e-23)
(0.0343158018706 -0.00180251201652 -3.04449869393e-23)
(0.0341784945532 -0.00118796193999 -4.20046325218e-23)
(0.0351405066001 -0.00235186700731 -9.76495788691e-24)
(0.0349375820589 -0.00160988511012 -1.00132703658e-23)
(0.0361537176016 -0.00296204155159 1.14784615271e-24)
(0.0358942766883 -0.00210157988053 -5.18569385195e-24)
(0.037330668517 -0.00368433813944 7.69452498012e-24)
(0.0370511459944 -0.00269293335711 2.17673811926e-24)
(0.0386611238629 -0.00452657161765 -9.40305294927e-25)
(0.0383647258521 -0.00339202912984 -3.84139147101e-24)
(0.0401482824892 -0.00551581554382 1.75179468079e-23)
(0.0398474205914 -0.00419873019453 -1.33630062422e-23)
(0.0417998700568 -0.00665005090882 -5.99991057581e-23)
(0.0415089307454 -0.00517042430334 -5.58284693749e-24)
(0.0436467809054 -0.00797001834717 -3.41376622438e-22)
(0.0433214757722 -0.00632977167946 -1.39212644061e-22)
(0.0458041044325 -0.00954418832959 -1.25062866355e-21)
(0.0454106454725 -0.00769654044634 -4.32358127867e-22)
(0.0485404925082 -0.0114650533163 -2.76034471011e-21)
(0.0479800236886 -0.00928162618153 -1.60682662213e-21)
(0.0520614680661 -0.0138319127277 -1.10142419301e-21)
(0.0512769193959 -0.0114394633126 -3.39393181665e-21)
(0.05605745507 -0.0169433326094 6.74936903211e-23)
(0.055585436566 -0.0129663340444 6.54734633876e-22)
(0.0599611414886 -0.0214566543562 -6.37050435276e-21)
(0.0601895803578 -0.0203922804726 -5.04615810333e-21)
(0.00476515585164 -0.0301330281373 -1.11445411287e-20)
(0.0658673436709 -0.0169337963908 -1.25142884636e-20)
(-0.0174097921265 -0.0681561885755 -1.13331504896e-20)
(-0.0359007641246 -0.0332725827623 -1.35300725906e-20)
(0.0209703093074 -0.0759480697025 -1.15489856083e-20)
(0.0344932976913 -7.91022200869e-05 -3.43135039902e-22)
(0.0347464793102 5.08339960971e-05 -3.44597113576e-22)
(0.0340335552834 -0.000227704874522 -2.35776432472e-22)
(0.0343296666936 -2.1772444758e-05 -1.89875031085e-22)
(0.0338264424052 -0.00042217808659 -1.43744655266e-22)
(0.0338797765685 -9.53310318903e-05 -1.27921701117e-22)
(0.034101253714 -0.000677657247449 -5.70260479518e-23)
(0.0339667499912 -0.000230780101291 -3.55796631239e-23)
(0.0347441181169 -0.000985946279119 -2.15729159483e-23)
(0.0344870292706 -0.000427093176544 -1.71247671032e-23)
(0.0356424852423 -0.00135984860746 -5.43400633085e-24)
(0.0353117799768 -0.00067992833899 -6.52696408346e-24)
(0.0367426101247 -0.00182907604291 -4.1568018854e-24)
(0.036363856351 -0.000998745827286 -3.29958887055e-24)
(0.0380277508304 -0.00237730628168 -9.35917833186e-24)
(0.0375997930134 -0.00141304590691 2.47840964135e-25)
(0.0394896024932 -0.00304839654851 -1.62640924183e-23)
(0.0390363337809 -0.00193800647346 -5.69756049867e-24)
(0.0411203882275 -0.00387236321611 -3.64637999876e-23)
(0.0406720638083 -0.00257831249876 -6.70317608214e-24)
(0.0429474585319 -0.00483495884811 -8.47963852403e-23)
(0.0424723771093 -0.00336834876204 -5.81361616039e-23)
(0.0450122325702 -0.00601630133237 -2.3019414949e-22)
(0.0445040250694 -0.00434713999583 -1.06044645988e-22)
(0.0474356702059 -0.00746297401706 -7.88556086446e-22)
(0.0468587981774 -0.00554992164503 -2.99350466365e-22)
(0.0505751472957 -0.00913238545895 -2.24041372867e-21)
(0.0496511014141 -0.00693032212925 -1.01756325805e-21)
(0.0547023666012 -0.011336932694 -1.63777298976e-21)
(0.0534830741387 -0.00901373871575 -2.83993580846e-21)
(0.0595672189651 -0.0141444807547 -4.45891715977e-21)
(0.0583942542562 -0.00994448552683 4.5443374614e-22)
(0.0658438837341 -0.0176596825502 -1.11899422142e-20)
(0.0637053812859 -0.0161776993972 -6.49270654037e-21)
(0.0252004168217 -0.0245934534041 -1.48998199255e-20)
(0.0728012345722 -0.01184341166 -1.07285109263e-20)
(0.00345504291419 -0.0548034055829 -1.37459077093e-20)
(-0.00569063097486 -0.0271232620679 -7.94527835013e-21)
(0.031214217781 -0.0641946230554 -5.54395097483e-21)
(0.0345207243309 8.45641675218e-05 -1.91337104758e-22)
(0.0346620306061 0.000151419797992 -1.94706027686e-22)
(0.0341152631517 0.000129180689751 -8.20202997301e-23)
(0.0342853123403 0.000246006537398 -3.7158378953e-23)
(0.0339653975519 0.000104903273338 -1.97567089757e-23)
(0.033904318346 0.000348288570769 1.49040527735e-23)
(0.03429611537 2.77727403753e-05 4.32161772468e-24)
(0.0340441342187 0.000398022790261 3.56418979397e-23)
(0.0349991650919 -0.000106464745339 -2.07881523842e-24)
(0.0346214747653 0.000386123843594 1.0605236239e-24)
(0.0359720822343 -0.000304869795927 -4.39254662316e-24)
(0.0355103692285 0.0003205426413 -4.4281754033e-24)
(0.0371599871975 -0.000575687604146 1.10505397898e-24)
(0.0366348527855 0.00018899563431 -3.74979696571e-24)
(0.038548487185 -0.000951279394147 3.90945879733e-24)
(0.0379756004781 -3.20343787723e-05 4.6808997564e-24)
(0.0401399026538 -0.00144455372177 3.8633558375e-24)
(0.0395299779988 -0.000356089116504 2.21546351756e-23)
(0.0419343087836 -0.00205978649226 -2.83755376984e-23)
(0.041287824245 -0.000796959230374 1.88040496421e-23)
(0.0439442232139 -0.00285697681917 -7.93844223512e-23)
(0.0432709066906 -0.00138231322915 -4.54527455195e-23)
(0.0462176093046 -0.00385958242063 -1.75200962863e-22)
(0.0455083851825 -0.0021526373531 -7.39877368778e-23)
(0.0489103188987 -0.00505512817558 -5.28357637973e-22)
(0.0480566133579 -0.00314119222205 -2.46209973384e-22)
(0.0523894459142 -0.00654396801813 -1.61708533784e-21)
(0.0511423091027 -0.00428161486893 -8.34942232197e-22)
(0.0569627186229 -0.00839850483384 -7.47729072557e-22)
(0.0553400944445 -0.00615335193039 -1.88925900296e-21)
(0.062269326805 -0.0105637230363 -1.57935563446e-21)
(0.0605612280415 -0.00652811502799 -1.83393537207e-21)
(0.0702332594764 -0.0127286047497 -6.03127525251e-21)
(0.0658711076633 -0.0110139308786 -5.11771580662e-21)
(0.0410924925181 -0.01761432318 -3.77396935095e-21)
(0.0776871372406 -0.00580212519619 -8.66840712362e-21)
(0.0223167505705 -0.0411664321807 2.56678384308e-22)
(0.0178612124156 -0.0192942329359 -6.70455279612e-21)
(0.0467135972928 -0.0605851983745 -4.87627697898e-21)
(0.0343675573514 0.000267325582551 -4.05273018807e-23)
(0.0343952129375 0.000259030992597 -7.52574210406e-23)
(0.0340146541537 0.000493396012624 5.97659735506e-23)
(0.0340598132879 0.000530372441649 7.52341793593e-23)
(0.0339227032768 0.000658711911906 7.03026596889e-23)
(0.0337394817441 0.000819849664367 8.86040106909e-23)
(0.0343075427445 0.000770791088153 3.23808038389e-23)
(0.0350680506247 0.000830505952013 -1.28883654098e-24)
(0.0361067849622 0.000832824247546 -3.78542574585e-24)
(0.0373769774582 0.000761925487499 -1.73951188293e-25)
(0.0388700329676 0.000585781935836 2.29260761347e-23)
(0.0405910791169 0.000321851592093 3.70953289802e-23)
(0.0425449388051 -8.27972368063e-05 1.7268418211e-24)
(0.0447384545146 -0.000660559033459 -4.00560600461e-23)
(0.0472277596492 -0.00141502842609 -1.44996747399e-22)
(0.0501628451873 -0.00238601470923 -5.52794567609e-22)
(0.0538450615526 -0.00359796611481 -1.10711589731e-21)
(0.0586225958391 -0.00478446030819 -2.97546530247e-21)
(0.0637907396015 -0.00611425215841 -5.37229554423e-21)
(0.0729712307986 -0.00661652377415 -7.75484767773e-21)
(0.0574298720161 -0.00995763708284 -1.15989905688e-20)
(0.044945891129 -0.0403517945316 -1.18375081594e-20)
(0.0340221751878 0.000462360656077 4.05040601994e-23)
(0.0339338571582 0.000372437385433 -1.89925605848e-24)
(0.0337220948619 0.000881914036249 1.040722165e-22)
(0.0332691303024 0.0004861777669 3.88042617097e-23)
(0.0323944399545 0.000601751957017 1.56327363463e-22)
)
;

boundaryField
{
    back
    {
        type            calculated;
        value           uniform (0 0 0);
    }
    sides
    {
        type            calculated;
        value           nonuniform List<vector> 0();
    }
    bottom
    {
        type            calculated;
        value           uniform (0 0 0);
    }
    front
    {
        type            calculated;
        value           uniform (0 0 0);
    }
    atmosphere
    {
        type            calculated;
        value           nonuniform List<vector> 8((0.00230830160513 2.15187847247e-05 -1.42098698327e-20) (-0.00868021084146 0.0447489263259 1.28875674011e-20) (-0.0006674149937 0.00645308089746 -9.14219102746e-21) (0 -0.064083880458 0) (0 -0.073596571652 0) (0 -0.0650468615025 0) (0 -0.0566648548909 0) (0 -0.057596514328 0));
    }
    floatingObject
    {
        type            calculated;
        value           nonuniform List<vector> 0();
    }
    procBoundary9to6
    {
        type            processor;
        value           nonuniform List<vector> 4((0.0375453368304 -0.0299253466101 -1.42857160222e-21) (0.0384025717861 -0.0310917573492 -1.36250066159e-20) (0.0402757656125 -0.0267016305314 -1.365025331e-20) (0.0132037427136 -0.009005601361 -1.20962102638e-20));
    }
    procBoundary9to7
    {
        type            processor;
        value           nonuniform List<vector> 
16
(
(0.0320206246085 -0.000410364855058 -3.62856060804e-22)
(0.0312906209483 -0.00126994069213 -2.28059212961e-22)
(0.030514796557 -0.00217447988666 -1.16579599169e-22)
(0.0302693694242 -0.00313294684525 2.65079855528e-23)
(0.0304526207366 -0.00414496368922 1.79094181453e-23)
(0.0308897615676 -0.00520933894661 2.26978427962e-24)
(0.0314755339926 -0.00633476241834 -1.09503734666e-23)
(0.0321647769866 -0.00753286480203 -1.58998187175e-25)
(0.0329389167628 -0.00881398995807 -5.71581574922e-24)
(0.0337832439876 -0.0101888852247 -9.62822163658e-24)
(0.0346892008485 -0.0116704009558 3.46312343887e-23)
(0.0356441825026 -0.0132787289068 5.95838321108e-23)
(0.0366348072082 -0.015038207409 1.26579949478e-22)
(0.0376235260384 -0.0169386873096 -1.91010622127e-22)
(0.0383384632352 -0.0188900112736 -1.59509793798e-21)
(0.0380677495138 -0.0223653453851 5.90891374718e-22)
)
;
    }
    procBoundary9to10
    {
        type            processor;
        value           nonuniform List<vector> 
15
(
(0.0339323359955 0.00106472062159 6.04213702435e-23)
(0.0345619000397 0.00124990075318 -1.41196396052e-24)
(0.0355080702893 0.00138460789832 -7.52094421984e-24)
(0.0367056847118 0.00145845596434 -4.42073216385e-25)
(0.0381517168833 0.00145307408513 1.83320614718e-23)
(0.0397939963831 0.00135518144786 5.50017797128e-23)
(0.0416934566841 0.00114416229213 2.66615281709e-23)
(0.0438500647747 0.000787251200969 -1.71213183445e-23)
(0.0336411091266 0.000828956864379 9.75016991734e-23)
(0.0336852534249 0.00124475063617 7.87227212455e-23)
(0.0333771866675 0.00131754924964 7.05450624485e-23)
(0.0334776261597 0.000666305507272 5.50983829155e-23)
(0.0327283875616 0.000875803699744 9.89092925549e-23)
(0.0317682635683 0.00108686052797 2.6788578379e-22)
(0.0313092996723 0.000720606761701 3.69841250495e-22)
)
;
    }
    procBoundary9to11
    {
        type            processor;
        value           nonuniform List<vector> 9((0.0462655199248 0.000258999850582 -5.38334088873e-23) (0.0490302575272 -0.000475932024578 -2.48250039479e-22) (0.0523574209589 -0.00136647730602 -9.49733454887e-22) (0.0565293782259 -0.00282448638155 -2.53552818139e-21) (0.0618933159931 -0.00284587397668 -5.08371696965e-21) (0.0663744423405 -0.00574528455329 -6.8877208839e-21) (0.0810284946068 0.000411148811149 -8.93099392129e-21) (0.0482562277077 -0.0109075807433 -8.43507581054e-21) (0.0639584257464 -0.056257003983 -4.83947004051e-21));
    }
}


// ************************************************************************* //
