/*--------------------------------*- C++ -*----------------------------------*\
| =========                 |                                                 |
| \\      /  F ield         | OpenFOAM: The Open Source CFD Toolbox           |
|  \\    /   O peration     | Version:  v2012                                 |
|   \\  /    A nd           | Website:  www.openfoam.com                      |
|    \\/     M anipulation  |                                                 |
\*---------------------------------------------------------------------------*/
FoamFile
{
    version     2.0;
    format      ascii;
    class       volScalarField;
    location    "0.8";
    object      epsilon;
}
// * * * * * * * * * * * * * * * * * * * * * * * * * * * * * * * * * * * * * //

dimensions      [0 2 -3 0 0 0 0];


internalField   nonuniform List<scalar> 
167
(
0.0325612711474
0.0326359786667
0.0326666843637
0.0326946921207
0.032725716441
0.032760212262
0.0327979693132
0.0328388511063
0.0304437610679
0.0321393274821
0.0324944749613
0.0325694545057
0.0326005730768
0.0326289971621
0.0326603864528
0.0326951538091
0.0327330593868
0.0327739100607
0.0328184980728
0.0303797874943
0.0320732864346
0.0324282906962
0.0325037557887
0.0325355247519
0.0325646274832
0.0325966633394
0.0326319995152
0.0326703598911
0.0327114887175
0.032756093853
0.0303160267407
0.0320077553519
0.0323628437033
0.0324390206176
0.0324716858144
0.0325017328986
0.0325346947812
0.0325708888845
0.0326099889902
0.0326517068777
0.0304486989029
0.0302526145014
0.031942846385
0.0322982574799
0.0323753878698
0.0324092091443
0.0324404745609
0.0324746435582
0.0325119764514
0.0325520979668
0.032594659664
0.0303691047912
0.0301896633609
0.0318786637516
0.0322346513515
0.0323129995522
0.0323482564784
0.0323810273745
0.0324166892925
0.0324554419244
0.0324968350906
0.0325405154727
0.030289844846
0.030127265995
0.031815304527
0.0321721492143
0.032252011283
0.0322890099333
0.032323589542
0.0323610358275
0.0324014627035
0.0324444011252
0.0302110541387
0.0300655030226
0.031752868252
0.0321108919117
0.0321926070154
0.0322316863971
0.0322683961812
0.032307912559
0.0323502853225
0.0301328450044
0.0300044464495
0.0316914648725
0.0320510498297
0.032135013386
0.0321765514183
0.0322157299199
0.032257608934
0.0323021740309
0.0300553006828
0.0299441386244
0.0316311944631
0.0319928066872
0.0320794844119
0.0321239012275
0.03216590099
0.0322104290933
0.0322574024232
0.0323062261208
0.0299783951633
0.029884402593
0.0315719209776
0.0319361269491
0.0320260644678
0.032073817542
0.0321189902679
0.0321664200693
0.0322159786519
0.0322670602024
0.0299014090262
0.0298236411928
0.0315118168714
0.0318792319133
0.0319730399254
0.0320246017964
0.0320732710274
0.0321238049283
0.0321760668875
0.0322294717845
0.029819325712
0.0297521806958
0.0314393874753
0.0318102640788
0.03190850461
0.0319642994549
0.032016711292
0.0320704679786
0.0321254781573
0.032181213304
0.0297029141287
0.029619515422
0.0312950555241
0.0316673935327
0.0317701105611
0.0318303364941
0.0318865571997
0.0319435134148
0.032001216351
0.0320592627209
0.0294020620482
0.0291945664211
0.0308119463087
0.0311748436712
0.0312799862601
0.031344034743
0.0314035672575
0.0314632342955
0.0315232167008
0.0282474965993
0.0275684072702
0.0289709455172
0.0292874349134
0.0293867775293
0.0294515578361
0.0295120549358
0.0295722406188
0.029632412824
0.0264531000996
0.0281637475437
0.0291444736262
0.0293698583225
0.0294661612428
0.0295446235713
0.0296208821987
0.0296966274715
0.0297718859663
)
;

boundaryField
{
    back
    {
        lowReCorrection 0;
        blending        stepwise;
        n               2;
        type            epsilonWallFunction;
        value           nonuniform List<scalar> 
167
(
0.0325612711474
0.0326359786667
0.0326666843637
0.0326946921207
0.032725716441
0.032760212262
0.0327979693132
0.0328388511063
0.0304437610679
0.0321393274821
0.0324944749613
0.0325694545057
0.0326005730768
0.0326289971621
0.0326603864528
0.0326951538091
0.0327330593868
0.0327739100607
0.0328184980728
0.0303797874943
0.0320732864346
0.0324282906962
0.0325037557887
0.0325355247519
0.0325646274832
0.0325966633394
0.0326319995152
0.0326703598911
0.0327114887175
0.032756093853
0.0303160267407
0.0320077553519
0.0323628437033
0.0324390206176
0.0324716858144
0.0325017328986
0.0325346947812
0.0325708888845
0.0326099889902
0.0326517068777
0.0304486989029
0.0302526145014
0.031942846385
0.0322982574799
0.0323753878698
0.0324092091443
0.0324404745609
0.0324746435582
0.0325119764514
0.0325520979668
0.032594659664
0.0303691047912
0.0301896633609
0.0318786637516
0.0322346513515
0.0323129995522
0.0323482564784
0.0323810273745
0.0324166892925
0.0324554419244
0.0324968350906
0.0325405154727
0.030289844846
0.030127265995
0.031815304527
0.0321721492143
0.032252011283
0.0322890099333
0.032323589542
0.0323610358275
0.0324014627035
0.0324444011252
0.0302110541387
0.0300655030226
0.031752868252
0.0321108919117
0.0321926070154
0.0322316863971
0.0322683961812
0.032307912559
0.0323502853225
0.0301328450044
0.0300044464495
0.0316914648725
0.0320510498297
0.032135013386
0.0321765514183
0.0322157299199
0.032257608934
0.0323021740309
0.0300553006828
0.0299441386244
0.0316311944631
0.0319928066872
0.0320794844119
0.0321239012275
0.03216590099
0.0322104290933
0.0322574024232
0.0323062261208
0.0299783951633
0.029884402593
0.0315719209776
0.0319361269491
0.0320260644678
0.032073817542
0.0321189902679
0.0321664200693
0.0322159786519
0.0322670602024
0.0299014090262
0.0298236411928
0.0315118168714
0.0318792319133
0.0319730399254
0.0320246017964
0.0320732710274
0.0321238049283
0.0321760668875
0.0322294717845
0.029819325712
0.0297521806958
0.0314393874753
0.0318102640788
0.03190850461
0.0319642994549
0.032016711292
0.0320704679786
0.0321254781573
0.032181213304
0.0297029141287
0.029619515422
0.0312950555241
0.0316673935327
0.0317701105611
0.0318303364941
0.0318865571997
0.0319435134148
0.032001216351
0.0320592627209
0.0294020620482
0.0291945664211
0.0308119463087
0.0311748436712
0.0312799862601
0.031344034743
0.0314035672575
0.0314632342955
0.0315232167008
0.0282474965993
0.0275684072702
0.0289709455172
0.0292874349134
0.0293867775293
0.0294515578361
0.0295120549358
0.0295722406188
0.029632412824
0.0264531000996
0.0281637475437
0.0291444736262
0.0293698583225
0.0294661612428
0.0295446235713
0.0296208821987
0.0296966274715
0.0297718859663
)
;
    }
    sides
    {
        lowReCorrection 0;
        blending        stepwise;
        n               2;
        type            epsilonWallFunction;
        value           nonuniform List<scalar> 9(0.0264531000996 0.0281637475437 0.0291444736262 0.0293698583225 0.0294661612428 0.0295446235713 0.0296208821987 0.0296966274715 0.0297718859663);
    }
    bottom
    {
        lowReCorrection 0;
        blending        stepwise;
        n               2;
        type            epsilonWallFunction;
        value           nonuniform List<scalar> 
13
(
0.0304486989029
0.0303691047912
0.030289844846
0.0302110541387
0.0301328450044
0.0300553006828
0.0299783951633
0.0299014090262
0.029819325712
0.0297029141287
0.0294020620482
0.0282474965993
0.0264531000996
)
;
    }
    front
    {
        lowReCorrection 0;
        blending        stepwise;
        n               2;
        type            epsilonWallFunction;
        value           nonuniform List<scalar> 
167
(
0.0325612711474
0.0326359786667
0.0326666843637
0.0326946921207
0.032725716441
0.032760212262
0.0327979693132
0.0328388511063
0.0304437610679
0.0321393274821
0.0324944749613
0.0325694545057
0.0326005730768
0.0326289971621
0.0326603864528
0.0326951538091
0.0327330593868
0.0327739100607
0.0328184980728
0.0303797874943
0.0320732864346
0.0324282906962
0.0325037557887
0.0325355247519
0.0325646274832
0.0325966633394
0.0326319995152
0.0326703598911
0.0327114887175
0.032756093853
0.0303160267407
0.0320077553519
0.0323628437033
0.0324390206176
0.0324716858144
0.0325017328986
0.0325346947812
0.0325708888845
0.0326099889902
0.0326517068777
0.0304486989029
0.0302526145014
0.031942846385
0.0322982574799
0.0323753878698
0.0324092091443
0.0324404745609
0.0324746435582
0.0325119764514
0.0325520979668
0.032594659664
0.0303691047912
0.0301896633609
0.0318786637516
0.0322346513515
0.0323129995522
0.0323482564784
0.0323810273745
0.0324166892925
0.0324554419244
0.0324968350906
0.0325405154727
0.030289844846
0.030127265995
0.031815304527
0.0321721492143
0.032252011283
0.0322890099333
0.032323589542
0.0323610358275
0.0324014627035
0.0324444011252
0.0302110541387
0.0300655030226
0.031752868252
0.0321108919117
0.0321926070154
0.0322316863971
0.0322683961812
0.032307912559
0.0323502853225
0.0301328450044
0.0300044464495
0.0316914648725
0.0320510498297
0.032135013386
0.0321765514183
0.0322157299199
0.032257608934
0.0323021740309
0.0300553006828
0.0299441386244
0.0316311944631
0.0319928066872
0.0320794844119
0.0321239012275
0.03216590099
0.0322104290933
0.0322574024232
0.0323062261208
0.0299783951633
0.029884402593
0.0315719209776
0.0319361269491
0.0320260644678
0.032073817542
0.0321189902679
0.0321664200693
0.0322159786519
0.0322670602024
0.0299014090262
0.0298236411928
0.0315118168714
0.0318792319133
0.0319730399254
0.0320246017964
0.0320732710274
0.0321238049283
0.0321760668875
0.0322294717845
0.029819325712
0.0297521806958
0.0314393874753
0.0318102640788
0.03190850461
0.0319642994549
0.032016711292
0.0320704679786
0.0321254781573
0.032181213304
0.0297029141287
0.029619515422
0.0312950555241
0.0316673935327
0.0317701105611
0.0318303364941
0.0318865571997
0.0319435134148
0.032001216351
0.0320592627209
0.0294020620482
0.0291945664211
0.0308119463087
0.0311748436712
0.0312799862601
0.031344034743
0.0314035672575
0.0314632342955
0.0315232167008
0.0282474965993
0.0275684072702
0.0289709455172
0.0292874349134
0.0293867775293
0.0294515578361
0.0295120549358
0.0295722406188
0.029632412824
0.0264531000996
0.0281637475437
0.0291444736262
0.0293698583225
0.0294661612428
0.0295446235713
0.0296208821987
0.0296966274715
0.0297718859663
)
;
    }
    atmosphere
    {
        type            inletOutlet;
        inletValue      nonuniform List<scalar> 0();
        value           nonuniform List<scalar> 0();
    }
    floatingObject
    {
        lowReCorrection 0;
        blending        stepwise;
        n               2;
        type            epsilonWallFunction;
        value           nonuniform List<scalar> 0();
    }
    procBoundary10to9
    {
        type            processor;
        value           nonuniform List<scalar> 
15
(
0.0326284765174
0.0327031388433
0.0327336683493
0.0327615182225
0.0327924610423
0.0328269815135
0.0328649135876
0.0329061315074
0.0305077507359
0.0322057207393
0.0322057207393
0.0306875576746
0.0306081504675
0.0305284505068
0.0305284505068
)
;
    }
    procBoundary10to11
    {
        type            processor;
        value           nonuniform List<scalar> 
23
(
0.0328837343834
0.0328837343834
0.0328741256338
0.032811008371
0.0326966388081
0.0326966388081
0.0326401934855
0.0325868963034
0.0324894204368
0.0324894204368
0.0323949902764
0.0323949902764
0.0323488454912
0.0323488454912
0.0323563897448
0.03231917888
0.0322835682353
0.0322372955373
0.0321173470824
0.0315832534128
0.0315832534128
0.0296924741342
0.0298465057449
)
;
    }
}


// ************************************************************************* //
