/*--------------------------------*- C++ -*----------------------------------*\
| =========                 |                                                 |
| \\      /  F ield         | OpenFOAM: The Open Source CFD Toolbox           |
|  \\    /   O peration     | Version:  v2012                                 |
|   \\  /    A nd           | Website:  www.openfoam.com                      |
|    \\/     M anipulation  |                                                 |
\*---------------------------------------------------------------------------*/
FoamFile
{
    version     2.0;
    format      ascii;
    class       volScalarField;
    location    "0.8";
    object      p_rgh;
}
// * * * * * * * * * * * * * * * * * * * * * * * * * * * * * * * * * * * * * //

dimensions      [1 -1 -2 0 0 0 0];


internalField   nonuniform List<scalar> 
167
(
9155.32000427
9154.97527119
9154.54704408
9154.03819373
9153.45167498
9152.79279884
9152.06902337
9151.2934742
9160.96735302
9160.86586113
9160.75472717
9160.60928833
9160.43467884
9160.23678063
9160.02222877
9159.80033909
9159.58379058
9159.38916907
9159.23739933
9166.11544862
9166.1057865
9166.1370577
9166.18409807
9166.25399475
9166.35514269
9166.49719503
9166.69283086
9166.958711
9167.31424088
9167.78541682
9171.16621989
9171.24485064
9171.41239028
9171.64341487
9171.94657562
9172.33236457
9172.81289146
9173.40362036
9174.12373619
9174.99656878
9176.22795461
9176.06995942
9176.23246835
9176.5291039
9176.93420261
9177.45770066
9178.11178143
9178.91056694
9179.87170062
9181.01654484
9182.36950822
9180.90021404
9180.7797584
9181.0210176
9181.43872015
9182.00688313
9182.7364647
9183.64103158
9184.73633646
9186.04192468
9187.5789085
9189.37689393
9185.33691392
9185.2515982
9185.56608191
9186.09616234
9186.81552167
9187.73593469
9188.8720796
9190.24115198
9191.86256462
9193.76170497
9189.49761687
9189.44482993
9189.82665849
9190.45992308
9191.31796889
9192.41320709
9193.76122162
9195.37980514
9197.29002614
9193.34531721
9193.32227256
9193.76530597
9194.49219136
9195.47593707
9196.72943643
9198.26892829
9200.11270043
9202.28322046
9196.84652884
9196.85033991
9197.3482684
9198.15895349
9199.25507078
9200.64987089
9202.36003351
9204.40467422
9206.80616296
9209.59150987
9199.97129041
9199.99908754
9200.54552217
9201.43001865
9202.62493606
9204.14380954
9206.00368271
9208.22415285
9210.82800848
9213.842069
9202.6929006
9202.74201513
9203.33055993
9204.27876989
9205.55872673
9207.18423201
9209.17265796
9211.54395996
9214.32139266
9217.5319325
9204.98774223
9205.05632443
9205.68071198
9206.68246853
9208.03353372
9209.7480298
9211.84367326
9214.34076271
9217.26300859
9220.63667795
9206.83668247
9206.9262572
9207.58090701
9208.62597395
9210.03397801
9211.81961316
9214.00099347
9216.59883617
9219.63613404
9223.14133194
9208.22317292
9208.34212617
9209.02211348
9210.09937573
9211.54935525
9213.38770647
9215.63292409
9218.3056181
9221.4297517
9209.10220534
9209.25182316
9209.94562129
9211.03922456
9212.513582
9214.38436519
9216.66990286
9219.39078056
9222.57038168
9209.34285357
9209.49869231
9210.17764743
9211.26412945
9212.7456472
9214.63171976
9216.93794257
9219.68351672
9222.89254642
)
;

boundaryField
{
    back
    {
        type            fixedFluxPressure;
        gradient        uniform 0;
        value           nonuniform List<scalar> 
167
(
9155.32000427
9154.97527119
9154.54704408
9154.03819373
9153.45167498
9152.79279884
9152.06902337
9151.2934742
9160.96735302
9160.86586113
9160.75472717
9160.60928833
9160.43467884
9160.23678063
9160.02222877
9159.80033909
9159.58379058
9159.38916907
9159.23739933
9166.11544862
9166.1057865
9166.1370577
9166.18409807
9166.25399475
9166.35514269
9166.49719503
9166.69283086
9166.958711
9167.31424088
9167.78541682
9171.16621989
9171.24485064
9171.41239028
9171.64341487
9171.94657562
9172.33236457
9172.81289146
9173.40362036
9174.12373619
9174.99656878
9176.22795461
9176.06995942
9176.23246835
9176.5291039
9176.93420261
9177.45770066
9178.11178143
9178.91056694
9179.87170062
9181.01654484
9182.36950822
9180.90021404
9180.7797584
9181.0210176
9181.43872015
9182.00688313
9182.7364647
9183.64103158
9184.73633646
9186.04192468
9187.5789085
9189.37689393
9185.33691392
9185.2515982
9185.56608191
9186.09616234
9186.81552167
9187.73593469
9188.8720796
9190.24115198
9191.86256462
9193.76170497
9189.49761687
9189.44482993
9189.82665849
9190.45992308
9191.31796889
9192.41320709
9193.76122162
9195.37980514
9197.29002614
9193.34531721
9193.32227256
9193.76530597
9194.49219136
9195.47593707
9196.72943643
9198.26892829
9200.11270043
9202.28322046
9196.84652884
9196.85033991
9197.3482684
9198.15895349
9199.25507078
9200.64987089
9202.36003351
9204.40467422
9206.80616296
9209.59150987
9199.97129041
9199.99908754
9200.54552217
9201.43001865
9202.62493606
9204.14380954
9206.00368271
9208.22415285
9210.82800848
9213.842069
9202.6929006
9202.74201513
9203.33055993
9204.27876989
9205.55872673
9207.18423201
9209.17265796
9211.54395996
9214.32139266
9217.5319325
9204.98774223
9205.05632443
9205.68071198
9206.68246853
9208.03353372
9209.7480298
9211.84367326
9214.34076271
9217.26300859
9220.63667795
9206.83668247
9206.9262572
9207.58090701
9208.62597395
9210.03397801
9211.81961316
9214.00099347
9216.59883617
9219.63613404
9223.14133194
9208.22317292
9208.34212617
9209.02211348
9210.09937573
9211.54935525
9213.38770647
9215.63292409
9218.3056181
9221.4297517
9209.10220534
9209.25182316
9209.94562129
9211.03922456
9212.513582
9214.38436519
9216.66990286
9219.39078056
9222.57038168
9209.34285357
9209.49869231
9210.17764743
9211.26412945
9212.7456472
9214.63171976
9216.93794257
9219.68351672
9222.89254642
)
;
    }
    sides
    {
        type            fixedFluxPressure;
        gradient        uniform 0;
        value           nonuniform List<scalar> 9(9209.34285357 9209.49869231 9210.17764743 9211.26412945 9212.7456472 9214.63171976 9216.93794257 9219.68351672 9222.89254642);
    }
    bottom
    {
        type            fixedFluxPressure;
        gradient        uniform 0;
        value           nonuniform List<scalar> 
13
(
9176.22795461
9180.90021404
9185.33691392
9189.49761687
9193.34531721
9196.84652884
9199.97129041
9202.6929006
9204.98774223
9206.83668247
9208.22317292
9209.10220534
9209.34285357
)
;
    }
    front
    {
        type            fixedFluxPressure;
        gradient        uniform 0;
        value           nonuniform List<scalar> 
167
(
9155.32000427
9154.97527119
9154.54704408
9154.03819373
9153.45167498
9152.79279884
9152.06902337
9151.2934742
9160.96735302
9160.86586113
9160.75472717
9160.60928833
9160.43467884
9160.23678063
9160.02222877
9159.80033909
9159.58379058
9159.38916907
9159.23739933
9166.11544862
9166.1057865
9166.1370577
9166.18409807
9166.25399475
9166.35514269
9166.49719503
9166.69283086
9166.958711
9167.31424088
9167.78541682
9171.16621989
9171.24485064
9171.41239028
9171.64341487
9171.94657562
9172.33236457
9172.81289146
9173.40362036
9174.12373619
9174.99656878
9176.22795461
9176.06995942
9176.23246835
9176.5291039
9176.93420261
9177.45770066
9178.11178143
9178.91056694
9179.87170062
9181.01654484
9182.36950822
9180.90021404
9180.7797584
9181.0210176
9181.43872015
9182.00688313
9182.7364647
9183.64103158
9184.73633646
9186.04192468
9187.5789085
9189.37689393
9185.33691392
9185.2515982
9185.56608191
9186.09616234
9186.81552167
9187.73593469
9188.8720796
9190.24115198
9191.86256462
9193.76170497
9189.49761687
9189.44482993
9189.82665849
9190.45992308
9191.31796889
9192.41320709
9193.76122162
9195.37980514
9197.29002614
9193.34531721
9193.32227256
9193.76530597
9194.49219136
9195.47593707
9196.72943643
9198.26892829
9200.11270043
9202.28322046
9196.84652884
9196.85033991
9197.3482684
9198.15895349
9199.25507078
9200.64987089
9202.36003351
9204.40467422
9206.80616296
9209.59150987
9199.97129041
9199.99908754
9200.54552217
9201.43001865
9202.62493606
9204.14380954
9206.00368271
9208.22415285
9210.82800848
9213.842069
9202.6929006
9202.74201513
9203.33055993
9204.27876989
9205.55872673
9207.18423201
9209.17265796
9211.54395996
9214.32139266
9217.5319325
9204.98774223
9205.05632443
9205.68071198
9206.68246853
9208.03353372
9209.7480298
9211.84367326
9214.34076271
9217.26300859
9220.63667795
9206.83668247
9206.9262572
9207.58090701
9208.62597395
9210.03397801
9211.81961316
9214.00099347
9216.59883617
9219.63613404
9223.14133194
9208.22317292
9208.34212617
9209.02211348
9210.09937573
9211.54935525
9213.38770647
9215.63292409
9218.3056181
9221.4297517
9209.10220534
9209.25182316
9209.94562129
9211.03922456
9212.513582
9214.38436519
9216.66990286
9219.39078056
9222.57038168
9209.34285357
9209.49869231
9210.17764743
9211.26412945
9212.7456472
9214.63171976
9216.93794257
9219.68351672
9222.89254642
)
;
    }
    atmosphere
    {
        type            totalPressure;
        rho             rho;
        psi             none;
        gamma           1;
        p0              nonuniform List<scalar> 0();
        value           nonuniform List<scalar> 0();
    }
    floatingObject
    {
        type            fixedFluxPressure;
        gradient        nonuniform List<scalar> 0();
        value           nonuniform List<scalar> 0();
    }
    procBoundary10to9
    {
        type            processor;
        value           nonuniform List<scalar> 
15
(
9149.88873661
9149.34024462
9148.65192896
9147.8230703
9146.85262006
9145.74053189
9144.48956739
9143.10390546
9155.77342469
9155.5776347
9155.5776347
9161.24808232
9166.35389544
9171.36364481
9171.36364481
)
;
    }
    procBoundary10to11
    {
        type            processor;
        value           nonuniform List<scalar> 
23
(
9150.47869927
9150.47869927
9159.15525482
9168.40327399
9176.04995123
9176.04995123
9183.96245948
9191.46526625
9195.96573823
9195.96573823
9199.51759918
9199.51759918
9204.80532865
9204.80532865
9212.78908933
9217.29705471
9221.20645228
9224.49451901
9227.14467467
9225.03273499
9225.03273499
9226.23718224
9226.59233429
)
;
    }
}


// ************************************************************************* //
