/*--------------------------------*- C++ -*----------------------------------*\
| =========                 |                                                 |
| \\      /  F ield         | OpenFOAM: The Open Source CFD Toolbox           |
|  \\    /   O peration     | Version:  v2012                                 |
|   \\  /    A nd           | Website:  www.openfoam.com                      |
|    \\/     M anipulation  |                                                 |
\*---------------------------------------------------------------------------*/
FoamFile
{
    version     2.0;
    format      ascii;
    class       volScalarField;
    location    "1.8";
    object      epsilon_0;
}
// * * * * * * * * * * * * * * * * * * * * * * * * * * * * * * * * * * * * * //

dimensions      [0 2 -3 0 0 0 0];


internalField   nonuniform List<scalar> 
164
(
0.00634858071897
0.00656312324029
0.00718794998626
0.00744347712227
0.00755484837899
0.00758556634726
0.00747561618641
0.00703706736402
0.00823785547262
0.00804170165555
0.00818689543246
0.00854915184502
0.00732280020927
0.00795018811429
0.00640349763214
0.0066043380101
0.00723287131065
0.0074947017684
0.00761919575965
0.0076900601638
0.00771979983935
0.00767954972188
0.00766290504939
0.00773876334127
0.00785702523916
0.00801568104479
0.0082384674015
0.00847539963756
0.00646501845968
0.00665600060121
0.00728769650827
0.00755263883922
0.00768194591838
0.0077654403289
0.00783575792304
0.0079026599436
0.00798600396518
0.0080886030581
0.00820529049236
0.00833369221448
0.0084746422608
0.00862486324183
0.00652967518906
0.00671486732063
0.0073489799042
0.0076141729588
0.00774314778876
0.00782696706316
0.00790131186189
0.00797987299194
0.00806995928682
0.00817040143958
0.00827806717527
0.00839118899914
0.00850987660978
0.00863539801983
0.00659436903868
0.00677715239428
0.00741288082023
0.00767605896826
0.00780188225639
0.00788197967058
0.00795204947786
0.00802556914082
0.00810777935228
0.0081984429805
0.00829554650859
0.00839755280804
0.008504362614
0.00861790559939
0.00665672815243
0.00683958921835
0.00747615949016
0.00773563740389
0.00785669723969
0.00793170966324
0.00799606800024
0.00806280239698
0.00813647378707
0.00821750593513
0.00830472120847
0.00839684987751
0.0084935056452
0.00859699008266
0.00671507425546
0.00689977672989
0.00753641799024
0.00779100776729
0.00790637028914
0.0079758294114
0.0080344415437
0.00809476655908
0.00816094208076
0.0082336448013
0.00831218524414
0.00839556817049
0.008483370041
0.00857858594969
0.00676839305595
0.0069561007392
0.00759208777572
0.0078409882091
0.00795019216496
0.00801404885005
0.00806722809025
0.00812178773159
0.00818152634722
0.00824718626669
0.00831839699904
0.00839450421336
0.00847541714965
0.00856501861769
0.00681623087314
0.00700765451414
0.00764227222626
0.00788498384532
0.00798790534479
0.00804634977083
0.00809453871703
0.00814398739573
0.00819819244088
0.00825788325839
0.00832291766392
0.00839304120353
0.00846897927504
0.00855592338884
0.00685844356216
0.00705394206772
0.00768654393714
0.00792280744424
0.00801955424459
0.00807293256304
0.00811662149617
0.00816157322989
0.00821099502231
0.00826557671608
0.00832535265673
0.0083904311897
0.00846236543241
0.00854895348412
0.0068950586673
0.0070947754927
0.00772480923894
0.00795453734149
0.00804538065547
0.0080941180647
0.00813380195103
0.00817480966482
0.00822006834376
0.00827023052261
0.00832547420876
0.00838620563568
0.00845497781402
0.00854336277995
0.00822560834185
0.0082718891136
0.00832314413263
0.00838006821232
0.00844667319228
0.00854001265845
0.0083717217004
0.00843633252244
0.00853524122809
0.00851898875666
)
;

boundaryField
{
    back
    {
        lowReCorrection 0;
        blending        stepwise;
        n               2;
        type            epsilonWallFunction;
        value           nonuniform List<scalar> 
164
(
0.00634858071897
0.00656312324029
0.00718794998626
0.00744347712227
0.00755484837899
0.00758556634726
0.00747561618641
0.00703706736402
0.00823785547262
0.00804170165555
0.00818689543246
0.00854915184502
0.00732280020927
0.00795018811429
0.00640349763214
0.0066043380101
0.00723287131065
0.0074947017684
0.00761919575965
0.0076900601638
0.00771979983935
0.00767954972188
0.00766290504939
0.00773876334127
0.00785702523916
0.00801568104479
0.0082384674015
0.00847539963756
0.00646501845968
0.00665600060121
0.00728769650827
0.00755263883922
0.00768194591838
0.0077654403289
0.00783575792304
0.0079026599436
0.00798600396518
0.0080886030581
0.00820529049236
0.00833369221448
0.0084746422608
0.00862486324183
0.00652967518906
0.00671486732063
0.0073489799042
0.0076141729588
0.00774314778876
0.00782696706316
0.00790131186189
0.00797987299194
0.00806995928682
0.00817040143958
0.00827806717527
0.00839118899914
0.00850987660978
0.00863539801983
0.00659436903868
0.00677715239428
0.00741288082023
0.00767605896826
0.00780188225639
0.00788197967058
0.00795204947786
0.00802556914082
0.00810777935228
0.0081984429805
0.00829554650859
0.00839755280804
0.008504362614
0.00861790559939
0.00665672815243
0.00683958921835
0.00747615949016
0.00773563740389
0.00785669723969
0.00793170966324
0.00799606800024
0.00806280239698
0.00813647378707
0.00821750593513
0.00830472120847
0.00839684987751
0.0084935056452
0.00859699008266
0.00671507425546
0.00689977672989
0.00753641799024
0.00779100776729
0.00790637028914
0.0079758294114
0.0080344415437
0.00809476655908
0.00816094208076
0.0082336448013
0.00831218524414
0.00839556817049
0.008483370041
0.00857858594969
0.00676839305595
0.0069561007392
0.00759208777572
0.0078409882091
0.00795019216496
0.00801404885005
0.00806722809025
0.00812178773159
0.00818152634722
0.00824718626669
0.00831839699904
0.00839450421336
0.00847541714965
0.00856501861769
0.00681623087314
0.00700765451414
0.00764227222626
0.00788498384532
0.00798790534479
0.00804634977083
0.00809453871703
0.00814398739573
0.00819819244088
0.00825788325839
0.00832291766392
0.00839304120353
0.00846897927504
0.00855592338884
0.00685844356216
0.00705394206772
0.00768654393714
0.00792280744424
0.00801955424459
0.00807293256304
0.00811662149617
0.00816157322989
0.00821099502231
0.00826557671608
0.00832535265673
0.0083904311897
0.00846236543241
0.00854895348412
0.0068950586673
0.0070947754927
0.00772480923894
0.00795453734149
0.00804538065547
0.0080941180647
0.00813380195103
0.00817480966482
0.00822006834376
0.00827023052261
0.00832547420876
0.00838620563568
0.00845497781402
0.00854336277995
0.00822560834185
0.0082718891136
0.00832314413263
0.00838006821232
0.00844667319228
0.00854001265845
0.0083717217004
0.00843633252244
0.00853524122809
0.00851898875666
)
;
    }
    sides
    {
        lowReCorrection 0;
        blending        stepwise;
        n               2;
        type            epsilonWallFunction;
        value           nonuniform List<scalar> 0();
    }
    bottom
    {
        lowReCorrection 0;
        blending        stepwise;
        n               2;
        type            epsilonWallFunction;
        value           nonuniform List<scalar> 
11
(
0.00634858071897
0.00640349763214
0.00646501845968
0.00652967518906
0.00659436903868
0.00665672815243
0.00671507425546
0.00676839305595
0.00681623087314
0.00685844356216
0.0068950586673
)
;
    }
    front
    {
        lowReCorrection 0;
        blending        stepwise;
        n               2;
        type            epsilonWallFunction;
        value           nonuniform List<scalar> 
164
(
0.00634858071897
0.00656312324029
0.00718794998626
0.00744347712227
0.00755484837899
0.00758556634726
0.00747561618641
0.00703706736402
0.00823785547262
0.00804170165555
0.00818689543246
0.00854915184502
0.00732280020927
0.00795018811429
0.00640349763214
0.0066043380101
0.00723287131065
0.0074947017684
0.00761919575965
0.0076900601638
0.00771979983935
0.00767954972188
0.00766290504939
0.00773876334127
0.00785702523916
0.00801568104479
0.0082384674015
0.00847539963756
0.00646501845968
0.00665600060121
0.00728769650827
0.00755263883922
0.00768194591838
0.0077654403289
0.00783575792304
0.0079026599436
0.00798600396518
0.0080886030581
0.00820529049236
0.00833369221448
0.0084746422608
0.00862486324183
0.00652967518906
0.00671486732063
0.0073489799042
0.0076141729588
0.00774314778876
0.00782696706316
0.00790131186189
0.00797987299194
0.00806995928682
0.00817040143958
0.00827806717527
0.00839118899914
0.00850987660978
0.00863539801983
0.00659436903868
0.00677715239428
0.00741288082023
0.00767605896826
0.00780188225639
0.00788197967058
0.00795204947786
0.00802556914082
0.00810777935228
0.0081984429805
0.00829554650859
0.00839755280804
0.008504362614
0.00861790559939
0.00665672815243
0.00683958921835
0.00747615949016
0.00773563740389
0.00785669723969
0.00793170966324
0.00799606800024
0.00806280239698
0.00813647378707
0.00821750593513
0.00830472120847
0.00839684987751
0.0084935056452
0.00859699008266
0.00671507425546
0.00689977672989
0.00753641799024
0.00779100776729
0.00790637028914
0.0079758294114
0.0080344415437
0.00809476655908
0.00816094208076
0.0082336448013
0.00831218524414
0.00839556817049
0.008483370041
0.00857858594969
0.00676839305595
0.0069561007392
0.00759208777572
0.0078409882091
0.00795019216496
0.00801404885005
0.00806722809025
0.00812178773159
0.00818152634722
0.00824718626669
0.00831839699904
0.00839450421336
0.00847541714965
0.00856501861769
0.00681623087314
0.00700765451414
0.00764227222626
0.00788498384532
0.00798790534479
0.00804634977083
0.00809453871703
0.00814398739573
0.00819819244088
0.00825788325839
0.00832291766392
0.00839304120353
0.00846897927504
0.00855592338884
0.00685844356216
0.00705394206772
0.00768654393714
0.00792280744424
0.00801955424459
0.00807293256304
0.00811662149617
0.00816157322989
0.00821099502231
0.00826557671608
0.00832535265673
0.0083904311897
0.00846236543241
0.00854895348412
0.0068950586673
0.0070947754927
0.00772480923894
0.00795453734149
0.00804538065547
0.0080941180647
0.00813380195103
0.00817480966482
0.00822006834376
0.00827023052261
0.00832547420876
0.00838620563568
0.00845497781402
0.00854336277995
0.00822560834185
0.0082718891136
0.00832314413263
0.00838006821232
0.00844667319228
0.00854001265845
0.0083717217004
0.00843633252244
0.00853524122809
0.00851898875666
)
;
    }
    atmosphere
    {
        type            inletOutlet;
        inletValue      nonuniform List<scalar> 0();
        value           nonuniform List<scalar> 0();
    }
    floatingObject
    {
        lowReCorrection 0;
        blending        stepwise;
        n               2;
        type            epsilonWallFunction;
        value           nonuniform List<scalar> 4(0.00823785547262 0.00804170165555 0.00818689543246 0.00854915184502);
    }
    procBoundary8to3
    {
        type            processor;
        value           nonuniform List<scalar> 8(0.00630445507562 0.00653526127859 0.00715655806912 0.00740251780478 0.00749057416837 0.00745457135138 0.0071099965274 0.00744903247493);
    }
    procBoundary8to6
    {
        type            processor;
        value           nonuniform List<scalar> 
16
(
0.00817094477694
0.00742199824459
0.00838382204321
0.00870081227133
0.00878665769057
0.00877776312023
0.00875021730014
0.00872174258724
0.00869909341182
0.00868673289626
0.00868270046129
0.00868729290434
0.00870371600788
0.00875574852031
0.0088224138012
0.008748028002
)
;
    }
    procBoundary8to7
    {
        type            processor;
        value           nonuniform List<scalar> 
17
(
0.00692631811042
0.00713017796739
0.00775715451528
0.00798044510691
0.00806575217871
0.00811029906732
0.00814644697033
0.00818399392624
0.00818399392624
0.00822783082759
0.00827066298815
0.00831829430371
0.00831829430371
0.00836115638071
0.00842296883098
0.00842296883098
0.0085127611254
)
;
    }
}


// ************************************************************************* //
