/*--------------------------------*- C++ -*----------------------------------*\
| =========                 |                                                 |
| \\      /  F ield         | OpenFOAM: The Open Source CFD Toolbox           |
|  \\    /   O peration     | Version:  v2012                                 |
|   \\  /    A nd           | Website:  www.openfoam.com                      |
|    \\/     M anipulation  |                                                 |
\*---------------------------------------------------------------------------*/
FoamFile
{
    version     2.0;
    format      ascii;
    class       volScalarField;
    location    "1.8";
    object      k;
}
// * * * * * * * * * * * * * * * * * * * * * * * * * * * * * * * * * * * * * //

dimensions      [0 2 -2 0 0 0 0];


internalField   nonuniform List<scalar> 
164
(
0.00690167406274
0.00855386037756
0.0090889972055
0.00930307707191
0.009395166071
0.00941952412702
0.00932613714964
0.00895425989436
0.00819292948694
0.00806353027341
0.00816206585994
0.00840335600787
0.00918739713159
0.00971682225603
0.00694071298331
0.0085892146063
0.00912638083868
0.00934525717545
0.00944808109757
0.00950585481705
0.00952889964456
0.00949386004901
0.00947322526826
0.00953682481781
0.00963409057119
0.00976372934105
0.00994581165617
0.0101378691949
0.00698441105382
0.00863342364866
0.00917192867619
0.0093928604664
0.00949947580778
0.00956775197537
0.0096247112224
0.00967825713537
0.00974502626686
0.00982776960998
0.0099217954529
0.0100248922082
0.010137751719
0.0102578404749
0.00703032477436
0.00868367747804
0.00922271170439
0.00944330909325
0.00954942702379
0.00961788995705
0.00967827028743
0.00974175921733
0.00981443700225
0.00989532666482
0.00998179022769
0.0100723099253
0.0101669687197
0.0102669871473
0.00707621698404
0.00873670523213
0.00927553473135
0.00949388978233
0.00959720929676
0.00966252246919
0.00971938196606
0.00977881421334
0.00984513753269
0.00991813518967
0.00999610979704
0.0100777749775
0.0101630483602
0.0102536441357
0.00712039461844
0.00878971991512
0.00932768830269
0.00954246123013
0.00964168421691
0.00970276628425
0.00975492997189
0.00980885064098
0.00986825532219
0.00993348414761
0.0100035470033
0.0100773863152
0.0101546983635
0.0102375577895
0.00716167071516
0.00884067681584
0.00937722291313
0.00958749193571
0.00968190257639
0.00973840992645
0.00978588398453
0.00983460694488
0.00988796103922
0.00994649377366
0.0100096313545
0.0100765592262
0.0101469783136
0.0102235717496
0.00719935477333
0.00888824612671
0.00942287888082
0.00962806139789
0.00971732585223
0.00976924730874
0.00981231217931
0.0098563842282
0.00990456388095
0.00995745435277
0.0100147510246
0.0100759245469
0.0101410284105
0.0102133332399
0.00723318517074
0.00893170892116
0.00946397431024
0.00966372114358
0.0097477851134
0.00979529372147
0.00983432336769
0.00987428273731
0.00991802550384
0.00996614719842
0.0100185335413
0.0100749868483
0.0101362491748
0.0102065838614
0.00726299433672
0.00897065748244
0.00950017923169
0.00969436366459
0.00977334222007
0.00981674155939
0.00985213841581
0.00988848705175
0.0099284026116
0.00997245229058
0.0100206682291
0.0100731547969
0.0101313165195
0.0102015946245
0.0072888751348
0.00900497865871
0.00953146582108
0.00972007851186
0.00979422658334
0.00983386441223
0.00986603880627
0.00989922188775
0.00993581138992
0.00997634657544
0.0100209839594
0.0100700856198
0.0101259788585
0.0101985926498
0.00994040929306
0.00997785800744
0.010019353899
0.0100655394928
0.0101201593838
0.0101991428139
0.0100591514763
0.0101125787193
0.0101995527026
0.0101819627963
)
;

boundaryField
{
    back
    {
        type            kqRWallFunction;
        value           nonuniform List<scalar> 
164
(
0.00690167406274
0.00855386037756
0.0090889972055
0.00930307707191
0.009395166071
0.00941952412702
0.00932613714964
0.00895425989436
0.00819292948694
0.00806353027341
0.00816206585994
0.00840335600787
0.00918739713159
0.00971682225603
0.00694071298331
0.0085892146063
0.00912638083868
0.00934525717545
0.00944808109757
0.00950585481705
0.00952889964456
0.00949386004901
0.00947322526826
0.00953682481781
0.00963409057119
0.00976372934105
0.00994581165617
0.0101378691949
0.00698441105382
0.00863342364866
0.00917192867619
0.0093928604664
0.00949947580778
0.00956775197537
0.0096247112224
0.00967825713537
0.00974502626686
0.00982776960998
0.0099217954529
0.0100248922082
0.010137751719
0.0102578404749
0.00703032477436
0.00868367747804
0.00922271170439
0.00944330909325
0.00954942702379
0.00961788995705
0.00967827028743
0.00974175921733
0.00981443700225
0.00989532666482
0.00998179022769
0.0100723099253
0.0101669687197
0.0102669871473
0.00707621698404
0.00873670523213
0.00927553473135
0.00949388978233
0.00959720929676
0.00966252246919
0.00971938196606
0.00977881421334
0.00984513753269
0.00991813518967
0.00999610979704
0.0100777749775
0.0101630483602
0.0102536441357
0.00712039461844
0.00878971991512
0.00932768830269
0.00954246123013
0.00964168421691
0.00970276628425
0.00975492997189
0.00980885064098
0.00986825532219
0.00993348414761
0.0100035470033
0.0100773863152
0.0101546983635
0.0102375577895
0.00716167071516
0.00884067681584
0.00937722291313
0.00958749193571
0.00968190257639
0.00973840992645
0.00978588398453
0.00983460694488
0.00988796103922
0.00994649377366
0.0100096313545
0.0100765592262
0.0101469783136
0.0102235717496
0.00719935477333
0.00888824612671
0.00942287888082
0.00962806139789
0.00971732585223
0.00976924730874
0.00981231217931
0.0098563842282
0.00990456388095
0.00995745435277
0.0100147510246
0.0100759245469
0.0101410284105
0.0102133332399
0.00723318517074
0.00893170892116
0.00946397431024
0.00966372114358
0.0097477851134
0.00979529372147
0.00983432336769
0.00987428273731
0.00991802550384
0.00996614719842
0.0100185335413
0.0100749868483
0.0101362491748
0.0102065838614
0.00726299433672
0.00897065748244
0.00950017923169
0.00969436366459
0.00977334222007
0.00981674155939
0.00985213841581
0.00988848705175
0.0099284026116
0.00997245229058
0.0100206682291
0.0100731547969
0.0101313165195
0.0102015946245
0.0072888751348
0.00900497865871
0.00953146582108
0.00972007851186
0.00979422658334
0.00983386441223
0.00986603880627
0.00989922188775
0.00993581138992
0.00997634657544
0.0100209839594
0.0100700856198
0.0101259788585
0.0101985926498
0.00994040929306
0.00997785800744
0.010019353899
0.0100655394928
0.0101201593838
0.0101991428139
0.0100591514763
0.0101125787193
0.0101995527026
0.0101819627963
)
;
    }
    sides
    {
        type            kqRWallFunction;
        value           nonuniform List<scalar> 0();
    }
    bottom
    {
        type            kqRWallFunction;
        value           nonuniform List<scalar> 
11
(
0.00690167406274
0.00694071298331
0.00698441105382
0.00703032477436
0.00707621698404
0.00712039461844
0.00716167071516
0.00719935477333
0.00723318517074
0.00726299433672
0.0072888751348
)
;
    }
    front
    {
        type            kqRWallFunction;
        value           nonuniform List<scalar> 
164
(
0.00690167406274
0.00855386037756
0.0090889972055
0.00930307707191
0.009395166071
0.00941952412702
0.00932613714964
0.00895425989436
0.00819292948694
0.00806353027341
0.00816206585994
0.00840335600787
0.00918739713159
0.00971682225603
0.00694071298331
0.0085892146063
0.00912638083868
0.00934525717545
0.00944808109757
0.00950585481705
0.00952889964456
0.00949386004901
0.00947322526826
0.00953682481781
0.00963409057119
0.00976372934105
0.00994581165617
0.0101378691949
0.00698441105382
0.00863342364866
0.00917192867619
0.0093928604664
0.00949947580778
0.00956775197537
0.0096247112224
0.00967825713537
0.00974502626686
0.00982776960998
0.0099217954529
0.0100248922082
0.010137751719
0.0102578404749
0.00703032477436
0.00868367747804
0.00922271170439
0.00944330909325
0.00954942702379
0.00961788995705
0.00967827028743
0.00974175921733
0.00981443700225
0.00989532666482
0.00998179022769
0.0100723099253
0.0101669687197
0.0102669871473
0.00707621698404
0.00873670523213
0.00927553473135
0.00949388978233
0.00959720929676
0.00966252246919
0.00971938196606
0.00977881421334
0.00984513753269
0.00991813518967
0.00999610979704
0.0100777749775
0.0101630483602
0.0102536441357
0.00712039461844
0.00878971991512
0.00932768830269
0.00954246123013
0.00964168421691
0.00970276628425
0.00975492997189
0.00980885064098
0.00986825532219
0.00993348414761
0.0100035470033
0.0100773863152
0.0101546983635
0.0102375577895
0.00716167071516
0.00884067681584
0.00937722291313
0.00958749193571
0.00968190257639
0.00973840992645
0.00978588398453
0.00983460694488
0.00988796103922
0.00994649377366
0.0100096313545
0.0100765592262
0.0101469783136
0.0102235717496
0.00719935477333
0.00888824612671
0.00942287888082
0.00962806139789
0.00971732585223
0.00976924730874
0.00981231217931
0.0098563842282
0.00990456388095
0.00995745435277
0.0100147510246
0.0100759245469
0.0101410284105
0.0102133332399
0.00723318517074
0.00893170892116
0.00946397431024
0.00966372114358
0.0097477851134
0.00979529372147
0.00983432336769
0.00987428273731
0.00991802550384
0.00996614719842
0.0100185335413
0.0100749868483
0.0101362491748
0.0102065838614
0.00726299433672
0.00897065748244
0.00950017923169
0.00969436366459
0.00977334222007
0.00981674155939
0.00985213841581
0.00988848705175
0.0099284026116
0.00997245229058
0.0100206682291
0.0100731547969
0.0101313165195
0.0102015946245
0.0072888751348
0.00900497865871
0.00953146582108
0.00972007851186
0.00979422658334
0.00983386441223
0.00986603880627
0.00989922188775
0.00993581138992
0.00997634657544
0.0100209839594
0.0100700856198
0.0101259788585
0.0101985926498
0.00994040929306
0.00997785800744
0.010019353899
0.0100655394928
0.0101201593838
0.0101991428139
0.0100591514763
0.0101125787193
0.0101995527026
0.0101819627963
)
;
    }
    atmosphere
    {
        type            inletOutlet;
        inletValue      nonuniform List<scalar> 0();
        value           nonuniform List<scalar> 0();
    }
    floatingObject
    {
        type            kqRWallFunction;
        value           nonuniform List<scalar> 4(0.00819292948694 0.00806353027341 0.00816206585994 0.00840335600787);
    }
    procBoundary8to3
    {
        type            processor;
        value           nonuniform List<scalar> 8(0.00687040209303 0.00852992175409 0.00906287907162 0.00926936694083 0.00934243044849 0.00931101857858 0.00901970293226 0.00767541719194);
    }
    procBoundary8to6
    {
        type            processor;
        value           nonuniform List<scalar> 
16
(
0.00815303477725
0.00928185133633
0.0100692651069
0.0103183909222
0.0103868868258
0.0103806327999
0.0103596178891
0.0103380512295
0.0103221528394
0.0103154962843
0.0103142268312
0.0103179609682
0.0103365574007
0.0103972888228
0.01048653658
0.0103814300852
)
;
    }
    procBoundary8to7
    {
        type            processor;
        value           nonuniform List<scalar> 
17
(
0.00731097965006
0.00903473053387
0.00955792907365
0.00974111197802
0.00981074172024
0.00984699364677
0.00987632226795
0.00990673164964
0.00990673164964
0.00994236136906
0.00997705484569
0.0100156705449
0.0100156705449
0.0100507021851
0.010101382168
0.010101382168
0.0101772649574
)
;
    }
}


// ************************************************************************* //
