/*--------------------------------*- C++ -*----------------------------------*\
| =========                 |                                                 |
| \\      /  F ield         | OpenFOAM: The Open Source CFD Toolbox           |
|  \\    /   O peration     | Version:  v2012                                 |
|   \\  /    A nd           | Website:  www.openfoam.com                      |
|    \\/     M anipulation  |                                                 |
\*---------------------------------------------------------------------------*/
FoamFile
{
    version     2.0;
    format      ascii;
    class       surfaceVectorField;
    location    "1.8";
    object      Uf;
}
// * * * * * * * * * * * * * * * * * * * * * * * * * * * * * * * * * * * * * //

dimensions      [0 1 -1 0 0 0 0];


internalField   nonuniform List<vector> 
300
(
(0.00152980288513 -0.000596166287684 1.11689115845e-21)
(0.00239950090043 0.000107173796754 2.72236486041e-21)
(0.000655381528573 -0.000809207576853 2.64729618379e-22)
(0.000927282817668 -0.00105396962795 -8.20559271247e-22)
(0.000514336977525 -0.000777265260247 3.74079259282e-21)
(0.000349454641613 -0.000541558359818 -1.21537976643e-22)
(0.000683768784557 -0.000637883569235 2.53906924758e-20)
(0.000395967561427 -0.000643922905006 3.7891290628e-21)
(0.00126571396028 -0.000497734559393 1.39492190102e-19)
(0.000593671375155 -0.000399135218525 2.64800232337e-20)
(0.000353939007824 -0.00051685968372 6.83974969328e-19)
(0.00151112779169 0.000306687201206 1.40333692043e-19)
(-0.000860795765393 -0.00227474169641 2.77069086242e-18)
(0.000126157618405 1.44028640664e-05 6.9457357453e-19)
(0.00437942136284 -0.00755733057508 1.06384679252e-17)
(0.0012515671115 -0.00128762224724 2.77432982175e-18)
(0.00583825941639 -0.0115447502204 2.04840231107e-17)
(0.00398755871399 -0.00348676622543 9.80833852465e-18)
(-0.00156700296528 -0.0107127083 1.84520208414e-17)
(-0.000831819845243 -0.00232301940441 1.44362029083e-17)
(-0.00797449654564 -0.00452206078363 1.68082248425e-17)
(-0.00619027810781 0.00160580090871 8.36539667072e-18)
(-0.000780474432127 0.00531054952993 1.74494423278e-17)
(-0.00983199565218 0.0066399015135 1.2408617842e-17)
(-0.00288047948783 0.0317788578669 1.12203485783e-17)
(-0.000239397175287 0.0222205572647 7.92917674147e-18)
(-0.019638914186 0.0386809435472 4.7156610018e-18)
(0.00185454246647 -0.000501205018473 7.84914430712e-22)
(0.0029006116023 0.000161199524982 4.30987266838e-21)
(0.000669567441329 -0.000638069044479 -1.20682686627e-21)
(0.001064037631 -0.000950761013232 -1.27412871184e-21)
(0.000275926160172 -0.000544335637073 -7.32015066588e-23)
(0.00025561029393 -0.000372875653263 -6.8194381002e-22)
(0.000293943739736 -0.000226666535855 4.87845982074e-21)
(7.8196238178e-05 -0.00045940423621 6.06352208958e-22)
(0.000636616278356 0.000244948710508 2.73215251746e-20)
(0.000121974813292 -4.64678830008e-06 5.41652283438e-21)
(0.00090382614985 0.00137114785797 1.50932297245e-19)
(0.000384883974164 0.000951664999996 2.63327122453e-20)
(0.00148525643122 0.00152595489101 6.9821253386e-19)
(-2.8638159901e-05 0.00174035326624 1.47129701403e-19)
(0.000644514338781 0.00162392156458 1.94420042124e-18)
(0.00115368390903 0.00295353934172 6.56446044895e-19)
(-0.00245464178972 0.00610564750313 3.76051832234e-18)
(-0.000493997551686 0.00535856861456 1.54023717113e-18)
(-0.00617155649918 0.00976744878054 4.34957873762e-18)
(-0.00449336087195 0.00944316281419 2.65302291405e-18)
(-0.0094386076846 0.0138199667513 3.96578967012e-18)
(-0.0102424288106 0.0126626354903 2.17352168435e-18)
(-0.00959944574657 0.0185551401181 2.88835225559e-18)
(-0.0145666310672 0.0160142980336 2.16651364076e-18)
(-0.0158024527016 0.0342328789772 1.42448916493e-18)
(-0.0159164219879 0.0244512825475 9.38195595932e-19)
(-0.028228664049 0.0344949299733 5.2944275706e-19)
(0.00213428160784 -0.000442571934091 2.25082952583e-21)
(0.00334306325737 0.000161509231888 5.35754187472e-21)
(0.000679904373982 -0.000547936111509 -7.49245655591e-22)
(0.00116926591196 -0.000938296525245 -1.07601446761e-21)
(5.45390086873e-05 -0.000437311882349 -2.39009440253e-24)
(0.000144849289405 -0.000377902862513 -1.89706694333e-22)
(-0.00016656592401 -3.19517925185e-05 1.14441522259e-21)
(-0.000327289603529 -0.000486965415879 5.42251937266e-22)
(-0.000192312934114 0.000689268897741 4.42770990503e-21)
(-0.000599346762781 -2.31000387196e-05 1.25945677917e-21)
(-0.000369922111065 0.00196040467858 2.25301164029e-20)
(-0.00088631023831 0.00078360474766 3.88709537838e-21)
(-2.3220949015e-05 0.00348755603455 1.05363212438e-19)
(-0.00155578541935 0.00186408366997 2.0964102627e-20)
(-5.12683268433e-05 0.00608245722014 2.52482794784e-19)
(-0.00144113258532 0.003859626295 9.41101212898e-20)
(-0.00297522815944 0.008972063058 4.32741762843e-19)
(-0.00338342653954 0.0066265599423 1.79199480647e-19)
(-0.00841361389277 0.0120983351507 4.76965860776e-19)
(-0.00761936056109 0.00959158639489 2.85189284094e-19)
(-0.0143619205625 0.0148500881438 3.74245654986e-19)
(-0.012993813497 0.0120487105699 2.21807863805e-19)
(-0.0193002522095 0.0185442074172 2.16356981107e-19)
(-0.0182602330963 0.0145029377822 1.69208193629e-19)
(-0.0268539743239 0.0261910314449 4.31491880594e-20)
(-0.0235625433484 0.0189472165449 5.38396711799e-20)
(-0.0334787163909 0.0238251976321 -1.03138523075e-21)
(0.00237936068336 -0.000484356414973 2.03069788128e-21)
(0.00382727306431 0.000111540739442 4.34962311514e-21)
(0.000640381460916 -0.000631719485404 -5.16475506353e-22)
(0.00131646775039 -0.00102757962541 -1.43371392582e-21)
(-0.000223036197011 -0.000567236807414 3.54935337336e-22)
(8.02058388174e-05 -0.000574237179356 -2.69825299815e-23)
(-0.000743116321469 -0.000329563683406 6.57293493844e-22)
(-0.00056511037087 -0.000799739257176 7.78531959986e-22)
(-0.0012417430735 0.000175306260284 7.18842252521e-22)
(-0.00110433630216 -0.000523427712959 6.86244836299e-22)
(-0.00197983594862 0.0010367297182 2.32108160254e-21)
(-0.00174780661281 -3.34394127902e-05 5.53009753795e-22)
(-0.00281272458879 0.00220173222329 9.71101147926e-21)
(-0.00272079365313 0.000719441802521 2.30282349744e-21)
(-0.00430646725723 0.00445303565482 2.08268071532e-20)
(-0.00369235596972 0.0021580248071 8.2733242769e-21)
(-0.00740379703834 0.00704711474994 3.16470018978e-20)
(-0.0059773280486 0.00419549253204 1.40284638474e-20)
(-0.0119456059045 0.00925832427771 3.00312871231e-20)
(-0.00983029170237 0.00626345020783 1.9996560819e-20)
(-0.0172951765958 0.0110737590075 1.67704024471e-20)
(-0.0148088728824 0.00789441199351 1.26485968171e-20)
(-0.0230611453809 0.0132457320712 6.69088370226e-21)
(-0.0204316804871 0.00931889223377 6.57051991403e-21)
(-0.0306936493702 0.0165971509019 9.65909788978e-21)
(-0.0269132363548 0.0113201022298 1.92645709065e-21)
(-0.0359612625573 0.0133542955863 7.11722412716e-21)
(0.00271842838255 -0.00058645679884 8.85211308034e-22)
(0.00441356407521 3.43617605555e-05 3.64738803272e-21)
(0.000714291770093 -0.000855351705209 -9.44220949453e-22)
(0.00158518456003 -0.00118793626869 -1.9898467574e-21)
(-0.00033069611277 -0.00095443699048 3.96614092669e-22)
(0.000179114776478 -0.000901754697831 -2.24858347861e-22)
(-0.00104103330131 -0.000887432382541 8.07483302441e-22)
(-0.00063227701878 -0.00128495490475 8.36531604747e-22)
(-0.00178280279694 -0.00064748656763 5.20412337573e-22)
(-0.00134441448987 -0.00125010655021 6.49303352667e-22)
(-0.00277194011494 -0.000171192539695 5.34751648693e-22)
(-0.00222418411866 -0.00109060972723 3.66215333084e-22)
(-0.00404611064491 0.000550332285474 8.65136295077e-22)
(-0.00344233199902 -0.000727784874414 6.39964937568e-22)
(-0.00594900487845 0.00185793491417 1.47498097109e-21)
(-0.00499988292058 1.18827190203e-05 6.35566925471e-22)
(-0.00902261069864 0.00335556705481 2.37802276855e-21)
(-0.00747478242569 0.00105522568894 1.18109487096e-21)
(-0.0132855673615 0.00462756576346 2.61387051292e-21)
(-0.0111020065512 0.00207154650263 1.81447975296e-21)
(-0.0184934229184 0.00558587144207 2.44871428402e-21)
(-0.0157667928635 0.00280121955089 1.49346127114e-21)
(-0.024615488729 0.00648933177676 1.80609330241e-21)
(-0.0213345943786 0.00325786265335 1.42453318209e-21)
(-0.0323841387108 0.00751950615235 -6.1541667197e-22)
(-0.0279426461053 0.00355398433674 4.84333885571e-22)
(-0.0365823572732 0.00410539230365 -1.12651838279e-21)
(0.00319368000781 -0.000712661407705 7.72329967286e-22)
(0.00512605212948 -5.3749945175e-05 4.14844221416e-21)
(0.000956165318626 -0.00112578389345 -1.27048415581e-21)
(0.00199812454173 -0.00138388403235 -1.47103764119e-21)
(-0.000228227641206 -0.0014033916323 2.15059164218e-22)
(0.000456542556723 -0.00131239609938 1.17819356261e-22)
(-0.00107256856124 -0.00159256488223 6.78351654973e-22)
(-0.00044326959184 -0.0018849954935 7.15794657383e-22)
(-0.00197205115005 -0.00165209772173 4.95106348178e-22)
(-0.00128501812732 -0.0021169468679 5.39813407264e-22)
(-0.00313824070311 -0.00157484406633 4.71428621959e-22)
(-0.00230152547041 -0.00230219994143 3.8403008462e-22)
(-0.00468898118981 -0.00134718626564 4.10395567962e-22)
(-0.00367000715318 -0.00236949367112 4.40409914323e-22)
(-0.00684339374315 -0.000870587320099 3.41680825342e-22)
(-0.00547640881667 -0.00227478600504 2.44346334131e-22)
(-0.00988820827466 -0.00033145430547 6.17551855367e-22)
(-0.00801373762811 -0.00208566054291 3.93345003469e-22)
(-0.0139113241074 2.47619850231e-05 6.94070511179e-22)
(-0.0114579347601 -0.00199861748787 6.08564194715e-22)
(-0.0188744891778 8.6470718675e-05 4.69280169207e-22)
(-0.0158281063718 -0.00217819076298 4.60444483555e-22)
(-0.0247839444379 -0.000133687540675 1.02773765245e-22)
(-0.021113866882 -0.00265627679608 2.8485037851e-22)
(-0.0322843890042 -0.000759219894175 -2.67678252542e-23)
(-0.0273163061629 -0.00394054922003 -7.02601995003e-23)
(-0.0359781393998 -0.00408561869256 -3.36303847833e-22)
(0.00382562235765 -0.00085288624553 1.90507460568e-21)
(0.00597877102049 -0.000145641939566 3.79065432989e-21)
(0.0013851930419 -0.00144625489453 -8.27341291185e-23)
(0.00259132007028 -0.00159170617624 -1.11010485522e-21)
(0.00010678815756 -0.00192970464495 6.18554849426e-22)
(0.000939821561023 -0.00175731021411 3.61690697292e-22)
(-0.000811987045878 -0.00236558107583 5.77256409674e-22)
(-7.55161475299e-06 -0.00253934109702 6.36236213587e-22)
(-0.00179849100231 -0.0027519847782 4.28737143706e-22)
(-0.000898746085815 -0.00305509150235 4.45963084427e-22)
(-0.00305411497028 -0.0030740316248 3.53011376984e-22)
(-0.00197956428206 -0.00358351052419 3.22414132979e-22)
(-0.00471144467976 -0.00334444646964 2.74360680492e-22)
(-0.00339961012943 -0.00407992206115 2.90257173785e-22)
(-0.00692450886222 -0.00354891746082 2.96010512257e-22)
(-0.00527186691511 -0.00456056592618 1.93488690638e-22)
(-0.00986361863761 -0.00380488096642 3.84357342817e-22)
(-0.00775759848529 -0.00509557965842 3.46406761576e-22)
(-0.013620434289 -0.00429067989931 3.74938167091e-22)
(-0.01097184795 -0.00581841715117 3.70800373871e-22)
(-0.0182356307475 -0.00513612299708 2.76014692859e-22)
(-0.0149822639639 -0.00686104712306 2.40855467904e-22)
(-0.0237303208701 -0.00638462005889 1.11816413765e-22)
(-0.019864783086 -0.00824199304781 7.1678586125e-23)
(-0.0306908746316 -0.00806059461119 -3.79796222079e-22)
(-0.0256394865697 -0.0109799528729 -6.76986295487e-23)
(-0.0331897559601 -0.0117345607423 -1.44406527347e-21)
(0.00466638530783 -0.000992969940125 7.75474868985e-22)
(0.00697159276199 -0.000249269040474 1.92087260202e-21)
(0.00204492058092 -0.00178148128766 -6.65680028812e-22)
(0.00337968041239 -0.00180924808599 -2.07653693491e-21)
(0.000694440429642 -0.00248557606054 3.79372061452e-22)
(0.00164376625628 -0.00221946562208 -3.08811194648e-22)
(-0.000258630715028 -0.00318315238368 5.0494288834e-22)
(0.000689883165508 -0.00321121184768 4.19303259092e-22)
(-0.00126522840149 -0.00387569044478 3.396400737e-22)
(-0.000206327856834 -0.00400188294825 3.47279168143e-22)
(-0.00252883965558 -0.00458327985062 2.5965992978e-22)
(-0.00127205454166 -0.0048592526341 2.26017697801e-22)
(-0.00417528871152 -0.00532571026977 2.09385183931e-22)
(-0.00265719739006 -0.00576078136232 2.07630962361e-22)
(-0.00631787455292 -0.00614187548314 2.43884939957e-22)
(-0.00445563569721 -0.00674884483703 1.34656304445e-22)
(-0.00906626933145 -0.00712694754311 3.3284979263e-22)
(-0.00677235889403 -0.00789493341785 2.3792097245e-22)
(-0.0125008931064 -0.00840270371319 2.36717674684e-22)
(-0.00969581258617 -0.00930841062768 2.30330212953e-22)
(-0.0166867302569 -0.0100928058323 3.65193611703e-23)
(-0.0132917683338 -0.0111136561673 4.25601604617e-23)
(-0.0216866256627 -0.0123349376297 -1.07836457188e-22)
(-0.017622058555 -0.0133503135481 -4.57019916389e-23)
(-0.0276919373865 -0.0151688985048 -1.13196768094e-21)
(-0.0228046592694 -0.017099235857 -1.3242066288e-22)
(-0.0287405819693 -0.0187326922373 -1.40534352551e-21)
(0.00564580808296 -0.00116241824841 -9.31139201877e-22)
(0.00813389194267 -0.000352453835379 4.52664457328e-22)
(0.00289579699545 -0.00213038726383 -1.71966810074e-21)
(0.00434752715624 -0.00201323226238 -2.577160712e-21)
(0.00151542639624 -0.00306410400087 -2.68879997009e-22)
(0.00257735596085 -0.00266860086527 -6.29379015965e-22)
(0.000574654917671 -0.00399229042541 2.61639538895e-22)
(0.00161794177348 -0.00386224619964 2.76882739779e-22)
(-0.000395266425768 -0.00497582352671 2.33656792244e-22)
(0.000777087788629 -0.00490766998256 2.96188808477e-22)
(-0.00159507983199 -0.00603100361153 1.73988730382e-22)
(-0.000216962721824 -0.00606423383361 1.91823577136e-22)
(-0.00313799159144 -0.00719521509607 1.32902082874e-22)
(-0.00149302102277 -0.00732821391293 1.72550221402e-22)
(-0.00510889618709 -0.00852367842075 1.28692336937e-22)
(-0.00312712773189 -0.00875196181118 1.26157386277e-22)
(-0.00758710621002 -0.0101010735155 1.35401392773e-22)
(-0.0051948152047 -0.0104109449734 1.66551285492e-22)
(-0.010638668916 -0.012037770062 3.61726987306e-23)
(-0.00775885774321 -0.0124033570045 1.17169482034e-22)
(-0.0143244084035 -0.014453053681 -3.96611923475e-23)
(-0.0108761108657 -0.014843908865 2.13645232231e-23)
(-0.0187037581746 -0.017471049858 -7.028619733e-23)
(-0.0146034818851 -0.0177909796939 5.2479396504e-23)
(-0.0236061445785 -0.0213067835014 -4.05796507451e-22)
(-0.0189680640172 -0.0220014724152 5.55170497261e-22)
(-0.0233404402489 -0.0243235512004 -2.86255930746e-22)
(0.00674354005172 -0.00129395501945 -1.1933570528e-21)
(0.0094277607756 -0.000441491915346 2.03698953517e-22)
(0.00391546610826 -0.0024411053553 -1.48687162722e-21)
(0.00549458021317 -0.00218411868828 -1.45927154224e-21)
(0.00255212692369 -0.00355726905513 -8.36162791774e-23)
(0.0036934055903 -0.003070288031 -1.59151535881e-22)
(0.00167805207865 -0.00474476514339 3.11432009361e-22)
(0.00280530821222 -0.00444479517237 3.7981728582e-22)
(0.000788014236488 -0.00598533425805 2.54355593369e-22)
(0.00201752348664 -0.00573375725247 3.07213197721e-22)
(-0.000299895322674 -0.00735139239994 1.90385068156e-22)
(0.00114898006192 -0.00715414060297 1.88256314553e-22)
(-0.00167427031078 -0.00887561140606 1.65805524805e-22)
(3.11322120792e-05 -0.00872114671681 1.55833073014e-22)
(-0.00339941635248 -0.0106254680572 1.64016334832e-22)
(-0.00137725381336 -0.0105012346814 1.04763270294e-22)
(-0.00554112609631 -0.0127036119613 1.48319374754e-22)
(-0.00311655986802 -0.0125813220967 1.50238263536e-22)
(-0.00815917563605 -0.0151883573622 1.02361306527e-22)
(-0.00527388530185 -0.0150546997516 1.36529043657e-22)
(-0.011324921238 -0.0181826654479 1.13505112075e-22)
(-0.0078814516224 -0.0180392544986 -1.3529248991e-23)
(-0.0150666191535 -0.0217127421761 6.77936091095e-22)
(-0.0110728584225 -0.0215674514878 -8.24637239516e-24)
(-0.0193971731103 -0.0259391491885 6.74711073966e-22)
(-0.014740838799 -0.0262512363178 -3.51880618441e-22)
(-0.0196089073198 -0.0293049344431 -1.63138824017e-21)
(0.00803922737803 -0.00141215218102 -6.22155359269e-23)
(0.00515608527111 -0.00269919154169 -1.31551450899e-22)
(0.0038160496625 -0.00402935108919 3.04282029116e-22)
(0.0030123203878 -0.00540636307818 3.75598474179e-22)
(0.00223365225527 -0.00689463757152 2.41113918904e-22)
(0.001304415662 -0.00850689029234 1.5370431941e-22)
(0.000144096891343 -0.0103258402411 9.47908185024e-23)
(-0.00128329993441 -0.012414538983 9.09851989975e-23)
(-0.00302153789842 -0.0148685661454 1.38447932439e-22)
(-0.00066245771513 -0.0143415425531 9.7686166802e-23)
(-0.00513377439831 -0.0178368682701 2.06384881392e-23)
(-0.00230538064387 -0.017194256359 1.04293618059e-22)
(-0.00771976919399 -0.0214139385166 -1.35280733461e-22)
(-0.00430406087454 -0.0206493105696 -1.046491201e-23)
(-0.0108764161964 -0.0256918968334 -1.03806308193e-21)
(-0.00679439026024 -0.0247663533797 -1.59736618632e-22)
(-0.0152074496887 -0.0305217354406 -2.65797993258e-21)
(-0.00991023150185 -0.0304715554559 -7.67218597493e-22)
(-0.0149749298415 -0.0352340334554 -2.84759124362e-21)
(-0.000120853916229 -0.0165726736969 6.35318524222e-23)
(-0.00161753496638 -0.0198845085651 7.31902179099e-23)
(-0.00340981330256 -0.0239780873878 -3.49207971816e-23)
(-0.00565009276137 -0.029161414044 1.11107865806e-22)
(-0.00161056842907 -0.0270600328053 -2.4197593831e-22)
(-0.00900932660538 -0.0356662837877 -9.56829908535e-22)
(-0.00340466820507 -0.0337629970237 1.87189339783e-22)
(-0.00604068502725 -0.041156862654 -8.57621267623e-22)
(0.00111443536785 -0.0310534680792 -1.65894464333e-22)
(0.0013574717795 -0.0390643066956 2.86397980695e-22)
(0.0071047258158 -0.0402447279326 1.18054606708e-22)
)
;

boundaryField
{
    back
    {
        type            calculated;
        value           uniform (0 0 0);
    }
    sides
    {
        type            calculated;
        value           nonuniform List<vector> 0();
    }
    bottom
    {
        type            calculated;
        value           uniform (0 0 0);
    }
    front
    {
        type            calculated;
        value           uniform (0 0 0);
    }
    atmosphere
    {
        type            calculated;
        value           nonuniform List<vector> 0();
    }
    floatingObject
    {
        type            calculated;
        value           nonuniform List<vector> 4((0 -3.80647894157e-15 4.75809867697e-16) (0 -3.80647894157e-15 4.75809867697e-16) (0 0 0) (0 -7.61295788314e-15 4.75809867697e-16));
    }
    procBoundary8to3
    {
        type            processor;
        value           nonuniform List<vector> 8((0.00180345231685 -3.37977536611e-05 3.11175949137e-21) (0.000714373913181 -0.00126631524752 1.96000995769e-21) (0.000381530072949 -0.000897056463915 2.4546701159e-21) (0.000535471362083 -0.00100351192135 1.51000960581e-20) (0.00073391601349 -0.00131784140397 9.81660522769e-20) (0.00149205430444 -0.000261092887917 5.18478983356e-19) (-0.00163174100914 -0.00226411958935 2.12757277044e-18) (-0.00403109923735 -0.000116439292007 6.97630180136e-18));
    }
    procBoundary8to6
    {
        type            processor;
        value           nonuniform List<vector> 
16
(
(0.0262276913503 0.0183143240856 1.23671203577e-17)
(-0.0113100197487 0.0270301030024 8.32327602397e-18)
(-0.0261203855598 0.040109009159 6.12032346525e-18)
(-0.031251687598 0.042823403905 9.09202077709e-19)
(-0.0392733103587 0.0314418585659 -4.6223469668e-20)
(-0.0412858139885 0.0190805033197 1.84405067541e-20)
(-0.0418562739603 0.00814145718864 -2.27028613638e-21)
(-0.040576367795 -0.00136252502859 -1.11305148126e-21)
(-0.0384057951881 -0.0108480144578 -1.02441683368e-21)
(-0.0346563957265 -0.0196170763168 -5.24290877113e-21)
(-0.0291184983654 -0.0267059312252 -6.48290835776e-21)
(-0.0244282048201 -0.0296697361208 2.95212085603e-21)
(-0.0211425122597 -0.0351548566398 -9.58282446646e-21)
(-0.0148883138688 -0.0445997311154 -2.93961071187e-21)
(0.00208885610372 -0.0522090188995 1.09788339854e-21)
(0.0142230813475 -0.0400881317912 5.49823566734e-22)
)
;
    }
    procBoundary8to7
    {
        type            processor;
        value           nonuniform List<vector> 
17
(
(0.0108398538774 -0.000520967772131 -3.53375589323e-23)
(0.00678154298167 -0.00232607731626 -1.15292901191e-21)
(0.00502346305931 -0.00342851139037 -5.26791976742e-23)
(0.00418219268151 -0.00495855469009 3.12558163921e-22)
(0.00350565594491 -0.00644965219203 2.33049008496e-22)
(0.00276110069649 -0.00808282491877 1.26815306076e-22)
(0.00184998962609 -0.00989527416288 9.84781885611e-23)
(0.000711419853449 -0.0119468542553 4.9501995052e-23)
(0.00115876271008 -0.0138194874233 5.62029628566e-23)
(0.00209072872041 -0.0156378389641 3.8430728737e-23)
(0.00100664105518 -0.018713271245 2.10332204543e-23)
(-0.000210185717652 -0.0224590515349 7.1309965425e-24)
(0.00155714323444 -0.0254192296067 -1.99924144585e-22)
(0.00402425436162 -0.0275299308324 -2.88721280842e-22)
(0.00460680686446 -0.0334797563352 -7.58942052757e-22)
(0.00951385174286 -0.0346191000778 -9.27285426744e-22)
(0.012574631113 -0.035527264645 -2.01291931898e-22)
)
;
    }
}


// ************************************************************************* //
