/*--------------------------------*- C++ -*----------------------------------*\
| =========                 |                                                 |
| \\      /  F ield         | OpenFOAM: The Open Source CFD Toolbox           |
|  \\    /   O peration     | Version:  v2012                                 |
|   \\  /    A nd           | Website:  www.openfoam.com                      |
|    \\/     M anipulation  |                                                 |
\*---------------------------------------------------------------------------*/
FoamFile
{
    version     2.0;
    format      ascii;
    class       volScalarField;
    location    "5.8";
    object      ddt0(k);
}
// * * * * * * * * * * * * * * * * * * * * * * * * * * * * * * * * * * * * * //

dimensions      [0 2 -3 0 0 0 0];


internalField   nonuniform List<scalar> 
164
(
-0.000494115853091
-0.000495268041618
-0.000495848104862
-0.000493667525212
-0.000479255445471
-0.000419074302962
-0.000234094807646
0.000220072144544
0.00224656686367
0.0134367055288
0.0353150307519
0.0104043343546
-0.00049530325598
-0.000496518481308
-0.000497162586636
-0.000495113935938
-0.000481151200561
-0.000423014477285
-0.000252375466735
0.000108768163979
0.00181734035459
0.0141765698663
0.0421649819643
0.018614392945
-0.000498400806207
-0.000496556389545
-0.000483265024384
-0.000426913613364
-0.00025592283245
0.000132222427452
0.00183899571747
0.0120737634496
0.0333844332696
0.0125903359342
-0.000499430733727
-0.000497926084086
-0.000485738041103
-0.000432528855438
-0.000262675877259
0.000176665529881
0.00200401414207
0.00958444323383
0.0184724842883
0.00427172420544
-0.000500268740735
-0.000499214342268
-0.000488628664142
-0.000440778369657
-0.000280544260768
0.00015887839451
0.00192946561897
0.00798207323267
0.0123560495791
0.00179890269613
-0.000500877640822
-0.00050029576338
-0.000491668807694
-0.000450985064469
-0.000309569688665
8.73963131404e-05
0.00168153993318
0.00713801619359
0.0131484875531
0.00251604729272
-0.000501192009922
-0.000501004330845
-0.000494146939176
-0.000460515720332
-0.000343397542947
-2.96072746664e-05
0.00134311005519
0.00729676812766
0.0157356204821
0.00320117465777
-0.000501181510017
-0.000501215264932
-0.000495780268686
-0.000468972716074
-0.000380937149206
-0.000189312985643
0.000911629800649
0.00784781050809
0.0192004673603
0.00443304656361
-0.000500951729733
-0.000501164304191
-0.000496789560172
-0.000475587977728
-0.000417747473204
-0.000352701989606
0.000376168247296
0.00817136950939
0.0264049462819
0.00731990015139
-0.000500648743739
-0.000501120819556
-0.000497994352947
-0.000482914277298
-0.000449858148628
-0.000474697513211
-0.000118089667906
0.00674536497199
0.0307063274327
0.0113539017102
-0.000500338729747
-0.000501384451874
-0.000500212462983
-0.000491825376679
-0.000479706927795
-0.000548806288668
-0.000387294363778
0.00466002385205
0.0256405674001
0.0126301255924
-0.000500096711187
-0.000502169292047
-0.000503950713042
-0.000503605898748
-0.00051205530404
-0.000610069739646
-0.000462761075058
0.00360831159683
0.0141538012745
0.00635083526251
-0.000499929712904
-0.000503368381578
-0.000508744326193
-0.000518027460922
-0.00054867255174
-0.000688626585111
-0.000609487891385
0.00362905256265
0.0166288711472
0.00348945754038
-0.000499790892451
-0.000504711995254
-0.0005138889432
-0.000533483931483
-0.00059000842656
-0.000787693913589
-0.000956989383056
0.00264489111373
0.0173650085818
0.00277831974508
-0.000499601057888
-0.000505867258385
-0.000518619145726
-0.000548462280271
-0.000632265039805
-0.000893062303652
-0.0012574202424
0.001069753414
0.0157152946406
0.00751123409812
-0.000499189498544
-0.000506282821474
-0.000520245895491
-0.000554863242338
-0.000655945967499
-0.000968244631985
-0.00156030739221
-2.72830007821e-05
0.0207520671721
0.0710473408319
)
;

boundaryField
{
    back
    {
        type            calculated;
        value           nonuniform List<scalar> 
164
(
-0.000494115853091
-0.000495268041618
-0.000495848104862
-0.000493667525212
-0.000479255445471
-0.000419074302962
-0.000234094807646
0.000220072144544
0.00224656686367
0.0134367055288
0.0353150307519
0.0104043343546
-0.00049530325598
-0.000496518481308
-0.000497162586636
-0.000495113935938
-0.000481151200561
-0.000423014477285
-0.000252375466735
0.000108768163979
0.00181734035459
0.0141765698663
0.0421649819643
0.018614392945
-0.000498400806207
-0.000496556389545
-0.000483265024384
-0.000426913613364
-0.00025592283245
0.000132222427452
0.00183899571747
0.0120737634496
0.0333844332696
0.0125903359342
-0.000499430733727
-0.000497926084086
-0.000485738041103
-0.000432528855438
-0.000262675877259
0.000176665529881
0.00200401414207
0.00958444323383
0.0184724842883
0.00427172420544
-0.000500268740735
-0.000499214342268
-0.000488628664142
-0.000440778369657
-0.000280544260768
0.00015887839451
0.00192946561897
0.00798207323267
0.0123560495791
0.00179890269614
-0.000500877640822
-0.00050029576338
-0.000491668807694
-0.000450985064469
-0.000309569688665
8.73963131404e-05
0.00168153993318
0.00713801619359
0.0131484875531
0.00251604729272
-0.000501192009922
-0.000501004330845
-0.000494146939176
-0.000460515720332
-0.000343397542947
-2.96072746664e-05
0.00134311005519
0.00729676812766
0.0157356204821
0.00320117465777
-0.000501181510017
-0.000501215264932
-0.000495780268686
-0.000468972716074
-0.000380937149206
-0.000189312985643
0.000911629800649
0.00784781050809
0.0192004673603
0.00443304656361
-0.000500951729733
-0.000501164304191
-0.000496789560172
-0.000475587977728
-0.000417747473204
-0.000352701989606
0.000376168247296
0.00817136950939
0.0264049462819
0.00731990015139
-0.000500648743739
-0.000501120819556
-0.000497994352947
-0.000482914277298
-0.000449858148628
-0.000474697513211
-0.000118089667906
0.00674536497199
0.0307063274327
0.0113539017102
-0.000500338729747
-0.000501384451874
-0.000500212462983
-0.000491825376679
-0.000479706927795
-0.000548806288668
-0.000387294363778
0.00466002385205
0.0256405674001
0.0126301255924
-0.000500096711187
-0.000502169292047
-0.000503950713042
-0.000503605898748
-0.00051205530404
-0.000610069739646
-0.000462761075058
0.00360831159683
0.0141538012745
0.00635083526251
-0.000499929712904
-0.000503368381578
-0.000508744326193
-0.000518027460922
-0.00054867255174
-0.000688626585111
-0.000609487891385
0.00362905256265
0.0166288711472
0.00348945754039
-0.000499790892451
-0.000504711995254
-0.0005138889432
-0.000533483931483
-0.00059000842656
-0.000787693913589
-0.000956989383056
0.00264489111373
0.0173650085818
0.00277831974508
-0.000499601057888
-0.000505867258385
-0.000518619145726
-0.000548462280271
-0.000632265039805
-0.000893062303652
-0.0012574202424
0.001069753414
0.0157152946406
0.00751123409812
-0.000499189498544
-0.000506282821474
-0.000520245895491
-0.000554863242338
-0.000655945967499
-0.000968244631985
-0.00156030739221
-2.7283000782e-05
0.0207520671721
0.0710473408319
)
;
    }
    sides
    {
        type            calculated;
        value           nonuniform List<scalar> 0();
    }
    bottom
    {
        type            calculated;
        value           nonuniform List<scalar> 0();
    }
    front
    {
        type            calculated;
        value           nonuniform List<scalar> 
164
(
-0.000494115853091
-0.000495268041618
-0.000495848104862
-0.000493667525212
-0.000479255445471
-0.000419074302962
-0.000234094807646
0.000220072144544
0.00224656686367
0.0134367055288
0.0353150307519
0.0104043343546
-0.00049530325598
-0.000496518481308
-0.000497162586636
-0.000495113935938
-0.000481151200561
-0.000423014477285
-0.000252375466735
0.000108768163979
0.00181734035459
0.0141765698663
0.0421649819643
0.018614392945
-0.000498400806207
-0.000496556389545
-0.000483265024384
-0.000426913613364
-0.00025592283245
0.000132222427452
0.00183899571747
0.0120737634496
0.0333844332696
0.0125903359342
-0.000499430733727
-0.000497926084086
-0.000485738041103
-0.000432528855438
-0.000262675877259
0.000176665529881
0.00200401414207
0.00958444323383
0.0184724842883
0.00427172420544
-0.000500268740735
-0.000499214342268
-0.000488628664142
-0.000440778369657
-0.000280544260768
0.00015887839451
0.00192946561897
0.00798207323267
0.0123560495791
0.00179890269614
-0.000500877640822
-0.00050029576338
-0.000491668807694
-0.000450985064469
-0.000309569688665
8.73963131404e-05
0.00168153993318
0.00713801619359
0.0131484875531
0.00251604729272
-0.000501192009922
-0.000501004330845
-0.000494146939176
-0.000460515720332
-0.000343397542947
-2.96072746664e-05
0.00134311005519
0.00729676812766
0.0157356204821
0.00320117465777
-0.000501181510017
-0.000501215264932
-0.000495780268686
-0.000468972716074
-0.000380937149206
-0.000189312985643
0.000911629800649
0.00784781050809
0.0192004673603
0.00443304656361
-0.000500951729733
-0.000501164304191
-0.000496789560172
-0.000475587977728
-0.000417747473204
-0.000352701989606
0.000376168247296
0.00817136950939
0.0264049462819
0.00731990015139
-0.000500648743739
-0.000501120819556
-0.000497994352947
-0.000482914277298
-0.000449858148628
-0.000474697513211
-0.000118089667906
0.00674536497199
0.0307063274327
0.0113539017102
-0.000500338729747
-0.000501384451874
-0.000500212462983
-0.000491825376679
-0.000479706927795
-0.000548806288668
-0.000387294363778
0.00466002385205
0.0256405674001
0.0126301255924
-0.000500096711187
-0.000502169292047
-0.000503950713042
-0.000503605898748
-0.00051205530404
-0.000610069739646
-0.000462761075058
0.00360831159683
0.0141538012745
0.00635083526251
-0.000499929712904
-0.000503368381578
-0.000508744326193
-0.000518027460922
-0.00054867255174
-0.000688626585111
-0.000609487891385
0.00362905256265
0.0166288711472
0.00348945754039
-0.000499790892451
-0.000504711995254
-0.0005138889432
-0.000533483931483
-0.00059000842656
-0.000787693913589
-0.000956989383056
0.00264489111373
0.0173650085818
0.00277831974508
-0.000499601057888
-0.000505867258385
-0.000518619145726
-0.000548462280271
-0.000632265039805
-0.000893062303652
-0.0012574202424
0.001069753414
0.0157152946406
0.00751123409812
-0.000499189498544
-0.000506282821474
-0.000520245895491
-0.000554863242338
-0.000655945967499
-0.000968244631985
-0.00156030739221
-2.7283000782e-05
0.0207520671721
0.0710473408319
)
;
    }
    atmosphere
    {
        type            calculated;
        value           nonuniform List<scalar> 
16
(
-0.000227844547519
-0.00531900529525
0.00243380884389
7.75770232139e-09
-1.55714369122e-08
-1.60904115181e-08
-2.47777144468e-06
3.40193825171e-05
-0.0002841148482
-0.00115891096621
-0.00755813860098
-0.00313879397159
-0.00450604036633
-0.00668975012022
0.0131084062894
-0.200431524132
)
;
    }
    floatingObject
    {
        type            calculated;
        value           nonuniform List<scalar> 0();
    }
    procBoundary5to0
    {
        type            processor;
        value           nonuniform List<scalar> 
12
(
-0.000492757378697
-0.000493870983143
-0.000494425378418
-0.00049223286689
-0.000477888075301
-0.000417297616028
-0.00022144502626
0.000327160904482
0.00269132391987
0.0126743192976
0.0242869756769
0.00396686359036
)
;
    }
    procBoundary5to3
    {
        type            processor;
        value           nonuniform List<scalar> 10(-0.00049832468467 -0.000505449239025 -0.000519199457387 -0.00055480888331 -0.00066706368277 -0.00101439004148 -0.00171233555586 -0.000831254715927 0.0299780008159 0.122769485175);
    }
    procBoundary5to4
    {
        type            processor;
        value           nonuniform List<scalar> 
18
(
-0.000492887503978
-0.000494012485184
-0.000496311882356
-0.000497636705027
-0.000497636705027
-0.000498502991354
-0.000499165307935
-0.000499630233425
-0.000499828903976
-0.000499747668012
-0.000499476028293
-0.000499062101798
-0.000498514071368
-0.000497858143415
-0.000497133918773
-0.000496345208049
-0.000495470017545
-0.000494509488972
)
;
    }
}


// ************************************************************************* //
