/*--------------------------------*- C++ -*----------------------------------*\
| =========                 |                                                 |
| \\      /  F ield         | OpenFOAM: The Open Source CFD Toolbox           |
|  \\    /   O peration     | Version:  v2012                                 |
|   \\  /    A nd           | Website:  www.openfoam.com                      |
|    \\/     M anipulation  |                                                 |
\*---------------------------------------------------------------------------*/
FoamFile
{
    version     2.0;
    format      ascii;
    class       volVectorField;
    location    "5.8";
    object      ddt0(rho,U);
}
// * * * * * * * * * * * * * * * * * * * * * * * * * * * * * * * * * * * * * //

dimensions      [1 -2 -2 0 0 0 0];


internalField   nonuniform List<vector> 
164
(
(-163.967295772 6.10129063592 -2.39927628143e-20)
(-168.931207734 6.53067398146 9.56835434413e-21)
(-174.312055771 6.81630836395 2.15144955733e-20)
(-180.027167308 6.91196295049 -3.36560564052e-20)
(-185.933380607 6.75267010965 -6.25155608534e-20)
(-191.880172775 6.35676634006 -4.10513407582e-20)
(-197.697362897 5.84688746193 2.24166421409e-19)
(-203.849221336 3.87347610435 -5.4349725672e-19)
(-212.104737966 0.090150863845 -3.16563368649e-18)
(-158.153540904 0.7858457739 2.73287973867e-18)
(10.5610014046 5.58420376328 2.80417331953e-19)
(-0.0525549086049 0.0474622106002 -2.64423793583e-20)
(-164.272165756 1.46069907358 -1.94291358907e-20)
(-169.119963383 1.48461832541 -1.81317917613e-20)
(-174.371122197 1.42395692604 1.45316181813e-20)
(-179.917914597 1.26790168325 -1.08662151263e-20)
(-185.647881842 0.958688698097 -4.64025390952e-20)
(-191.339214048 0.541371210098 -4.91864116557e-20)
(-196.95558056 0.201798588978 2.12225059258e-19)
(-202.649985104 -2.28881242923 2.49147188952e-19)
(-209.588361406 -8.06497637195 1.07840354632e-17)
(-155.195096993 -6.50249515501 -1.37037466122e-18)
(4.55942237904 6.08925388875 -1.81216632425e-18)
(-0.0939985241552 0.1438704817 7.57236937066e-22)
(-174.082055297 -3.83163192256 4.7003557053e-21)
(-179.540893783 -4.28384560043 -5.9675175732e-20)
(-185.176507971 -4.74335868066 -1.0812668199e-19)
(-190.785787785 -5.23035306149 -2.31710436668e-19)
(-196.401464813 -5.42198713095 -4.66700831044e-19)
(-201.845555364 -7.99731599372 -1.90890941008e-18)
(-206.760241817 -8.65832107233 3.03169030497e-17)
(-155.108615475 -8.71434389807 6.13803503745e-18)
(-2.78067250117 5.51247432331 2.70202344745e-18)
(-0.144085367793 0.0676494061729 1.32410349603e-20)
(-173.458148165 -9.09719158715 3.81460152879e-20)
(-178.902594314 -9.79361964086 -5.93816166628e-20)
(-184.518114446 -10.4289753563 -1.66084914355e-19)
(-190.140124146 -11.0637367576 -7.0673521878e-19)
(-195.830807645 -11.1727584288 -1.79523324163e-19)
(-201.355038676 -13.9132674422 1.50648543688e-18)
(-206.898038129 -11.6461695272 3.7589822209e-18)
(-159.483191058 -10.8061548146 -9.3713716973e-19)
(-7.768646282 4.75427732417 4.21920298438e-18)
(-0.190829379185 0.0264457639613 3.72357827332e-20)
(-172.538803807 -14.3764772117 8.49923132132e-21)
(-178.036349163 -15.3201376804 -8.44088360818e-20)
(-183.74193452 -16.136717549 -2.15868082668e-19)
(-189.383756954 -16.965545726 -7.09165513538e-19)
(-195.289514977 -17.0314582301 -2.47011395822e-19)
(-201.05011419 -20.3416425634 1.28766710743e-18)
(-208.198119739 -16.5844990135 -1.35341126113e-18)
(-165.611587492 -14.4721268137 8.80072094923e-18)
(-11.0343180655 3.92335071268 8.06978553913e-18)
(-0.235469842328 -0.0129869495983 9.07360579308e-20)
(-171.306212469 -19.7554142572 -1.09158341019e-20)
(-176.919927006 -20.9773632947 -9.80025818581e-20)
(-182.75865777 -21.9969396763 -1.7153435212e-19)
(-188.451084977 -23.0783842431 -7.40226806484e-19)
(-194.536515021 -23.1269392368 2.04331081653e-19)
(-200.932458577 -26.7551951411 -4.2404752857e-18)
(-209.260888635 -22.1953527473 2.77815207949e-19)
(-170.522195062 -18.4506464253 9.29907859923e-18)
(-13.0144577092 2.85571550753 7.80582187253e-18)
(-0.262831733108 -0.0705059166439 4.27824315621e-20)
(-169.724994515 -25.3138612872 -1.08525350521e-20)
(-175.536583 -26.8357836423 1.65912467771e-20)
(-181.565256689 -28.086732134 9.96982064431e-20)
(-187.420435178 -29.3649176386 8.52643471325e-20)
(-193.556506861 -29.473614902 -1.38591904843e-18)
(-200.979117609 -32.9241705505 3.65283557586e-19)
(-210.657491406 -27.6521533496 7.53124221254e-18)
(-174.51194058 -21.9417226834 -2.42848868384e-18)
(-14.9775071331 2.23973172308 2.53334756727e-18)
(-0.275857838375 -0.0343493152696 -5.61489962752e-21)
(-167.771072893 -31.1606508186 4.63056379102e-20)
(-173.866591529 -33.0147950079 2.07117971291e-19)
(-180.172314264 -34.5336495447 6.24754569771e-19)
(-186.312494169 -35.9533777889 1.68894429692e-18)
(-192.781145278 -36.1053349989 1.41288184197e-18)
(-200.928644452 -39.2830442127 -1.19353457839e-18)
(-211.307533467 -35.8988375651 -8.11491022269e-19)
(-177.802064841 -28.4253080632 -1.29099484005e-17)
(-19.0998062647 1.01952351735 -3.1736554269e-18)
(-0.289111935499 -0.0375747257432 4.17256797651e-22)
(-165.418071472 -37.304412203 1.29774221872e-19)
(-171.878803711 -39.5315538728 5.49111564488e-19)
(-178.57173799 -41.3602757266 1.58899453677e-18)
(-185.179187615 -43.002080035 3.20396495049e-18)
(-192.161615697 -43.2014433057 -8.20559605719e-19)
(-200.372169054 -46.1824026385 -3.87548370236e-18)
(-209.444383908 -44.7930528087 -9.95643186444e-18)
(-176.851305215 -36.0525418842 -1.15042954403e-17)
(-25.9916635601 -0.856899621262 -1.10645411139e-17)
(-0.302479073016 -0.014792825893 -5.12889104412e-20)
(-162.605811574 -43.8086259993 2.07106373811e-19)
(-169.514530425 -46.5165579608 8.94399048862e-19)
(-176.730938283 -48.7293096039 2.37417854881e-18)
(-184.025000606 -50.4936014966 4.11533975351e-18)
(-191.706543805 -50.7308990585 8.47019378541e-19)
(-199.823392363 -53.2129402401 -3.90702696088e-18)
(-206.417689361 -50.277597679 -8.39675498651e-18)
(-170.224181734 -40.0907262916 -2.97786106946e-17)
(-32.6416532563 -3.14567546174 -1.61659883778e-17)
(-0.310725610679 -0.0552821755882 -3.811474208e-20)
(-159.267887317 -50.7800055441 2.44566703291e-19)
(-166.698231176 -54.0607529603 1.01829086103e-18)
(-174.589593726 -56.7335574209 2.67051650685e-18)
(-182.752101117 -58.7692501447 5.33314630352e-18)
(-191.491312104 -59.0096579663 3.5727018925e-18)
(-200.445562751 -60.8228560002 -8.14814647241e-18)
(-206.054919865 -54.4952660396 -1.67313679908e-17)
(-163.680507093 -40.8103370196 -3.00381577577e-17)
(-35.4708769877 -3.51336632521 -1.68807161778e-17)
(-0.314959402063 -0.130994520706 -6.84811720514e-20)
(-155.37469616 -58.2489418969 1.36839182963e-19)
(-163.36949122 -62.1660362975 8.17789452879e-19)
(-171.980690397 -65.442658442 2.67506873729e-18)
(-181.126643998 -68.0467609642 6.66204817791e-18)
(-190.969699359 -68.9902455634 5.99201219275e-18)
(-202.286010197 -70.7222489167 1.39265726957e-18)
(-208.946648991 -63.047165991 -1.17777800582e-17)
(-168.515236509 -44.7538884836 -3.39982059479e-17)
(-38.4347750867 -2.31117173409 -5.20398362082e-18)
(-0.32646044508 -0.01901456868 -7.21148135683e-21)
(-150.882050606 -66.2056853276 1.09653503027e-19)
(-159.434124216 -70.8293190364 5.18297863765e-19)
(-168.676424364 -74.8410703852 1.78515832271e-18)
(-178.622575136 -78.2515513027 4.83874252899e-18)
(-189.375344437 -81.2173111547 8.95335485144e-18)
(-203.994291035 -83.045855404 6.9047268552e-18)
(-204.072288821 -82.6973814511 1.26585367659e-17)
(-179.137994872 -63.3145557644 9.67099189974e-18)
(-46.8166081511 -6.47638711405 -3.31437105947e-18)
(-0.335510342138 -0.00707692368479 1.87261247803e-20)
(-145.712768097 -74.6703986048 2.9153810952e-20)
(-154.805872798 -80.0148264476 2.33323701015e-19)
(-164.586929432 -84.7151857863 7.77089805477e-19)
(-174.875333704 -89.0076466857 2.56761585115e-18)
(-185.310522433 -95.472680349 5.3359779357e-18)
(-195.429998808 -89.2734223491 8.14588377039e-18)
(-195.948353744 -103.353359708 2.12123341931e-17)
(-180.217487213 -89.9251047257 -2.65811818878e-18)
(-57.964138868 -11.7150487667 2.78246429173e-18)
(-0.355040997386 -0.0593320236853 1.23280795163e-20)
(-139.632254785 -83.7386571879 1.57499771884e-19)
(-149.394664295 -89.7320429236 2.03705834479e-19)
(-159.80957118 -94.8593111733 4.02836083651e-19)
(-170.489474868 -99.0921513061 9.27315565253e-19)
(-180.371828995 -102.790651356 1.69173782181e-18)
(-185.499028384 -96.5926521728 1.91285292613e-18)
(-197.896097886 -126.257585309 1.89761313496e-17)
(-173.283620977 -115.569415713 9.0964584327e-18)
(-63.8439380837 -21.613674807 1.22195990161e-18)
(-0.346860052289 -0.206302468238 4.59409890555e-20)
(-132.491383874 -93.4266426494 8.57082356443e-19)
(-143.079455148 -100.199980656 8.56684620726e-19)
(-154.4747344 -105.759763722 6.81309469348e-19)
(-166.283696407 -109.805259807 1.02956709026e-18)
(-177.708601202 -111.462497414 6.99317883556e-19)
(-187.237623794 -109.024718351 1.11851959246e-18)
(-202.794845994 -141.575067141 3.44405912912e-18)
(-158.99670226 -125.154900131 7.19109827361e-18)
(-64.2652410493 -27.9865838232 -4.93881154004e-18)
(-0.317455006819 -0.248470300103 -4.683426389e-20)
)
;

boundaryField
{
    back
    {
        type            calculated;
        value           uniform (0 0 0);
    }
    sides
    {
        type            calculated;
        value           nonuniform List<vector> 0();
    }
    bottom
    {
        type            calculated;
        value           nonuniform List<vector> 0();
    }
    front
    {
        type            calculated;
        value           uniform (0 0 0);
    }
    atmosphere
    {
        type            calculated;
        value           nonuniform List<vector> 
16
(
(0.000688906211183 0.0474622106002 2.26086944187e-23)
(0.00275850261767 0.1438704817 5.03937322278e-21)
(-0.000892808265607 0.0676494060489 1.16998685297e-21)
(-1.71711554288e-08 0.0264457640201 1.36459339706e-27)
(8.36784955193e-08 -0.0129869499971 -7.53769763836e-27)
(9.89687772829e-08 -0.0705059150269 -2.8503871711e-27)
(2.62552804183e-05 -0.0343493153028 -1.12357086945e-23)
(-0.000101991211704 -0.037574725742 -1.59581888479e-23)
(0.000940384661849 -0.0147861974075 4.34283597444e-22)
(0.00280344631575 -0.0552821755883 3.42899249106e-21)
(0.0142801927006 -0.130994527711 1.88221433345e-20)
(0.0046741498325 -0.0195684509192 -8.6888139108e-22)
(0.00366444489314 -0.000531819593736 4.43227432081e-21)
(0.00850071328446 -0.0525688730653 6.34075829532e-21)
(-0.43200062279 -0.210882750715 1.80182585927e-22)
(0.484056983795 -0.25356515187 1.71237886812e-19)
)
;
    }
    floatingObject
    {
        type            calculated;
        value           nonuniform List<vector> 0();
    }
    procBoundary5to0
    {
        type            processor;
        value           nonuniform List<vector> 
12
(
(-163.186335243 10.8502397525 -1.88603216672e-21)
(-168.310591792 11.7383740125 -3.80067872505e-20)
(-173.902578922 12.4206905158 6.84604524389e-20)
(-179.893450549 12.8077095834 -4.36825130855e-20)
(-186.147739686 12.8245089475 -1.5299049769e-19)
(-192.487007728 12.4694966704 5.73227220202e-20)
(-198.646674256 11.9543500202 9.97356696302e-19)
(-204.737827562 10.1123422389 7.56573667455e-19)
(-212.298534406 6.3377677776 1.09804812279e-18)
(-159.130719731 5.11504405842 -4.90868490821e-19)
(13.7615383247 5.03407967945 9.69347876229e-19)
(-0.0171964621212 0.0783425265887 -3.92194381972e-20)
)
;
    }
    procBoundary5to3
    {
        type            processor;
        value           nonuniform List<vector> 10((-124.042047366 -103.958311714 4.70078039081e-18) (-135.576081587 -111.714132822 5.17248214157e-18) (-148.203673413 -118.053624121 4.81711449783e-18) (-161.705490256 -122.64129198 3.21364911722e-18) (-175.960980619 -124.601774008 1.58503962687e-18) (-191.593613054 -122.948079313 8.38177185986e-19) (-208.951566922 -135.387640578 1.11265238911e-17) (-159.000946694 -117.697840741 -7.88801504269e-18) (-63.0899167391 -33.9112807592 -4.69397248836e-18) (-0.0785940355095 -0.435655404266 -2.74743944858e-20));
    }
    procBoundary5to4
    {
        type            processor;
        value           nonuniform List<vector> 
18
(
(-159.494811743 5.54384441365 2.09575539769e-21)
(-159.889255164 1.3626992331 1.52886607821e-21)
(-164.129267962 -3.08909425908 -1.37181231256e-20)
(-168.908324767 -3.44111147218 9.74889385966e-22)
(-168.908324767 -3.44111147218 9.74889385966e-22)
(-168.316145525 -8.38212789219 -5.68665163991e-21)
(-167.349017843 -13.3508442991 -3.06594011466e-20)
(-165.997235949 -18.3862872776 5.42359160955e-22)
(-164.237608582 -23.5832430024 7.86836556126e-21)
(-162.036624164 -29.0194514227 -1.37466656533e-20)
(-159.352380928 -34.7193280893 2.02958747631e-20)
(-156.162800178 -40.6983424591 4.18546299476e-20)
(-152.421203828 -47.0565142168 5.98547245959e-20)
(-148.076140688 -53.8344669565 5.05988407935e-20)
(-143.090531484 -61.0451087605 9.17612803317e-21)
(-137.350689199 -68.7170297104 3.86025062262e-20)
(-130.708917907 -76.9391661317 1.52025874106e-19)
(-122.901497505 -85.6922611256 8.8324739934e-19)
)
;
    }
}


// ************************************************************************* //
