/*--------------------------------*- C++ -*----------------------------------*\
| =========                 |                                                 |
| \\      /  F ield         | OpenFOAM: The Open Source CFD Toolbox           |
|  \\    /   O peration     | Version:  v2012                                 |
|   \\  /    A nd           | Website:  www.openfoam.com                      |
|    \\/     M anipulation  |                                                 |
\*---------------------------------------------------------------------------*/
FoamFile
{
    version     2.0;
    format      ascii;
    class       surfaceVectorField;
    location    "5.8";
    object      Uf;
}
// * * * * * * * * * * * * * * * * * * * * * * * * * * * * * * * * * * * * * //

dimensions      [0 1 -1 0 0 0 0];


internalField   nonuniform List<vector> 
300
(
(-0.0139575840074 -0.00794893380273 9.5998681499e-25)
(-0.0132367264321 -0.00744091709567 4.53736951052e-25)
(-0.0142486144764 -0.0092570881014 1.81139843025e-23)
(-0.0134575444224 -0.00868249649466 1.08479608058e-23)
(-0.0145502956228 -0.0106941452911 3.13107122347e-23)
(-0.0136963000933 -0.0100474442064 2.95993959578e-23)
(-0.0148586721373 -0.0122866420407 -5.05303850677e-24)
(-0.0139216357609 -0.0115511929686 3.74022055089e-23)
(-0.0151518540897 -0.0141153221946 -1.63225578002e-22)
(-0.0141167131032 -0.0132296885175 3.16221369355e-24)
(-0.0152854747958 -0.0162441549877 -4.03725966209e-22)
(-0.0142392500613 -0.0151329979728 -1.87003942831e-22)
(-0.0150658559832 -0.0188329450166 -1.21260448483e-22)
(-0.0140185277525 -0.0173597020241 -3.45111048983e-22)
(-0.0149076533005 -0.0219419604494 -1.97745170076e-21)
(-0.0133606446093 -0.0203640037469 5.66928942671e-22)
(-0.017845483626 -0.0254074343427 -4.90738489266e-21)
(-0.0132385233904 -0.0243871380607 -2.08640868286e-21)
(-0.0701627973592 -0.0317742905915 -4.47493109765e-21)
(-0.01745033808 -0.0214926842241 -3.88467902305e-21)
(-0.0793935747804 -0.0527259353625 -1.82847404393e-21)
(-0.108805375036 -0.0350280536179 -1.42653309328e-21)
(-0.037698288479 -0.0586480556715 6.51029336736e-21)
(-0.0127139527114 -0.00812005478788 1.03417109419e-23)
(-0.0128831046834 -0.00942038233213 2.23333724611e-23)
(-0.0130482978457 -0.0108339228534 3.56908892321e-23)
(-0.0122826061245 -0.0100997403681 3.40363530271e-23)
(-0.0131717345032 -0.0123903900599 4.56174577093e-23)
(-0.0123650627455 -0.0115681487216 5.34651701145e-23)
(-0.0132098581452 -0.014144515834 -2.06161511359e-23)
(-0.0123625843454 -0.0132022493758 5.20948032129e-23)
(-0.013000717694 -0.016183616533 -1.28389025606e-22)
(-0.0122002749219 -0.0150451975875 -1.56195341832e-22)
(-0.012372895501 -0.0185813900213 3.43078342171e-22)
(-0.01162097184 -0.0171735861355 -4.65197740636e-22)
(-0.0117637756553 -0.0213743106059 4.57971960564e-22)
(-0.010567916159 -0.0199380408519 -1.81908463533e-22)
(-0.0126870388593 -0.0247647919001 -1.06370281325e-21)
(-0.00984812177139 -0.024110247375 -1.35096303445e-21)
(-0.0566756622103 -0.0319495820414 -8.36281018681e-22)
(-0.0102656634125 -0.0211193546807 -5.70785475212e-21)
(-0.0678742772248 -0.0495467212214 6.91223431801e-21)
(-0.0912087212565 -0.0342634563051 -7.17485004401e-21)
(-0.0345750027792 -0.0519957306945 2.51584377138e-21)
(-0.0115736076766 -0.0107768639275 5.18106339095e-23)
(-0.0108947354195 -0.0100217907334 4.50939804496e-23)
(-0.0115306530804 -0.0123059388932 5.99425156181e-23)
(-0.0108359721299 -0.0114322941385 6.0179853369e-23)
(-0.0113360051417 -0.0140081913186 -8.34843874831e-23)
(-0.0106603860776 -0.0129847311987 1.29503550732e-23)
(-0.0107986394997 -0.0159648501981 -4.93004056862e-22)
(-0.010243750505 -0.0147261886252 -4.3463375691e-22)
(-0.00975798848476 -0.0183499179442 -9.9018454634e-22)
(-0.00923608286777 -0.0167917711553 -1.67364395612e-21)
(-0.008600645671 -0.0212908097152 -1.99084345854e-21)
(-0.00762716628722 -0.0193954263202 -2.39327447108e-21)
(-0.00773159099039 -0.0247463172535 -5.99511497331e-21)
(-0.00639266782143 -0.024152120099 -3.82474619736e-21)
(-0.0452426847603 -0.030077667996 -1.20464237774e-20)
(-0.00493435024245 -0.0208375444276 -9.37981147975e-21)
(-0.0581936738082 -0.0427820033213 -1.15712405906e-20)
(-0.0785045471809 -0.0316779078688 -1.78207849397e-20)
(-0.0339890759436 -0.0396064348021 -1.11391086671e-20)
(-0.0101594198586 -0.0106229920308 5.34631999091e-23)
(-0.0095889036717 -0.0098548911012 4.68431898831e-23)
(-0.00996527852479 -0.0120534508353 1.31876928241e-23)
(-0.0094055567896 -0.0111620368779 4.16956165182e-23)
(-0.00955393054245 -0.0136352036133 -3.38199014354e-22)
(-0.00907871190451 -0.0125832177703 -1.07804219482e-22)
(-0.00864330963341 -0.0154953877628 -1.61527365616e-21)
(-0.00838368422309 -0.014156511537 -8.8420943904e-22)
(-0.00707915523099 -0.0178826751199 -3.07673388085e-21)
(-0.00684892509636 -0.0161576458571 -2.6219537552e-21)
(-0.00537322767371 -0.0208365601922 -4.22717720989e-21)
(-0.00467337336691 -0.0184694762723 -1.81177169088e-21)
(-0.0037949516196 -0.0243884469361 -7.20944270379e-21)
(-0.0028408117494 -0.0237246618969 -5.53169191469e-21)
(-0.0393027174771 -0.0278616190729 -1.5154172642e-20)
(-0.00146119210146 -0.0200041371124 -1.40696091627e-20)
(-0.0546507061242 -0.0313059978781 -1.73886530162e-20)
(-0.0750603146107 -0.0290488858544 -2.69035537148e-20)
(-0.0352999107756 -0.0279013015726 -1.87405830286e-20)
(-0.00885450306587 -0.0103398912077 3.50756064922e-23)
(-0.00839601131965 -0.00959831258783 4.51165780654e-23)
(-0.00853415608199 -0.0116364051327 -7.92962957882e-23)
(-0.00810911651321 -0.0107875388163 1.2367141234e-23)
(-0.00791999219549 -0.0130542313457 -6.53814644168e-22)
(-0.00766095944575 -0.0120481652486 -2.36488286971e-22)
(-0.0065815662957 -0.0147205724911 -1.89088953808e-21)
(-0.0067174222928 -0.013386267506 -1.15663171527e-21)
(-0.00440344923375 -0.0170242047632 -1.35699156523e-21)
(-0.0045453637988 -0.0153278662533 -2.74942628998e-21)
(-0.00214736587095 -0.0200159586953 -3.11628639568e-21)
(-0.00168166140324 -0.0171739502395 -9.33723422162e-22)
(-0.000651531342572 -0.0233969930455 -1.23918583736e-20)
(0.000540212681087 -0.0227699414498 -7.02688260697e-21)
(-0.0376757755501 -0.0258604562667 -2.58189902354e-20)
(0.00100226861295 -0.0186583827195 -1.78990740162e-20)
(-0.0556435641939 -0.024750872449 -2.82554837272e-20)
(-0.0761699713373 -0.0270347229044 -3.0687477549e-20)
(-0.0374363071727 -0.0241746199713 -2.18624146369e-20)
(-0.00767994299874 -0.00999969972388 2.24081128072e-23)
(-0.00729013221472 -0.00930679940254 5.26336110173e-23)
(-0.00727917627693 -0.011149384587 -1.44824849949e-22)
(-0.00695951385201 -0.0103985448268 3.34650343466e-23)
(-0.00650691503705 -0.0123679029768 -7.39305358076e-22)
(-0.0064424923939 -0.0115156683874 -4.56137250536e-23)
(-0.00475260667042 -0.013798324086 -2.01516846717e-21)
(-0.00528703290387 -0.0126144701797 -7.22086149369e-22)
(-0.00185190327655 -0.015785778878 -2.32615814691e-21)
(-0.0025579227615 -0.0144689404624 -8.84718794378e-22)
(0.00100727344817 -0.018730654839 -4.84431963346e-21)
(0.00126321632208 -0.0157543184062 -3.61034412165e-21)
(0.00209768640419 -0.0220042552687 -1.25340982496e-20)
(0.00381381970698 -0.0213983382575 -4.6858971694e-21)
(-0.037069751467 -0.0240794375041 -2.27675613298e-20)
(0.00307745105661 -0.0168133973801 -8.38769260907e-21)
(-0.0573184485196 -0.0245650096685 -2.42944084587e-20)
(-0.075684375194 -0.0255758100364 -1.56917495097e-20)
(-0.0386144788693 -0.0276420821576 -1.16171496322e-20)
(-0.00660684818846 -0.00968094059205 6.36905325566e-23)
(-0.00624396024219 -0.00903844240894 4.84908764741e-23)
(-0.00617771952151 -0.0107226954336 1.32676159242e-22)
(-0.00591783853494 -0.0100857652656 9.87670523177e-23)
(-0.00530171902025 -0.0118149402666 -2.83945163468e-23)
(-0.00535027497155 -0.0111472074245 4.86743594523e-22)
(-0.00320811409462 -0.0130935266697 4.08363523426e-22)
(-0.00400843994674 -0.0121544468014 1.20013415677e-21)
(0.000413116829208 -0.0147979162955 -2.16890476912e-21)
(-0.00085350692594 -0.013937706774 4.13315929753e-21)
(0.00391129456237 -0.0173004319239 -3.45192165759e-21)
(0.00376575978299 -0.0145716020491 2.70061489573e-21)
(0.00468006360733 -0.0200920834073 -5.39491528873e-22)
(0.00660548519942 -0.0195698269937 6.68882358788e-21)
(-0.0352887709249 -0.0222642061132 -1.31188078895e-21)
(0.0052495762395 -0.0144394039179 1.10608366713e-20)
(-0.0567250694452 -0.027206350206 -3.01449068312e-21)
(-0.0707423393083 -0.0246820304693 1.1257871132e-20)
(-0.0363436148043 -0.0347977592878 8.13592790166e-21)
(-0.00558422498952 -0.00943305912972 8.35673962351e-23)
(-0.00521925375906 -0.00879535091702 8.54097253934e-23)
(-0.00514622397839 -0.0104939220896 4.52834487599e-22)
(-0.00485705557011 -0.00985748102463 3.47234834699e-22)
(-0.00418296101294 -0.0115731313414 1.71527226764e-21)
(-0.00427108749789 -0.0109813896204 1.79744045608e-21)
(-0.00182202320799 -0.012780537074 4.92492993087e-21)
(-0.00280102024655 -0.01209795597 6.09234983068e-21)
(0.00224889340925 -0.0142264358145 9.00267896238e-21)
(0.000592421166803 -0.0138870027809 1.52433922678e-20)
(0.00616796281113 -0.0158085227672 1.28413601412e-20)
(0.00534786873866 -0.0138347985923 2.0994757567e-20)
(0.00733253671021 -0.0176843117011 1.8289151788e-20)
(0.00848127879259 -0.0176578955962 2.77204181153e-20)
(-0.0297138352023 -0.0208770025105 2.36305885923e-20)
(0.00844226644005 -0.0118844788463 3.2487861728e-20)
(-0.0505990901767 -0.0317732619154 2.24082897168e-20)
(-0.0598461487174 -0.0240281877808 3.9853113756e-20)
(-0.030789988644 -0.0420881413172 3.02074677666e-20)
(-0.00453610778341 -0.00921989046724 3.49077163857e-22)
(-0.00417297622092 -0.00850975453137 1.9637605667e-22)
(-0.00403510718043 -0.010345799208 1.69184080318e-21)
(-0.00373125181994 -0.00962948876169 9.00310865901e-22)
(-0.00295940321488 -0.0116039017408 6.17451801911e-21)
(-0.00301304441428 -0.0108862686862 4.16605223131e-21)
(-0.000523432239954 -0.012959815019 1.64108121676e-20)
(-0.00144514221015 -0.0122018304241 1.36924829341e-20)
(0.00347932303849 -0.0140520201649 2.72354708724e-20)
(0.00168459924099 -0.0139972618988 3.23745368798e-20)
(0.00746060530911 -0.0146998874058 3.58738155411e-20)
(0.00599570300429 -0.0133700245024 4.78163450948e-20)
(0.0098369071999 -0.0155146719109 4.19191280553e-20)
(0.00929603329393 -0.0162379526407 5.99965342319e-20)
(-0.0205963349122 -0.0194190599323 4.87103868918e-20)
(0.0123466456665 -0.00958671865676 6.04829891679e-20)
(-0.0397946650844 -0.035553021453 4.76522918058e-20)
(-0.0437123353341 -0.0222533971973 6.81820085911e-20)
(-0.0230624478581 -0.0453620292818 5.41414991174e-20)
(-0.00339739961729 -0.00893002648809 7.47609758715e-22)
(-0.0030892588019 -0.00811705402887 3.17020729047e-22)
(-0.00275079076526 -0.0101773380329 3.37452229403e-21)
(-0.00248412518516 -0.00927658003599 1.4346786946e-21)
(-0.00156738066526 -0.0115910694443 1.16840171463e-20)
(-0.00159948405351 -0.0106225960221 6.1621497336e-21)
(0.000708440854033 -0.0129916743869 2.96562076464e-20)
(-4.47071680586e-05 -0.0120608759071 1.98322190592e-20)
(0.00414257624315 -0.0139556717264 5.29554111022e-20)
(0.00264842924262 -0.0138132103777 4.64756109563e-20)
(0.00772574083163 -0.0139552773384 7.19390637855e-20)
(0.00599515399187 -0.0127934789103 7.29359395101e-20)
(0.0116586366475 -0.0137937180584 7.85603953445e-20)
(0.00913437536207 -0.0152966611645 8.81622489313e-20)
(-0.00986653538489 -0.0167977519517 7.99546108672e-20)
(0.0153506519794 -0.00781303934416 8.77329247716e-20)
(-0.0265065898789 -0.034965399522 7.46712159027e-20)
(-0.0255446939131 -0.0191878411336 8.69276693739e-20)
(-0.0154572468193 -0.0399956602717 7.07460947948e-20)
(-0.00219432518589 -0.00847789303807 1.00408966493e-21)
(-0.0020051367845 -0.00757374337405 4.1423686057e-22)
(-0.00135771637061 -0.0097488411938 4.22230613417e-21)
(-0.00121353460756 -0.00866668209333 1.49158572711e-21)
(-9.75173117015e-05 -0.0111892314962 1.43103516465e-20)
(-0.000159482991809 -0.00994770139897 6.09355666742e-21)
(0.00188425919745 -0.0125722495649 3.66516223692e-20)
(0.00133789390575 -0.0113240270881 1.96935059475e-20)
(0.00453755240407 -0.0133733396466 6.64561393642e-20)
(0.00344910937765 -0.0129624213829 4.81476962186e-20)
(0.0074264750469 -0.0132608149129 8.91591246558e-20)
(0.00588227538823 -0.011757861248 7.30762472727e-20)
(0.0124991517312 -0.0125788575695 9.73347783583e-20)
(0.00845221531671 -0.0144534652883 9.17571668763e-20)
(-0.000821123549639 -0.0138221963263 9.47059832782e-20)
(0.0165939366231 -0.00655045790282 9.57747618583e-20)
(-0.014056150815 -0.0256697816483 8.3002548266e-20)
(-0.0136971853463 -0.016384362723 8.13942310101e-20)
(-0.00768517829873 -0.028259571662 6.71902872508e-20)
(-0.00104971700371 -0.0077828198967 9.01732922752e-22)
(-0.00104246906403 -0.00685165799358 3.67653193874e-22)
(-3.43969974532e-05 -0.0089001867754 3.36283626036e-21)
(-9.68280414823e-05 -0.00777099241203 1.01806008329e-21)
(0.00128776756872 -0.0101610758742 1.14767109684e-20)
(0.00110066543519 -0.00883321031668 4.07336869924e-21)
(0.00295226560583 -0.0113932015476 3.11895797969e-20)
(0.00256922579459 -0.00997222534853 1.34714378953e-20)
(0.00488655325381 -0.0120966200347 5.47678041271e-20)
(0.00415177089367 -0.011354886298 3.46343937491e-20)
(0.00706002987601 -0.0121232748971 7.56742894931e-20)
(0.00590830503472 -0.0101436404738 5.40285409703e-20)
(0.0124013806511 -0.0116447265948 9.01971503762e-20)
(0.00797333691944 -0.0134619646523 7.23644937264e-20)
(0.00305724516492 -0.0115746164792 8.24630095902e-20)
(0.016523739644 -0.00554332778949 7.56987778175e-20)
(-0.00720267837813 -0.0162522601011 6.5581969995e-20)
(-0.00901973802447 -0.0150731229228 5.72759797051e-20)
(-0.00177884767655 -0.0209818412948 4.7698523502e-20)
(-0.000105573736565 -0.00686691893419 4.83980354414e-22)
(-0.000267206876592 -0.00598091587045 3.0318617433e-22)
(0.00102853834686 -0.0077325944087 1.72859252217e-21)
(0.000767728594872 -0.00666943037567 5.81946294538e-22)
(0.00239050818408 -0.00868970531847 6.06809562613e-21)
(0.00205652034889 -0.0074332684334 2.11994799409e-21)
(0.00382648462193 -0.00961196688065 1.69162518475e-20)
(0.00349017574505 -0.00822652038593 6.91768857136e-21)
(0.0052637943604 -0.0102445391394 3.38951305924e-20)
(0.00478312931025 -0.00923086232283 1.86826362504e-20)
(0.0070528923712 -0.0104387008726 5.07187452036e-20)
(0.00610151494926 -0.00801558195595 3.28782472482e-20)
(0.0124383369214 -0.0107917980216 5.78661211677e-20)
(0.00832595905642 -0.011927925528 4.34867600837e-20)
(0.00464032051793 -0.0113333029386 5.05117479324e-20)
(0.0170651252423 -0.00409414993158 4.45753580679e-20)
(-0.00345988385518 -0.0152280478402 3.93925332121e-20)
(-0.00512554575034 -0.0139148186518 2.99392435734e-20)
(0.0034848860239 -0.0203005550518 2.5109006386e-20)
(0.000594319430301 -0.00581676206942 4.01152114454e-22)
(0.000290792615973 -0.00501331997894 4.22209284441e-22)
(0.0017776006445 -0.00639203279391 9.73301766463e-22)
(0.00134086366832 -0.00542702795795 5.64207183303e-22)
(0.00313783483394 -0.00699362619385 2.96954093932e-21)
(0.00265577607404 -0.00582939263435 1.3315931632e-21)
(0.00444535356893 -0.00755477869711 8.68407297424e-21)
(0.00404888066051 -0.00620420047142 3.53818738828e-21)
(0.00566026717059 -0.00797580205787 1.76657529062e-20)
(0.0052020245287 -0.00678860767856 9.25306459471e-21)
(0.00732763453237 -0.00839149231595 2.56462621284e-20)
(0.00651554585912 -0.00561292398078 1.68911150683e-20)
(0.0128649762769 -0.00863982308899 3.01959969839e-20)
(0.00857350923539 -0.00994512977382 2.07692586359e-20)
(0.00741094735398 -0.00924945136258 2.40028537089e-20)
(0.0176745642237 -0.00223800734493 2.17498973687e-20)
(0.00156607742091 -0.0149747309345 1.56557167474e-20)
(0.000599421472064 -0.0116308517788 1.297718127e-20)
(0.00852288856384 -0.0199455495243 1.14220827559e-20)
(0.00102476720634 -0.00466525677092 5.85264353291e-22)
(0.000588235102555 -0.00402011660014 1.35736475446e-21)
(0.00219055964828 -0.00489738791433 9.22498580044e-22)
(0.00156931045639 -0.00410895461159 1.53598713721e-21)
(0.00352129222593 -0.00505444879854 1.90023961216e-21)
(0.00280866611764 -0.00405388177057 1.96726066688e-21)
(0.00476810377592 -0.00520070330179 4.10717900875e-21)
(0.00419138702141 -0.00390700219104 2.87228518372e-21)
(0.00600634205273 -0.00538737204507 8.47842675681e-21)
(0.0053852453685 -0.0040283630781 4.74704462471e-21)
(0.00776339318253 -0.00586782399895 1.20141115758e-20)
(0.0069938401402 -0.00304868813948 7.59220901042e-21)
(0.0133816575654 -0.00659118159223 1.23231590206e-20)
(0.0092958027174 -0.00748246935233 8.77717736758e-21)
(0.0107098799166 -0.00699046575557 1.07242249298e-20)
(0.0180735998205 -0.000357375298388 9.43321651349e-21)
(0.00733744021624 -0.0125214323021 8.74354727851e-21)
(0.006130810189 -0.00953639395806 1.35511859793e-20)
(0.0144893373172 -0.0198536468845 1.18498610129e-20)
(0.00111393362811 -0.00351686112492 2.30808753837e-21)
(0.00215921191396 -0.00331908709161 2.58074922404e-21)
(0.00344091459545 -0.00293058828874 2.93930623844e-21)
(0.00474618981422 -0.00256113075021 3.51215079968e-21)
(0.00625847909152 -0.00245950714564 3.86082687832e-21)
(0.00840234112245 -0.00295306400755 4.35527480222e-21)
(0.0142101764756 -0.00391019866811 5.88723486045e-21)
(0.0144392272311 -0.00509259761137 1.22601775631e-20)
(0.0140256516922 -0.0120966354761 1.66574997137e-20)
)
;

boundaryField
{
    back
    {
        type            calculated;
        value           uniform (0 0 0);
    }
    sides
    {
        type            calculated;
        value           nonuniform List<vector> 0();
    }
    bottom
    {
        type            calculated;
        value           nonuniform List<vector> 0();
    }
    front
    {
        type            calculated;
        value           uniform (0 0 0);
    }
    atmosphere
    {
        type            calculated;
        value           nonuniform List<vector> 
16
(
(0 -0.0542300342584 0)
(0 -0.0526707503816 0)
(0 -0.0433682177655 0)
(0 -0.0299951911474 0)
(0 -0.0226144600857 0)
(0 -0.0233868563454 0)
(0 -0.0294771057158 0)
(0 -0.0373268113538 0)
(0 -0.0432804521364 0)
(0 -0.0425706717883 0)
(0 -0.0334419394854 0)
(0 -0.022158639363 0)
(0 -0.0204915650111 0)
(0 -0.0200123191736 0)
(0 -0.0184875133097 0)
(0 -0.0197164249851 0)
)
;
    }
    floatingObject
    {
        type            calculated;
        value           nonuniform List<vector> 0();
    }
    procBoundary5to0
    {
        type            processor;
        value           nonuniform List<vector> 
12
(
(-0.0144259878638 -0.00722037128566 -1.26993410162e-24)
(-0.0147661239402 -0.00845937259431 -3.31028948992e-24)
(-0.0151338364237 -0.00983345100592 2.88783263991e-23)
(-0.0155145593171 -0.0113563728763 1.581238987e-23)
(-0.0159456375186 -0.0130551491081 -9.18981481424e-23)
(-0.0163680462741 -0.0149927684645 -4.50198932208e-22)
(-0.0166070034892 -0.0173317681641 -5.10738218991e-22)
(-0.0164692712308 -0.0205844244858 3.24377690572e-22)
(-0.0167037849297 -0.0246793271945 -1.74997578313e-21)
(-0.0238168102182 -0.0219630017379 -6.23536919984e-21)
(-0.129754276611 -0.033357091834 -5.11376725305e-21)
(-0.0391974934986 -0.0543888174552 2.74919896067e-21)
)
;
    }
    procBoundary5to3
    {
        type            processor;
        value           nonuniform List<vector> 10((0.000607994295728 -0.00315935455936 7.29909537333e-21) (0.00136673303458 -0.00293767593287 8.20495796582e-21) (0.00241544918628 -0.00234794217658 8.51563633327e-21) (0.00381715459341 -0.00154777946179 7.76205186519e-21) (0.00528002103147 -0.0010982011565 5.91550711989e-21) (0.00748476315125 -0.00031646550002 3.21507702725e-21) (0.0102518012453 -0.00391196749562 3.60103983778e-21) (0.0192557428941 0.00224835973495 7.18890433656e-21) (0.0131354058122 -0.00899879762816 1.38494203569e-20) (0.0221095251712 -0.0246281972712 1.27041608774e-20));
    }
    procBoundary5to4
    {
        type            processor;
        value           nonuniform List<vector> 
18
(
(-0.0136994040452 -0.00676007175012 -3.37330983425e-24)
(-0.0125728596315 -0.00694545633675 9.21626925983e-25)
(-0.0120620057232 -0.00755660470947 1.21389529851e-23)
(-0.01215707097 -0.00876649316761 2.26210995983e-23)
(-0.0115437451392 -0.00938907937224 3.43240801644e-23)
(-0.0102654090451 -0.00931711317866 3.77849434493e-23)
(-0.0090653574942 -0.00914684782309 4.18685979662e-23)
(-0.0079517271915 -0.0088935934998 4.24467488164e-23)
(-0.00690917513232 -0.00863449179202 5.2295565725e-23)
(-0.00590285544407 -0.00840804679262 5.7893852467e-23)
(-0.00489248265633 -0.00817328048596 1.22962696885e-22)
(-0.003857313431 -0.00784591476275 1.95554356096e-22)
(-0.00282022000782 -0.00739322253792 2.49494999266e-22)
(-0.00184414407709 -0.00681929436428 3.12056106786e-22)
(-0.00100837917649 -0.00609029029671 2.53794972897e-22)
(-0.000358207175393 -0.00525638999705 2.82444477215e-22)
(8.32544648583e-05 -0.00436285005178 4.97269804942e-22)
(0.000288444425142 -0.00349194616331 2.12247673186e-21)
)
;
    }
}


// ************************************************************************* //
