/*--------------------------------*- C++ -*----------------------------------*\
| =========                 |                                                 |
| \\      /  F ield         | OpenFOAM: The Open Source CFD Toolbox           |
|  \\    /   O peration     | Version:  v2012                                 |
|   \\  /    A nd           | Website:  www.openfoam.com                      |
|    \\/     M anipulation  |                                                 |
\*---------------------------------------------------------------------------*/
FoamFile
{
    version     2.0;
    format      ascii;
    class       volScalarField;
    location    "2";
    object      ddt0(epsilon);
}
// * * * * * * * * * * * * * * * * * * * * * * * * * * * * * * * * * * * * * //

dimensions      [0 2 -4 0 0 0 0];


internalField   nonuniform List<scalar> 
164
(
-0.00695783970834
-0.00697497426273
-0.00699456854913
-0.00702097817341
-0.00707589461584
-0.00723813817064
-0.00773622158243
-0.00926652420633
-0.014832586279
-0.0365600037133
-0.092139303339
-0.0667640500453
-0.00697646662534
-0.00699306391054
-0.0070114318255
-0.00703417161498
-0.00707728182748
-0.0072037201443
-0.00760547645241
-0.00889810411679
-0.0139626869383
-0.0346414215305
-0.0843823946028
-0.21132300078
-0.00702814152219
-0.00704753320555
-0.00707906380561
-0.00716915150682
-0.00746646133451
-0.00846184642755
-0.0125364461686
-0.0301257575929
-0.0843211185509
-0.225933662457
-0.0070450110705
-0.00706143279604
-0.00708225534046
-0.00713717182852
-0.00733511864533
-0.00805797879369
-0.0109623976365
-0.023301079917
-0.0660391276431
-0.274162082835
-0.00706199343168
-0.00707595968397
-0.00708686152357
-0.00710642807283
-0.00719506622092
-0.00757698458319
-0.00892169554838
-0.0112820578379
-0.0085711911386
-0.00909331797194
-0.00707908431579
-0.00709122603936
-0.0070932089225
-0.00707751116517
-0.00703932987708
-0.00691281933754
-0.00575346354161
0.00238566327616
0.0375370671375
0.0363889668247
-0.00709628851722
-0.00710709324232
-0.00710060550651
-0.00704455491225
-0.00682335581655
-0.00583136565557
-0.000743641807183
0.0193438395819
0.0794368456149
0.0587202364912
-0.00711337605475
-0.00712331177603
-0.00710737473414
-0.00698984739078
-0.00642787889546
-0.00388343835708
0.00602668470323
0.0333608740631
0.0325148818318
0.0320639734083
-0.00713030352398
-0.00714032295251
-0.00711303395051
-0.00689911737752
-0.0057810997714
-0.00115897236446
0.0110011584003
0.0200752032262
-0.0906990514315
-0.698665855991
-0.00714697885878
-0.0071564020865
-0.00710792752006
-0.00671230434729
-0.00469742539663
0.00206246667364
0.0122115259079
-0.00144974527401
-0.0286343965577
-0.50808835869
-0.00716310014667
-0.00716863812147
-0.0070647669488
-0.00635252249208
-0.00399939083098
-0.00343570927671
-0.0263062968788
-0.0799155399756
-0.015669721856
0.351788907205
-0.00718113041292
-0.00719825898437
-0.00715560718293
-0.00675407894489
-0.00489839384042
0.000328192935339
0.0089987540405
0.0234326137348
-0.0678242044247
-0.168878175497
-0.00719611207992
-0.00722022315377
-0.0072100406397
-0.00699787599195
-0.005725179845
0.000573748975379
0.028237137157
0.0991643163746
-0.109441226807
-0.219092876291
-0.00720977603606
-0.00723929301332
-0.00723934743483
-0.00704969935587
-0.00563800075275
0.00272145001726
0.038042956135
0.113767309416
0.0729949585443
-0.114762830704
-0.00722326566712
-0.00725753624331
-0.0072447786958
-0.0068264601744
-0.00311443043502
0.0188754335458
0.0937488574296
0.223392023316
0.425212479767
0.00200247214069
-0.00724013085442
-0.00729167252898
-0.0073215319667
-0.00719339486012
-0.00596455691956
0.000839965752137
0.0252124190477
0.0592540005293
-0.0632109585639
-0.10476988779
)
;

boundaryField
{
    back
    {
        type            calculated;
        value           nonuniform List<scalar> 
164
(
-0.00695783970834
-0.00697497426273
-0.00699456854913
-0.00702097817341
-0.00707589461584
-0.00723813817064
-0.00773622158243
-0.00926652420633
-0.014832586279
-0.0365600037133
-0.092139303339
-0.0667640500453
-0.00697646662534
-0.00699306391054
-0.0070114318255
-0.00703417161498
-0.00707728182748
-0.0072037201443
-0.00760547645241
-0.00889810411679
-0.0139626869383
-0.0346414215305
-0.0843823946028
-0.21132300078
-0.00702814152219
-0.00704753320555
-0.00707906380561
-0.00716915150682
-0.00746646133451
-0.00846184642755
-0.0125364461686
-0.0301257575929
-0.0843211185509
-0.225933662457
-0.0070450110705
-0.00706143279604
-0.00708225534046
-0.00713717182852
-0.00733511864533
-0.00805797879368
-0.0109623976365
-0.023301079917
-0.0660391276431
-0.274162082835
-0.00706199343168
-0.00707595968397
-0.00708686152357
-0.00710642807283
-0.00719506622092
-0.00757698458319
-0.00892169554838
-0.0112820578379
-0.00857119113859
-0.00909331797194
-0.00707908431579
-0.00709122603936
-0.0070932089225
-0.00707751116517
-0.00703932987708
-0.00691281933754
-0.00575346354161
0.00238566327616
0.0375370671375
0.0363889668247
-0.00709628851722
-0.00710709324232
-0.00710060550651
-0.00704455491225
-0.00682335581655
-0.00583136565557
-0.000743641807183
0.0193438395819
0.0794368456149
0.0587202364912
-0.00711337605475
-0.00712331177603
-0.00710737473414
-0.00698984739078
-0.00642787889546
-0.00388343835708
0.00602668470323
0.0333608740631
0.0325148818318
0.0320639734083
-0.00713030352398
-0.00714032295251
-0.00711303395051
-0.00689911737752
-0.0057810997714
-0.00115897236446
0.0110011584003
0.0200752032262
-0.0906990514315
-0.698665855991
-0.00714697885878
-0.0071564020865
-0.00710792752006
-0.00671230434729
-0.00469742539663
0.00206246667364
0.0122115259079
-0.00144974527401
-0.0286343965577
-0.50808835869
-0.00716310014667
-0.00716863812147
-0.0070647669488
-0.00635252249208
-0.00399939083098
-0.00343570927671
-0.0263062968788
-0.0799155399756
-0.015669721856
0.351788907205
-0.00718113041292
-0.00719825898437
-0.00715560718293
-0.00675407894489
-0.00489839384042
0.000328192935339
0.0089987540405
0.0234326137348
-0.0678242044247
-0.168878175497
-0.00719611207992
-0.00722022315377
-0.0072100406397
-0.00699787599195
-0.005725179845
0.000573748975379
0.028237137157
0.0991643163746
-0.109441226807
-0.219092876291
-0.00720977603606
-0.00723929301332
-0.00723934743483
-0.00704969935587
-0.00563800075275
0.00272145001726
0.038042956135
0.113767309416
0.0729949585443
-0.114762830704
-0.00722326566712
-0.00725753624331
-0.0072447786958
-0.0068264601744
-0.00311443043502
0.0188754335458
0.0937488574296
0.223392023316
0.425212479767
0.00200247214069
-0.00724013085442
-0.00729167252898
-0.0073215319667
-0.00719339486012
-0.00596455691956
0.000839965752137
0.0252124190477
0.0592540005293
-0.0632109585639
-0.10476988779
)
;
    }
    sides
    {
        type            calculated;
        value           nonuniform List<scalar> 0();
    }
    bottom
    {
        type            calculated;
        value           nonuniform List<scalar> 0();
    }
    front
    {
        type            calculated;
        value           nonuniform List<scalar> 
164
(
-0.00695783970834
-0.00697497426273
-0.00699456854913
-0.00702097817341
-0.00707589461584
-0.00723813817064
-0.00773622158243
-0.00926652420633
-0.014832586279
-0.0365600037133
-0.092139303339
-0.0667640500453
-0.00697646662534
-0.00699306391054
-0.0070114318255
-0.00703417161498
-0.00707728182748
-0.0072037201443
-0.00760547645241
-0.00889810411679
-0.0139626869383
-0.0346414215305
-0.0843823946028
-0.21132300078
-0.00702814152219
-0.00704753320555
-0.00707906380561
-0.00716915150682
-0.00746646133451
-0.00846184642755
-0.0125364461686
-0.0301257575929
-0.0843211185509
-0.225933662457
-0.0070450110705
-0.00706143279604
-0.00708225534046
-0.00713717182852
-0.00733511864533
-0.00805797879368
-0.0109623976365
-0.023301079917
-0.0660391276431
-0.274162082835
-0.00706199343168
-0.00707595968397
-0.00708686152357
-0.00710642807283
-0.00719506622092
-0.00757698458319
-0.00892169554838
-0.0112820578379
-0.00857119113859
-0.00909331797194
-0.00707908431579
-0.00709122603936
-0.0070932089225
-0.00707751116517
-0.00703932987708
-0.00691281933754
-0.00575346354161
0.00238566327616
0.0375370671375
0.0363889668247
-0.00709628851722
-0.00710709324232
-0.00710060550651
-0.00704455491225
-0.00682335581655
-0.00583136565557
-0.000743641807183
0.0193438395819
0.0794368456149
0.0587202364912
-0.00711337605475
-0.00712331177603
-0.00710737473414
-0.00698984739078
-0.00642787889546
-0.00388343835708
0.00602668470323
0.0333608740631
0.0325148818318
0.0320639734083
-0.00713030352398
-0.00714032295251
-0.00711303395051
-0.00689911737752
-0.0057810997714
-0.00115897236446
0.0110011584003
0.0200752032262
-0.0906990514315
-0.698665855991
-0.00714697885878
-0.0071564020865
-0.00710792752006
-0.00671230434729
-0.00469742539663
0.00206246667364
0.0122115259079
-0.00144974527401
-0.0286343965577
-0.50808835869
-0.00716310014667
-0.00716863812147
-0.0070647669488
-0.00635252249208
-0.00399939083098
-0.00343570927671
-0.0263062968788
-0.0799155399756
-0.015669721856
0.351788907205
-0.00718113041292
-0.00719825898437
-0.00715560718293
-0.00675407894489
-0.00489839384042
0.000328192935339
0.0089987540405
0.0234326137348
-0.0678242044247
-0.168878175497
-0.00719611207992
-0.00722022315377
-0.0072100406397
-0.00699787599195
-0.005725179845
0.000573748975379
0.028237137157
0.0991643163746
-0.109441226807
-0.219092876291
-0.00720977603606
-0.00723929301332
-0.00723934743483
-0.00704969935587
-0.00563800075275
0.00272145001726
0.038042956135
0.113767309416
0.0729949585443
-0.114762830704
-0.00722326566712
-0.00725753624331
-0.0072447786958
-0.0068264601744
-0.00311443043502
0.0188754335458
0.0937488574296
0.223392023316
0.425212479767
0.00200247214069
-0.00724013085442
-0.00729167252898
-0.0073215319667
-0.00719339486012
-0.00596455691956
0.000839965752137
0.0252124190477
0.0592540005293
-0.0632109585639
-0.10476988779
)
;
    }
    atmosphere
    {
        type            calculated;
        value           nonuniform List<scalar> 
16
(
-2.45530504069e-16
-0.211549051744
-0.225496462087
-0.287680919678
-4.06940022038e-21
-1.06871019552e-18
-2.55213248894e-23
3.55398838921e-26
-4.19126054105
-0.72448473388
-1.82090226907
0.000139117040016
8.61751497599e-32
2.30719211543
-0.703715532311
-1.88117171963
)
;
    }
    floatingObject
    {
        type            calculated;
        value           nonuniform List<scalar> 0();
    }
    procBoundary5to0
    {
        type            processor;
        value           nonuniform List<scalar> 
12
(
-0.00693906864725
-0.0069567218541
-0.00697761796778
-0.00700775631975
-0.0070740518908
-0.00726828430708
-0.00783994656963
-0.0094803621547
-0.0150194683843
-0.0369393316943
-0.0916052101575
-0.0607860007877
)
;
    }
    procBoundary5to3
    {
        type            processor;
        value           nonuniform List<scalar> 10(-0.00725617943473 -0.00732474372685 -0.00738413663978 -0.00738155726901 -0.00690349081596 -0.00379372902406 0.0106867612465 0.0432803900856 -0.113703995752 -0.213787805433);
    }
    procBoundary5to4
    {
        type            processor;
        value           nonuniform List<scalar> 
18
(
-0.00694283846053
-0.00696168369591
-0.00699470828866
-0.00701083649831
-0.00701083649831
-0.00702859283616
-0.00704611184187
-0.00706339263985
-0.00708040397663
-0.00709687786926
-0.00711263858163
-0.00712763389313
-0.00714156136971
-0.00715459512602
-0.00716520861354
-0.00717373030657
-0.00718041658187
-0.00718569579292
)
;
    }
}


// ************************************************************************* //
