/*--------------------------------*- C++ -*----------------------------------*\
| =========                 |                                                 |
| \\      /  F ield         | OpenFOAM: The Open Source CFD Toolbox           |
|  \\    /   O peration     | Version:  v2012                                 |
|   \\  /    A nd           | Website:  www.openfoam.com                      |
|    \\/     M anipulation  |                                                 |
\*---------------------------------------------------------------------------*/
FoamFile
{
    version     2.0;
    format      ascii;
    class       volScalarField;
    location    "2";
    object      epsilon;
}
// * * * * * * * * * * * * * * * * * * * * * * * * * * * * * * * * * * * * * //

dimensions      [0 2 -3 0 0 0 0];


internalField   nonuniform List<scalar> 
164
(
0.00638770036248
0.00640804881455
0.00643304192652
0.00647086835787
0.00654996260984
0.00675618305246
0.00732764932448
0.00893191236861
0.0135475052459
0.0263062299284
0.0579642289673
0.157144041016
0.0063979842604
0.00641887527747
0.00644409883675
0.00648085713197
0.00655486982024
0.00674603424792
0.0072832927084
0.0088204887686
0.0132443883881
0.02481268871
0.0484126519502
0.0868549903197
0.00645501525366
0.00649114998099
0.00656080015055
0.00673832063081
0.00724340550396
0.00872236296691
0.0130625584537
0.0246102232356
0.0493103283064
0.0825857674042
0.00646572116555
0.0065017242273
0.00656780168797
0.00673255852237
0.00720533383473
0.0086196281063
0.0128954428386
0.0251399373984
0.0559324414911
0.102784504465
0.00647609078326
0.00651245083296
0.00657568046263
0.00672840375001
0.00716749299665
0.00850458811644
0.0127045572849
0.0261823083523
0.0677045683141
0.166870172085
0.00648597270633
0.00652317898859
0.0065843983586
0.00672641951344
0.00713315558546
0.00839425079452
0.0125372328104
0.0269439777159
0.073453999945
0.173347683538
0.0064950929339
0.00653362549949
0.0065936777806
0.00672648021576
0.00710514715408
0.00831641432468
0.0125603235632
0.0282143510067
0.0786321671378
0.176831364908
0.00650324035382
0.0065436558616
0.00660377234255
0.0067315112239
0.0071040364312
0.00837642762984
0.0130722671274
0.0299873592783
0.0800797022075
0.177193233736
0.00651019233461
0.00655300088896
0.00661469670043
0.00674606858997
0.00716506408367
0.00874151118062
0.0143837456019
0.0305762880863
0.066442250661
0.149462200586
0.00651549294935
0.00656089915941
0.00662540655762
0.00676735024272
0.00727302465684
0.00928043406964
0.0159974808293
0.0330276755843
0.0688851328231
0.117868451179
0.00651904306796
0.00656817448539
0.00664338176089
0.00685489406857
0.00777006718056
0.0113135204976
0.0209739908512
0.0408030328712
0.0847509665405
0.157428038587
0.00651969545693
0.00656996812579
0.00663801532249
0.00678288573373
0.00731873537869
0.00948966934704
0.0170593422466
0.0403908127519
0.100448990863
0.186262675255
0.00651840658493
0.0065706490435
0.00663523463437
0.00674174194304
0.00705141385066
0.00832624782642
0.0142032353927
0.0387947171879
0.10809716709
0.194552355729
0.00651520037478
0.0065702360149
0.00663537836483
0.00673228164912
0.00699881933974
0.00819084622708
0.0139737023011
0.0366425768443
0.0979034455787
0.189514940057
0.00651010542026
0.00656864010789
0.00663755223893
0.0067482648932
0.00717428648627
0.00961808508486
0.0206918520852
0.0519344281297
0.109775864806
0.196880286586
0.00650295441859
0.00656470755944
0.00663424310578
0.00672646638057
0.00696608561701
0.00807794031089
0.0133249454484
0.033357491527
0.0850698720937
0.181384638385
)
;

boundaryField
{
    back
    {
        lowReCorrection 0;
        blending        stepwise;
        n               2;
        type            epsilonWallFunction;
        value           nonuniform List<scalar> 
164
(
0.00638770036248
0.00640804881455
0.00643304192652
0.00647086835787
0.00654996260984
0.00675618305246
0.00732764932448
0.00893191236861
0.0135475052459
0.0263062299284
0.0579642289673
0.157144041016
0.0063979842604
0.00641887527747
0.00644409883675
0.00648085713197
0.00655486982024
0.00674603424792
0.0072832927084
0.0088204887686
0.0132443883881
0.02481268871
0.0484126519502
0.0868549903197
0.00645501525366
0.00649114998099
0.00656080015055
0.00673832063081
0.00724340550396
0.00872236296691
0.0130625584537
0.0246102232356
0.0493103283064
0.0825857674042
0.00646572116555
0.0065017242273
0.00656780168797
0.00673255852237
0.00720533383473
0.0086196281063
0.0128954428386
0.0251399373984
0.0559324414911
0.102784504465
0.00647609078326
0.00651245083296
0.00657568046263
0.00672840375001
0.00716749299665
0.00850458811644
0.0127045572849
0.0261823083523
0.0677045683141
0.166870172085
0.00648597270633
0.00652317898859
0.0065843983586
0.00672641951344
0.00713315558546
0.00839425079452
0.0125372328104
0.0269439777159
0.073453999945
0.173347683538
0.0064950929339
0.00653362549949
0.0065936777806
0.00672648021576
0.00710514715408
0.00831641432468
0.0125603235632
0.0282143510067
0.0786321671378
0.176831364908
0.00650324035382
0.0065436558616
0.00660377234255
0.0067315112239
0.0071040364312
0.00837642762984
0.0130722671274
0.0299873592783
0.0800797022075
0.177193233736
0.00651019233461
0.00655300088896
0.00661469670043
0.00674606858997
0.00716506408367
0.00874151118062
0.0143837456019
0.0305762880863
0.066442250661
0.149462200586
0.00651549294935
0.00656089915941
0.00662540655762
0.00676735024272
0.00727302465684
0.00928043406964
0.0159974808293
0.0330276755843
0.0688851328231
0.117868451179
0.00651904306796
0.00656817448539
0.00664338176089
0.00685489406857
0.00777006718056
0.0113135204976
0.0209739908512
0.0408030328712
0.0847509665405
0.157428038587
0.00651969545693
0.00656996812579
0.00663801532249
0.00678288573373
0.00731873537869
0.00948966934704
0.0170593422466
0.0403908127519
0.100448990863
0.186262675255
0.00651840658493
0.0065706490435
0.00663523463437
0.00674174194304
0.00705141385066
0.00832624782642
0.0142032353927
0.0387947171879
0.10809716709
0.194552355729
0.00651520037478
0.0065702360149
0.00663537836483
0.00673228164912
0.00699881933974
0.00819084622708
0.0139737023011
0.0366425768443
0.0979034455787
0.189514940057
0.00651010542026
0.00656864010789
0.00663755223893
0.0067482648932
0.00717428648627
0.00961808508486
0.0206918520852
0.0519344281297
0.109775864806
0.196880286586
0.00650295441859
0.00656470755944
0.00663424310578
0.00672646638057
0.00696608561701
0.00807794031089
0.0133249454484
0.033357491527
0.0850698720937
0.181384638385
)
;
    }
    sides
    {
        lowReCorrection 0;
        blending        stepwise;
        n               2;
        type            epsilonWallFunction;
        value           nonuniform List<scalar> 0();
    }
    bottom
    {
        lowReCorrection 0;
        blending        stepwise;
        n               2;
        type            epsilonWallFunction;
        value           nonuniform List<scalar> 0();
    }
    front
    {
        lowReCorrection 0;
        blending        stepwise;
        n               2;
        type            epsilonWallFunction;
        value           nonuniform List<scalar> 
164
(
0.00638770036248
0.00640804881455
0.00643304192652
0.00647086835787
0.00654996260984
0.00675618305246
0.00732764932448
0.00893191236861
0.0135475052459
0.0263062299284
0.0579642289673
0.157144041016
0.0063979842604
0.00641887527747
0.00644409883675
0.00648085713197
0.00655486982024
0.00674603424792
0.0072832927084
0.0088204887686
0.0132443883881
0.02481268871
0.0484126519502
0.0868549903197
0.00645501525366
0.00649114998099
0.00656080015055
0.00673832063081
0.00724340550396
0.00872236296691
0.0130625584537
0.0246102232356
0.0493103283064
0.0825857674042
0.00646572116555
0.0065017242273
0.00656780168797
0.00673255852237
0.00720533383473
0.0086196281063
0.0128954428386
0.0251399373984
0.0559324414911
0.102784504465
0.00647609078326
0.00651245083296
0.00657568046263
0.00672840375001
0.00716749299665
0.00850458811644
0.0127045572849
0.0261823083523
0.0677045683141
0.166870172085
0.00648597270633
0.00652317898859
0.0065843983586
0.00672641951344
0.00713315558546
0.00839425079452
0.0125372328104
0.0269439777159
0.073453999945
0.173347683538
0.0064950929339
0.00653362549949
0.0065936777806
0.00672648021576
0.00710514715408
0.00831641432468
0.0125603235632
0.0282143510067
0.0786321671378
0.176831364908
0.00650324035382
0.0065436558616
0.00660377234255
0.0067315112239
0.0071040364312
0.00837642762984
0.0130722671274
0.0299873592783
0.0800797022075
0.177193233736
0.00651019233461
0.00655300088896
0.00661469670043
0.00674606858997
0.00716506408367
0.00874151118062
0.0143837456019
0.0305762880863
0.066442250661
0.149462200586
0.00651549294935
0.00656089915941
0.00662540655762
0.00676735024272
0.00727302465684
0.00928043406964
0.0159974808293
0.0330276755843
0.0688851328231
0.117868451179
0.00651904306796
0.00656817448539
0.00664338176089
0.00685489406857
0.00777006718056
0.0113135204976
0.0209739908512
0.0408030328712
0.0847509665405
0.157428038587
0.00651969545693
0.00656996812579
0.00663801532249
0.00678288573373
0.00731873537869
0.00948966934704
0.0170593422466
0.0403908127519
0.100448990863
0.186262675255
0.00651840658493
0.0065706490435
0.00663523463437
0.00674174194304
0.00705141385066
0.00832624782642
0.0142032353927
0.0387947171879
0.10809716709
0.194552355729
0.00651520037478
0.0065702360149
0.00663537836483
0.00673228164912
0.00699881933974
0.00819084622708
0.0139737023011
0.0366425768443
0.0979034455787
0.189514940057
0.00651010542026
0.00656864010789
0.00663755223893
0.0067482648932
0.00717428648627
0.00961808508486
0.0206918520852
0.0519344281297
0.109775864806
0.196880286586
0.00650295441859
0.00656470755944
0.00663424310578
0.00672646638057
0.00696608561701
0.00807794031089
0.0133249454484
0.033357491527
0.0850698720937
0.181384638385
)
;
    }
    atmosphere
    {
        type            inletOutlet;
        inletValue      uniform 0.1;
        value           nonuniform List<scalar> 
16
(
0.157144041016
0.0868549903197
0.0825857674042
0.102784504465
0.1
0.1
0.1
0.1
0.149462200586
0.117868451179
0.1
0.1
0.1
0.1
0.1
0.1
)
;
    }
    floatingObject
    {
        lowReCorrection 0;
        blending        stepwise;
        n               2;
        type            epsilonWallFunction;
        value           nonuniform List<scalar> 0();
    }
    procBoundary5to0
    {
        type            processor;
        value           nonuniform List<scalar> 
12
(
0.00637682968574
0.00639684827751
0.00642188060353
0.00646113959526
0.00654581726984
0.00676762043539
0.00737294451672
0.00904207738554
0.0138413545344
0.0274861901724
0.0622927722358
0.163615129781
)
;
    }
    procBoundary5to3
    {
        type            processor;
        value           nonuniform List<scalar> 10(0.00649431496755 0.0065602555268 0.00663228219148 0.00671788266425 0.00688109984573 0.0075250908405 0.0109739299005 0.0286061241094 0.0938059825585 0.192307666533);
    }
    procBoundary5to4
    {
        type            processor;
        value           nonuniform List<scalar> 
18
(
0.00636992469797
0.00637964984122
0.00640759931402
0.00642926313247
0.00642926313247
0.00643912002927
0.00644831112337
0.00645667562795
0.00646400265186
0.00647004789773
0.00647457491714
0.00647734573784
0.00647807111037
0.00647637477389
0.00647241443685
0.00646613661735
0.00645752161479
0.00644649694414
)
;
    }
}


// ************************************************************************* //
