/*--------------------------------*- C++ -*----------------------------------*\
| =========                 |                                                 |
| \\      /  F ield         | OpenFOAM: The Open Source CFD Toolbox           |
|  \\    /   O peration     | Version:  v2012                                 |
|   \\  /    A nd           | Website:  www.openfoam.com                      |
|    \\/     M anipulation  |                                                 |
\*---------------------------------------------------------------------------*/
FoamFile
{
    version     2.0;
    format      ascii;
    class       volScalarField;
    location    "2";
    object      p;
}
// * * * * * * * * * * * * * * * * * * * * * * * * * * * * * * * * * * * * * //

dimensions      [1 -1 -2 0 0 0 0];


internalField   nonuniform List<scalar> 
164
(
4452.55405971
3959.88023475
3466.73900869
2973.0883887
2478.87801791
1984.0561449
1488.59261864
992.368809148
496.820302336
116.897847013
-9.04668154516
-9.56318404958
4459.0181748
3966.72029846
3474.04711586
2980.98863693
2487.5439818
1993.73619314
1499.6386927
1005.33339979
512.182420453
125.811194666
-9.08758815805
-9.56018362997
3481.7348265
2989.26765258
2496.57087483
2003.72728163
1510.89852422
1018.3029296
526.737827452
134.815107237
-9.15446100955
-9.57132872922
3489.68444045
2997.76280161
2505.72773147
2013.70416733
1521.9090049
1030.66429056
540.664139345
143.48462087
-9.14847594674
-9.59509206122
3497.80204199
3006.35235044
2514.85096272
2023.43782868
1532.35307715
1041.97803741
553.061718373
151.070825048
-8.71600409535
-9.56642337341
3506.02854999
3014.96808191
2523.85476981
2032.80808403
1542.04746601
1051.98528046
563.536948001
157.596564333
-8.61884176544
-9.53771563546
3514.34643773
3023.60505684
2532.75028149
2041.83557388
1550.94854667
1060.35843218
570.821537456
161.503121324
-8.86598362506
-9.49835337063
3522.76717999
3032.31156326
2541.6485412
2050.74178468
1559.49330021
1067.77998011
575.092770553
161.568959366
-9.08952442274
-9.54505941315
3531.31881908
3041.15244867
2550.65827892
2059.70207193
1568.09383647
1075.3480433
580.080704163
159.383949426
-9.1271305737
-9.60126742571
3540.06641052
3050.27769239
2560.06612102
2069.1781059
1577.37787247
1084.49991122
590.187522357
164.470297083
-8.72660136944
-9.61302452124
3549.03540427
3059.77936833
2570.0825301
2079.51622874
1587.62946769
1094.07237516
598.052078653
167.536043732
-2.67282635657
-9.58198625062
3558.18608269
3069.65630084
2580.85750071
2091.54873045
1601.60430427
1110.71578576
617.274282637
182.326729874
-4.94732583928
-9.56755616832
3567.42681674
3079.7762401
2592.08091939
2104.22376885
1616.25759485
1127.56450192
638.445740876
200.738771356
-4.34523160201
-9.54499490789
3576.57328275
3089.84047848
2603.25438911
2116.7591069
1630.30917886
1142.11050771
653.740644377
214.404889217
2.44879517384
-9.65941297111
3585.46485115
3099.68109464
2614.31426161
2129.53038016
1645.82541279
1159.69606387
668.415406816
217.260765701
6.30848840656
-9.79906501849
3593.89223524
3108.87265556
2624.15308893
2139.44145604
1653.73409569
1167.25549028
679.188774561
232.009566402
9.33867621538
-9.66179494347
)
;

boundaryField
{
    back
    {
        type            calculated;
        value           nonuniform List<scalar> 
164
(
4452.55405971
3959.88023475
3466.73900869
2973.0883887
2478.87801791
1984.0561449
1488.59261864
992.368809148
496.820302336
116.897847013
-9.04668154516
-9.56318404958
4459.0181748
3966.72029846
3474.04711586
2980.98863693
2487.5439818
1993.73619314
1499.6386927
1005.33339979
512.182420453
125.811194666
-9.08758815805
-9.56018362997
3481.7348265
2989.26765258
2496.57087483
2003.72728163
1510.89852422
1018.3029296
526.737827452
134.815107237
-9.15446100955
-9.57132872922
3489.68444045
2997.76280161
2505.72773147
2013.70416733
1521.9090049
1030.66429056
540.664139345
143.48462087
-9.14847594674
-9.59509206122
3497.80204199
3006.35235044
2514.85096272
2023.43782868
1532.35307715
1041.97803741
553.061718373
151.070825048
-8.71600409535
-9.56642337341
3506.02854999
3014.96808191
2523.85476981
2032.80808403
1542.04746601
1051.98528046
563.536948001
157.596564333
-8.61884176544
-9.53771563546
3514.34643773
3023.60505684
2532.75028149
2041.83557388
1550.94854667
1060.35843218
570.821537456
161.503121324
-8.86598362506
-9.49835337063
3522.76717999
3032.31156326
2541.6485412
2050.74178468
1559.49330021
1067.77998011
575.092770553
161.568959366
-9.08952442274
-9.54505941315
3531.31881908
3041.15244867
2550.65827892
2059.70207193
1568.09383647
1075.3480433
580.080704163
159.383949426
-9.1271305737
-9.60126742571
3540.06641052
3050.27769239
2560.06612102
2069.1781059
1577.37787247
1084.49991122
590.187522357
164.470297083
-8.72660136944
-9.61302452124
3549.03540427
3059.77936833
2570.0825301
2079.51622874
1587.62946769
1094.07237516
598.052078653
167.536043732
-2.67282635657
-9.58198625062
3558.18608269
3069.65630084
2580.85750071
2091.54873045
1601.60430427
1110.71578576
617.274282637
182.326729874
-4.94732583928
-9.56755616832
3567.42681674
3079.7762401
2592.08091939
2104.22376885
1616.25759485
1127.56450192
638.445740876
200.738771356
-4.34523160201
-9.54499490789
3576.57328275
3089.84047848
2603.25438911
2116.7591069
1630.30917886
1142.11050771
653.740644377
214.404889217
2.44879517384
-9.65941297111
3585.46485115
3099.68109464
2614.31426161
2129.53038016
1645.82541279
1159.69606387
668.415406816
217.260765701
6.30848840656
-9.79906501849
3593.89223524
3108.87265556
2624.15308893
2139.44145604
1653.73409569
1167.25549028
679.188774561
232.009566402
9.33867621538
-9.66179494347
)
;
    }
    sides
    {
        type            calculated;
        value           nonuniform List<scalar> 0();
    }
    bottom
    {
        type            calculated;
        value           nonuniform List<scalar> 0();
    }
    front
    {
        type            calculated;
        value           nonuniform List<scalar> 
164
(
4452.55405971
3959.88023475
3466.73900869
2973.0883887
2478.87801791
1984.0561449
1488.59261864
992.368809148
496.820302336
116.897847013
-9.04668154516
-9.56318404958
4459.0181748
3966.72029846
3474.04711586
2980.98863693
2487.5439818
1993.73619314
1499.6386927
1005.33339979
512.182420453
125.811194666
-9.08758815805
-9.56018362997
3481.7348265
2989.26765258
2496.57087483
2003.72728163
1510.89852422
1018.3029296
526.737827452
134.815107237
-9.15446100955
-9.57132872922
3489.68444045
2997.76280161
2505.72773147
2013.70416733
1521.9090049
1030.66429056
540.664139345
143.48462087
-9.14847594674
-9.59509206122
3497.80204199
3006.35235044
2514.85096272
2023.43782868
1532.35307715
1041.97803741
553.061718373
151.070825048
-8.71600409535
-9.56642337341
3506.02854999
3014.96808191
2523.85476981
2032.80808403
1542.04746601
1051.98528046
563.536948001
157.596564333
-8.61884176544
-9.53771563546
3514.34643773
3023.60505684
2532.75028149
2041.83557388
1550.94854667
1060.35843218
570.821537456
161.503121324
-8.86598362506
-9.49835337063
3522.76717999
3032.31156326
2541.6485412
2050.74178468
1559.49330021
1067.77998011
575.092770553
161.568959366
-9.08952442274
-9.54505941315
3531.31881908
3041.15244867
2550.65827892
2059.70207193
1568.09383647
1075.3480433
580.080704163
159.383949426
-9.1271305737
-9.60126742571
3540.06641052
3050.27769239
2560.06612102
2069.1781059
1577.37787247
1084.49991122
590.187522357
164.470297083
-8.72660136944
-9.61302452124
3549.03540427
3059.77936833
2570.0825301
2079.51622874
1587.62946769
1094.07237516
598.052078653
167.536043732
-2.67282635657
-9.58198625062
3558.18608269
3069.65630084
2580.85750071
2091.54873045
1601.60430427
1110.71578576
617.274282637
182.326729874
-4.94732583928
-9.56755616832
3567.42681674
3079.7762401
2592.08091939
2104.22376885
1616.25759485
1127.56450192
638.445740876
200.738771356
-4.34523160201
-9.54499490789
3576.57328275
3089.84047848
2603.25438911
2116.7591069
1630.30917886
1142.11050771
653.740644377
214.404889217
2.44879517384
-9.65941297111
3585.46485115
3099.68109464
2614.31426161
2129.53038016
1645.82541279
1159.69606387
668.415406816
217.260765701
6.30848840656
-9.79906501849
3593.89223524
3108.87265556
2624.15308893
2139.44145604
1653.73409569
1167.25549028
679.188774561
232.009566402
9.33867621538
-9.66179494347
)
;
    }
    atmosphere
    {
        type            calculated;
        value           nonuniform List<scalar> 
16
(
-9.81022144703
-9.81008564842
-9.81000005745
-9.81
-9.8133880755
-9.81944168205
-9.82009881601
-9.81753131084
-9.81
-9.80999987799
-9.8362547183
-9.81137547325
-9.81580756103
-9.83701458811
-9.88020683205
-9.81779067031
)
;
    }
    floatingObject
    {
        type            calculated;
        value           nonuniform List<scalar> 0();
    }
    procBoundary5to0
    {
        type            processor;
        value           nonuniform List<scalar> 
12
(
4446.52064094
3953.50776119
3459.94042626
2965.74741852
2470.83579973
1975.08918083
1478.3954364
980.762725636
482.46486802
108.89383827
-9.04068225207
-9.55956012439
)
;
    }
    procBoundary5to3
    {
        type            processor;
        value           nonuniform List<scalar> 10(3601.87507123 3117.68756692 2633.878806 2150.2592746 1666.72352186 1183.84833048 703.264984474 250.964673789 10.4434183558 -9.77205314517);
    }
    procBoundary5to4
    {
        type            processor;
        value           nonuniform List<scalar> 
18
(
4944.797788
4950.95642955
4465.83833506
3973.9308938
3973.9308938
3981.4234741
3989.12260254
3996.9753332
4004.95291017
4013.04524586
4021.25509964
4029.59399585
4038.05260693
4046.57944625
4055.09572795
4063.47299778
4071.57979018
4079.28047321
)
;
    }
}


// ************************************************************************* //
