/*--------------------------------*- C++ -*----------------------------------*\
| =========                 |                                                 |
| \\      /  F ield         | OpenFOAM: The Open Source CFD Toolbox           |
|  \\    /   O peration     | Version:  v2012                                 |
|   \\  /    A nd           | Website:  www.openfoam.com                      |
|    \\/     M anipulation  |                                                 |
\*---------------------------------------------------------------------------*/
FoamFile
{
    version     2.0;
    format      ascii;
    class       volScalarField;
    location    "2";
    object      p_rgh;
}
// * * * * * * * * * * * * * * * * * * * * * * * * * * * * * * * * * * * * * //

dimensions      [1 -1 -2 0 0 0 0];


internalField   nonuniform List<scalar> 
164
(
8614.3018732
8611.24378577
8607.71888372
8603.68467936
8599.0904889
8593.8837073
8588.03973824
8581.43358976
8552.92673524
4511.05385776
0.752883848847
0.00178186128067
8620.76600662
8618.08444313
8615.02838986
8611.58713715
8607.75941626
8603.56686013
8599.08640592
8594.39819607
8579.61239943
4831.8506349
0.228251381944
0.00464987724223
8622.71603023
8619.86611699
8616.78640522
8613.55828497
8610.34454863
8607.36771016
8603.35003017
5157.24306203
-0.0801318074668
-0.00657867321157
8630.66557804
8628.36105288
8625.94312332
8623.53537118
8621.35504833
8619.72773317
8619.34423391
5474.28728332
-0.0742259467447
-0.0303420612171
8638.78306718
8636.95047987
8635.06631078
8633.26920902
8631.79937498
8631.04128583
8631.741877
5728.53363979
14.0196232826
-0.00167337342733
8647.00943632
8645.56619544
8644.07018594
8642.63965143
8641.4938576
8641.0487002
8642.2171041
5963.23842174
20.1699964316
0.0270343645425
8655.32719133
8654.20323256
8652.96583331
8651.66728819
8650.3950011
8649.4219236
8649.50146021
6139.87576056
0.208266374938
0.0663966293735
8663.7478355
8662.90985063
8661.86423222
8660.57346901
8658.94009045
8656.84393455
8653.77228838
6154.76013299
-0.0152744227432
0.0196905868493
8672.29941551
8671.75086348
8670.87401678
8669.53317444
8667.54175888
8664.4130825
8658.75938568
6051.6518683
-0.0528698792995
-0.0365174257118
8681.04695563
8680.87620754
8680.28174583
8679.00895235
8676.82578054
8673.56491656
8668.8665158
6210.90286507
0.347638546238
-0.0482746401941
8690.01583847
8690.37787538
8690.29753845
8689.34604198
8687.07643197
8683.13631241
8676.73095556
5635.99331271
277.205284764
-0.0172362512019
8699.16624685
8700.25472456
8701.07247413
8701.37921806
8701.05140958
8699.77995648
8695.9517248
6559.64476837
148.159033395
-0.00280616832294
8708.40638943
8710.37426914
8712.29535256
8714.05429962
8715.70446161
8716.62860124
8717.12233785
7305.08897868
169.477967291
0.0197550921127
8717.55126825
8720.43678557
8723.46681588
8726.58745004
8729.75408369
8731.1730419
8732.41193151
7309.07403449
459.964519965
-0.0946629711092
8726.4396042
8730.27475612
8734.52314727
8739.35524177
8745.26779342
8748.75615518
8747.05051286
6891.31090463
620.487929153
-0.234315018489
8734.86439693
8739.46448842
8744.36045448
8749.26295607
8753.17248967
8756.31070726
8757.85579235
7561.27465465
710.090700654
-0.0970449434653
)
;

boundaryField
{
    back
    {
        type            fixedFluxPressure;
        gradient        uniform 0;
        value           nonuniform List<scalar> 
164
(
8614.3018732
8611.24378577
8607.71888372
8603.68467936
8599.0904889
8593.8837073
8588.03973824
8581.43358976
8552.92673524
4511.05385776
0.752883848847
0.00178186128067
8620.76600662
8618.08444313
8615.02838986
8611.58713715
8607.75941626
8603.56686013
8599.08640592
8594.39819607
8579.61239943
4831.8506349
0.228251381944
0.00464987724223
8622.71603023
8619.86611699
8616.78640522
8613.55828497
8610.34454863
8607.36771016
8603.35003017
5157.24306203
-0.0801318074668
-0.00657867321157
8630.66557804
8628.36105288
8625.94312332
8623.53537118
8621.35504833
8619.72773317
8619.34423391
5474.28728332
-0.0742259467447
-0.0303420612171
8638.78306718
8636.95047987
8635.06631078
8633.26920902
8631.79937498
8631.04128583
8631.741877
5728.53363979
14.0196232826
-0.00167337342733
8647.00943632
8645.56619544
8644.07018594
8642.63965143
8641.4938576
8641.0487002
8642.2171041
5963.23842174
20.1699964316
0.0270343645425
8655.32719133
8654.20323256
8652.96583331
8651.66728819
8650.3950011
8649.4219236
8649.50146021
6139.87576056
0.208266374938
0.0663966293735
8663.7478355
8662.90985063
8661.86423222
8660.57346901
8658.94009045
8656.84393455
8653.77228838
6154.76013299
-0.0152744227432
0.0196905868493
8672.29941551
8671.75086348
8670.87401678
8669.53317444
8667.54175888
8664.4130825
8658.75938568
6051.6518683
-0.0528698792995
-0.0365174257118
8681.04695563
8680.87620754
8680.28174583
8679.00895235
8676.82578054
8673.56491656
8668.8665158
6210.90286507
0.347638546238
-0.0482746401941
8690.01583847
8690.37787538
8690.29753845
8689.34604198
8687.07643197
8683.13631241
8676.73095556
5635.99331271
277.205284764
-0.0172362512019
8699.16624685
8700.25472456
8701.07247413
8701.37921806
8701.05140958
8699.77995648
8695.9517248
6559.64476837
148.159033395
-0.00280616832294
8708.40638943
8710.37426914
8712.29535256
8714.05429962
8715.70446161
8716.62860124
8717.12233785
7305.08897868
169.477967291
0.0197550921127
8717.55126825
8720.43678557
8723.46681588
8726.58745004
8729.75408369
8731.1730419
8732.41193151
7309.07403449
459.964519965
-0.0946629711092
8726.4396042
8730.27475612
8734.52314727
8739.35524177
8745.26779342
8748.75615518
8747.05051286
6891.31090463
620.487929153
-0.234315018489
8734.86439693
8739.46448842
8744.36045448
8749.26295607
8753.17248967
8756.31070726
8757.85579235
7561.27465465
710.090700654
-0.0970449434653
)
;
    }
    sides
    {
        type            fixedFluxPressure;
        gradient        nonuniform List<scalar> 0();
        value           nonuniform List<scalar> 0();
    }
    bottom
    {
        type            fixedFluxPressure;
        gradient        nonuniform List<scalar> 0();
        value           nonuniform List<scalar> 0();
    }
    front
    {
        type            fixedFluxPressure;
        gradient        uniform 0;
        value           nonuniform List<scalar> 
164
(
8614.3018732
8611.24378577
8607.71888372
8603.68467936
8599.0904889
8593.8837073
8588.03973824
8581.43358976
8552.92673524
4511.05385776
0.752883848847
0.00178186128067
8620.76600662
8618.08444313
8615.02838986
8611.58713715
8607.75941626
8603.56686013
8599.08640592
8594.39819607
8579.61239943
4831.8506349
0.228251381944
0.00464987724223
8622.71603023
8619.86611699
8616.78640522
8613.55828497
8610.34454863
8607.36771016
8603.35003017
5157.24306203
-0.0801318074668
-0.00657867321157
8630.66557804
8628.36105288
8625.94312332
8623.53537118
8621.35504833
8619.72773317
8619.34423391
5474.28728332
-0.0742259467447
-0.0303420612171
8638.78306718
8636.95047987
8635.06631078
8633.26920902
8631.79937498
8631.04128583
8631.741877
5728.53363979
14.0196232826
-0.00167337342733
8647.00943632
8645.56619544
8644.07018594
8642.63965143
8641.4938576
8641.0487002
8642.2171041
5963.23842174
20.1699964316
0.0270343645425
8655.32719133
8654.20323256
8652.96583331
8651.66728819
8650.3950011
8649.4219236
8649.50146021
6139.87576056
0.208266374938
0.0663966293735
8663.7478355
8662.90985063
8661.86423222
8660.57346901
8658.94009045
8656.84393455
8653.77228838
6154.76013299
-0.0152744227432
0.0196905868493
8672.29941551
8671.75086348
8670.87401678
8669.53317444
8667.54175888
8664.4130825
8658.75938568
6051.6518683
-0.0528698792995
-0.0365174257118
8681.04695563
8680.87620754
8680.28174583
8679.00895235
8676.82578054
8673.56491656
8668.8665158
6210.90286507
0.347638546238
-0.0482746401941
8690.01583847
8690.37787538
8690.29753845
8689.34604198
8687.07643197
8683.13631241
8676.73095556
5635.99331271
277.205284764
-0.0172362512019
8699.16624685
8700.25472456
8701.07247413
8701.37921806
8701.05140958
8699.77995648
8695.9517248
6559.64476837
148.159033395
-0.00280616832294
8708.40638943
8710.37426914
8712.29535256
8714.05429962
8715.70446161
8716.62860124
8717.12233785
7305.08897868
169.477967291
0.0197550921127
8717.55126825
8720.43678557
8723.46681588
8726.58745004
8729.75408369
8731.1730419
8732.41193151
7309.07403449
459.964519965
-0.0946629711092
8726.4396042
8730.27475612
8734.52314727
8739.35524177
8745.26779342
8748.75615518
8747.05051286
6891.31090463
620.487929153
-0.234315018489
8734.86439693
8739.46448842
8744.36045448
8749.26295607
8753.17248967
8756.31070726
8757.85579235
7561.27465465
710.090700654
-0.0970449434653
)
;
    }
    atmosphere
    {
        type            totalPressure;
        rho             rho;
        psi             none;
        gamma           1;
        p0              uniform 0;
        value           nonuniform List<scalar> 
16
(
0
0
0
0
-0.0033880755031
-0.00944168204759
-0.0100988160109
-0.00753131083541
0
0
-0.0262547182953
-0.00137547325375
-0.0058075610295
-0.0270145881102
-0.0702068320507
-0.0077906703112
)
;
    }
    floatingObject
    {
        type            fixedFluxPressure;
        gradient        nonuniform List<scalar> 0();
        value           nonuniform List<scalar> 0();
    }
    procBoundary5to0
    {
        type            processor;
        value           nonuniform List<scalar> 
12
(
8608.26757741
8604.87115571
8600.9203597
8596.34388638
8591.04851609
8584.91674397
8577.84159987
8569.82733114
8523.28297836
4223.82654221
0.127485488649
0.00525608939911
)
;
    }
    procBoundary5to3
    {
        type            processor;
        value           nonuniform List<scalar> 10(8742.84708422 8748.27513624 8754.08032499 8760.07462759 8766.15131691 8772.8993277 8781.93176587 8154.28524137 751.017214897 -0.207303145172);
    }
    procBoundary5to4
    {
        type            processor;
        value           nonuniform List<scalar> 
18
(
8616.92819791
8623.08639376
8627.5856631
8625.29489616
8625.29489616
8632.78737864
8640.48621119
8648.33867621
8656.31606299
8664.40828914
8672.61810074
8680.95699019
8689.41557592
8697.94228996
8706.45820787
8714.83445441
8722.93917333
8730.63938603
)
;
    }
}


// ************************************************************************* //
