/*--------------------------------*- C++ -*----------------------------------*\
| =========                 |                                                 |
| \\      /  F ield         | OpenFOAM: The Open Source CFD Toolbox           |
|  \\    /   O peration     | Version:  v2012                                 |
|   \\  /    A nd           | Website:  www.openfoam.com                      |
|    \\/     M anipulation  |                                                 |
\*---------------------------------------------------------------------------*/
FoamFile
{
    version     2.0;
    format      ascii;
    class       surfaceVectorField;
    location    "2";
    object      Uf_0;
}
// * * * * * * * * * * * * * * * * * * * * * * * * * * * * * * * * * * * * * //

dimensions      [0 1 -1 0 0 0 0];


internalField   nonuniform List<vector> 
300
(
(-0.0600347353954 -0.00623474732229 -1.57866288929e-23)
(-0.0589079819573 -0.00680525620452 -5.4911192144e-24)
(-0.0618699068241 -0.00662373533915 -2.43441963766e-23)
(-0.0607363131572 -0.00735082043276 -6.39155236382e-24)
(-0.063844298696 -0.00682478300217 -1.39240166183e-23)
(-0.0627406175065 -0.00772723547294 -2.54382776165e-23)
(-0.0659386959047 -0.00676484325382 -1.20657035021e-23)
(-0.0649118175319 -0.00787935377858 1.49562037623e-23)
(-0.0681807709319 -0.0063454455522 5.71167761987e-23)
(-0.0672465784232 -0.00773521835187 7.45457580418e-23)
(-0.0706778681695 -0.00545459544852 7.51649599255e-23)
(-0.0698328192273 -0.00707581495991 4.13076953319e-22)
(-0.0734174023286 -0.00396328172146 -1.08200545761e-21)
(-0.0728234636544 -0.00577489380466 -1.64187895236e-22)
(-0.0759959202137 -0.00156835075006 -3.52149903966e-21)
(-0.0762063602974 -0.0042419166625 -1.14729491999e-21)
(-0.0764354084319 0.00136940340435 -8.1575695693e-21)
(-0.0789733918866 -0.000584394366549 -5.36744687858e-21)
(-0.0715450062019 0.00407328808567 -1.14495575092e-20)
(-0.0775739744458 -0.00366231080723 -9.31959908172e-21)
(-0.0297300639715 0.000701108956857 -6.95287395009e-21)
(-0.0662375649803 0.00363279055637 -9.12395513428e-21)
(0.00754704465281 0.00749550181728 2.43877201821e-23)
(-0.0594862003125 -0.00804471719882 3.90395731468e-24)
(-0.0614885031699 -0.00860743627595 -7.48563360379e-24)
(-0.0636941551311 -0.00896768781506 3.44194276412e-24)
(-0.0623802228694 -0.00991753998042 -8.34548006936e-24)
(-0.0660974564311 -0.00904973935316 1.01567665306e-22)
(-0.0648295753083 -0.0102572574127 5.6379219647e-23)
(-0.0687296001434 -0.00877027004633 4.30505935162e-22)
(-0.0675258227627 -0.0102921787986 1.92143438591e-22)
(-0.0717293606907 -0.00798079222654 1.73724098158e-22)
(-0.0706220646396 -0.00984742345582 6.11688653379e-22)
(-0.0751053528288 -0.00672292019913 -2.29477357618e-22)
(-0.0740811298129 -0.00875565752593 -5.75105158079e-22)
(-0.0783122976451 -0.00483431996099 -2.99324275892e-21)
(-0.0780948229604 -0.00769758884119 -1.23267592413e-21)
(-0.0790186219935 -0.00247075104294 -6.529476391e-21)
(-0.0813369143646 -0.00441946535932 -6.79246774974e-21)
(-0.0718045280568 0.000916920425609 -6.99399670677e-21)
(-0.0809616750745 -0.0101743710572 -6.4778598839e-21)
(-0.0263516589529 0.00245477738388 -2.146693464e-21)
(-0.0677754915867 -0.00246827227184 -5.7568556564e-21)
(-0.00763357892312 0.0396658994914 -7.01955736251e-21)
(-0.0633583063883 -0.0113939322254 4.45917968135e-23)
(-0.0617915582353 -0.0123506926149 -1.13206024165e-23)
(-0.0660855633328 -0.011699878855 1.46954992932e-22)
(-0.0645234318524 -0.0129587477417 1.13276342395e-22)
(-0.0691230458765 -0.0116288546391 3.73326156808e-22)
(-0.0675966188363 -0.0132608677184 2.28644271254e-22)
(-0.072569239654 -0.0111557041226 -1.37140602859e-22)
(-0.0710949797128 -0.0131278630229 7.09355450035e-22)
(-0.0763672205642 -0.010241404321 -1.57830372459e-21)
(-0.0749952199357 -0.012315482565 -3.53682180118e-22)
(-0.0799322811693 -0.00915021814108 -5.03190091495e-21)
(-0.0791858673792 -0.0115300312029 -2.53384207731e-21)
(-0.0819311226801 -0.008255254956 -6.74085124263e-21)
(-0.0822318283824 -0.00890033293206 -7.32303081267e-21)
(-0.0801954132514 -0.0050547855257 -5.24071883352e-21)
(-0.0841621530884 -0.0157313196994 -5.73251299143e-21)
(-0.0548927040638 0.0181757307939 -1.06297195549e-20)
(-0.0910059651793 -0.0079588786026 -5.8216467762e-21)
(-0.0574445904128 0.0857450563545 -4.24997428508e-20)
(-0.0627574362419 -0.0141088453055 5.73639431653e-23)
(-0.0608951553464 -0.0150263119082 -2.89235164762e-23)
(-0.0658180176054 -0.0147259909833 1.94965620718e-22)
(-0.0639060686401 -0.0159952488766 1.41643625227e-22)
(-0.0692827380384 -0.0149702912212 5.64673564481e-22)
(-0.0673520740258 -0.0166664323983 2.30073144931e-22)
(-0.0731725827848 -0.0147661857189 4.92813872776e-22)
(-0.0712988367394 -0.0169094919381 1.14617360889e-21)
(-0.0773089459411 -0.0140155116544 -1.30922053284e-21)
(-0.0757456748893 -0.01640954653 -1.33033526978e-22)
(-0.0808167774496 -0.0130517472294 -4.82497197503e-21)
(-0.0801494842672 -0.0156035742406 -3.18852743268e-21)
(-0.0840015376234 -0.0128876575773 -6.31469256147e-21)
(-0.0823958663611 -0.0131401073188 -1.05160563982e-20)
(-0.106685489346 -0.0115778692909 -6.31344093412e-21)
(-0.0854719456542 -0.0186591319552 -1.28613410172e-20)
(-0.110348734764 0.0595034198936 -3.76916700721e-20)
(-0.162087148006 -0.0161187142635 -1.57420055251e-20)
(-0.0954558795488 0.0126211464393 -3.46984099708e-20)
(-0.0618065044439 -0.0171053359481 5.5356165585e-23)
(-0.0596028538819 -0.0179280065149 -6.79207107036e-24)
(-0.0651899190847 -0.0181367383252 1.76751149439e-22)
(-0.0628744254196 -0.0193581907206 1.57139813963e-22)
(-0.0690929392576 -0.0188019168111 8.11573189341e-22)
(-0.0666866332684 -0.0205212237102 1.64805543466e-22)
(-0.0735456171071 -0.018959736056 5.20326209137e-22)
(-0.0711407567345 -0.0212955784453 1.11119113434e-21)
(-0.0782423759417 -0.0184147568741 -2.01234042681e-21)
(-0.0762904281254 -0.0213109164123 -7.38552957423e-22)
(-0.0816474684881 -0.0172820742103 -8.87961185589e-21)
(-0.0812820161943 -0.0207160555325 -4.48795808726e-21)
(-0.0832832687406 -0.016725092424 -1.7062704854e-20)
(-0.0829527950057 -0.0187937245715 -1.17561504252e-20)
(-0.118679438725 -0.0227192262558 -2.22899056082e-20)
(-0.0794777976264 -0.022142948197 -1.48916381175e-20)
(-0.116342338536 -0.0516244178983 -1.27487454239e-20)
(-0.133182035393 -0.0315882909331 -1.59991581264e-20)
(-0.0657757128172 -0.107443371903 -7.51217540946e-21)
(-0.0604253928795 -0.0203686988656 9.49915773079e-23)
(-0.0578228481464 -0.0210139131688 4.55033910847e-23)
(-0.06408393952 -0.0219384655706 1.4519420799e-22)
(-0.0613043993556 -0.0230003081349 1.62619977724e-22)
(-0.0684111437176 -0.0231951202449 4.64423488463e-22)
(-0.0654297045324 -0.0248133264199 2.27650841428e-22)
(-0.0734793637737 -0.0239481313289 -1.47688032222e-22)
(-0.0703874795539 -0.0263260272423 6.65074727379e-22)
(-0.0787817716216 -0.0239420126861 -3.21417061786e-21)
(-0.0762963207589 -0.027154804386 -9.23568335921e-22)
(-0.0817176921712 -0.0233595507533 -7.36449665653e-21)
(-0.0818643288924 -0.0273557943387 -5.43770961146e-21)
(-0.0778263301653 -0.0247140194216 -9.58508368866e-21)
(-0.0815982743121 -0.0275168734834 -8.02465839302e-21)
(-0.0903461730268 -0.0373830018131 -8.60089063566e-21)
(-0.0668088083413 -0.0285497625658 -6.37989408677e-21)
(-0.0804573760256 -0.096824991112 -1.0762588112e-20)
(-0.0737400527339 -0.0540523133401 -7.71555824033e-21)
(-0.0419354664844 -0.15211427704 -3.54433853168e-20)
(-0.0584697109175 -0.0238027777098 1.13131791501e-22)
(-0.055521809185 -0.0242108057415 2.5178340038e-23)
(-0.0623463658525 -0.0260492356517 2.45076611162e-22)
(-0.059057672757 -0.0268684696382 1.32685285619e-22)
(-0.0670726700475 -0.0280974542454 4.28302080343e-22)
(-0.0633812098038 -0.0295268128819 1.38758513435e-22)
(-0.0728246211343 -0.0296889009152 -1.10805576321e-22)
(-0.0687957711075 -0.0320872606343 6.21513379506e-23)
(-0.0788227274144 -0.0305499283528 -3.14710732952e-21)
(-0.0754350752348 -0.03437438988 -1.64821017566e-21)
(-0.080353946701 -0.0311180088259 -6.09787134794e-21)
(-0.0812961061408 -0.0362138422698 -6.85284836686e-21)
(-0.0679836701806 -0.0367088726322 -4.81946879112e-21)
(-0.0760073623827 -0.0417073737578 -6.40641920151e-21)
(-0.0488318015565 -0.0572110874745 -5.49456169144e-21)
(-0.046306595199 -0.0394213422031 -1.02097903528e-20)
(-0.0364902007811 -0.133709820848 -3.23963554451e-20)
(0.00275880041169 -0.0697649827468 -1.4712879328e-20)
(-0.017816864193 -0.151894665057 -3.6293026593e-20)
(-0.0558440242944 -0.0273997208683 4.47318341557e-23)
(-0.0525443454666 -0.0274061429982 -4.73086138542e-23)
(-0.059820561295 -0.0304697548395 2.63671878911e-23)
(-0.0559873720722 -0.0308436806682 3.48687966197e-23)
(-0.0647971955052 -0.0336978446502 -2.27392228958e-22)
(-0.0601528526013 -0.0344931210746 -2.49050428611e-22)
(-0.0712205987155 -0.036782788109 -1.47525326139e-21)
(-0.0657105798132 -0.0384572541898 -1.05208505474e-21)
(-0.0781762975881 -0.039867751985 -5.353951213e-21)
(-0.0723499084453 -0.0433223552775 -3.90775083203e-21)
(-0.0782432567863 -0.0435013444036 -7.16139622043e-21)
(-0.0776623832572 -0.0491169751851 -1.31075664412e-20)
(-0.0555923545525 -0.0537173687102 -1.17967407632e-20)
(-0.0657912962005 -0.0637832974517 2.39348051455e-21)
(-0.00514485490511 -0.0766446126933 -1.94281079894e-20)
(-0.0233792603251 -0.0598326219433 -8.11642867652e-21)
(0.0148682668861 -0.0856502449824 -1.86095504759e-20)
(0.011764323073 -0.0704825585716 -3.81293580461e-21)
(0.0326239708479 -0.0263970395617 2.38707075868e-20)
(-0.0525016149497 -0.0309387171831 -5.71716513902e-23)
(-0.0488507120271 -0.030432661309 -7.4751272232e-23)
(-0.0562453793759 -0.034969238222 -2.40548819882e-22)
(-0.0519565972255 -0.0345595252837 -6.60923557191e-23)
(-0.0608441778764 -0.039332775713 -1.0737432544e-21)
(-0.0557890656726 -0.0389919344683 -6.74725670252e-22)
(-0.065957046264 -0.0446164106603 -3.48458262538e-21)
(-0.060426717302 -0.043555006919 -5.86887008752e-22)
(-0.0699064199816 -0.0521086112005 -1.16613660603e-20)
(-0.0648575237219 -0.0497508979547 1.77809041978e-21)
(-0.0624672934165 -0.0632948868873 -3.55268970626e-21)
(-0.066475990774 -0.0574360140401 1.90669527923e-20)
(-0.0321136783965 -0.0796434855555 6.07379260123e-21)
(-0.0494426602719 -0.0750843978161 8.80200890574e-20)
(-0.0101194762968 -0.08423433907 7.49874350822e-21)
(-0.0187883819477 -0.0724836060479 1.39170587417e-19)
(0.0120781534986 0.0166447534632 3.8667322258e-20)
(-0.089114784231 -0.0396436042499 2.67701677727e-19)
(-0.0156424189229 0.191146432337 1.89987767075e-19)
(-0.048421199483 -0.0341504650652 -8.3671976561e-23)
(-0.0445970290599 -0.0332376628046 -6.33189498181e-23)
(-0.0519807288802 -0.0387344713984 -5.00269206089e-22)
(-0.0473723592715 -0.0381851509009 -2.57413719604e-22)
(-0.0566101273207 -0.0435963964176 -1.87869424607e-22)
(-0.0509269163835 -0.0437581416079 -9.55207474656e-22)
(-0.0616791498399 -0.0484877816425 4.67578603642e-21)
(-0.0555351303404 -0.0494382509705 -7.72416024952e-22)
(-0.0646223755112 -0.0547532160571 3.25064092724e-20)
(-0.058591927654 -0.0565384166253 1.90314267777e-20)
(-0.0535581667421 -0.0639011602578 1.10639731556e-19)
(-0.0573279443468 -0.0601576716956 1.03827227309e-19)
(-0.0328805964201 -0.0718298112533 2.21116883873e-19)
(-0.0415139754986 -0.0616334812082 3.12489180912e-19)
(-0.14124842411 -0.0518290905116 3.99373521636e-19)
(-0.0387890803334 -0.0549229709292 5.95857763477e-19)
(-0.154624791597 0.192571274413 4.19022122544e-19)
(-0.333515209777 0.0302010172965 6.56387987576e-19)
(-0.0772727156137 0.0519911418561 4.33623561014e-19)
(-0.0432415581363 -0.0373853566064 -2.37060692861e-22)
(-0.0394258657041 -0.0353957856023 1.3772522012e-22)
(-0.0460383499979 -0.0434490785448 -7.12351988171e-22)
(-0.0413084340313 -0.0409544661053 -2.0616288987e-22)
(-0.0497186328125 -0.0504288862951 -1.539754075e-21)
(-0.0439469136746 -0.0473760536662 1.62261883381e-22)
(-0.0538001296299 -0.058720177952 1.35832247163e-20)
(-0.0472436649988 -0.054050744645 -9.02829396472e-22)
(-0.0568185601205 -0.0652455958296 9.03522448142e-20)
(-0.05206637069 -0.062615774039 2.119348534e-20)
(-0.0552044493396 -0.0636306878203 3.05676676665e-19)
(-0.0589427619543 -0.0651671631413 9.70014182907e-20)
(-0.0599221295846 -0.0329909527882 6.87230060516e-19)
(-0.0721536772311 -0.0629712129936 3.06328995199e-19)
(-0.147177418518 0.0309101212476 8.52872229418e-19)
(-0.102690151547 -0.0546669007454 6.03472634077e-19)
(-0.165957297228 -0.129353363974 6.70989426046e-19)
(-0.173251449773 -0.00227355842813 4.47046458323e-19)
(-0.0733948767111 -0.139464733073 2.91975145322e-19)
(-0.0373666529952 -0.0390867033886 1.68623023111e-22)
(-0.0340295709048 -0.0367285235047 1.58378512926e-22)
(-0.0390822090202 -0.04509746491 6.68450981682e-22)
(-0.0352974992457 -0.0426212874205 -1.70928595943e-22)
(-0.0410997840307 -0.0517781255169 7.99186561909e-22)
(-0.0372660865308 -0.0494360495814 -2.84096874337e-22)
(-0.0437663094279 -0.0593086134366 6.7074312272e-21)
(-0.0397130270491 -0.0566188730303 -2.44955074379e-21)
(-0.0490769738153 -0.0672154830569 2.78426588165e-20)
(-0.044159378938 -0.0661624199388 1.54808199829e-21)
(-0.0657090039382 -0.0729521584193 9.76537368245e-20)
(-0.0532060052307 -0.0715458785494 2.09918923011e-20)
(-0.0974658770291 -0.0689086279722 2.22571568759e-19)
(-0.0761971778908 -0.0848504001147 8.11520082721e-20)
(-0.149377664789 -0.0698379229075 1.97646862982e-19)
(-0.101760848075 -0.0739082868479 1.27583283416e-19)
(-0.111123218566 -0.0715744508956 6.8032177599e-20)
(-0.171515012397 -0.106006107826 -4.61746853124e-20)
(-0.0486822543164 -0.111605133802 -6.10226443667e-20)
(-0.0314449961766 -0.04030157782 -1.81173106128e-22)
(-0.0282919455298 -0.0373748810198 9.84971320186e-23)
(-0.0326060694086 -0.0469509034554 -1.12347645196e-21)
(-0.0286480265888 -0.0437541482041 -7.54774802822e-23)
(-0.0343759664014 -0.054575078922 -3.53283418004e-21)
(-0.0296417675418 -0.0513502492925 -6.59002309815e-22)
(-0.0376099680784 -0.0630950220153 -7.60889997271e-21)
(-0.0311929526525 -0.0598000844927 -2.41419509236e-21)
(-0.0444257337727 -0.0721740731681 -5.30268451718e-21)
(-0.0350802191728 -0.0711234823963 -2.7136594626e-21)
(-0.057186781924 -0.0792946918239 4.49016374864e-21)
(-0.0460853126677 -0.0800228232936 -3.63600546257e-21)
(-0.0736281671082 -0.0935151457148 -1.38362770704e-20)
(-0.0619766956716 -0.102472386823 -8.37185079112e-21)
(-0.133333163089 -0.119567537266 -1.16238264878e-19)
(-0.0757084508904 -0.0886322515454 -7.43093484274e-20)
(-0.115151586695 -0.123534623947 -1.75229507278e-19)
(-0.167547943583 -0.152210219561 -1.92739023695e-19)
(-0.0158655188661 -0.166849254602 -1.63770720456e-19)
(-0.0250648955725 -0.0406495497959 2.04192757865e-22)
(-0.0223133871681 -0.0370941505168 2.13076458881e-22)
(-0.0251838687296 -0.0478315861428 3.88996661865e-22)
(-0.021465836526 -0.0438439945493 -2.4874731308e-24)
(-0.0263487686406 -0.0565289242624 4.59636777862e-22)
(-0.0209442768507 -0.0526152065082 3.50408150859e-22)
(-0.0299034117324 -0.0666499041323 2.48104541775e-21)
(-0.021071823716 -0.0632985410667 8.45651385366e-23)
(-0.0404311279118 -0.0788956058782 -1.04698040799e-21)
(-0.0228343933542 -0.081269022318 3.81962151996e-21)
(-0.0584258778082 -0.0943432221892 -1.64980200023e-20)
(-0.0306375995221 -0.105156288106 9.42472368696e-21)
(-0.0749221123496 -0.114299806856 -6.88449221482e-20)
(-0.0420200680927 -0.155169098738 -5.6515720608e-21)
(-0.107525925264 -0.132417588062 -1.50810107245e-19)
(-0.0575906652768 -0.187167783469 -4.41183005014e-20)
(-0.0728685800001 -0.183814247347 -1.81280236873e-19)
(-0.116151451534 -0.261250078939 -9.20014191701e-20)
(-0.0272942525837 -0.294090275901 -7.97347441799e-20)
(-0.0182258267874 -0.0399130925018 6.39622788521e-24)
(-0.016303458943 -0.035506275612 2.09005513642e-22)
(-0.0161623832002 -0.047807472749 -4.10759841369e-23)
(-0.0135712630077 -0.0416978232147 -2.75928851488e-23)
(-0.0134545489795 -0.0590083450771 -2.46634884659e-23)
(-0.00974319199932 -0.0499843048493 4.28952724205e-22)
(-0.0100513105819 -0.0760374339988 1.42314124074e-21)
(-0.00404255056986 -0.059728371869 4.09310657331e-22)
(-0.00600561932289 -0.105426415645 1.42913256149e-20)
(0.00655477313144 -0.0778396445228 1.61744083187e-21)
(-0.0026533331241 -0.159326933527 2.02711716285e-20)
(0.0232630349156 -0.099352582845 1.93092882094e-20)
(-0.00838341497956 -0.238963026046 1.9075049586e-20)
(0.0376160853288 -0.144753055453 2.97676929006e-20)
(-0.0343810160791 -0.328138459302 1.46903875732e-20)
(0.0315847838848 -0.176083054751 4.92582359774e-20)
(-0.0470267967041 -0.410962188869 9.54407352317e-21)
(-0.0333277268467 -0.227519905684 8.75380616804e-20)
(-0.0642727357794 -0.242403630346 8.41649299102e-20)
(-0.0118757467894 -0.0370390985853 1.75016400608e-22)
(-0.00778600075055 -0.0430679998447 4.42435823194e-22)
(-0.00119700866229 -0.0503610694881 8.62926870002e-22)
(0.00949375235242 -0.0602226662639 6.03610248455e-22)
(0.027436164316 -0.0713269185144 6.63540342634e-21)
(0.0483376689823 -0.082536789314 2.88058094815e-20)
(0.0586603785877 -0.0867310055744 5.9950879292e-20)
(0.0152897799187 -0.0943693420288 1.22105910085e-19)
(-0.0644756016379 -0.0804783286623 1.62158918067e-19)
)
;

boundaryField
{
    back
    {
        type            calculated;
        value           uniform (0 0 0);
    }
    sides
    {
        type            calculated;
        value           nonuniform List<vector> 0();
    }
    bottom
    {
        type            calculated;
        value           nonuniform List<vector> 0();
    }
    front
    {
        type            calculated;
        value           uniform (0 0 0);
    }
    atmosphere
    {
        type            calculated;
        value           nonuniform List<vector> 
16
(
(0 -0.000421347231964 0)
(0.0126296276334 0.0176353917457 2.50298481578e-21)
(-0.0317145664815 0.0679867635184 -1.65420995408e-20)
(-0.0930908085353 0.0975147354539 -6.84573861607e-20)
(0 -0.0813044981824 0)
(0 -0.120665213661 0)
(0 -0.157828498255 0)
(0 -0.136091086898 0)
(0.0338247651005 0.0649111446551 6.3525614764e-20)
(-0.0505343493633 0.254201584163 3.16449919386e-19)
(0 -0.13323138364 0)
(0 -0.0962869855765 0)
(0 -0.15635130901 0)
(0 -0.172385373111 0)
(0 -0.373983780437 0)
(0 -0.0890381332685 0)
)
;
    }
    floatingObject
    {
        type            calculated;
        value           nonuniform List<vector> 0();
    }
    procBoundary5to0
    {
        type            processor;
        value           nonuniform List<vector> 
12
(
(-0.0594329244277 -0.0051394505692 -1.5398037251e-23)
(-0.061125428957 -0.00552808781078 -1.86061471619e-23)
(-0.0629419038811 -0.0057674113158 -1.81152000174e-23)
(-0.0648522123152 -0.00580855511955 5.14897447739e-24)
(-0.066827575296 -0.00557235531513 5.90222179269e-23)
(-0.0689423710825 -0.00485763456568 4.53872105779e-22)
(-0.0713325002619 -0.00355208623238 -3.40935169913e-23)
(-0.0738116678387 -0.00169349239391 -2.34007417484e-21)
(-0.0760357264395 0.000928564760361 -5.45631507254e-21)
(-0.0748699680036 -0.000118663631526 -1.13282787449e-20)
(-0.0696091499159 0.00600652039927 -1.12210759942e-20)
(0.00642493108462 -0.00121621501623 -7.88258602256e-22)
)
;
    }
    procBoundary5to3
    {
        type            processor;
        value           nonuniform List<vector> 10((-0.0112228308934 -0.0326866488876 1.87772185996e-22) (-0.00754212100473 -0.0374635742067 4.88582460758e-23) (-0.00244989375153 -0.0434152502525 4.44809921742e-22) (0.00581929500935 -0.0487945739571 6.37679738432e-22) (0.0176592235956 -0.0587035943069 2.18811345232e-22) (0.0344730752969 -0.0620688963605 7.06795996962e-21) (0.0418103836405 -0.0757121359686 3.46184295129e-20) (0.0392231319622 -0.058515206981 4.3780613893e-20) (-0.0472186322232 -0.0800611848935 4.3846421777e-20) (-0.0557131246248 -0.109875196456 5.07466014935e-20));
    }
    procBoundary5to4
    {
        type            processor;
        value           nonuniform List<vector> 
18
(
(-0.0583569119431 -0.00570976752327 -1.37858123128e-23)
(-0.0576930807455 -0.00733534357068 -2.51810528199e-24)
(-0.0581986445319 -0.00858537270888 9.4140182068e-24)
(-0.0601735097319 -0.00933979240471 1.51307488883e-23)
(-0.0609097874863 -0.0108054571487 1.42709024227e-23)
(-0.0600658961833 -0.0132126765949 2.75604026716e-24)
(-0.058890524416 -0.0158133171576 1.60876314409e-23)
(-0.0573261804306 -0.0185890179076 9.17657873371e-24)
(-0.0552607821499 -0.0215020924518 3.70034008476e-23)
(-0.0526415457824 -0.0244226224725 3.07834834031e-24)
(-0.0494535512165 -0.0272454420754 -1.42042158941e-23)
(-0.0456167144536 -0.0298971161401 7.39603220534e-24)
(-0.0410561387093 -0.0322144896527 -2.71647872655e-23)
(-0.0360106230822 -0.0336906600934 1.9666957815e-22)
(-0.0307790206796 -0.0345641603032 2.58031982204e-23)
(-0.0253184186974 -0.0346711839372 1.59760182096e-22)
(-0.0197733956864 -0.0339034379725 1.82364278872e-22)
(-0.0146374535504 -0.0319587351032 1.61161092476e-22)
)
;
    }
}


// ************************************************************************* //
