/*--------------------------------*- C++ -*----------------------------------*\
| =========                 |                                                 |
| \\      /  F ield         | OpenFOAM: The Open Source CFD Toolbox           |
|  \\    /   O peration     | Version:  v2012                                 |
|   \\  /    A nd           | Website:  www.openfoam.com                      |
|    \\/     M anipulation  |                                                 |
\*---------------------------------------------------------------------------*/
FoamFile
{
    version     2.0;
    format      ascii;
    class       volScalarField;
    location    "2.8";
    object      epsilon_0;
}
// * * * * * * * * * * * * * * * * * * * * * * * * * * * * * * * * * * * * * //

dimensions      [0 2 -3 0 0 0 0];


internalField   nonuniform List<scalar> 
1984
(
0.00196223838706
0.00218454318148
0.00233401536263
0.00239139109476
0.00241910286452
0.00243814968525
0.00245514787731
0.00247206144062
0.00248970267278
0.00250901925316
0.00253306604461
0.00257059816061
0.0026448021585
0.00280502117945
0.00313734174964
0.00379629591886
0.00531500006265
0.0114417396772
0.0478020721
0.203619127422
0.00219498368075
0.00223643642671
0.00242798408561
0.00249942537139
0.00253019457103
0.00254844658209
0.00256330260998
0.00257756068576
0.00259230212746
0.00260869806886
0.00263062427552
0.00266859834819
0.0027486882336
0.00292301017724
0.00327453435938
0.00395401843428
0.00564712283381
0.0124632891752
0.0431794703155
0.159691024572
0.00234551444258
0.00242999787735
0.00265179179255
0.00273409010122
0.00276820726946
0.0027873602554
0.00280259162147
0.00281724390548
0.00283251873193
0.00284999855266
0.00287391346424
0.00291613452282
0.00300499824766
0.00319606064931
0.00357707897874
0.00429748502833
0.00603024627821
0.0130154634349
0.0450065272099
0.160847895427
0.00240345778689
0.00250348897734
0.0027372495584
0.0028236354733
0.00285859132194
0.00287761991877
0.0028925789124
0.00290707803841
0.00292245364965
0.00294021163612
0.00296476403701
0.00300796832273
0.00309804960421
0.00329022907074
0.00367151730639
0.00438160729914
0.00598356347434
0.0123908361102
0.0442364725317
0.161051803429
0.00243077158571
0.00253535033259
0.00277368889221
0.00286130137751
0.00289606753026
0.00291452276726
0.00292891651336
0.0029429967362
0.00295808336583
0.00297570872432
0.00300006421042
0.00304273088815
0.00313098993134
0.00331858082053
0.00368994830331
0.00437254091431
0.00579888323695
0.0112919935823
0.0416614312555
0.160666280416
0.00244841202524
0.00255352748235
0.00279359625511
0.00288131284265
0.00291551816252
0.00293324209352
0.00294694742872
0.00296044324268
0.00297504110092
0.0029922296064
0.00301600072097
0.00305743777015
0.00314280668695
0.00332404116887
0.00368290436694
0.00433791204293
0.00561087718862
0.0101780557495
0.0382924302807
0.159889018133
0.00246296561982
0.00256744433088
0.00280823438114
0.00289569364583
0.00292924886489
0.00294623059694
0.002959231934
0.00297208141175
0.00298611053191
0.00300271513062
0.00302570283388
0.00306565057522
0.00314789172649
0.00332281382192
0.00367074187557
0.00430682398867
0.00550721245669
0.00946474845835
0.0343082983952
0.158632461634
0.00247655307828
0.00257997998457
0.0028212491571
0.00290839562114
0.00294133991172
0.00295763865796
0.00296996426951
0.00298219014287
0.00299562988405
0.00301160254953
0.00303373848895
0.00307212549267
0.00315117614584
0.00332014421261
0.00365828368333
0.00428101038891
0.0054569726849
0.00913508954511
0.0314106833186
0.156594833229
0.00248964128576
0.00259206495781
0.00283375412788
0.00292061139693
0.00295301238287
0.00296870722859
0.00298042574588
0.00299206974304
0.00300493297594
0.00302028823282
0.00304157449147
0.00307840756332
0.00315435953468
0.00331732389881
0.00364564613064
0.00425669387751
0.00541635249868
0.00892418788466
0.0291949272397
0.148373316767
0.00250234961571
0.0026039020486
0.0028460287902
0.00293263314635
0.00296456273166
0.00297972396756
0.00299091262618
0.00300202601775
0.00301436739651
0.00302912418055
0.00304956661916
0.00308484920509
0.0031577067284
0.00331488567554
0.00363430182723
0.00423213811202
0.00536169184989
0.00860642784109
0.0269818574607
0.143947639567
0.00251473413168
0.00261547681961
0.00285808277
0.00294448994339
0.00297601057173
0.00299070961419
0.00300142503859
0.00301207540912
0.00302393155555
0.00303814009407
0.00305777262169
0.00309153283034
0.0031613644377
0.00331288616502
0.00362325907215
0.00420930057263
0.00532272169452
0.00848413143525
0.025117159916
0.100388764247
0.00252675353074
0.00262680594104
0.0028698993418
0.0029561367272
0.00298730280402
0.00300160168166
0.00301190570914
0.00302214034571
0.00303356856074
0.00304725397189
0.00306613276155
0.00309843214239
0.0031652885596
0.00331121394359
0.00361306094092
0.00418927526358
0.00530396534463
0.00854072759713
0.0254243048801
0.097023837398
0.00253834337746
0.00263784456765
0.00288143535656
0.00296752894438
0.00299837683
0.0030123265799
0.00302227356673
0.00303214120162
0.00304317606569
0.00305639848667
0.00307455907841
0.00310547391401
0.00316948675533
0.0033100203135
0.00360374590219
0.00417210518213
0.00530185681851
0.00862435076702
0.0256376123997
0.115411263886
0.00254949466739
0.00264855011772
0.00289263865685
0.00297860729096
0.00300917680771
0.00302282046484
0.00303245576913
0.00304200507433
0.00305269593429
0.00306549602686
0.00308300460201
0.00311265723116
0.00317405171134
0.00330966328435
0.00359591051365
0.00415590687097
0.00528622281742
0.00858581655808
0.0250081717454
0.128922292503
0.00256017469489
0.00265889699327
0.00290344557054
0.00298932019017
0.00301964666423
0.00303302516204
0.00304238424017
0.00305166253191
0.00306206650305
0.00307449534923
0.00309144417704
0.00311998719188
0.00317914915206
0.00331075449197
0.00359121611717
0.00414239407093
0.00523937932298
0.00833973137364
0.0248234828973
0.1338594521
0.00257034825052
0.00266883281393
0.00291385156626
0.00299963524533
0.00302973731979
0.00304288590321
0.00305203228952
0.00306107183116
0.00307120638819
0.00308334385167
0.003099779703
0.00312741014079
0.00318479559661
0.00331372341948
0.00359227212759
0.00414596225643
0.00523821872082
0.00834627816329
0.028641464506
0.157359912649
0.0025800256275
0.00267835583118
0.00292381905362
0.00300950702935
0.00303943595717
0.0030523972751
0.00306135178785
0.00307016912001
0.00308013314382
0.0030919980279
0.00310800805715
0.00313484374385
0.0031906928156
0.00331754908203
0.00359731398351
0.00417271525423
0.00534827527572
0.0087020112545
0.0308299411848
0.158706294391
0.00258922387673
0.00268735979612
0.00293327862416
0.00301893386552
0.00304869779438
0.00306149128159
0.00307032206215
0.00307903230163
0.00308877437151
0.00310038031059
0.00311596706171
0.00314199371682
0.00319614497091
0.00332013169346
0.00360010899218
0.00420639004291
0.00552652032899
0.00911504472515
0.0298203348781
0.15182145823
0.00259785245225
0.0026958261534
0.00294222238441
0.00302784099092
0.00305749989264
0.00307022792214
0.00307894887512
0.00308753640754
0.00309714739258
0.00310857277456
0.0031238146663
0.00314904861907
0.00320134505351
0.00332179344271
0.00359971053336
0.00423080570863
0.00568657455798
0.009514538873
0.0283931042682
0.145931741044
0.00260586021349
0.00270385352916
0.00295063519468
0.00303624592712
0.003065837562
0.00307848558881
0.00308714690982
0.0030956776323
0.00310522225409
0.00311653333343
0.00313149823481
0.00315600745607
0.00320647301111
0.0033232976916
0.00359827934265
0.00424627355453
0.00580298607662
0.00990173051094
0.0278875248121
0.144416116962
0.00261320665222
0.00271137662373
0.00295853374719
0.00304413275854
0.00307365864918
0.00308626472175
0.00309491226302
0.00310343784626
0.00311297154288
0.00312422500284
0.0031389842371
0.00316282862545
0.00321156666016
0.00332504515107
0.00359738432014
0.00425802218687
0.00589067597413
0.0103563520496
0.0295745076492
0.151888570781
0.00261980632856
0.00271834275954
0.00296586494809
0.00305145301319
0.00308094256842
0.00309354967143
0.00310222469463
0.00311078894698
0.00312036385343
0.00313162437419
0.0031462377954
0.0031694812188
0.00321657017627
0.00332685723828
0.00359655836446
0.00426632787525
0.00595898001722
0.0107870889076
0.0318407093598
0.156397376623
0.00262561392771
0.0027246962725
0.00297259098992
0.00305818051681
0.003087663347
0.0031003054146
0.00310904927713
0.00311770744388
0.0031273796405
0.00313870912471
0.00315324093066
0.00317593909814
0.00322141900567
0.00332851989725
0.0035952161253
0.00427041860842
0.00600395036827
0.011074707898
0.0334076000961
0.161741399656
0.00263061645447
0.00273041117807
0.00297867017582
0.00306428217225
0.0030937851434
0.00310649581438
0.0031153564762
0.00312416819113
0.00313400086346
0.00314545900962
0.00315997993355
0.00318221042553
0.00322612741837
0.00332997565297
0.0035929572795
0.00427034480424
0.0060323543946
0.011285918961
0.0342824800251
0.161521093375
0.00263484424804
0.0027353970593
0.00298401477054
0.00306969121003
0.00309925683245
0.00311208312302
0.00312110804053
0.00313012397748
0.0031401872089
0.00315185360317
0.00316644696873
0.00318829188597
0.00323074207836
0.00333136727072
0.00359043665659
0.004268311482
0.00604560918879
0.0113163446719
0.0330870569363
0.127120256163
0.00263826197907
0.00273958596263
0.0029885434469
0.00307433321237
0.0031040165383
0.00311701233298
0.00312626000102
0.00313554225108
0.00314590504375
0.00315787526403
0.00317264804016
0.00319425973369
0.00323544928392
0.00333321648301
0.00358936950961
0.0042706154781
0.00603474025821
0.0108285414253
0.0277160498087
0.0808602483781
0.00264092407281
0.00274297219221
0.00299217635029
0.00307812973113
0.00310800407935
0.00312124017918
0.00313077996375
0.00314040173857
0.00315114755219
0.0031635121693
0.00317858863365
0.00320015710369
0.00324046856188
0.0033363240776
0.00359276059501
0.00429068059211
0.00606303154994
0.0101391825239
0.0212783646474
0.064449189482
0.00264286822024
0.00274556120971
0.00299487366045
0.00308101267646
0.00311114938804
0.00312469460157
0.00313459352786
0.00314463297981
0.00315586085833
0.00316875275081
0.00318432095919
0.00320613674645
0.00324613861511
0.00334144738531
0.00360288751357
0.00434480721695
0.00631099843956
0.010860206175
0.0240288845109
0.134291006561
0.00264393945644
0.00274712799565
0.00299651329565
0.00308289936529
0.00311338588394
0.00312731938783
0.00313765060896
0.00314819246157
0.00316000220249
0.00317354902868
0.00318980874918
0.00321219448132
0.00325243916253
0.00334819411976
0.00361692702639
0.00441698114023
0.00671619716957
0.0127864534211
0.0316866600884
0.158806314145
0.00264396298572
0.00274750808818
0.00299697273046
0.00308370478326
0.0031146438006
0.00312905279703
0.00313989612591
0.00315102158835
0.00316351256248
0.00317785211183
0.00319499162857
0.00321829120232
0.0032595416582
0.00335777974109
0.00363904703699
0.00450357759785
0.00710059436846
0.0143293016784
0.0366649859045
0.151700776299
0.0026429647284
0.00274676955117
0.0029961758093
0.00308334749885
0.00311484339097
0.00312981063713
0.00314124293932
0.00315303149335
0.00316629920696
0.00318156191754
0.00319977956044
0.00322441655749
0.00326809855785
0.00337432219039
0.00368531155006
0.0046369604715
0.00743058715318
0.0149411673122
0.0352355090426
0.131972623962
0.00264082139054
0.00274470632404
0.00299407150788
0.0030817487982
0.00311390417622
0.00312952042257
0.00314161897039
0.00315414904994
0.00316827265742
0.00318455188464
0.00320401564753
0.00323055097347
0.00327921951076
0.00340457979456
0.00378201028845
0.00488820376038
0.00785182658523
0.015261321087
0.0330524805754
0.0803141946778
0.00263742591202
0.00274131039706
0.00299051047632
0.0030787958426
0.00311172396166
0.00312809061406
0.00314094222333
0.00315429785111
0.00316936040432
0.00318672380944
0.00320761108788
0.00323677301981
0.00329404927161
0.00345395829908
0.00394572995507
0.00529583055153
0.00840707413333
0.0148959442294
0.0282415953158
0.0545068358605
0.00263268138973
0.00273642321827
0.00298542902168
0.00307441823402
0.00310823239923
0.0031254487504
0.00313913637561
0.00315338429863
0.00316945648963
0.00318799565736
0.00321046066193
0.00324295722599
0.0033119902465
0.00351680721015
0.00414585578781
0.00577848785345
0.00915505039331
0.0151996981722
0.0258136793602
0.0562444299803
0.00262656001863
0.00272996842914
0.00297872071908
0.00306851437077
0.00310334934473
0.00312152889941
0.0031361461633
0.00315136105469
0.00316849328716
0.0031882556604
0.00321229794539
0.00324817175266
0.00332857646441
0.00357203770902
0.00430853558049
0.00620248725976
0.0102209667855
0.0176542598374
0.0330436982648
0.115393466427
0.00261899413142
0.00272184450835
0.00297030568235
0.00306100929115
0.00309700194004
0.00311626812968
0.00313192962205
0.00314822007684
0.00316648666975
0.00318745390228
0.00321281356815
0.00325045494144
0.00333459635534
0.00358879834741
0.00436359399092
0.00641384924952
0.0109391426682
0.0196386517127
0.0434709044825
0.146400375125
0.00260975105463
0.00271197462782
0.00296013513611
0.00305184439209
0.00308911857989
0.00310961566003
0.00312646177153
0.00314395578361
0.00316348792903
0.00318570570164
0.00321202283831
0.00324917162422
0.003327938476
0.0035678425514
0.00434140830901
0.00650472103232
0.0112777023924
0.0202958793335
0.0438206422718
0.145985246337
0.00259890523712
0.0027003857693
0.00294818787575
0.00304097409019
0.00307966217464
0.00310154071969
0.0031197286682
0.00313859424579
0.0031595891578
0.00318336637481
0.00321138180968
0.00325084086164
0.00333560580037
0.00360024877152
0.00446137792906
0.00680242001567
0.0118349115242
0.0210766238013
0.0398737255353
0.0916809972519
0.00258621626779
0.0026870895419
0.00293448350637
0.00302839267933
0.00306860346463
0.00309200370975
0.00311168561119
0.00313210874538
0.0031547466408
0.003180296113
0.0032105399477
0.00325472345616
0.00335642920857
0.00368048586139
0.00468061522055
0.00717504956447
0.0124049798116
0.0228861514789
0.0479712130999
0.15462408034
0.00257160165398
0.00267208959668
0.00291904010967
0.00301410619172
0.00305592799078
0.00308098275021
0.00310234650046
0.00312452456494
0.00314899759011
0.00317642902351
0.00320866365251
0.00325519295921
0.0033602586645
0.00368541214344
0.00466070271725
0.00712107182977
0.0127109291404
0.024730453696
0.0547155541423
0.161411025005
0.0025549818623
0.00265541741869
0.00290189136245
0.00299816104076
0.00304165541806
0.00306850897264
0.00309174771122
0.00311592090542
0.00314245179129
0.00317189973352
0.00320516041372
0.00324749565843
0.00332514686846
0.00354778170187
0.0042979873132
0.00669210428527
0.0129195845437
0.0256714748561
0.0550268976814
0.157215237408
0.0025366616017
0.00263729509658
0.00288324563461
0.00298064522773
0.00302586761491
0.00305460197973
0.00307989834144
0.00310632095282
0.00313532985935
0.00316740941801
0.00320315543542
0.00324584785443
0.0033146988826
0.00350000481977
0.00416166075984
0.00654505076139
0.0135275052996
0.028682679903
0.0630567759854
0.16484351433
0.00251671930214
0.00261796317247
0.00286333776327
0.00296181205064
0.00300864212869
0.00303928899824
0.00306671044558
0.00309553261775
0.00312719070576
0.00316240003217
0.00320153700972
0.00324662450547
0.00331478545025
0.00349736387174
0.00418263237228
0.00679650632138
0.014670785713
0.0317792331291
0.0693007388572
0.168441459786
0.0024954570562
0.00259781514515
0.00284259468465
0.00294192464985
0.00299015245099
0.00302236755183
0.00305149837481
0.00308207653296
0.00311580335061
0.00315443042871
0.0031978007384
0.00324647578508
0.00332121412926
0.00353912468943
0.00438205965363
0.00749906078825
0.0164409560981
0.0356521861176
0.0751272706843
0.170981715883
0.00247341572359
0.00257746110386
0.00282160927329
0.0029214371772
0.00297034661769
0.00300287431783
0.00303145540678
0.00306042707567
0.00309281023233
0.00313475192017
0.00318244074216
0.00323240224483
0.00331851423895
0.00361045580574
0.00470612362778
0.00852844382144
0.0188078556118
0.0408390904995
0.0822782084434
0.174317174979
0.00245135130386
0.00255767405476
0.00280113427447
0.0029007462631
0.00294866674389
0.00297766268877
0.00299820067033
0.00301357354496
0.00303197986579
0.00307731331128
0.00312904363034
0.00317377409024
0.00328648131729
0.00372429123676
0.0051804435712
0.00989987512525
0.0219538415213
0.0461217914738
0.0885383970864
0.176904399361
0.00243018109424
0.00253937117181
0.00278204763941
0.00288023687462
0.00292346492542
0.00293874874649
0.0029282462632
0.00288888897901
0.00284952898322
0.00289904086231
0.00296089426461
0.00300945178835
0.00319877257596
0.00388526365134
0.00587144314901
0.0116700233542
0.0250355870505
0.0486649034961
0.0878131932954
0.173067529122
0.00241069544331
0.00252341122506
0.00276521629193
0.0028602480114
0.00289237402277
0.00287050519851
0.0027591334015
0.00252863726752
0.00296590341244
0.00300114911979
0.00316066823671
0.00350427429019
0.0030124215857
0.00393209915396
0.00630880482862
0.0130102478794
0.0274000512716
0.0500791821449
0.082861279164
0.140728475272
0.0023939788625
0.00251052754881
0.0027511259407
0.00284142355069
0.0028620800215
0.00281653020626
0.0026494585187
0.00280721109163
0.00377095794229
0.00425385646893
0.0073075832568
0.0148030528194
0.0290535704933
0.0493999618415
0.0766786807232
0.120482747059
0.0023829439068
0.00250354854264
0.00274441647262
0.00283288640017
0.00284632269788
0.00277951919437
0.00256211450438
0.00254982097046
0.0041846429435
0.00559346641467
0.01039787787
0.0185690247943
0.031038266826
0.0470576712612
0.0683668669234
0.09361411338
0.00238295882642
0.00250355437519
0.00274442013216
0.00283288943439
0.0028463263864
0.00277952216804
0.002562113301
0.00254980739324
0.00418519756727
0.00559470096603
0.0104006203773
0.0185731146484
0.0310429726634
0.0470650250121
0.0683841771672
0.0936276823091
0.00239400232399
0.00251054287344
0.00275113824945
0.0028414332071
0.00286208725949
0.00281653399754
0.00264946010873
0.00280716748321
0.00377150156811
0.00425520128627
0.00731049463249
0.0148074462204
0.0290592922538
0.0494213622928
0.0767537405229
0.120541685274
0.00241072800433
0.00252343286953
0.00276523429662
0.00286026278156
0.00289238876355
0.00287052721019
0.00275915790437
0.00252866862975
0.00296593045452
0.00300119457706
0.00316078518977
0.0035046595873
0.0030130748767
0.00393353094272
0.00631148325284
0.0130135757743
0.0274053806839
0.0501021901702
0.082927372993
0.140776965882
0.00243022491327
0.0025394058202
0.0027820810643
0.00288026810018
0.00292349485751
0.00293877668388
0.00292826863723
0.00288889871761
0.00284954191303
0.00289906493115
0.0029609480343
0.00300957274766
0.00319912228307
0.00388610710414
0.00587335217498
0.0116728344332
0.0250410863739
0.0486854913487
0.0878818531978
0.173105834587
0.00245139272191
0.00255771065484
0.0028011724453
0.00290078368401
0.00294870373951
0.00297769950347
0.00299823527252
0.00301360430677
0.00303200878265
0.0030773392032
0.00312907226585
0.00317384582743
0.00328666768136
0.00372476747455
0.00518159677982
0.00990185268422
0.0219578348129
0.0461340463638
0.0885820492617
0.176934547399
0.00247344660296
0.00257749483934
0.00282164778885
0.00292147618019
0.00297038406735
0.00300291190194
0.00303149178664
0.00306046104172
0.00309283932262
0.00313477075658
0.00318244692546
0.0032324104455
0.00331857320375
0.00361066491949
0.0047066415949
0.00852949682589
0.0188102023919
0.0408465499463
0.0822994929169
0.174332398166
0.00249547894752
0.00259784945054
0.00284263562286
0.00294196436554
0.00299018133985
0.00302240075298
0.00305153053387
0.00308210498537
0.00311582373597
0.00315443628263
0.00319778856471
0.00324644602778
0.00332119493419
0.00353917838271
0.00438221991152
0.00749956067681
0.0164423219142
0.0356569092356
0.0751404717721
0.170992782381
0.00251674914792
0.00261799876085
0.00286338075458
0.00296184016036
0.00300867702851
0.0030393099991
0.00306673819569
0.00309555497214
0.00312720467852
0.00316240229464
0.00320152424347
0.00324659132606
0.00331474272642
0.00349735691146
0.00418266726492
0.00679682477655
0.0146718390882
0.0317830079289
0.0693111787341
0.168449148918
0.00253671367295
0.00263734826966
0.00288329704192
0.00298070014475
0.00302590328654
0.00305463981684
0.00307992829077
0.00310634927999
0.00313534999597
0.00316743276272
0.00320316667097
0.00324584567273
0.00331468620551
0.00350003145144
0.00416173584252
0.00654546280832
0.0135284519781
0.0286851882722
0.0630622258382
0.164846415731
0.00255504256102
0.00265547824126
0.00290195594465
0.00299821966642
0.00304171237575
0.00306855438395
0.00309179137421
0.00311595662326
0.00314249677341
0.00317193751967
0.00320520728571
0.00324752682673
0.00332518007175
0.00354784831431
0.00429812209576
0.00669261898222
0.0129205664468
0.0256734437724
0.0550317067136
0.157218162225
0.00257166881954
0.00267215600918
0.00291911021978
0.00301417620947
0.00305599476053
0.00308104639001
0.00310240696677
0.0031245870911
0.00314905509986
0.00317649832702
0.00320872279839
0.00325525033615
0.00336031742231
0.00368551706808
0.00466086449034
0.00712154386292
0.0127119431524
0.0247339330328
0.0547278290281
0.16142033253
0.00258629577024
0.00268716197604
0.00293456151329
0.00302847464133
0.00306868745463
0.00309208873929
0.00311177239571
0.00313219639646
0.00315483614118
0.00318038291671
0.00321062923865
0.00325480980024
0.0033565334143
0.00368065551679
0.00468090030682
0.00717563042244
0.0124058906834
0.0228888840955
0.0479881110362
0.15464246315
0.00259899261039
0.00270046414126
0.00294827343582
0.00304106686767
0.00307976137033
0.00310164518936
0.00311983923958
0.00313871156942
0.00315970973041
0.0031834797484
0.0032114951508
0.00325095092758
0.00333573474027
0.00360045463131
0.00446171805515
0.00680296639044
0.0118356599485
0.0210776366098
0.0398725773076
0.0917056029466
0.0026098526506
0.00271206477
0.00296023430465
0.00305195272697
0.00308923649866
0.00310974347561
0.00312659674088
0.00314409969646
0.00316364276168
0.00318584466933
0.00321215702901
0.00324929931034
0.00332808415367
0.00356804280794
0.00434161867637
0.00650502687748
0.0112782619231
0.0202967071154
0.0438083424986
0.145968950467
0.00261908410279
0.00272192317711
0.00297039233629
0.00306110250722
0.00309710250199
0.00311637741076
0.00313204966061
0.00314835654938
0.00316664837925
0.0031876054428
0.00321296533871
0.00325059423252
0.00333474380586
0.00358899668537
0.00436374706635
0.00641413566101
0.010939857712
0.0196402863603
0.0434863448737
0.146459960404
0.00262664134687
0.00273003823918
0.00297880104329
0.00306860175353
0.00310344375681
0.00312163153245
0.00313626042872
0.00315149143686
0.00316864041085
0.00318841083783
0.00321245443777
0.00324830983184
0.0033287273172
0.00357222423805
0.00430884204858
0.00620300642685
0.0102216501734
0.0176563226636
0.0330606962236
0.115607786577
0.0026327523454
0.00273648426496
0.00298550363509
0.00307450299163
0.00310832460268
0.00312554867197
0.00313924665907
0.00315350950621
0.00316959887812
0.00318814930996
0.00321062177506
0.00324311501241
0.00331214950047
0.0035170003273
0.00414611099315
0.0057789721996
0.00915608210985
0.0152020203466
0.0258279840558
0.0565431676337
0.00263748991421
0.00274136883135
0.00299058567665
0.00307888026629
0.00311181527565
0.00312818934258
0.00314104980346
0.00315441895773
0.00316949778773
0.00318687208338
0.00320776936647
0.00323693421562
0.0032942188823
0.00345416475065
0.0039460037603
0.00529638602043
0.00840795914086
0.0148975690901
0.0282411571097
0.0545203885169
0.00264088021563
0.00274476124466
0.00299414252582
0.0030818307076
0.00311399437425
0.00312961803262
0.00314172487691
0.00315426691807
0.00316840463019
0.00318469576877
0.00320416877476
0.00323071267168
0.00327939371958
0.00340478863716
0.00378228229536
0.00488869576168
0.00785284672834
0.0152640199104
0.0330477308452
0.0801542808069
0.00264302694195
0.00274682404833
0.00299624650706
0.00308342874829
0.00311493240762
0.00312990664984
0.00314134711625
0.00315314688929
0.00316642786227
0.00318170453303
0.00319993208639
0.00322458384519
0.00326828372806
0.00337453867047
0.00368558755357
0.00463738533917
0.00743142542262
0.0149432637903
0.0352162649573
0.130587011298
0.00264402737047
0.00274756453948
0.00299704285342
0.00308378469769
0.00311473110323
0.00312914707906
0.00313999894354
0.00315113601283
0.0031636416627
0.003177998161
0.00319515055527
0.00321847208091
0.00325974936561
0.0033580213962
0.00363935285146
0.00450399597635
0.00710141856727
0.0143284181306
0.0365121935053
0.148071223305
0.002644003217
0.00274718274429
0.00299658118934
0.00308297712101
0.00311347130214
0.00312741242064
0.00313775311806
0.00314830796681
0.00316013544094
0.00317370383946
0.00318998060414
0.00321239738078
0.003252666458
0.00334845411107
0.0036172597279
0.00441742406036
0.00671689986051
0.0127687777677
0.030812643672
0.139636849795
0.00264292796906
0.00274561031371
0.0029949369857
0.00308108626944
0.00311123110887
0.00312478487272
0.00313469473101
0.00314474984156
0.00315599981631
0.00316891943622
0.00318451777797
0.00320636713492
0.00324639667574
0.00334173683286
0.00360325602838
0.00434532030797
0.00631103593428
0.0107841538836
0.0206992093512
0.048020914863
0.00264097690872
0.0027430128813
0.0029922323444
0.00307819679978
0.00310808033173
0.00312132711652
0.00313088124089
0.00314052426417
0.00315130084361
0.00316370796356
0.00317882711081
0.00320043372686
0.00324077386029
0.00333664834885
0.00359310078189
0.00429115679021
0.00606523151107
0.0101773455458
0.0217619297229
0.0508508328005
0.00263830473339
0.00273961492586
0.00298859134844
0.00307439570426
0.00310409207455
0.00311710338047
0.00312637080265
0.00313567935318
0.00314607846078
0.00315809158152
0.00317290588971
0.00319454955551
0.0032357524738
0.00333351477773
0.00358964162186
0.00427094677619
0.00603791009393
0.0108997167669
0.0284676557974
0.0817459926081
0.00263488380737
0.00273542748461
0.00298406057668
0.00306974963505
0.00309932698835
0.00311216816298
0.00312121513581
0.00313026182069
0.00314036855107
0.00315209336024
0.00316674739845
0.00318864496332
0.00323112574262
0.00333174909013
0.00359078124728
0.00426860109277
0.00604616714345
0.0112708911921
0.0305940430252
0.0813065023108
0.00263066492362
0.00273044970155
0.00297872682478
0.00306435600424
0.00309387529143
0.00310660386579
0.00311548541583
0.00312432191384
0.00313418357348
0.00314567811687
0.00316023319893
0.00318249066401
0.0032264186653
0.00333024552591
0.00359314376811
0.00427042413933
0.00603328446998
0.0112266274849
0.0310681562223
0.0874622592235
0.00262566515702
0.00272473820677
0.00297265179125
0.00305826045763
0.00308776162247
0.00310042233903
0.00310918726795
0.00311786839515
0.00312756577484
0.00313892342561
0.00315348273566
0.00317620453018
0.0032216959053
0.00332877343767
0.00359536250644
0.00427066499491
0.00601102971449
0.0111228236654
0.0317834018955
0.102149605253
0.00261985571407
0.00271838541174
0.00296592826954
0.00305153751088
0.0030810476312
0.0030936746885
0.00310236950858
0.00311095322327
0.00312054734532
0.00313182763384
0.00314646063942
0.00316972464224
0.00321682559253
0.00332708887492
0.00359667138308
0.00426678491765
0.00597439286217
0.0109966619522
0.0331210910632
0.140067473191
0.00261325120712
0.00271141576423
0.00295859745961
0.00304422079066
0.00307376852919
0.00308639510396
0.00309506002014
0.00310360031633
0.00311314598851
0.00312441156099
0.00313918418587
0.00316304453094
0.00321179814273
0.00332525962937
0.00359746990635
0.00425860510948
0.00591401670668
0.0107292443573
0.0326172048592
0.155573675648
0.00260589826342
0.00270388741352
0.00295070065543
0.00303634427266
0.00306595625978
0.00307862080674
0.00308729494399
0.00309583401837
0.00310538058759
0.00311669203859
0.00313166276554
0.00315619188429
0.00320668022494
0.00332350279792
0.0035983631538
0.00424682196246
0.00583118308036
0.0104148983431
0.0322271674474
0.154651760851
0.00259788048362
0.00269586165857
0.00294229054832
0.0030279503598
0.00305764506516
0.0030703752397
0.00307910021978
0.0030876828004
0.00309728461626
0.00310869304817
0.00312394575787
0.00314918725673
0.00320151556581
0.00332198129358
0.00359979390733
0.00423102829399
0.00571136829626
0.00991194528172
0.0304512042462
0.147230698603
0.00258926047502
0.00268741437264
0.00293336517066
0.00301905129246
0.00304884632809
0.00306168139717
0.00307049895061
0.00307917660683
0.00308888095928
0.00310047298424
0.00311601958211
0.00314207335421
0.00319625101594
0.00332032346315
0.00360048177296
0.00420731339838
0.00554459267569
0.0093046688335
0.0289581203949
0.142969951117
0.00258007574148
0.00267841999241
0.00292391257523
0.00300964235389
0.00303958214532
0.00305255771531
0.00306151560961
0.00307033136493
0.00308020647386
0.00309199010106
0.00310795952098
0.00313474930446
0.00319067603405
0.00331771322134
0.00359801692092
0.00417575539152
0.00536960109393
0.00874699499263
0.0275438306189
0.137735525928
0.00257041060943
0.00266892409202
0.00291394944879
0.00299974317507
0.00302986597934
0.00304302809163
0.00305216556298
0.0030611715405
0.00307125579529
0.00308332212487
0.00309969864865
0.00312735832882
0.00318480562948
0.00331396705395
0.00359323141014
0.00414953938933
0.00526279207676
0.00855046284983
0.0291741555987
0.151500955411
0.00256024425086
0.00265899405736
0.00290353696674
0.00298941791176
0.00301975313545
0.00303313718235
0.00304249637425
0.00305173513203
0.00306207613751
0.00307447423472
0.00309134021023
0.00311992983866
0.00317914915282
0.0033109903776
0.00359220896169
0.00414597479175
0.00525253384899
0.00846877242052
0.027399549978
0.146006834844
0.00254956418799
0.00264864716762
0.00289272413067
0.0029786969291
0.00300927202718
0.0030229154729
0.00303254065506
0.00304205742811
0.00305269734217
0.00306546485489
0.00308293242442
0.00311263847841
0.00317403593011
0.00330984640496
0.00359687890946
0.00415957144745
0.00529295045706
0.00849174741062
0.0229854873132
0.115465832301
0.00253842094389
0.00263791427034
0.00288150842933
0.00296760805927
0.00299846042227
0.00301240900446
0.00302234527685
0.00303218123129
0.00304317402339
0.00305639877218
0.00307448414754
0.00310546074974
0.00316943975506
0.00331007118682
0.00360422231315
0.00417453050645
0.00531032297346
0.00857474525609
0.025478873386
0.131303286415
0.00252680347705
0.00262686046208