/*--------------------------------*- C++ -*----------------------------------*\
| =========                 |                                                 |
| \\      /  F ield         | OpenFOAM: The Open Source CFD Toolbox           |
|  \\    /   O peration     | Version:  v2012                                 |
|   \\  /    A nd           | Website:  www.openfoam.com                      |
|    \\/     M anipulation  |                                                 |
\*---------------------------------------------------------------------------*/
FoamFile
{
    version     2.0;
    format      ascii;
    class       volScalarField;
    location    "2.8";
    object      k_0;
}
// * * * * * * * * * * * * * * * * * * * * * * * * * * * * * * * * * * * * * //

dimensions      [0 2 -2 0 0 0 0];


internalField   nonuniform List<scalar> 
1984
(
0.00292750264872
0.00340259056077
0.00355626453695
0.00361435341438
0.00364219504365
0.00366122405257
0.00367813697136
0.00369492007098
0.00371238717694
0.00373149076988
0.00375528357183
0.00379243255889
0.00386543615171
0.00402036632693
0.00433179295287
0.00491998396458
0.00618486531698
0.0104766007463
0.0274727355149
0.0712238799189
0.00341331502174
0.00418813119889
0.00442413189874
0.00451059220996
0.00454757683326
0.00456941296993
0.00458711358128
0.00460406614637
0.00462157331651
0.0046410487282
0.00466715338964
0.00471234300549
0.00480693101873
0.00500908823743
0.00540449638191
0.00613921934769
0.00785901019092
0.0134826886442
0.030300347945
0.0692566969335
0.00356804217986
0.00442703580465
0.00469271600231
0.00478945193794
0.00482927493546
0.00485152544944
0.00486915513575
0.00488607405959
0.00490369466585
0.00492386429017
0.00495151949348
0.00500032109456
0.00510222214342
0.00531734983697
0.00573345900654
0.00649135772788
0.00822236307939
0.0139239141191
0.0311706948912
0.0696088839978
0.00362669667244
0.00451610704664
0.00479331287938
0.00489381485564
0.00493420209243
0.00495608703937
0.00497322702512
0.00498980112384
0.0050073548985
0.00502764449673
0.00505574694833
0.00510517607219
0.00520744452805
0.00542170054202
0.00583410526459
0.00657307906291
0.00817127627482
0.01352597495
0.0311938514828
0.0735501980763
0.00365412586568
0.00455443635675
0.00483587833552
0.00493738169953
0.00497739037589
0.00499853518475
0.00501496271831
0.00503099360175
0.00504815344252
0.00506820886994
0.00509597532789
0.00514459024167
0.00524440511862
0.00545280756512
0.00585313053928
0.00655970478782
0.00798390200015
0.0127414762735
0.0303246695247
0.0737016549729
0.00367172652509
0.00457617052009
0.00485900119761
0.00496040391481
0.00499968982878
0.00501996007272
0.00503557313975
0.00505091062
0.00506748348178
0.00508700559594
0.00511404895321
0.00516117197059
0.00525754835262
0.00545860061705
0.00584498016038
0.0065209984722
0.00779054407095
0.0118947135862
0.0289601689337
0.0736224694828
0.00368617530577
0.00459273336203
0.00487592249835
0.00497686849921
0.00501535523374
0.00503475244086
0.00504954625537
0.00506413142941
0.00508003800816
0.00509887163861
0.00512499223215
0.00517036534682
0.00526311514066
0.00545703477423
0.00583164446854
0.00648755502487
0.0076786027644
0.0112950345609
0.0271876575445
0.0733734967091
0.00369963219958
0.00460759847947
0.00489091599905
0.00499136078494
0.00502910163324
0.00504769956388
0.0050617081762
0.00507557032693
0.00509079314847
0.00510889245321
0.00513401519387
0.00517757058596
0.00526666114628
0.00545397179901
0.0058182336788
0.00646083393883
0.00762354589968
0.0109810482062
0.0257263279887
0.0728947252901
0.00371255831659
0.00462189430892
0.00490528870846
0.00500526684533
0.00504234181199
0.00506023338471
0.00507353900513
0.00508672726919
0.00510128157257
0.0051186620532
0.00514279922778
0.0051845640434
0.00527012828496
0.00545078848837
0.00580471986058
0.0064359934783
0.00758086175476
0.010777673801
0.0245974326328
0.0713351394628
0.00372508327972
0.00463587420786
0.00491937000644
0.00501892930355
0.00505542288857
0.0050726877088
0.00508537983835
0.00509795478724
0.00511190576775
0.00512859497784
0.00515175288195
0.00519173744185
0.00527381566554
0.00544817688422
0.00579293671821
0.00641152401394
0.007526139231
0.0105019231864
0.0234198243968
0.0701845779362
0.00373726810741
0.00464951359439
0.00493317495794
0.00503238282508
0.00506836980499
0.00508509188874
0.00509723476605
0.00510927498699
0.00512266505351
0.00513872166193
0.00516094776055
0.00519919503613
0.005277881078
0.00544613847049
0.00578184096827
0.00639035055022
0.00749381488471
0.010372946937
0.0214084257632
0.0514260186029
0.00374907014892
0.00466283889979
0.0049466852453
0.00504557825449
0.00508112279285
0.00509737476098
0.00510904079523
0.00512059999155
0.00513349732246
0.00514895204577
0.00517031190172
0.00520689736892
0.00528226444452
0.00544455640491
0.00577194650764
0.00637340108568
0.00749012303536
0.0104888031086
0.0220059926043
0.0572886387813
0.00376040867268
0.00467579701966
0.00495985247886
0.00505846594215
0.00509361191485
0.00510945319012
0.00512070603869
0.00513184223861
0.00514428588955
0.00515920870753
0.00517974552729
0.00521475653663
0.00528694787263
0.00544346472332
0.00576299344151
0.00636006131006
0.00750850235276
0.010680382321
0.0229991968093
0.0643145431506
0.00377130226796
0.0046883444518
0.00497261897627
0.005070978866
0.00510577433031
0.00512125516622
0.00513214712956
0.00514291687455
0.00515496502025
0.00516940241481
0.0051891909035
0.0052227577567
0.00529199511541
0.00544313251513
0.00575501270315
0.00634487535791
0.00749507294224
0.0106629489298
0.0230928519149
0.0670993967449
0.00378171579729
0.00470043713876
0.0049849126503
0.0050830609673
0.00511754783749
0.005132715945
0.00514328830362
0.00515374464606
0.00516546142176
0.00517947260374
0.00519861325241
0.00523089951884
0.00529757304558
0.00544417249049
0.00574951933802
0.00632838240761
0.00743329886528
0.010384402656
0.0227474236147
0.0683609954904
0.00379160272837
0.00471202878318
0.00499672623797
0.00509467444907
0.00512887808426
0.00514377473111
0.00515409771436
0.00516427849056
0.00517568741478
0.00518935804424
0.00520790550224
0.00523912265246
0.00530371714049
0.00544718003745
0.00575011899281
0.00633042214802
0.00743046429711
0.0104283348634
0.0245991274005
0.07299065975
0.00380097918509
0.0047231130695
0.00500802063585
0.00510576942459
0.00513974769406
0.00515442239208
0.00516452302308
0.0051744494509
0.00518565390555
0.00519900866983
0.00521705570694
0.00524732895797
0.0053100914529
0.00545106572723
0.00575512605551
0.0063573232574
0.00753478084279
0.010753202484
0.0259901044673
0.0735900464562
0.00380989018859
0.00473356230719
0.00501871362823
0.00511634034651
0.00515010967289
0.00516458665169
0.00517453953141
0.00518433445097
0.00519528623745
0.00520833840197
0.00522588957559
0.00525519682258
0.00531592051426
0.00545347119153
0.00575750263114
0.00639040634291
0.00768888909992
0.0110169528206
0.0256374504413
0.0723226316757
0.00381822279672
0.00474336800416
0.00502880165469
0.00512631112496
0.00515993868633
0.00517432761694
0.00518415099786
0.00519380237265
0.00520459740102
0.00521743388753
0.00523456876413
0.00526291864476
0.00532140396651
0.005454675917
0.00575579432029
0.00641193734923
0.0078189472379
0.0112164039038
0.0246587326904
0.071012197304
0.00382594775487
0.00475262538592
0.00503827076373
0.00513569925513
0.00516922733452
0.00518351924421
0.00519326754959
0.00520284581754
0.00521355488735
0.00522624920614
0.00524304785202
0.00527052455686
0.00532680601005
0.0054556855648
0.0057526819118
0.00642312422893
0.00790947991017
0.0114152140391
0.0240368166276
0.070554504336
0.00383304512642
0.00476127550468
0.00504712312756
0.00514448090188
0.00517792088426
0.00519215803663
0.00520188308715
0.00521144601925
0.00522213073834
0.00523474405306
0.00525128990076
0.00527797747772
0.00533222942892
0.00545718252322
0.00575079498945
0.00643260652996
0.00798279587502
0.0117017417345
0.0243110532324
0.0719049923965
0.00383940574144
0.0047692644844
0.00505532325601
0.00515261361061
0.00518599874088
0.00520023053296
0.0052099772381
0.00521957358937
0.00523029241499
0.00524289816092
0.00525925868056
0.00528523987598
0.00533759065284
0.00545889191314
0.00574934003287
0.00643955809952
0.00804188606217
0.0120086457039
0.0251943767068
0.0731968253235
0.0038449867063
0.00477653018431
0.00506282815691
0.00516006951647
0.00519343319112
0.00520769668259
0.00521751249248
0.00522720360761
0.00523801836405
0.00525068402897
0.00526693029713
0.00529226844499
0.00534277204313
0.00546044794469
0.00574738531214
0.0064423293034
0.00807959444055
0.0122142283069
0.0259846020829
0.0757559728877
0.00384977808201
0.00478304683757
0.00506959334441
0.00516681429842
0.00520018713039
0.00521451873797
0.00522445727949
0.00523430852344
0.00524528793494
0.00525808016835
0.00527429126043
0.00529907409229
0.0053477906504
0.00546179189261
0.00574451134986
0.00644107724914
0.00810228933029
0.0123549453493
0.0263694809724
0.0761410820033
0.00385381093275
0.00478871655114
0.00507552468409
0.00517277695545
0.00520620686053
0.00522065918705
0.00523077175201
0.00524083758992
0.00525205945077
0.00526506515118
0.00528133318747
0.00530565768022
0.00535270583537
0.00546308865832
0.00574144182478
0.00643801883992
0.00811079716745
0.0123483685892
0.0253815414018
0.0626964741705
0.00385705278747
0.00479346030059
0.00508053479558
0.00517787788205
0.00521142695097
0.00522606022722
0.00523641041992
0.00524676105353
0.00525830364755
0.00527162186708
0.00528806548722
0.00531210240101
0.0053577147161
0.00546490862521
0.00573999471917
0.0064391617848
0.00809537403828
0.0119652578662
0.0225464083257
0.04787902997
0.00385955801705
0.00479728046609
0.00508453882821
0.00518203199169
0.00521577916836
0.00523066821768
0.0052413297794
0.0052520434846
0.00526399613191
0.00527773532525
0.00529449666638
0.00531846007015
0.0053630697467
0.00546812367932
0.00574334317332
0.00645778578064
0.00811147998384
0.0114365269796
0.0192479280197
0.0458226053201
0.0038613623928
0.00480018923981
0.00508749600678
0.0051851685276
0.00521919394052
0.00523441491317
0.00524546310528
0.00525662567235
0.00526909462234
0.00528340059725
0.0053006826336
0.00532489276725
0.00536913286531
0.00547355037877
0.00575396183339
0.00651077602972
0.00832153325234
0.0119471526809
0.0211700351385
0.0697554680001
0.0038623220985
0.00480192731769
0.0050892711538
0.00518719703075
0.00522159797635
0.00523723847336
0.00524875334518
0.00526045639574
0.00527354727521
0.00528855848572
0.00530658079151
0.00533139444833
0.00537587721812
0.00548077310563
0.00576895017181
0.00658275822784
0.00866879595763
0.013266679448
0.0248954518827
0.0760168589636
0.00386227420629
0.00480230465438
0.00508972837396
0.00518802518549
0.00522291634521
0.00523907265898
0.00525114202258
0.00526347504325
0.00527729961342
0.00529316236392
0.00531212734498
0.00533792061823
0.00538349395352
0.00549112417262
0.0057925985288
0.00666862272867
0.00899293392174
0.0142818427081
0.0269880896037
0.0713739084339
0.00386124419866
0.00480140696816
0.00508878385256
0.0051875640327
0.00522306286935
0.00523982804099
0.0052525375257
0.005265588324
0.00528025036384
0.00529710488321
0.00531722749193
0.00534446770436
0.00539271959559
0.00550911558607
0.00584176887544
0.00679931736808
0.00926663248861
0.0146669629183
0.0263578700498
0.0615929299607
0.00385913902089
0.00479899024603
0.0050863817977
0.00518572852988
0.00522195146606
0.00523942733405
0.00525286330216
0.00526671912827
0.00528230573379
0.00530025428972
0.00532171750055
0.00535102289104
0.00540478993448
0.00554210947481
0.00594386454843
0.00704186659596
0.00961271862169
0.0148536069585
0.024674409227
0.0442380297487
0.00385584240019
0.00479505035741
0.00508235110774
0.0051823918394
0.00521947050019
0.00523777170508
0.00525203229398
0.0052667877584
0.00528339167006
0.00530251037354
0.00532550932383
0.00535769148365
0.00542096984779
0.00559569752968
0.0061136644801
0.0074251400554
0.0100616700653
0.0146459878281
0.0222326100281
0.0347287544668
0.0038512428036
0.00478940047131
0.00507662059464
0.00517747773266
0.00521554306533
0.00523478238609
0.00524996329019
0.00526569664293
0.00528340136506
0.00530379376546
0.00532850064208
0.00536434232078
0.00544053818366
0.00566324576242
0.00631745195809
0.00786697427308
0.0106547182605
0.0148971340538
0.0217547152278
0.0468798291688
0.00384530833533
0.00478195365062
0.00506906816964
0.00517086891936
0.00521007722716
0.00523038684743
0.00524659778296
0.00526339820734
0.00528226643061
0.00530399215717
0.00533041689308
0.00536994865743
0.00545850591434
0.00572207671822
0.00648202728056
0.00825025968171
0.0114642064676
0.0164713292453
0.0263989724185
0.0645808314507
0.00383796886578
0.0047725783896
0.00505959681476
0.00516247844552
0.00520299084573
0.00522451481962
0.00524188884197
0.00525988300507
0.00528000622164
0.00530305971418
0.00533093100928
0.0053723969812
0.00546502927875
0.00574090676663
0.00654209569865
0.00844728469978
0.0120022466994
0.0177584008028
0.0312240364782
0.0710748725295
0.00382900044605
0.00476116938481
0.00504814408655
0.00515223577218
0.00519420243013
0.00521710740403
0.00523580581425
0.00525514282489
0.00527667387092
0.00530111684594
0.00533005762535
0.00537105134446
0.00545822734556
0.00572074819492
0.00652599133118
0.0085372914308
0.0122719458669
0.0181548072181
0.0305432592526
0.0645018591012
0.00381846405703
0.00474775864647
0.00503467973924
0.00514008374862
0.0051836632071
0.00520812446394
0.00522832848395
0.00524920092494
0.00527236342439
0.0052985396488
0.00532936873255
0.00537296547956
0.00546706819901
0.00575667424301
0.00664713590946
0.00879052623943
0.0126630308686
0.0185651611189
0.0284558463235
0.0484168159321
0.00380612506612
0.00473232988697
0.00501921498255
0.0051260070094
0.00517133437028
0.0051975168894
0.00521940421302
0.00524202398295
0.00526702533329
0.00529518390098
0.00532850572521
0.00537737653838
0.00549017009264
0.00584199951669
0.00685927963321
0.00909952333723
0.0130736210127
0.0197165450375
0.0327524406873
0.0718929036961
0.00379189670381
0.00471488193226
0.00500175296392
0.0051100042874
0.00515719230202
0.00518525427091
0.00520903925753
0.00523363284249
0.00526069237323
0.00529095476344
0.0053264866165
0.00537791040935
0.00549404712513
0.00584610249846
0.00683950735199
0.00906638400959
0.0133252014842
0.0208570908698
0.0360617960687
0.0743376491033
0.00377570146137
0.00469543578189
0.00498232188904
0.00509211590472
0.00514125035267
0.00517136049923
0.00519726669122
0.00522410573603
0.00525347384634
0.0052859815005
0.00532264766158
0.00536943236765
0.00545569118865
0.00570079387158
0.00649125449407
0.00873642089095
0.0135194859462
0.021470935643
0.0366023053326
0.0737596967099
0.00375780785374
0.00467424508539
0.00496114685066
0.00507243129755
0.00512358770481
0.00515585027443
0.00518408778535
0.00521345992998
0.00524560083152
0.00528103475061
0.00532041573228
0.00536745934723
0.00544370622511
0.00564807603377
0.006352071017
0.00862671877334
0.0139997327515
0.0232310114253
0.0399417229922
0.0755123117532
0.00373828193553
0.00465158323106
0.00493848447071
0.00505121954037
0.00510428159998
0.0051387386744
0.00516939081349
0.00520146871838
0.00523658103371
0.00527549710579
0.00531860794043
0.00536821163184
0.00544358104999
0.00564486328104
0.00637145458264
0.00884988187264
0.0148140895028
0.0250620996813
0.0426555092635
0.0765897185603
0.0037174098794
0.00462790208321
0.00491481352359
0.00502877124507
0.00508351211933
0.00511978705017
0.00515238637506
0.00518645270013
0.00522390510027
0.00526664307223
0.00531442221077
0.00536791011515
0.00545062180356
0.00568961470604
0.00656965225926
0.00942781039666
0.0159725961985
0.0271120678913
0.0449320560561
0.0773547303477
0.00369571606057
0.00460391627415
0.00489080597919
0.00500558803296
0.00506120458913
0.00509787616373
0.00512987671872
0.00516215778002
0.00519819293213
0.0052447548155
0.00529737055906
0.00535230791231
0.00544821553949
0.00576626182097
0.00688319619667
0.0102195957858
0.0173788559811
0.0293773259188
0.0470902770717
0.0779667234017
0.00367394277192
0.00458054040566
0.00486732112284
0.00498210877278
0.00503669679215
0.00506939718163
0.00509227805525
0.00510918701411
0.00512977434504
0.00518044402778
0.00523787912987
0.00528754970995
0.00541398103675
0.00588620771794
0.00732771313474
0.0112337773194
0.0189861920227
0.0310776974215
0.0481357577375
0.0779069968969
0.00365300438773
0.00455887347874
0.00484537241215
0.00495874984399
0.00500805737425
0.00502512002696
0.00501237799049
0.00496620406752
0.00492202948162
0.00497874859598
0.00504920123472
0.00510267316146
0.0053180227554
0.00605109711946
0.00794671307393
0.0124649812159
0.0205198462156
0.0317379800295
0.0466120988573
0.0721131643101
0.00363369885659
0.00453994729202
0.0048259812231
0.00493593744461
0.00497264774711
0.00494763624412
0.0048201628167
0.00454821673034
0.00417033379226
0.00420404653514
0.00434761853533
0.00464563997708
0.00511097429356
0.00610293742549
0.00834744652679
0.0133955180574
0.0217213162525
0.0321190006896
0.044185287628
0.0616499598385
0.00361709671335
0.00452458760899
0.00480965834457
0.00491441567498
0.00493820855093
0.0048858104619
0.00469093642103
0.00401895773531
0.00490094244598
0.00644931791041
0.00921199790115
0.0145817412833
0.0225539146956
0.0317676754578
0.0421928660566
0.0580985334943
0.00360619163307
0.00451627991124
0.00480187280914
0.00490453275544
0.00491995322337
0.0048428915841
0.00458781037075
0.00377342463337
0.00527717638319
0.00775732271691
0.0115532143452
0.0168528341317
0.0235033007224
0.0307959886998
0.0396563229179
0.0496680170951
0.00360620647809
0.004516286839
0.00480187735213
0.00490453679135
0.00491995804769
0.00484289553775
0.00458780883653
0.00377341263316
0.00527764769829
0.00775845122043
0.0115552059534
0.0168552503265
0.0235055873354
0.0307992835856
0.0396645606701
0.0496760312344
0.00361712065644
0.00452460638362
0.00480967337997
0.00491442770208
0.00493821782966
0.00488581552719
0.00469093903676
0.00401892019205
0.00490142111075
0.0064506844905
0.0092144070039
0.0145845862241
0.0225569697731
0.0317769653499
0.042219581206
0.0581181069741
0.00363373238222
0.00453997480119
0.00482600412649
0.00493595655642
0.00497266651622
0.0049476625355
0.00482019165251
0.00454825262455
0.00417036004082
0.00420408753
0.00434772017651
0.00464597139273
0.00511169552571
0.00610439381823
0.00834975127889
0.0133978004568
0.0217242831912
0.0321288485546
0.0442079332656
0.0616656527859
0.00365304920618
0.00455891682715
0.00484541356501
0.00495878820019
0.00500809401073
0.00502515410176
0.00501240533278
0.00496621575449
0.00492204461404
0.00497877477724
0.00504925943012
0.00510280669059
0.00531841092647
0.00605196683341
0.00794839936183
0.0124669610271
0.0205228123155
0.0317465585509
0.046634346669
0.0721235109156
0.00367398572265
0.00458058655691
0.00486736848551
0.00498215502226
0.00503674214336
0.00506944171045
0.00509231925906
0.00510922298375
0.00512980730548
0.00518047195857
0.00523790945484
0.00528762669127
0.00541418506851
0.00588670387761
0.00732877317597
0.0112352236452
0.0189883081627
0.0310829152004
0.0481500412698
0.0779138290943
0.0036957491449
0.00460395909205
0.00489085417569
0.00500563671082
0.00506125119008
0.00509792238223
0.00512992077002
0.00516219815927
0.0051982267931
0.00524477521228
0.00529737608164
0.00535231583445
0.00544827982855
0.00576647936645
0.006883678567
0.0102203877288
0.0173802055637
0.0293809323518
0.0470977194619
0.0779702163416
0.0037174345997
0.00462794530379
0.00491486469939
0.00502882111077
0.00508355054179
0.00511982892455
0.0051524264028
0.00518648774926
0.00522393000165
0.00526664999186
0.00531440826073
0.00536787685979
0.00545060120867
0.00568966643606
0.00656978728312
0.00942813518426
0.0159734641067
0.027114649768
0.0449371527115
0.0773576910313
0.00373831455974
0.00465162826485
0.00493853821171
0.00505125730521
0.00510432691938
0.00513876943718
0.00516942714094
0.00520149750924
0.00523659961024
0.00527550117985
0.00531859386591
0.00536817416217
0.00544353150818
0.00564484624667
0.00637146455864
0.00885005003164
0.0148147752362
0.0250643128186
0.0426602184007
0.0765922366533
0.00375786226925
0.00467431081949
0.00496120995368
0.00507249822786
0.0051236336232
0.00515589783365
0.00518412646603
0.00521349686924
0.00524562752267
0.00528106245806
0.0053204291996
0.00536745589003
0.00544368941441
0.00564809431899
0.00635209575907
0.00862700385017
0.0140003357441
0.0232325549162
0.0399445530974
0.0755137471948
0.00377576385833
0.00469550957443
0.00498239873747
0.00509218627083
0.00514131884043
0.00517141660732
0.00519731978355
0.00522414988391
0.00525352604074
0.00528602558752
0.00532269908684
0.00536946451155
0.0054557214519
0.00570084341455
0.0064913443367
0.00873678999631
0.0135200952503
0.0214719403966
0.0366045654748
0.0737608026699
0.00379196458195
0.00471496181768
0.00500183518624
0.00511008635731
0.00515727095494
0.00518532936598
0.00520911096848
0.00523370572863
0.00526075918319
0.00529103200612
0.00532655266963
0.0053779700233
0.00549409785868
0.0058461851186
0.00683961157832
0.00906669798263
0.0133258180143
0.0208589967646
0.0360672358764
0.0743407340029
0.00380620429694
0.00473241491826
0.00501930505924
0.00512610191669
0.00517143176737
0.00519761539509
0.00521950427745
0.0052421245922
0.00526712712688
0.00529528159588
0.00532860449392
0.00537746639049
0.0054902699075
0.00584214567677
0.00685949319555
0.00909991595007
0.0130741513296
0.0197181362393
0.0327612168027
0.0718998795241
0.00381855005145
0.00474785020775
0.00503477799959
0.00514019048877
0.00518377721598
0.00520824432129
0.00522845508176
0.00524933459457
0.00527250034922
0.00529866776536
0.00532949508951
0.00537308539907
0.00546719659976
0.00575686030315
0.00664739750945
0.0087908733704
0.0126634057177
0.0185655358759
0.0284551013224
0.0484255837439
0.00382909950102
0.00476127451873
0.00504825780364
0.00515235965095
0.00519433706551
0.00521725335404
0.00523595992454
0.0052553071169
0.0052768501028
0.00530127463545
0.00533020919668
0.00537119405818
0.00545837970169
0.00572092820525
0.00652611926565
0.0085374069974
0.0122721444898
0.0181548351124
0.0305390242427
0.064493139236
0.00383805656403
0.00477266936317
0.00505969616036
0.00516258503445
0.00520310558704
0.00522463943752
0.00524202580558
0.00526003876652
0.00528019110097
0.00530323401564
0.00533110464793
0.00537255649753
0.00546519226004
0.00574107571162
0.00654218136061
0.00844741365645
0.0120025738238
0.0177592126339
0.031234881389
0.0711021115688
0.00384538771337
0.00478203400236
0.00506916031705
0.00517096886532
0.00521018510867
0.00523050405145
0.0052467282915
0.00526354746233
0.00528243514179
0.00530417040194
0.00533059727689
0.00537011035063
0.00545867807388
0.00572227488673
0.0064822436143
0.00825059116524
0.0114647062465
0.0164727556074
0.0264143295542
0.0646889320783
0.00385131249378
0.0047894707691
0.00507670609556
0.00517757457635
0.00521564834619
0.00523489653917
0.00525008941131
0.00526584033579
0.00528356552199
0.00530397147159
0.00532868773164
0.00536452639213
0.00544072260657
0.00566345636253
0.00631768858136
0.00786733697118
0.0106553990505
0.0148987466482
0.0217774580968
0.0472415580111
0.00385590582509
0.00479511835248
0.00508243764025
0.00518248845013
0.00521957458887
0.0052378841643
0.00525215530269
0.00526692710168
0.00528355092471
0.00530268349236
0.00532569524875
0.00535788126375
0.00542116829396
0.0055959266883
0.00611393315234
0.00742558108802
0.0100622006526
0.0146466217976
0.0222312383328
0.034845141925
0.0038591982211
0.00479905482957
0.00508646365934
0.00518582219698
0.00522205398023
0.00523953801961
0.00525298389419
0.00526685484002
0.00528245949836
0.00530042339052
0.00532189929286
0.00535121461995
0.00540499551642
0.00554234492887
0.00594413980373
0.00704226020667
0.00961326655249
0.0148541001005
0.0246475070565
0.0432081524603
0.00386130956066
0.00480147221898
0.00508886588517
0.0051876569323
0.00522316365424
0.00523993628914
0.00525265536387
0.00526572050074
0.00528040024045
0.0052972727832
0.00531740905226
0.00534466604551
0.00539293799267
0.00550936258993
0.00584205605472
0.00679965033561
0.00926692996011
0.0146660219724
0.0263147149662
0.0610758579148
0.00386234305484
0.00480237345102
0.00508981045736
0.00518811672394
0.00522301490912
0.00523917831292
0.00525125734631
0.00526360488301
0.00527744884056
0.00529333323113
0.00531231501874
0.00533813318399
0.00538373567953
0.0054913980862
0.00579292064166
0.00666897402005
0.00899318861874
0.0142756571602
0.0267953006725
0.0697683428742
0.00386239118341
0.00480199520591
0.00508935141725
0.00518728640607
0.00522169424181
0.00523734207176
0.00524886711577
0.00526058567181
0.0052736991002
0.0052887371447
0.00530678047426
0.00533162918883
0.00537613844304
0.00548106574656
0.00576930384148
0.00658315790064
0.00866875530149
0.0132344717637
0.0239474289767
0.0667014280944
0.00386142860821
0.00480025175744
0.00508757186556
0.00518525345498
0.00521928566371
0.00523451424833
0.00524557341316
0.00525675348392
0.00526924598249
0.00528358783104
0.00530090640345
0.00532515563317
0.00536942507887
0.00547387169322
0.00575435375948
0.00651127375959
0.00832046157605
0.0118497882873
0.0184759340299
0.0344332593927
0.00385961851194
0.0047973343126
0.00508460688352
0.00518210934339
0.00521586378031
0.00523076166932
0.00524143756983
0.0052521745286
0.0052641598193
0.00527795372357
0.00529476488042
0.00531877127808
0.00536341058968
0.00546847805884
0.00574370115448
0.00645829390268
0.00811397898568
0.0114655166254
0.0192225514057
0.0343243548971
0.00385710503478
0.00479350174838
0.00508059400115
0.00517794905956
0.00521150808381
0.00522615423293
0.00523652325824
0.00524690214716
0.00525848438054
0.00527186060936
0.00528835592321
0.00531243141774
0.0053580576575
0.00546523753589
0.00574027434506
0.00643948992047
0.00809877768199
0.012014556006
0.0227330496632
0.0512432332075
0.00385386022015
0.00478876028768
0.00507558190707
0.0051728438032
0.0052062824111
0.00522074791442
0.00523088211792
0.00524098239195
0.00525225471402
0.00526532955084
0.00528166847805
0.00530605319048
0.00535313275115
0.00546350321659
0.00574178474814
0.00643822242159
0.00811021288843
0.012281082841
0.0236300046915
0.0438304602894
0.00384983365013
0.00478309843707
0.00506966207296
0.00516689903152
0.00520028730223
0.00521463717193
0.00522459844895
0.0052344780728
0.00524549309281
0.00525833040785
0.00527458435165
0.00529940102735
0.0053481296561
0.00546209653545
0.00574468832653
0.00644103333914
0.00810163286882
0.0122668492613
0.0239753418195
0.0460343629362
0.00384504321783
0.00477658509825
0.00506290113666
0.00516016133451
0.00519354354297
0.00520782678085
0.00521766683183
0.00522738571661
0.00523823194482
0.00525093371238
0.00526721586914
0.00529258499595
0.00534310281417
0.00546074374557
0.00574752684185
0.00644249726458
0.00808539396143
0.0122189724775
0.0245410147605
0.0513384005328
0.00383945900326
0.00476931956297
0.00505539856852
0.00515271031402
0.00518611711516
0.00520037084838
0.00521014119665
0.00521976215698
0.00523050693222
0.00524314036686
0.00525952881824
0.0052855394151
0.00533790731257
0.00545917686957
0.00574946826231
0.00644004515449
0.00805697354501
0.0121629880775
0.0255044631658
0.0620710139331
0.00383309281059
0.00476132607656
0.00504719890344
0.00514458169211
0.00517804527783
0.00519230575419
0.0052020518169
0.00521163450599
0.00522233774559
0.00523497138092
0.00525154019861
0.00527825341239
0.00533252954684
0.00545746563474
0.00575092602381
0.00643336547539
0.00800690053192
0.0119939111832
0.0256594239119
0.0721942063498
0.00382598863189
0.00475267006561
0.00503834879053
0.00513581067475
0.00516936188834
0.00518367263734
0.00519343716696
0.00520302828378
0.00521374523212
0.0052264470144
0.00524326227379
0.00527077080495
0.00532708896574
0.00545596950908
0.00575279580367
0.00642370022662
0.00793867012872
0.011803574247
0.0258440643116
0.0723623078858
0.00381825721764
0.00474341492396
0.00502888111778
0.00512643479683
0.00516010024231
0.00517449480556
0.00518432416456
0.00519397401444
0.00520476396912
0.00521759033111
0.00523474685261
0.0052631216144
0.00532166257608
0.00545498496897
0.00575602452086
0.00641247218085
0.00784534268986
0.0115089416019
0.0254438777269
0.0711216147941
0.00380993217263
0.00473363055085
0.00501881407135
0.00511647326434
0.00515027622925
0.00516479810622
0.00517474045765
0.00518450357608
0.00519541900641
0.00520846328473
0.00522598329825
0.00525533756342
0.00531612617938
0.0054538581144
0.00575829621719
0.00639256956188
0.00770917258665
0.0111277951343
0.0249263941428
0.0703109422278
0.00380103618683
0.00472319450021
0.00500812934036
0.00510591809138
0.00513990955892
0.0051546008501
0.00516470714216
0.00517463384865
0.00518574934585
0.00519902437561
0.00521704203058
0.00524729408579
0.00531018657892
0.00545149007096
0.00575652399226
0.00636260731984
0.00756124920351
0.0107742400759
0.0245091508461
0.0695327534518
0.0037916742591
0.00471213964259
0.00499683934341
0.00509479713326
0.00512902230585
0.00514393417348
0.00515424930108
0.00516439615458
0.00517575278699
0.00518935323627
0.0052078493332
0.00523912016336
0.00530383565305
0.00544768579944
0.00575178765685
0.00633648435466
0.0074667630727
0.010669778267
0.0253037314869
0.0720821001597
0.00378179331589
0.00470055555135
0.00498501910549
0.00508317174247
0.00511766744695
0.00513284187739
0.00514341487457
0.00515382992826
0.00516548187127
0.00517946449833
0.00519852637976
0.00523088087934
0.00529766500362
0.00544463161487
0.0057510372656
0.00633313410867
0.00745311619614
0.0105591542292
0.024261911415
0.0707078434002
0.00377137859858
0.00468846254172
0.00497271793201
0.00507108004188
0.00510588046203
0.0051213613043
0.00513224245682
0.00514297802244
0.00515497320014
0.00516937984915
0.00518913163465
0.00522277307121
0.00529204977036
0.00544349199251
0.00575633393597
0.00634843812427
0.00749386726289
0.0105167892047
0.0218142651475
0.0645243773941
0.00376049060218
0.00467588187065
0.00495993661253
0.00505855412985
0.0050937040166
0.00510954389317
0.00512078525421
0.00513188776439
0.00514428864905
0.00515921585158
0.00517967727657
0.00521476504821
0.00528694776413
0.0054436372252
0.00576375597316
0.00636300180621
0.00751375138259
0.0106396311849