/*--------------------------------*- C++ -*----------------------------------*\
| =========                 |                                                 |
| \\      /  F ield         | OpenFOAM: The Open Source CFD Toolbox           |
|  \\    /   O peration     | Version:  v2012                                 |
|   \\  /    A nd           | Website:  www.openfoam.com                      |
|    \\/     M anipulation  |                                                 |
\*---------------------------------------------------------------------------*/
FoamFile
{
    version     2.0;
    format      ascii;
    class       volScalarField;
    location    "2.8";
    object      rAU;
}
// * * * * * * * * * * * * * * * * * * * * * * * * * * * * * * * * * * * * * //

dimensions      [-1 3 1 0 0 0 0];


internalField   nonuniform List<scalar> 
1984
(
2.20509654254e-05
2.19408817106e-05
2.19276949901e-05
2.19246284569e-05
2.19229419113e-05
2.19222562521e-05
2.1921642667e-05
2.1919800401e-05
2.19181374286e-05
2.19153230328e-05
2.19056390504e-05
2.18610828902e-05
2.18669020906e-05
2.19138652091e-05
2.18538915179e-05
2.17789761673e-05
2.17809333244e-05
2.75652922854e-05
0.000220270036655
0.010569735487
2.19376816858e-05
2.17423866396e-05
2.17109454693e-05
2.17054022096e-05
2.17026945849e-05
2.17012124854e-05
2.17000941612e-05
2.16986622218e-05
2.16968924724e-05
2.16945736222e-05
2.16912877666e-05
2.16895799275e-05
2.16980013844e-05
2.16260284559e-05
2.15281020551e-05
2.14769616185e-05
2.14693703925e-05
2.67739015766e-05
0.000219921740061
0.012075189743
2.19245794132e-05
2.17081470956e-05
2.16736039647e-05
2.16670151284e-05
2.16639389028e-05
2.16623316445e-05
2.16609445543e-05
2.16594032076e-05
2.16582594921e-05
2.16566310458e-05
2.16551621539e-05
2.16523232358e-05
2.16604076924e-05
2.15812194382e-05
2.1471654507e-05
2.14147259806e-05
2.13157007974e-05
2.61453854253e-05
0.000215496507831
0.0119531116365
2.19217450133e-05
2.17012649375e-05
2.16656150612e-05
2.16590988924e-05
2.16560697364e-05
2.16545854854e-05
2.16532208147e-05
2.16519156321e-05
2.16512136712e-05
2.16500050936e-05
2.16480616866e-05
2.16444189961e-05
2.16549472452e-05
2.15727491345e-05
2.14575906639e-05
2.14031524246e-05
2.13982398781e-05
2.58177425355e-05
0.000202046103188
0.0115885117871
2.19208243425e-05
2.16987820569e-05
2.16626103403e-05
2.16559737352e-05
2.1652939233e-05
2.16515815659e-05
2.16505159186e-05
2.16497767729e-05
2.16483979471e-05
2.16466795108e-05
2.16452347923e-05
2.16400914404e-05
2.16511528481e-05
2.15688402965e-05
2.14531218392e-05
2.14024869827e-05
2.14068395006e-05
2.54073749854e-05
0.000184745554242
0.00971519894108
2.19204517993e-05
2.16981981473e-05
2.16617917276e-05
2.16547203065e-05
2.1651764747e-05
2.16506739021e-05
2.1650078618e-05
2.16486037951e-05
2.16465184771e-05
2.1646076107e-05
2.16451285657e-05
2.16357453574e-05
2.16489041588e-05
2.15673360235e-05
2.14498976086e-05
2.14031032396e-05
2.13841679308e-05
2.50034735602e-05
0.000166673788116
0.00927999957964
2.19197357775e-05
2.16974678672e-05
2.16608273161e-05
2.16537875119e-05
2.16510776958e-05
2.1649789806e-05
2.16489279256e-05
2.16473156093e-05
2.16467364006e-05
2.16456428274e-05
2.1643477881e-05
2.1635074997e-05
2.1647088302e-05
2.15613955025e-05
2.14406519029e-05
2.13961052807e-05
2.13311367083e-05
2.46307921485e-05
0.000148595226436
0.00886649719765
2.19190870039e-05
2.16965230937e-05
2.16598750204e-05
2.16533163889e-05
2.16504418131e-05
2.16492380952e-05
2.16483276819e-05
2.16472936901e-05
2.16460740093e-05
2.16444383977e-05
2.16436152887e-05
2.16369154812e-05
2.16436045072e-05
2.15550941614e-05
2.14331054496e-05
2.1387045199e-05
2.13235294909e-05
2.44097850461e-05
0.000135905176474
0.00851965282568
2.19187584464e-05
2.16954889723e-05
2.16593269656e-05
2.16528059211e-05
2.16500748811e-05
2.16489845861e-05
2.16478202877e-05
2.16469913269e-05
2.16460376416e-05
2.16448605467e-05
2.1642905638e-05
2.16365088554e-05
2.16413299838e-05
2.15834289911e-05
2.15714435426e-05
2.14901314393e-05
2.13205390075e-05
2.42790340551e-05
0.000127212274911
0.00823906310163
2.19184475484e-05
2.16949930413e-05
2.16588648552e-05
2.16523445445e-05
2.16497210583e-05
2.16484563493e-05
2.16480736255e-05
2.16470280042e-05
2.16456641386e-05
2.16447045211e-05
2.16434893886e-05
2.16385649575e-05
2.16396033573e-05
2.15995552441e-05
2.16002347105e-05
2.1490262256e-05
2.13024059045e-05
2.41817765151e-05
0.000119402073326
0.00813649290699
2.19184049061e-05
2.16951758214e-05
2.16582631017e-05
2.16521046474e-05
2.16493968911e-05
2.16482009139e-05
2.16475597779e-05
2.16469647537e-05
2.16461666634e-05
2.16452710918e-05
2.16436564027e-05
2.16400804347e-05
2.16405310754e-05
2.1617648163e-05
2.16210658992e-05
2.14754845105e-05
2.12599580819e-05
2.40522730235e-05
0.000113122004582
0.00907744532445
2.1919196401e-05
2.16950557174e-05
2.16580940131e-05
2.16518169911e-05
2.16493982213e-05
2.16483251032e-05
2.16476044798e-05
2.16469036943e-05
2.16461291242e-05
2.16452971828e-05
2.16446135221e-05
2.16425559185e-05
2.16422091112e-05
2.16291901728e-05
2.16383645697e-05
2.14609508905e-05
2.12096883391e-05
2.38757903041e-05
0.000109934443857
0.00679391889738
2.19196865654e-05
2.16944400666e-05
2.16579821525e-05
2.16519198506e-05
2.16495254295e-05
2.16484957099e-05
2.16477116034e-05
2.1647067325e-05
2.16463938806e-05
2.16455316009e-05
2.16451048758e-05
2.16440216129e-05
2.16431569188e-05
2.16368027411e-05
2.16451228954e-05
2.14423449462e-05
2.11566655533e-05
2.39891162797e-05
0.000111503510833
0.00759196767876
2.19195833265e-05
2.16947773312e-05
2.16581785269e-05
2.16519339456e-05
2.16495594e-05
2.16486281183e-05
2.16480822926e-05
2.16475111459e-05
2.16465810934e-05
2.16462066865e-05
2.16454850517e-05
2.16446537415e-05
2.16427541426e-05
2.16387965052e-05
2.16476418108e-05
2.14409118193e-05
2.11367803357e-05
2.41243978798e-05
0.000114671771261
0.00774458463737
2.19207625038e-05
2.16964611964e-05
2.16588647287e-05
2.16523639762e-05
2.16501252477e-05
2.16490156229e-05
2.16484440148e-05
2.16474776134e-05
2.16468884932e-05
2.1646078904e-05
2.16454073007e-05
2.16441535024e-05
2.16401209813e-05
2.16314144037e-05
2.16355144195e-05
2.14715861116e-05
2.12609325516e-05
2.45010286207e-05
0.000118859359897
0.00782441787449
2.19238396317e-05
2.16975577914e-05
2.16600062188e-05
2.16538664966e-05
2.16509231986e-05
2.16498241675e-05
2.1648477049e-05
2.16472864e-05
2.16467244798e-05
2.16462016835e-05
2.16453997553e-05
2.16434284092e-05
2.16380783169e-05
2.16248202655e-05
2.16392299784e-05
2.14964718428e-05
2.13139916771e-05
2.47127144585e-05
0.00012944613923
0.00839133369529
2.19268153009e-05
2.16989374841e-05
2.16614364717e-05
2.16544097193e-05
2.16514640248e-05
2.16499822387e-05
2.16487521555e-05
2.16479085832e-05
2.16466715695e-05
2.16459129119e-05
2.16443403838e-05
2.16419357136e-05
2.16358462868e-05
2.16163182572e-05
2.16282958343e-05
2.1474082194e-05
2.12202779036e-05
2.47005038921e-05
0.000142545309474
0.00868507670927
2.19284620184e-05
2.17011607022e-05
2.16620520229e-05
2.16544256564e-05
2.16519359632e-05
2.16504003207e-05
2.16490396497e-05
2.16475522533e-05
2.16467668788e-05
2.16454936258e-05
2.16439768751e-05
2.16413566176e-05
2.16351318249e-05
2.16113969382e-05
2.16078398543e-05
2.14716043663e-05
2.12373597668e-05
2.49444233934e-05
0.000155305951159
0.00891034102567
2.19336812509e-05
2.17037494757e-05
2.16638572965e-05
2.16561383621e-05
2.16525280269e-05
2.16502783313e-05
2.16484091554e-05
2.16467886485e-05
2.16453369122e-05
2.16448577e-05
2.16442970643e-05
2.16420194451e-05
2.16365026328e-05
2.16170004414e-05
2.15857498536e-05
2.14919535878e-05
2.13513243216e-05
2.54178357835e-05
0.000168056933949
0.00924946473284
2.1944512914e-05
2.17081514081e-05
2.16670237342e-05
2.16567127405e-05
2.16517999295e-05
2.16491256033e-05
2.16473193013e-05
2.16461837586e-05
2.16447258441e-05
2.16433736743e-05
2.16423180046e-05
2.16411034776e-05
2.16367751119e-05
2.16252930373e-05
2.15767325253e-05
2.15233311304e-05
2.14405469312e-05
2.58694930738e-05
0.000182192263414
0.00976483018707
2.19584933958e-05
2.17106929282e-05
2.16661001987e-05
2.16547808419e-05
2.16502720153e-05
2.16475631453e-05
2.16457311128e-05
2.16446537113e-05
2.16438749576e-05
2.16420822708e-05
2.164035288e-05
2.16391735922e-05
2.163641742e-05
2.16301780927e-05
2.16096342779e-05
2.15821643106e-05
2.15097204704e-05
2.63142102087e-05
0.00019842898483
0.0102272903362
2.18605468302e-05
2.16986729836e-05
2.16603456304e-05
2.16508531411e-05
2.16461192758e-05
2.16449873373e-05
2.16443347315e-05
2.16425918738e-05
2.16413573316e-05
2.16405843254e-05
2.16393703677e-05
2.16376036601e-05
2.16351534284e-05
2.16307907387e-05
2.16167300656e-05
2.15839905444e-05
2.15135396191e-05
2.66608113703e-05
0.000214718729988
0.0105002803724
2.1800277045e-05
2.16726449532e-05
2.16491681861e-05
2.16453189791e-05
2.16424654615e-05
2.16406846821e-05
2.16402139621e-05
2.16395998468e-05
2.16391034649e-05
2.16384706128e-05
2.16376016592e-05
2.16357339787e-05
2.16329856788e-05
2.16281359399e-05
2.16118485608e-05
2.15778647979e-05
2.15302081861e-05
2.70410986685e-05
0.000231246705751
0.0106858920939
2.18625087703e-05
2.16599750812e-05
2.16376534333e-05
2.163931902e-05
2.16399993953e-05
2.16382202439e-05
2.16369665686e-05
2.16369286063e-05
2.16362041582e-05
2.16355972657e-05
2.16350715239e-05
2.16340109679e-05
2.1631983055e-05
2.16268207709e-05
2.16110080111e-05
2.15723680817e-05
2.15256057984e-05
2.74635372464e-05
0.000253922404801
0.0112300569344
2.18853933514e-05
2.16640629048e-05
2.16344772999e-05
2.16353135409e-05
2.16362584567e-05
2.16367216486e-05
2.16363880916e-05
2.16357102312e-05
2.16345659239e-05
2.16333774927e-05
2.16320479346e-05
2.16303965086e-05
2.16291817889e-05
2.16264780652e-05
2.1614362405e-05
2.15732232305e-05
2.15249380809e-05
2.7493531626e-05
0.000261158016153
0.0120830875879
2.18939328242e-05
2.16688097542e-05
2.16362955925e-05
2.16350005383e-05
2.16350824829e-05
2.1634633203e-05
2.16345976101e-05
2.16343381219e-05
2.16337000582e-05
2.16321895504e-05
2.16299735263e-05
2.16272376564e-05
2.16240543955e-05
2.16194909132e-05
2.16082537606e-05
2.15519434786e-05
2.14720298646e-05
2.76796127983e-05
0.000264994377445
0.0121672254078
2.19006669999e-05
2.16741646906e-05
2.16389945678e-05
2.16364571909e-05
2.16356053172e-05
2.16347474511e-05
2.16343338741e-05
2.16336384379e-05
2.16324460985e-05
2.16307060156e-05
2.16280387989e-05
2.16246170665e-05
2.16191794373e-05
2.16088022071e-05
2.1587362843e-05
2.15081532676e-05
2.14095032084e-05
2.85476051075e-05
0.000315151601179
0.0130880847068
2.19060952673e-05
2.16789357235e-05
2.16416534419e-05
2.16379223547e-05
2.1636305985e-05
2.16351849976e-05
2.16347246153e-05
2.16337044859e-05
2.1631923963e-05
2.16293713383e-05
2.16254653356e-05
2.16204397879e-05
2.16134076511e-05
2.15989513183e-05
2.15673732932e-05
2.14903909928e-05
2.14172448273e-05
2.94919332659e-05
0.000389266472771
0.0123727606627
2.19101313126e-05
2.16825081976e-05
2.16445768651e-05
2.16397965743e-05
2.1637288463e-05
2.16358498178e-05
2.16352735252e-05
2.16341323299e-05
2.16321375188e-05
2.16287052874e-05
2.16240101962e-05
2.16174317549e-05
2.16077955368e-05
2.15925867764e-05
2.15552047229e-05
2.14914010447e-05
2.14231179334e-05
3.02060086895e-05
0.000447810714284
0.0127654987625
2.19120830525e-05
2.16850295831e-05
2.16473668837e-05
2.16419289185e-05
2.16387352414e-05
2.16375630896e-05
2.16370592134e-05
2.16360264709e-05
2.16335459587e-05
2.16292175033e-05
2.16236189264e-05
2.16160826099e-05
2.16055651168e-05
2.15902570636e-05
2.15492125164e-05
2.14815629909e-05
2.13996899705e-05
3.06328585479e-05
0.000494282966586
0.0133523635311
2.19123045976e-05
2.16864273307e-05
2.16489804926e-05
2.16436266317e-05
2.16403753225e-05
2.16395338927e-05
2.16394441448e-05
2.16385517693e-05
2.1635660518e-05
2.16310194687e-05
2.16248685671e-05
2.16164725998e-05
2.1605910508e-05
2.15930244257e-05
2.15477014453e-05
2.14599668639e-05
2.13691505609e-05
3.11046746919e-05
0.000540318586983
0.0158809887394
2.19133911264e-05
2.16876583989e-05
2.16500417147e-05
2.16450685768e-05
2.16426072083e-05
2.16418251605e-05
2.16421493669e-05
2.1641530136e-05
2.16384092428e-05
2.16338240394e-05
2.16270101778e-05
2.16182260359e-05
2.16086137284e-05
2.16014247406e-05
2.15458039279e-05
2.14400939561e-05
2.13790119483e-05
3.19760987633e-05
0.000545533857447
0.01550013435
2.19146099483e-05
2.16881897205e-05
2.16511287258e-05
2.16461786679e-05
2.16441101894e-05
2.16441263972e-05
2.16459390192e-05
2.16469075254e-05
2.16444299141e-05
2.16373167702e-05
2.16285618167e-05
2.16209551565e-05
2.16136158651e-05
2.1611588819e-05
2.15437170437e-05
2.14478471349e-05
2.13925726938e-05
3.30260988031e-05
0.000590675353172
0.0168875539326
2.19149544828e-05
2.16885311393e-05
2.16518756662e-05
2.16465704019e-05
2.16441867255e-05
2.16456721871e-05
2.16502203111e-05
2.16549992363e-05
2.1653363386e-05
2.16411699198e-05
2.16286239813e-05
2.16217338351e-05
2.16167532264e-05
2.16056267771e-05
2.15716971257e-05
2.15085297048e-05
2.14406127699e-05
3.50249227528e-05
0.000749665524612
0.0141279879355
2.19147728647e-05
2.16887388267e-05
2.16514270688e-05
2.16460782363e-05
2.1643537806e-05
2.16460199312e-05
2.16521868694e-05
2.16628171524e-05
2.16713223906e-05
2.16440488446e-05
2.16283608312e-05
2.16222406978e-05
2.1619111614e-05
2.16080648999e-05
2.1571383841e-05
2.14822117918e-05
2.1410169439e-05
3.78861742575e-05
0.00112261466595
0.0147140396655
2.191507842e-05
2.16888730247e-05
2.16508926116e-05
2.1645182704e-05
2.16424121687e-05
2.16427411423e-05
2.1646269359e-05
2.16563053009e-05
2.15836088349e-05
2.15915518804e-05
2.16142674066e-05
2.16188560688e-05
2.16174003522e-05
2.1602114967e-05
2.15635836054e-05
2.14408432627e-05
2.14048699714e-05
4.14886213189e-05
0.00183640332879
0.0153386270301
2.1915441771e-05
2.16891766254e-05
2.16507326254e-05
2.16439253204e-05
2.16400681488e-05
2.16370747132e-05
2.16341272225e-05
2.1624727685e-05
2.15266575882e-05
2.15702745479e-05
2.16119370593e-05
2.16284909138e-05
2.16333440218e-05
2.16250393264e-05
2.15745060132e-05
2.14206553638e-05
2.1499128248e-05
4.54124333277e-05
0.00401384140542
0.0198288441361
2.19147806101e-05
2.16889523059e-05
2.1650120968e-05
2.16425357387e-05
2.16372930581e-05
2.16328628633e-05
2.16255394186e-05
2.16085562183e-05
2.157449853e-05
2.15835527862e-05
2.16056105066e-05
2.16168232859e-05
2.16190146534e-05
2.1603202141e-05
2.15637318043e-05
2.13775593339e-05
2.17818750061e-05
4.96631167947e-05
0.00568141248624
0.0202265911147
2.19145690123e-05
2.16886000036e-05
2.16502589255e-05
2.16417240978e-05
2.1635786485e-05
2.16307664259e-05
2.16232548793e-05
2.16110635754e-05
2.15969426806e-05
2.15906037343e-05
2.1591078085e-05
2.15884180644e-05
2.1577662888e-05
2.15419509841e-05
2.14912250237e-05
2.14095262299e-05
2.19243402299e-05
5.4735283734e-05
0.00606307050936
0.0163296971287
2.19158880737e-05
2.16896217163e-05
2.16511323131e-05
2.16424725162e-05
2.16359501429e-05
2.16306569616e-05
2.16237136662e-05
2.16151752299e-05
2.1606443447e-05
2.16006164666e-05
2.15958777219e-05
2.15885292116e-05
2.15752113468e-05
2.15449572116e-05
2.14770513715e-05
2.13919301238e-05
2.19430145439e-05
6.1088309729e-05
0.00639420694533
0.0160745689817
2.19168724014e-05
2.16917407315e-05
2.16521897153e-05
2.16436052773e-05
2.1636988369e-05
2.16320520755e-05
2.16260482739e-05
2.16191981446e-05
2.16131896879e-05
2.16109019859e-05
2.16112991174e-05
2.16099839479e-05
2.1609036566e-05
2.15953156977e-05
2.15284201886e-05
2.13128295422e-05
2.20132388712e-05
6.8317189243e-05
0.00684072195268
0.0160377496584
2.1917088446e-05
2.16934705509e-05
2.16540693748e-05
2.16446395926e-05
2.16382042304e-05
2.16332940274e-05
2.16278000465e-05
2.16218251011e-05
2.1617080747e-05
2.16181170339e-05
2.1621952458e-05
2.16171141027e-05
2.16053046383e-05
2.15967913601e-05
2.1536782953e-05
2.13681772039e-05
2.22009019932e-05
7.61187731511e-05
0.00718197755035
0.0157989502422
2.19182346138e-05
2.16950694426e-05
2.16562542292e-05
2.1646319022e-05
2.16396265323e-05
2.16347146836e-05
2.16287984442e-05
2.16224313439e-05
2.16182819126e-05
2.16240084378e-05
2.16313555627e-05
2.16056631355e-05
2.15679208451e-05
2.15537409028e-05
2.15184887108e-05
2.14021200701e-05
2.25364458874e-05
8.69425315701e-05
0.0076681544578
0.015541774925
2.19198276043e-05
2.16970479051e-05
2.16582736472e-05
2.16483221807e-05
2.16413688676e-05
2.16370190746e-05
2.16311721193e-05
2.16225679207e-05
2.16220319765e-05
2.16454416417e-05
2.16813061742e-05
2.15868169305e-05
2.1537165998e-05
2.15389530882e-05
2.14898182054e-05
2.13590447483e-05
2.3224893374e-05
0.000106285914414
0.00819893903767
0.0128619623837
2.1921074251e-05
2.1698964533e-05
2.16602242465e-05
2.16500555632e-05
2.16432637882e-05
2.16404223454e-05
2.1634261612e-05
2.16173647453e-05
2.16122143394e-05
2.15891890833e-05
2.15406380339e-05
2.14504998348e-05
2.14693973664e-05
2.15099731463e-05
2.14755979206e-05
2.13109135786e-05
2.42505360693e-05
0.000139364665275
0.00936262391752
0.0143262524523
2.19222417109e-05
2.1700609863e-05
2.16617665937e-05
2.16507666448e-05
2.16437207116e-05
2.16426592248e-05
2.16328768492e-05
2.16016861268e-05
2.15642775633e-05
2.14956368874e-05
2.14304879024e-05
2.14311832214e-05
2.14566466708e-05
2.15105647173e-05
2.15630432152e-05
2.1321523595e-05
2.53028880616e-05
0.000178198413912
0.010908502414
0.015817275849
2.19231908414e-05
2.17018891313e-05
2.16630403591e-05
2.16510301549e-05
2.16404048491e-05
2.16108419739e-05
2.16062701792e-05
2.1575010206e-05
2.15681008936e-05
2.15592029193e-05
2.14989505267e-05
2.14922218383e-05
2.13883636179e-05
2.13499583085e-05
2.13432566938e-05
2.13091511689e-05
2.58098251696e-05
0.000209658643796
0.0110371290858
0.0186357273863
2.19233651265e-05
2.17022609783e-05
2.16640490497e-05
2.16472418411e-05
2.16319701296e-05
2.16068245221e-05
2.16304756054e-05
2.1561092857e-05
2.17975774902e-05
2.17352524992e-05
2.15117671011e-05
2.14375288932e-05
2.14109730704e-05
2.14072486646e-05
2.11177406101e-05
2.08965277772e-05
2.60207176128e-05
0.000213193964027
0.0104764195002
0.0179746918243
2.19223991929e-05
2.1700717711e-05
2.1661548272e-05
2.16452444253e-05
2.16479809858e-05
2.1626320561e-05
2.16328438212e-05
2.18176918873e-05
2.17478764769e-05
2.14599180709e-05
2.12226004443e-05
2.07229336643e-05
2.64560485741e-05
0.000189100070019
0.00956435311912
0.0139939379093
2.19210727308e-05
2.17001240247e-05
2.16646820342e-05
2.16555421687e-05
2.16556527287e-05
2.16436794014e-05
2.16517141599e-05
2.18987373029e-05
2.17727289268e-05
2.15060232799e-05
2.13054589721e-05
2.12590252662e-05
2.77775237077e-05
0.000154381428429
0.00891065684559
0.0136692947098
2.1921056907e-05
2.17001124854e-05
2.16646918355e-05
2.16555639077e-05
2.16557154548e-05
2.16437256594e-05
2.16517282881e-05
2.1898738493e-05
2.17726246144e-05
2.15059878156e-05
2.13054533855e-05
2.12587837325e-05
2.77777412247e-05
0.000154364345901
0.00891021539576
0.0136702709426
2.19223827275e-05
2.17007069817e-05
2.16615606236e-05
2.16453288987e-05
2.16480463853e-05
2.16263595948e-05
2.16328510578e-05
2.18176430725e-05
2.17479019652e-05
2.14601038026e-05
2.12227536169e-05
2.07231481695e-05
2.6456668888e-05
0.000189051551353
0.0095650932847
0.0139988271445
2.19233615869e-05
2.17022538937e-05
2.16640626625e-05
2.16473373187e-05
2.16320585632e-05
2.16068270382e-05
2.16303854301e-05
2.15609650763e-05
2.17975721672e-05
2.17352338949e-05
2.15115615002e-05
2.14372932164e-05
2.14106938301e-05
2.14072020888e-05
2.11178877565e-05
2.08964049229e-05
2.6021310806e-05
0.000213162876992
0.0104745628932
0.0179734263402
2.1923192414e-05
2.17018819455e-05
2.16630424823e-05
2.16510586598e-05
2.16404602565e-05
2.16108215609e-05
2.16061621822e-05
2.15749098316e-05
2.15680724234e-05
2.15592636277e-05
2.14990261159e-05
2.14922430083e-05
2.13882077583e-05
2.13498909275e-05
2.13432250656e-05
2.13087643864e-05
2.58101682611e-05
0.000209674379287
0.0110368102779
0.0186355275052
2.19222547405e-05
2.1700609602e-05
2.16617598848e-05
2.16507631097e-05
2.16437119982e-05
2.16426351896e-05
2.16328493529e-05
2.16016891076e-05
2.15642638846e-05
2.14955024913e-05
2.14303970677e-05
2.14313264321e-05
2.14565655741e-05
2.15103523678e-05
2.15629895868e-05
2.1321434327e-05
2.53034887602e-05
0.000178227318415
0.0109075489704
0.0158212568083
2.19210935756e-05
2.16989755838e-05
2.16602358955e-05
2.16500736586e-05
2.16432533413e-05
2.16403793883e-05
2.16342290681e-05
2.16173798556e-05
2.16122228209e-05
2.15893768176e-05
2.15408996839e-05
2.14502932231e-05
2.14693658078e-05
2.15099301837e-05
2.14755786947e-05
2.1310925435e-05
2.4251621317e-05
0.000139397826678
0.00936343386133
0.0143268094395
2.1919827551e-05
2.16970727355e-05
2.16583018618e-05
2.16483454592e-05
2.16414147982e-05
2.16370423426e-05
2.16311740176e-05
2.16226039908e-05
2.16221664797e-05
2.16457956822e-05
2.16817629304e-05
2.1586746406e-05
2.1537554384e-05
2.15393580166e-05
2.14898623971e-05
2.13591213182e-05
2.32256830576e-05
0.000106308695456
0.008199548914
0.0128452095322
2.19182071011e-05
2.1695084399e-05
2.16562518699e-05
2.16463345595e-05
2.16396661322e-05
2.16347637831e-05
2.16287939684e-05
2.16224131223e-05
2.16183396797e-05
2.16241226041e-05
2.16314722629e-05
2.16056945646e-05
2.15681386031e-05
2.15541335178e-05
2.15186559795e-05
2.14021587248e-05
2.25372869727e-05
8.69592427003e-05
0.00766801365951
0.0155327327412
2.19170528816e-05
2.16934354186e-05
2.16540512673e-05
2.16446520117e-05
2.16382308349e-05
2.16333111801e-05
2.16277806008e-05
2.16217948967e-05
2.16170024351e-05
2.1617933425e-05
2.16216645062e-05
2.16167012454e-05
2.16049414273e-05
2.15967144616e-05
2.1536894739e-05
2.1368314769e-05
2.22015931067e-05
7.61329477843e-05
0.00718257009843
0.0157990864757
2.19168526453e-05
2.16917012735e-05
2.16522339927e-05
2.16436614699e-05
2.163704614e-05
2.16321267555e-05
2.16260673818e-05
2.16192038354e-05
2.16131740452e-05
2.16108022631e-05
2.16110629159e-05
2.16097386197e-05
2.16089192509e-05
2.15952257718e-05
2.15282579064e-05
2.1313161962e-05
2.20139698281e-05
6.83275121975e-05
0.00684128036015
0.0160379982487
2.19158633312e-05
2.16896292272e-05
2.16511692126e-05
2.16425330708e-05
2.16360487183e-05
2.16307967863e-05
2.16239045398e-05
2.16153036954e-05
2.16064473107e-05
2.16006134913e-05
2.15958049819e-05
2.15886610316e-05
2.15753346295e-05
2.15450300283e-05
2.14772762422e-05
2.13915350925e-05
2.19439537502e-05
6.10985340444e-05
0.00639465845617
0.0160740573145
2.19145022646e-05
2.16886064679e-05
2.16502368161e-05
2.16417670618e-05
2.16359240019e-05
2.1631016277e-05
2.16234968241e-05
2.16111397768e-05
2.15965779846e-05
2.15900752748e-05
2.15909136319e-05
2.15883479879e-05
2.15776727098e-05
2.15420695125e-05
2.14913836334e-05
2.14090991715e-05
2.19250032805e-05
5.47466040338e-05
0.00606358559784
0.0163277439236
2.19147310527e-05
2.16889061804e-05
2.1650062545e-05
2.16424987858e-05
2.16373635105e-05
2.16330301507e-05
2.16258778366e-05
2.16089724837e-05
2.15723660323e-05
2.1581498502e-05
2.1605130517e-05
2.16166375954e-05
2.16189396e-05
2.16033010552e-05
2.15636648066e-05
2.13779583063e-05
2.17825026985e-05
4.96705338138e-05
0.0056824238902
0.0202316326342
2.19154960903e-05
2.16891645433e-05
2.16506931146e-05
2.16438414713e-05
2.16400026833e-05
2.16370940444e-05
2.16345268667e-05
2.16265395025e-05
2.15247286762e-05
2.15706146984e-05
2.1611553647e-05
2.16286998523e-05
2.16334187269e-05
2.16251414411e-05
2.15747805497e-05
2.14211092703e-05
2.15000628962e-05
4.54178715532e-05
0.00401697510697
0.0198380320283
2.19152129572e-05
2.16889793822e-05
2.16509397128e-05
2.16451345734e-05
2.16422542672e-05
2.16426251024e-05
2.16462138834e-05
2.16563388098e-05
2.15825316917e-05
2.15936444137e-05
2.16142457411e-05
2.16189515304e-05
2.16175180214e-05
2.16022659109e-05
2.15639147073e-05
2.14413572499e-05
2.14048177724e-05
4.1495423346e-05
0.00183750349988
0.0153309681226
2.19149071966e-05
2.16888520589e-05
2.16514810611e-05
2.16461135693e-05
2.16434267033e-05
2.16457938185e-05
2.16519120575e-05
2.16620064289e-05
2.16707722171e-05
2.16448550586e-05
2.16287053685e-05
2.16221605221e-05
2.16190570339e-05
2.16082139086e-05
2.15716609011e-05
2.14827206583e-05
2.14107219679e-05
3.78926441596e-05
0.00112450070159
0.0146901290558
2.19150331207e-05
2.16885937814e-05
2.16519448871e-05
2.16466868506e-05
2.16442036203e-05
2.16455783007e-05
2.16500065689e-05
2.16552560624e-05
2.16535347094e-05
2.16416469021e-05
2.16288367957e-05
2.16217486785e-05
2.16167518893e-05
2.16055692399e-05
2.15712856829e-05
2.15078567531e-05
2.14400952356e-05
3.50267915894e-05
0.000752468674456
0.014042699827
2.19146415746e-05
2.16882593501e-05
2.1651196545e-05
2.16461803362e-05
2.16440957266e-05
2.16440931297e-05
2.16457689366e-05
2.16467950619e-05
2.1644578609e-05
2.16373301125e-05
2.16285828041e-05
2.1621017597e-05
2.16136138802e-05
2.16116458586e-05
2.15431945183e-05
2.14469371928e-05
2.13922178636e-05
3.3029159068e-05
0.000589771231419
0.0169367010748
2.19133955277e-05
2.16876947065e-05
2.16500708783e-05
2.16450602811e-05
2.1642613897e-05
2.16418243909e-05
2.16421192122e-05
2.16412857543e-05
2.16382609343e-05
2.16337416434e-05
2.16269346746e-05
2.16181706181e-05
2.16084897323e-05
2.16012217564e-05
2.15459014596e-05
2.14402620755e-05
2.13809065851e-05
3.18936151517e-05
0.000517473000703
0.0149972065093
2.19122523934e-05
2.16864003508e-05
2.16489771772e-05
2.16436824746e-05
2.16404245353e-05
2.16395483328e-05
2.16394484981e-05
2.16385740513e-05
2.16355840677e-05
2.16309177805e-05
2.16247620061e-05
2.16163365021e-05
2.1605682809e-05
2.15925953736e-05
2.15470461033e-05
2.14595941949e-05
2.13680125538e-05
3.10994125038e-05
0.000533409656665
0.012031410469
2.19120245522e-05
2.16850042586e-05
2.16473601251e-05
2.16419463116e-05
2.16387507764e-05
2.16375590633e-05
2.16370420729e-05
2.163600891e-05
2.16335055889e-05
2.16291694147e-05
2.16235434255e-05
2.16159556208e-05
2.16053561411e-05
2.15898739888e-05
2.1548323175e-05
2.14799715759e-05
2.13943062562e-05
3.06091953193e-05
0.000496070847264
0.0146784746244
2.1910100871e-05
2.16824937155e-05
2.16445507783e-05
2.1639782427e-05
2.16372856721e-05
2.16358555997e-05
2.1635276419e-05
2.16341251422e-05
2.16321155736e-05
2.16286895219e-05
2.16239674111e-05
2.16173676998e-05
2.16076788531e-05
2.15922150427e-05
2.15541556486e-05
2.14879871347e-05
2.14106367741e-05
3.01416793987e-05
0.000443720854439
0.0127872443814
2.19061011551e-05
2.16788715604e-05
2.16415547542e-05
2.16378710102e-05
2.16362861153e-05
2.16352122131e-05
2.16347782459e-05
2.1633762139e-05
2.16319888899e-05
2.16294068819e-05
2.16254913625e-05
2.16204541751e-05
2.16133585154e-05
2.15988759661e-05
2.15665983487e-05
2.14873922801e-05
2.1403550008e-05
2.94331810773e-05
0.000374763993454
0.0148685649717
2.19006865502e-05
2.1674149601e-05
2.16390439998e-05
2.16365389315e-05
2.1635704987e-05
2.1634868092e-05
2.16344273883e-05
2.16337109572e-05
2.16325321664e-05
2.1630744851e-05
2.16280328246e-05
2.16246260579e-05
2.16194240828e-05
2.16095437928e-05
2.15887285679e-05
2.1509227324e-05
2.13999290981e-05
2.85749768803e-05
0.000312263375456
0.0124122684245
2.18936699791e-05
2.16687216903e-05
2.16363639438e-05
2.16351567979e-05
2.16352815241e-05
2.16348497085e-05
2.16347423976e-05
2.16345461905e-05
2.1633832465e-05
2.16322516856e-05
2.16301272293e-05
2.16275756296e-05
2.16246152191e-05
2.16203477369e-05
2.16104245075e-05
2.15549698112e-05
2.14734500504e-05
2.76985355022e-05
0.000281523079099
0.0105554634791
2.18845717183e-05
2.16637014496e-05
2.16344515356e-05
2.16354054732e-05
2.16364074119e-05
2.16366798893e-05
2.16365130787e-05
2.16358501356e-05
2.16347022168e-05
2.16336324443e-05
2.16323937255e-05
2.163088409e-05
2.16297018451e-05
2.16269584248e-05
2.16151965011e-05
2.15741936637e-05
2.15289400387e-05
2.74729532663e-05
0.000266801876931
0.0125331468284
2.18606631301e-05
2.16598159231e-05
2.16378367953e-05
2.16392905253e-05
2.16396402796e-05
2.16382406737e-05
2.16373280171e-05
2.1637080552e-05
2.16364268181e-05
2.16358575517e-05
2.16353527002e-05
2.16344259996e-05
2.16325406847e-05
2.16278618541e-05
2.16125508227e-05
2.15746074011e-05
2.15286291814e-05
2.7388777855e-05
0.000249313711597
0.0112009415722
2.17986675242e-05
2.16732210793e-05
2.16492920816e-05
2.16453469873e-05
2.16426580702e-05
2.16409722241e-05
2.16402963969e-05
2.16398116604e-05
2.16393820779e-05
2.16386532837e-05
2.16380313744e-05
2.16362810199e-05
2.16337754871e-05
2.16295182468e-05
2.16136455907e-05
2.15820916695e-05
2.15380259483e-05
2.70231636402e-05
0.000228333063074
0.0124724827493
2.18598898203e-05
2.16988682766e-05
2.16606348702e-05
2.16511243339e-05
2.16466237254e-05
2.16451340192e-05
2.16441836479e-05
2.164267828e-05
2.16416335366e-05
2.16411425699e-05
2.16396529636e-05
2.16378847363e-05
2.1636113818e-05
2.16322127477e-05
2.16187057104e-05
2.15882056016e-05
2.15264869461e-05
2.66099625091e-05
0.00021181608075
0.0122608804315
2.19584346413e-05
2.17108566324e-05
2.16660680136e-05
2.16549687171e-05
2.16502606589e-05
2.16476337666e-05
2.16458844723e-05
2.16447132676e-05
2.16437728174e-05
2.16421593116e-05
2.16406362886e-05
2.16397992117e-05
2.16373476069e-05
2.16314684629e-05
2.16135500426e-05
2.15866138163e-05
2.15175228135e-05
2.62389410901e-05
0.000196131534409
0.0101705632073
2.19448120189e-05
2.17091708713e-05
2.16671062566e-05
2.1656769788e-05
2.1651912809e-05
2.16491835867e-05
2.16473396255e-05
2.16461291598e-05
2.16445988e-05
2.16430925626e-05
2.16425859109e-05
2.16414088478e-05
2.16372581597e-05
2.1626813661e-05
2.15826139661e-05
2.1528030971e-05
2.14377800234e-05
2.57315228139e-05
0.000178229698024
0.00969145477579
2.19335083488e-05
2.17038161139e-05
2.1664298352e-05
2.16561565919e-05
2.16524567733e-05
2.1650339171e-05
2.16482473002e-05
2.16465348946e-05
2.16452794806e-05
2.1644854146e-05
2.16440175214e-05
2.16414033904e-05
2.16361808469e-05
2.16190134917e-05
2.15900449311e-05
2.14941520929e-05
2.13489165169e-05
2.52705944679e-05
0.000162969493783
0.00926695228859
2.19282896117e-05
2.17005568578e-05
2.16618834011e-05
2.16544133438e-05
2.16517005206e-05
2.16501845952e-05
2.16489373193e-05
2.16474988269e-05
2.16466727326e-05
2.16455117882e-05
2.16440317381e-05
2.16423077974e-05
2.16358669806e-05
2.1611955985e-05