/*--------------------------------*- C++ -*----------------------------------*\
| =========                 |                                                 |
| \\      /  F ield         | OpenFOAM: The Open Source CFD Toolbox           |
|  \\    /   O peration     | Version:  v2012                                 |
|   \\  /    A nd           | Website:  www.openfoam.com                      |
|    \\/     M anipulation  |                                                 |
\*---------------------------------------------------------------------------*/
FoamFile
{
    version     2.0;
    format      ascii;
    class       volScalarField;
    location    "3.9";
    object      k;
}
// * * * * * * * * * * * * * * * * * * * * * * * * * * * * * * * * * * * * * //

dimensions      [0 2 -2 0 0 0 0];


internalField   nonuniform List<scalar> 
164
(
0.0020664387546
0.00258829348413
0.00276222391653
0.00283156721161
0.00285620066335
0.00284758805694
0.0027853243972
0.00263277852476
0.00243432758072
0.00242513386358
0.00246773630288
0.00260437732729
0.00294872256757
0.00343838812239
0.00207787170711
0.00259909563104
0.00277396612538
0.0028459068386
0.00287765705061
0.00288889961211
0.00288143944643
0.00285533157016
0.00284417459383
0.0028705052969
0.00290209957092
0.00293721828957
0.00305000663908
0.00335254872609
0.00209045136722
0.00261172264413
0.0027872608311
0.00286054481912
0.00289580584954
0.00291630199954
0.00292992038223
0.00294024324692
0.00295725800182
0.00298381402951
0.00301468642146
0.00305156547163
0.00312743574701
0.00333286085522
0.00210347991609
0.00262556511024
0.00280155127523
0.00287523748147
0.00291148281756
0.00293462879463
0.00295390969746
0.00297306382876
0.00299509552171
0.00302110488757
0.00305041383041
0.00308664444567
0.00315098983118
0.00330914888244
0.00211658365366
0.00263994686459
0.00281626232726
0.00288981533304
0.00292581848952
0.00294897121836
0.00296881055262
0.00298900560708
0.00301108175214
0.00303558155267
0.00306291479635
0.00309691135758
0.00315441557037
0.00329157903581
0.00212926491624
0.00265431986831
0.00283090097696
0.00290399504212
0.0029392449345
0.00296150162572
0.00298035709523
0.00299947497155
0.00302017151053
0.00304291941761
0.00306846960073
0.00310088062963
0.00315642822576
0.00328883745429
0.00214114044614
0.00266822877084
0.00284502846607
0.00291750834143
0.00295177009304
0.00297288896483
0.00299044671775
0.0030081033273
0.00302718583469
0.00304826645123
0.00307249720236
0.00310474291901
0.00316337728373
0.00330481731912
0.00215199782517
0.00268134883484
0.00285831632233
0.00293009986017
0.00296332052098
0.00298324701997
0.00299953517686
0.00301580409283
0.00303341659842
0.00305307844413
0.00307636013842
0.00310945756722
0.00317421339379
0.00333249944581
0.00216190296904
0.00269346395583
0.00287057589675
0.00294163183953
0.00297380563221
0.00299259331649
0.00300769012946
0.00302272457344
0.003039054037
0.00305748181266
0.00307987435183
0.00311343326334
0.00318271115716
0.00335377593878
0.00217057775179
0.0027044397737
0.00288168020359
0.00295199753581
0.00298315607025
0.00300088051162
0.0030149024966
0.00302883803115
0.00304403871589
0.00306130202383
0.00308253927457
0.00311499010709
0.00318358196398
0.00335544053312
0.00217822875488
0.0027141932284
0.00289153935177
0.00296114027339
0.00299133630202
0.00300808203971
0.00302114248494
0.003034106731
0.00304831269288
0.0030645273408
0.00308455748082
0.00311529545252
0.00318084294548
0.00334789600821
0.00305181928119
0.00306711329404
0.00308612480564
0.00311548201558
0.00317861646054
0.003341492576
0.00311497862718
0.00317513657654
0.00333082379853
0.00330877813439
)
;

boundaryField
{
    back
    {
        type            kqRWallFunction;
        value           nonuniform List<scalar> 
164
(
0.0020664387546
0.00258829348413
0.00276222391653
0.00283156721161
0.00285620066335
0.00284758805694
0.0027853243972
0.00263277852476
0.00243432758072
0.00242513386358
0.00246773630288
0.00260437732729
0.00294872256757
0.00343838812239
0.00207787170711
0.00259909563104
0.00277396612538
0.0028459068386
0.00287765705061
0.00288889961211
0.00288143944643
0.00285533157016
0.00284417459383
0.0028705052969
0.00290209957092
0.00293721828957
0.00305000663908
0.00335254872609
0.00209045136722
0.00261172264413
0.0027872608311
0.00286054481912
0.00289580584954
0.00291630199954
0.00292992038223
0.00294024324692
0.00295725800182
0.00298381402951
0.00301468642146
0.00305156547163
0.00312743574701
0.00333286085522
0.00210347991609
0.00262556511024
0.00280155127523
0.00287523748147
0.00291148281756
0.00293462879463
0.00295390969746
0.00297306382876
0.00299509552171
0.00302110488757
0.00305041383041
0.00308664444567
0.00315098983118
0.00330914888244
0.00211658365366
0.00263994686459
0.00281626232726
0.00288981533304
0.00292581848952
0.00294897121836
0.00296881055262
0.00298900560708
0.00301108175214
0.00303558155267
0.00306291479635
0.00309691135758
0.00315441557037
0.00329157903581
0.00212926491624
0.00265431986831
0.00283090097696
0.00290399504212
0.0029392449345
0.00296150162572
0.00298035709523
0.00299947497155
0.00302017151053
0.00304291941761
0.00306846960073
0.00310088062963
0.00315642822576
0.00328883745429
0.00214114044614
0.00266822877084
0.00284502846607
0.00291750834143
0.00295177009304
0.00297288896483
0.00299044671775
0.0030081033273
0.00302718583469
0.00304826645123
0.00307249720236
0.00310474291901
0.00316337728373
0.00330481731912
0.00215199782517
0.00268134883484
0.00285831632233
0.00293009986017
0.00296332052098
0.00298324701997
0.00299953517686
0.00301580409283
0.00303341659842
0.00305307844413
0.00307636013842
0.00310945756722
0.00317421339379
0.00333249944581
0.00216190296904
0.00269346395583
0.00287057589675
0.00294163183953
0.00297380563221
0.00299259331649
0.00300769012946
0.00302272457344
0.003039054037
0.00305748181266
0.00307987435183
0.00311343326334
0.00318271115716
0.00335377593878
0.00217057775179
0.0027044397737
0.00288168020359
0.00295199753581
0.00298315607025
0.00300088051162
0.0030149024966
0.00302883803115
0.00304403871589
0.00306130202383
0.00308253927457
0.00311499010709
0.00318358196398
0.00335544053312
0.00217822875488
0.0027141932284
0.00289153935177
0.00296114027339
0.00299133630202
0.00300808203971
0.00302114248494
0.003034106731
0.00304831269288
0.0030645273408
0.00308455748082
0.00311529545252
0.00318084294548
0.00334789600821
0.00305181928119
0.00306711329404
0.00308612480564
0.00311548201558
0.00317861646054
0.003341492576
0.00311497862718
0.00317513657654
0.00333082379853
0.00330877813439
)
;
    }
    sides
    {
        type            kqRWallFunction;
        value           nonuniform List<scalar> 0();
    }
    bottom
    {
        type            kqRWallFunction;
        value           nonuniform List<scalar> 
11
(
0.0020664387546
0.00207787170711
0.00209045136722
0.00210347991609
0.00211658365366
0.00212926491624
0.00214114044614
0.00215199782517
0.00216190296904
0.00217057775179
0.00217822875488
)
;
    }
    front
    {
        type            kqRWallFunction;
        value           nonuniform List<scalar> 
164
(
0.0020664387546
0.00258829348413
0.00276222391653
0.00283156721161
0.00285620066335
0.00284758805694
0.0027853243972
0.00263277852476
0.00243432758072
0.00242513386358
0.00246773630288
0.00260437732729
0.00294872256757
0.00343838812239
0.00207787170711
0.00259909563104
0.00277396612538
0.0028459068386
0.00287765705061
0.00288889961211
0.00288143944643
0.00285533157016
0.00284417459383
0.0028705052969
0.00290209957092
0.00293721828957
0.00305000663908
0.00335254872609
0.00209045136722
0.00261172264413
0.0027872608311
0.00286054481912
0.00289580584954
0.00291630199954
0.00292992038223
0.00294024324692
0.00295725800182
0.00298381402951
0.00301468642146
0.00305156547163
0.00312743574701
0.00333286085522
0.00210347991609
0.00262556511024
0.00280155127523
0.00287523748147
0.00291148281756
0.00293462879463
0.00295390969746
0.00297306382876
0.00299509552171
0.00302110488757
0.00305041383041
0.00308664444567
0.00315098983118
0.00330914888244
0.00211658365366
0.00263994686459
0.00281626232726
0.00288981533304
0.00292581848952
0.00294897121836
0.00296881055262
0.00298900560708
0.00301108175214
0.00303558155267
0.00306291479635
0.00309691135758
0.00315441557037
0.00329157903581
0.00212926491624
0.00265431986831
0.00283090097696
0.00290399504212
0.0029392449345
0.00296150162572
0.00298035709523
0.00299947497155
0.00302017151053
0.00304291941761
0.00306846960073
0.00310088062963
0.00315642822576
0.00328883745429
0.00214114044614
0.00266822877084
0.00284502846607
0.00291750834143
0.00295177009304
0.00297288896483
0.00299044671775
0.0030081033273
0.00302718583469
0.00304826645123
0.00307249720236
0.00310474291901
0.00316337728373
0.00330481731912
0.00215199782517
0.00268134883484
0.00285831632233
0.00293009986017
0.00296332052098
0.00298324701997
0.00299953517686
0.00301580409283
0.00303341659842
0.00305307844413
0.00307636013842
0.00310945756722
0.00317421339379
0.00333249944581
0.00216190296904
0.00269346395583
0.00287057589675
0.00294163183953
0.00297380563221
0.00299259331649
0.00300769012946
0.00302272457344
0.003039054037
0.00305748181266
0.00307987435183
0.00311343326334
0.00318271115716
0.00335377593878
0.00217057775179
0.0027044397737
0.00288168020359
0.00295199753581
0.00298315607025
0.00300088051162
0.0030149024966
0.00302883803115
0.00304403871589
0.00306130202383
0.00308253927457
0.00311499010709
0.00318358196398
0.00335544053312
0.00217822875488
0.0027141932284
0.00289153935177
0.00296114027339
0.00299133630202
0.00300808203971
0.00302114248494
0.003034106731
0.00304831269288
0.0030645273408
0.00308455748082
0.00311529545252
0.00318084294548
0.00334789600821
0.00305181928119
0.00306711329404
0.00308612480564
0.00311548201558
0.00317861646054
0.003341492576
0.00311497862718
0.00317513657654
0.00333082379853
0.00330877813439
)
;
    }
    atmosphere
    {
        type            inletOutlet;
        inletValue      nonuniform List<scalar> 0();
        value           nonuniform List<scalar> 0();
    }
    floatingObject
    {
        type            kqRWallFunction;
        value           nonuniform List<scalar> 4(0.00243432758072 0.00242513386358 0.00246773630288 0.00260437732729);
    }
    procBoundary8to3
    {
        type            processor;
        value           nonuniform List<scalar> 8(0.00205661808379 0.00257956321819 0.00275273578825 0.00281918488603 0.00283605621729 0.00280839643798 0.0026964268896 0.00229596984629);
    }
    procBoundary8to6
    {
        type            processor;
        value           nonuniform List<scalar> 
16
(
0.00295592687864
0.00382289275694
0.00417876550402
0.0039466747765
0.0038149762986
0.00372116502282
0.00366442834116
0.00364509432582
0.0036688835258
0.00372015116139
0.00375719858432
0.00376015648336
0.00374759839435
0.00373524187851
0.00370886581469
0.003655368256
)
;
    }
    procBoundary8to7
    {
        type            processor;
        value           nonuniform List<scalar> 
17
(
0.00218475087813
0.00272272646312
0.00290014505669
0.00296905138986
0.0029983445653
0.00301419804555
0.00302640184766
0.00303850535897
0.00303850535897
0.00305454266048
0.00306898002049
0.00308702623011
0.00308702623011
0.00311307244682
0.00316777685176
0.00316777685176
0.00327912142177
)
;
    }
}


// ************************************************************************* //
