/*--------------------------------*- C++ -*----------------------------------*\
| =========                 |                                                 |
| \\      /  F ield         | OpenFOAM: The Open Source CFD Toolbox           |
|  \\    /   O peration     | Version:  v2012                                 |
|   \\  /    A nd           | Website:  www.openfoam.com                      |
|    \\/     M anipulation  |                                                 |
\*---------------------------------------------------------------------------*/
FoamFile
{
    version     2.0;
    format      ascii;
    class       volScalarField;
    location    "3.9";
    object      k_0;
}
// * * * * * * * * * * * * * * * * * * * * * * * * * * * * * * * * * * * * * //

dimensions      [0 2 -2 0 0 0 0];


internalField   nonuniform List<scalar> 
164
(
0.0020956871403
0.00262490203346
0.00280148384791
0.00287195312768
0.00289714719972
0.00288898266364
0.00282722315806
0.00267329105947
0.00247093200178
0.00246041971961
0.00250078519205
0.00262658808133
0.0029675525161
0.00344812803337
0.00210723269212
0.00263578495584
0.00281333251988
0.00288641431719
0.00291872016329
0.00293031058826
0.00292298417475
0.0028959498963
0.00288525689622
0.00291124453387
0.00294321946764
0.00297724194101
0.00308419740159
0.0033774287417
0.00211995630281
0.00264855561261
0.00282679303688
0.00290122789492
0.00293703351885
0.00295785157068
0.00297171363528
0.00298213811957
0.00299927703263
0.00302579530142
0.00305669123069
0.00309311771698
0.00316634224864
0.00336426539514
0.00213315226537
0.00266258501337
0.00284128465721
0.00291612421453
0.00295290070657
0.00297633848902
0.00299583726312
0.00301519850816
0.00303739643872
0.00306349907325
0.00309276390689
0.00312848517369
0.00319089422896
0.00334308898056
0.00214642875054
0.00267717879384
0.0028562162839
0.00293091965002
0.00296744164665
0.00299086444597
0.00301088776097
0.00303125216358
0.00305349389045
0.00307812126363
0.00310545966563
0.0031390739927
0.00319498673567
0.00332714509699
0.00215928167894
0.0026917743789
0.00287108071049
0.00294531615657
0.00298107031234
0.00300358014047
0.00302259856943
0.00304185667502
0.00306269387089
0.00308556488458
0.00311114890486
0.00314326338793
0.00319746786445
0.00332572289624
0.00217132441262
0.00270590495085
0.00288542686143
0.0029590331858
0.00299378319943
0.00301513926673
0.00303284505496
0.00305062552407
0.00306983058586
0.00309102167894
0.00311528223876
0.00314724646346
0.00320467138094
0.00334274321594
0.00218234329624
0.00271924048089
0.00289891954149
0.00297180881783
0.00300549924843
0.00302564820467
0.00304207130668
0.00305845215655
0.00307617467984
0.00309593366046
0.00311922683253
0.003152015116
0.00321559954516
0.00337109712095
0.00219239405593
0.00273155745241
0.00291136568921
0.00298350367198
0.00301612552216
0.0030351202306
0.00305034030252
0.00306547573111
0.0030819035084
0.00310041439104
0.00312279608289
0.00315599852357
0.00322406047856
0.00339263548317
0.00220120848204
0.00274271997896
0.00292263755342
0.00299400941659
0.00302559310774
0.00304350834058
0.0030576421277
0.00307166820893
0.00308695650477
0.00310429140971
0.00312550380115
0.00315756738239
0.00322485194195
0.00339414652838
0.00220898645976
0.00275264193631
0.00293264307675
0.00300326996035
0.00303386786194
0.00305078846689
0.0030639496579
0.00307699560227
0.00309127885738
0.00310755622964
0.00312756533948
0.00315794165815
0.00322221578644
0.0033867050685
0.00309481852082
0.00311016885682
0.00312916278667
0.00315821972637
0.00322025637886
0.00338084729725
0.00315779227577
0.00321706004925
0.00337085669003
0.0033494907132
)
;

boundaryField
{
    back
    {
        type            kqRWallFunction;
        value           nonuniform List<scalar> 
164
(
0.0020956871403
0.00262490203346
0.00280148384791
0.00287195312768
0.00289714719972
0.00288898266364
0.00282722315806
0.00267329105947
0.00247093200178
0.00246041971961
0.00250078519205
0.00262658808133
0.0029675525161
0.00344812803337
0.00210723269212
0.00263578495584
0.00281333251988
0.00288641431719
0.00291872016329
0.00293031058826
0.00292298417475
0.0028959498963
0.00288525689622
0.00291124453387
0.00294321946764
0.00297724194101
0.00308419740159
0.0033774287417
0.00211995630281
0.00264855561261
0.00282679303688
0.00290122789492
0.00293703351885
0.00295785157068
0.00297171363528
0.00298213811957
0.00299927703263
0.00302579530142
0.00305669123069
0.00309311771698
0.00316634224864
0.00336426539514
0.00213315226537
0.00266258501337
0.00284128465721
0.00291612421453
0.00295290070657
0.00297633848902
0.00299583726312
0.00301519850816
0.00303739643872
0.00306349907325
0.00309276390689
0.00312848517369
0.00319089422896
0.00334308898056
0.00214642875054
0.00267717879384
0.0028562162839
0.00293091965002
0.00296744164665
0.00299086444597
0.00301088776097
0.00303125216358
0.00305349389045
0.00307812126363
0.00310545966563
0.0031390739927
0.00319498673567
0.00332714509699
0.00215928167894
0.0026917743789
0.00287108071049
0.00294531615657
0.00298107031234
0.00300358014047
0.00302259856943
0.00304185667502
0.00306269387089
0.00308556488458
0.00311114890486
0.00314326338793
0.00319746786445
0.00332572289624
0.00217132441262
0.00270590495085
0.00288542686143
0.0029590331858
0.00299378319943
0.00301513926673
0.00303284505496
0.00305062552407
0.00306983058586
0.00309102167894
0.00311528223876
0.00314724646346
0.00320467138094
0.00334274321594
0.00218234329624
0.00271924048089
0.00289891954149
0.00297180881783
0.00300549924843
0.00302564820467
0.00304207130668
0.00305845215655
0.00307617467984
0.00309593366046
0.00311922683253
0.003152015116
0.00321559954516
0.00337109712095
0.00219239405593
0.00273155745241
0.00291136568921
0.00298350367198
0.00301612552216
0.0030351202306
0.00305034030252
0.00306547573111
0.0030819035084
0.00310041439104
0.00312279608289
0.00315599852357
0.00322406047856
0.00339263548317
0.00220120848204
0.00274271997896
0.00292263755342
0.00299400941659
0.00302559310774
0.00304350834058
0.0030576421277
0.00307166820893
0.00308695650477
0.00310429140971
0.00312550380115
0.00315756738239
0.00322485194195
0.00339414652838
0.00220898645976
0.00275264193631
0.00293264307675
0.00300326996035
0.00303386786194
0.00305078846689
0.0030639496579
0.00307699560227
0.00309127885738
0.00310755622964
0.00312756533948
0.00315794165815
0.00322221578644
0.0033867050685
0.00309481852082
0.00311016885682
0.00312916278667
0.00315821972637
0.00322025637886
0.00338084729725
0.00315779227577
0.00321706004925
0.00337085669003
0.0033494907132
)
;
    }
    sides
    {
        type            kqRWallFunction;
        value           nonuniform List<scalar> 0();
    }
    bottom
    {
        type            kqRWallFunction;
        value           nonuniform List<scalar> 
11
(
0.0020956871403
0.00210723269212
0.00211995630281
0.00213315226537
0.00214642875054
0.00215928167894
0.00217132441262
0.00218234329624
0.00219239405593
0.00220120848204
0.00220898645976
)
;
    }
    front
    {
        type            kqRWallFunction;
        value           nonuniform List<scalar> 
164
(
0.0020956871403
0.00262490203346
0.00280148384791
0.00287195312768
0.00289714719972
0.00288898266364
0.00282722315806
0.00267329105947
0.00247093200178
0.00246041971961
0.00250078519205
0.00262658808133
0.0029675525161
0.00344812803337
0.00210723269212
0.00263578495584
0.00281333251988
0.00288641431719
0.00291872016329
0.00293031058826
0.00292298417475
0.0028959498963
0.00288525689622
0.00291124453387
0.00294321946764
0.00297724194101
0.00308419740159
0.0033774287417
0.00211995630281
0.00264855561261
0.00282679303688
0.00290122789492
0.00293703351885
0.00295785157068
0.00297171363528
0.00298213811957
0.00299927703263
0.00302579530142
0.00305669123069
0.00309311771698
0.00316634224864
0.00336426539514
0.00213315226537
0.00266258501337
0.00284128465721
0.00291612421453
0.00295290070657
0.00297633848902
0.00299583726312
0.00301519850816
0.00303739643872
0.00306349907325
0.00309276390689
0.00312848517369
0.00319089422896
0.00334308898056
0.00214642875054
0.00267717879384
0.0028562162839
0.00293091965002
0.00296744164665
0.00299086444597
0.00301088776097
0.00303125216358
0.00305349389045
0.00307812126363
0.00310545966563
0.0031390739927
0.00319498673567
0.00332714509699
0.00215928167894
0.0026917743789
0.00287108071049
0.00294531615657
0.00298107031234
0.00300358014047
0.00302259856943
0.00304185667502
0.00306269387089
0.00308556488458
0.00311114890486
0.00314326338793
0.00319746786445
0.00332572289624
0.00217132441262
0.00270590495085
0.00288542686143
0.0029590331858
0.00299378319943
0.00301513926673
0.00303284505496
0.00305062552407
0.00306983058586
0.00309102167894
0.00311528223876
0.00314724646346
0.00320467138094
0.00334274321594
0.00218234329624
0.00271924048089
0.00289891954149
0.00297180881783
0.00300549924843
0.00302564820467
0.00304207130668
0.00305845215655
0.00307617467984
0.00309593366046
0.00311922683253
0.003152015116
0.00321559954516
0.00337109712095
0.00219239405593
0.00273155745241
0.00291136568921
0.00298350367198
0.00301612552216
0.0030351202306
0.00305034030252
0.00306547573111
0.0030819035084
0.00310041439104
0.00312279608289
0.00315599852357
0.00322406047856
0.00339263548317
0.00220120848204
0.00274271997896
0.00292263755342
0.00299400941659
0.00302559310774
0.00304350834058
0.0030576421277
0.00307166820893
0.00308695650477
0.00310429140971
0.00312550380115
0.00315756738239
0.00322485194195
0.00339414652838
0.00220898645976
0.00275264193631
0.00293264307675
0.00300326996035
0.00303386786194
0.00305078846689
0.0030639496579
0.00307699560227
0.00309127885738
0.00310755622964
0.00312756533948
0.00315794165815
0.00322221578644
0.0033867050685
0.00309481852082
0.00311016885682
0.00312916278667
0.00315821972637
0.00322025637886
0.00338084729725
0.00315779227577
0.00321706004925
0.00337085669003
0.0033494907132
)
;
    }
    atmosphere
    {
        type            inletOutlet;
        inletValue      nonuniform List<scalar> 0();
        value           nonuniform List<scalar> 0();
    }
    floatingObject
    {
        type            kqRWallFunction;
        value           nonuniform List<scalar> 4(0.00247093200178 0.00246041971961 0.00250078519205 0.00262658808133);
    }
    procBoundary8to3
    {
        type            processor;
        value           nonuniform List<scalar> 8(0.00208578907809 0.00261611655963 0.00279191911035 0.00285948129663 0.00287687319903 0.00284936749651 0.0027367208493 0.00232786318978);
    }
    procBoundary8to6
    {
        type            processor;
        value           nonuniform List<scalar> 
16
(
0.00296929756922
0.00383487023871
0.0041808881409
0.00395772800355
0.003830887713
0.00374020919876
0.00368652151769
0.00367097954292
0.00369857650022
0.00375266189191
0.00379189991604
0.0037956748306
0.00378368105363
0.0037722185078
0.00374683907521
0.00369432422423
)
;
    }
    procBoundary8to7
    {
        type            processor;
        value           nonuniform List<scalar> 
17
(
0.00221562976733
0.00276133017445
0.00294137744577
0.00301127925176
0.00304095113713
0.00305696435474
0.00306925886389
0.00308143535732
0.00308143535732
0.00309756090073
0.00311204495199
0.00313008094312
0.00313008094312
0.00315595744146
0.00320998627711
0.00320998627711
0.00332070567727
)
;
    }
}


// ************************************************************************* //
