/*--------------------------------*- C++ -*----------------------------------*\
| =========                 |                                                 |
| \\      /  F ield         | OpenFOAM: The Open Source CFD Toolbox           |
|  \\    /   O peration     | Version:  v2012                                 |
|   \\  /    A nd           | Website:  www.openfoam.com                      |
|    \\/     M anipulation  |                                                 |
\*---------------------------------------------------------------------------*/
FoamFile
{
    version     2.0;
    format      ascii;
    class       volScalarField;
    location    "3.9";
    object      nut;
}
// * * * * * * * * * * * * * * * * * * * * * * * * * * * * * * * * * * * * * //

dimensions      [0 2 -1 0 0 0 0];


internalField   nonuniform List<scalar> 
164
(
0.000374827248914
0.000559334847562
0.000577763452975
0.000584927737726
0.000587402887901
0.000586342548657
0.000579463280336
0.000563084759877
0.000406296049785
0.00040581994257
0.000410070632665
0.000424322058954
0.000603927346882
0.000655615494938
0.000375875888728
0.000560523783183
0.000579008841628
0.000586432244803
0.000589662990682
0.00059075704307
0.000589920905545
0.000587409569232
0.000586071040552
0.000588997110786
0.000592250089788
0.000596301282663
0.000609821606037
0.000642962128965
0.000377020986049
0.000561894722138
0.000580401722512
0.000587948430083
0.000591548035093
0.000593628734377
0.000594998253467
0.000596059177877
0.000597816705404
0.000600618459058
0.000603839364678
0.000607806303793
0.000616388456131
0.000639165729007
0.000378198416619
0.000563384440975
0.000581888159675
0.000589458048811
0.000593157035017
0.000595521378389
0.000597491305598
0.000599444652661
0.000601705006201
0.000604393055271
0.000607451849181
0.000611345257627
0.000618500249086
0.000636099711154
0.000379377798446
0.000564922399953
0.000583410261529
0.00059094736656
0.000594615145961
0.000596980933964
0.000599014877654
0.000601083558725
0.000603342612185
0.000605856415116
0.000608689038297
0.000612307682963
0.000618655267062
0.000633892264933
0.000380514489348
0.000566451878803
0.00058491901905
0.000592390861092
0.000595974552096
0.000598245723776
0.000600178432847
0.000602139132181
0.000604257872579
0.000606587374203
0.000609223913488
0.000612651390661
0.000618724114084
0.0006332427368
0.000381574188863
0.000567926074041
0.00058637117761
0.00059376411588
0.000597240189417
0.000599391805611
0.000601189367531
0.000602999065488
0.000604952171805
0.000607109829678
0.000609609016789
0.000613012947845
0.000619357240106
0.000634533974349
0.000382538195328
0.000569311162364
0.000587734012556
0.000595042562621
0.000598407199456
0.000600433995498
0.000602099577815
0.000603765376181
0.000605566882665
0.000607579266505
0.0006099839417
0.000613481287559
0.000620431429924
0.00063708556224
0.000383415992716
0.000570586268163
0.000588989316069
0.000596212749142
0.000599467344566
0.000601375931324
0.000602917972783
0.000604456174685
0.000606125809486
0.00060801268066
0.000610330463978
0.000613886981324
0.000621304031523
0.000639111714026
0.000384179935947
0.000571737807734
0.000590124457251
0.000597264533968
0.000600413785598
0.000602213033117
0.000603644226404
0.000605069321498
0.000606623270921
0.000608391476451
0.000610592799582
0.000614043150273
0.000621415224622
0.000639319130841
0.000384851465645
0.000572758351779
0.000591131208567
0.000598192401599
0.000601242925348
0.000602942222972
0.000604274777052
0.000605600022964
0.000607052485979
0.0006087135868
0.000610788197797
0.000614054357008
0.000621107837476
0.000638546223797
0.000607406356753
0.00060897318923
0.000610940933141
0.000614046800557
0.000620804806573
0.000637759822866
0.00061397302908
0.000620369673114
0.000636513138793
0.00063413484178
)
;

boundaryField
{
    back
    {
        type            nutkWallFunction;
        blending        stepwise;
        Cmu             0.09;
        kappa           0.41;
        E               9.8;
        value           nonuniform List<scalar> 
164
(
5.32466093756e-05
5.89932481356e-05
6.07652763095e-05
6.14547156252e-05
6.16974082904e-05
6.1612685958e-05
6.09959898795e-05
5.94525086248e-05
5.7369502094e-05
5.72707913331e-05
5.7726498856e-05
5.91597905844e-05
6.259888528e-05
6.71308948067e-05
5.33805228412e-05
5.91051625658e-05
6.08826814325e-05
6.15961314706e-05
6.19078702023e-05
6.20178043977e-05
6.19448820985e-05
6.16888653432e-05
6.15790689523e-05
6.18378154312e-05
6.21465810106e-05
6.24876437569e-05
6.35681993745e-05
6.6363191429e-05
5.35274031343e-05
5.92356618875e-05
6.10152822618e-05
6.1740088879e-05
6.20852204942e-05
6.22847808218e-05
6.24169526836e-05
6.25169168423e-05
6.26812662674e-05
6.29367484665e-05
6.32322004144e-05
6.35829793711e-05
6.42974190782e-05
6.61856054344e-05
5.36790160713e-05
5.93783273854e-05
6.11574298755e-05
6.18841800452e-05
6.22379280096e-05
6.24625716422e-05
6.26489651169e-05
6.283347637e-05
6.30449061806e-05
6.32934180572e-05
6.35720605376e-05
6.39144953245e-05
6.45172900344e-05
6.59709607151e-05
5.38309869429e-05
5.95261164095e-05
6.13033482132e-05
6.20267483792e-05
6.23771775432e-05
6.26012870094e-05
6.2792560867e-05
6.29865487485e-05
6.3197788815e-05
6.34312325616e-05
6.36904637166e-05
6.40111342418e-05
6.45491944427e-05
6.58113743385e-05
5.3977569109e-05
5.96733767201e-05
6.14481357389e-05
6.21650466292e-05
6.25072578028e-05
6.27221758988e-05
6.29035615281e-05
6.30868328113e-05
6.32845202141e-05
6.35009506035e-05
6.3742991826e-05
6.40484489964e-05
6.45679302816e-05
6.57864324132e-05
5.41144056713e-05
5.9815467851e-05
6.15874802572e-05
6.22965024413e-05
6.26283138444e-05
6.28317948509e-05
6.30003642465e-05
6.31693386178e-05
6.33513513531e-05
6.35516958127e-05
6.37810459781e-05
6.40847333782e-05
6.46325665061e-05
6.59316642863e-05
5.42391478725e-05
5.99491299451e-05
6.17181987039e-05
6.24186923466e-05
6.27397007183e-05
6.29313065543e-05
6.30874089534e-05
6.32428656662e-05
6.34106460095e-05
6.35973218031e-05
6.3817518321e-05
6.41289918057e-05
6.47332026424e-05
6.61823454339e-05
5.43526498849e-05
6.0072237158e-05
6.18385074553e-05
6.25303490085e-05
6.28406090682e-05
6.30209363091e-05
6.3165390498e-05
6.33088550563e-05
6.34642368685e-05
6.36390383288e-05
6.38506760877e-05
6.41662836109e-05
6.48119896484e-05
6.63742470157e-05
5.44518200071e-05
6.01835065056e-05
6.19472370823e-05
6.26305094901e-05
6.29304336056e-05
6.31002816524e-05
6.32342624393e-05
6.33670805237e-05
6.35115769394e-05
6.36752034609e-05
6.38758066352e-05
6.41808793108e-05
6.48200551686e-05
6.63892309593e-05
5.45391065976e-05
6.02821771041e-05
6.20435829256e-05
6.27186936163e-05
6.30088906108e-05
6.31691352214e-05
6.32937764416e-05
6.34172089579e-05
6.35521337646e-05
6.37057178631e-05
6.38948306864e-05
6.41837410037e-05
6.47946757082e-05
6.63212770908e-05
6.35853855401e-05
6.37301707224e-05
6.39096001918e-05
6.41854897317e-05
6.47740367804e-05
6.62635361366e-05
6.41807715706e-05
6.47417645199e-05
6.61672001201e-05
6.59675989218e-05
)
;
    }
    sides
    {
        type            nutkWallFunction;
        blending        stepwise;
        Cmu             0.09;
        kappa           0.41;
        E               9.8;
        value           nonuniform List<scalar> 0();
    }
    bottom
    {
        type            nutkWallFunction;
        blending        stepwise;
        Cmu             0.09;
        kappa           0.41;
        E               9.8;
        value           nonuniform List<scalar> 
11
(
2.82802925972e-05
2.83518899148e-05
2.84304185742e-05
2.85114759703e-05
2.85927231629e-05
2.86710879452e-05
2.87442412887e-05
2.88109278429e-05
2.88716045412e-05
2.89246188916e-05
2.89712800016e-05
)
;
    }
    front
    {
        type            nutkWallFunction;
        blending        stepwise;
        Cmu             0.09;
        kappa           0.41;
        E               9.8;
        value           nonuniform List<scalar> 
164
(
5.32466093756e-05
5.89932481356e-05
6.07652763095e-05
6.14547156252e-05
6.16974082904e-05
6.1612685958e-05
6.09959898795e-05
5.94525086248e-05
5.7369502094e-05
5.72707913331e-05
5.7726498856e-05
5.91597905844e-05
6.259888528e-05
6.71308948067e-05
5.33805228412e-05
5.91051625658e-05
6.08826814325e-05
6.15961314706e-05
6.19078702023e-05
6.20178043977e-05
6.19448820985e-05
6.16888653432e-05
6.15790689523e-05
6.18378154312e-05
6.21465810106e-05
6.24876437569e-05
6.35681993745e-05
6.6363191429e-05
5.35274031343e-05
5.92356618875e-05
6.10152822618e-05
6.1740088879e-05
6.20852204942e-05
6.22847808218e-05
6.24169526836e-05
6.25169168423e-05
6.26812662674e-05
6.29367484665e-05
6.32322004144e-05
6.35829793711e-05
6.42974190782e-05
6.61856054344e-05
5.36790160713e-05
5.93783273854e-05
6.11574298755e-05
6.18841800452e-05
6.22379280096e-05
6.24625716422e-05
6.26489651169e-05
6.283347637e-05
6.30449061806e-05
6.32934180572e-05
6.35720605376e-05
6.39144953245e-05
6.45172900344e-05
6.59709607151e-05
5.38309869429e-05
5.95261164095e-05
6.13033482132e-05
6.20267483792e-05
6.23771775432e-05
6.26012870094e-05
6.2792560867e-05
6.29865487485e-05
6.3197788815e-05
6.34312325616e-05
6.36904637166e-05
6.40111342418e-05
6.45491944427e-05
6.58113743385e-05
5.3977569109e-05
5.96733767201e-05
6.14481357389e-05
6.21650466292e-05
6.25072578028e-05
6.27221758988e-05
6.29035615281e-05
6.30868328113e-05
6.32845202141e-05
6.35009506035e-05
6.3742991826e-05
6.40484489964e-05
6.45679302816e-05
6.57864324132e-05
5.41144056713e-05
5.9815467851e-05
6.15874802572e-05
6.22965024413e-05
6.26283138444e-05
6.28317948509e-05
6.30003642465e-05
6.31693386178e-05
6.33513513531e-05
6.35516958127e-05
6.37810459781e-05
6.40847333782e-05
6.46325665061e-05
6.59316642863e-05
5.42391478725e-05
5.99491299451e-05
6.17181987039e-05
6.24186923466e-05
6.27397007183e-05
6.29313065543e-05
6.30874089534e-05
6.32428656662e-05
6.34106460095e-05
6.35973218031e-05
6.3817518321e-05
6.41289918057e-05
6.47332026424e-05
6.61823454339e-05
5.43526498849e-05
6.0072237158e-05
6.18385074553e-05
6.25303490085e-05
6.28406090682e-05
6.30209363091e-05
6.3165390498e-05
6.33088550563e-05
6.34642368685e-05
6.36390383288e-05
6.38506760877e-05
6.41662836109e-05
6.48119896484e-05
6.63742470157e-05
5.44518200071e-05
6.01835065056e-05
6.19472370823e-05
6.26305094901e-05
6.29304336056e-05
6.31002816524e-05
6.32342624393e-05
6.33670805237e-05
6.35115769394e-05
6.36752034609e-05
6.38758066352e-05
6.41808793108e-05
6.48200551686e-05
6.63892309593e-05
5.45391065976e-05
6.02821771041e-05
6.20435829256e-05
6.27186936163e-05
6.30088906108e-05
6.31691352214e-05
6.32937764416e-05
6.34172089579e-05
6.35521337646e-05
6.37057178631e-05
6.38948306864e-05
6.41837410037e-05
6.47946757082e-05
6.63212770908e-05
6.35853855401e-05
6.37301707224e-05
6.39096001918e-05
6.41854897317e-05
6.47740367804e-05
6.62635361366e-05
6.41807715706e-05
6.47417645199e-05
6.61672001201e-05
6.59675989218e-05
)
;
    }
    atmosphere
    {
        type            calculated;
        value           nonuniform List<scalar> 0();
    }
    floatingObject
    {
        type            nutkWallFunction;
        blending        stepwise;
        Cmu             0.09;
        kappa           0.41;
        E               9.8;
        value           nonuniform List<scalar> 4(3.04840648691e-05 3.04313147521e-05 3.06748355379e-05 3.14406735583e-05);
    }
    procBoundary8to3
    {
        type            processor;
        value           nonuniform List<scalar> 8(0.000373918944172 0.000558368879628 0.000576752252852 0.000583620737304 0.000585279184319 0.000582248819452 0.000570224713943 0.000395250049043);
    }
    procBoundary8to6
    {
        type            processor;
        value           nonuniform List<scalar> 
16
(
0.000454760296458
0.00069099150554
0.000725283283625
0.000702438412658
0.000689205989242
0.000679717588108
0.000673599560948
0.000670747533573
0.000671939897517
0.000675968575451
0.000678824470443
0.000678879705976
0.000677561617895
0.000676171227043
0.000673440404521
0.000668150424896
)
;
    }
    procBoundary8to7
    {
        type            processor;
        value           nonuniform List<scalar> 
17
(
0.000385419612089
0.000573647367934
0.000592008295912
0.00059899523836
0.000601954139551
0.000603562841
0.000604807819058
0.000606045051513
0.000606045051513
0.000607683014934
0.000609163422943
0.000611028932897
0.000611028932897
0.00061375668656
0.000619539336896
0.000619539336896
0.000630933966101
)
;
    }
}


// ************************************************************************* //
