/*--------------------------------*- C++ -*----------------------------------*\
| =========                 |                                                 |
| \\      /  F ield         | OpenFOAM: The Open Source CFD Toolbox           |
|  \\    /   O peration     | Version:  v2012                                 |
|   \\  /    A nd           | Website:  www.openfoam.com                      |
|    \\/     M anipulation  |                                                 |
\*---------------------------------------------------------------------------*/
FoamFile
{
    version     2.0;
    format      ascii;
    class       volScalarField;
    location    "2.9";
    object      p_rgh;
}
// * * * * * * * * * * * * * * * * * * * * * * * * * * * * * * * * * * * * * //

dimensions      [1 -1 -2 0 0 0 0];


internalField   nonuniform List<scalar> 
167
(
8713.99402658
8715.28293092
8716.89977323
8718.84688048
8721.12367136
8723.73055576
8726.65754803
8729.90291653
8716.27576954
8716.89615083
8717.83660781
8719.09550618
8720.67365802
8722.57228248
8724.79115336
8727.32901116
8730.17901994
8733.32688429
8736.74666125
8719.83463703
8720.43833705
8721.35506057
8722.58164243
8724.11891036
8725.96806185
8728.1296762
8730.60307368
8733.38525516
8736.45962727
8739.80654198
8723.07983121
8723.66620539
8724.5570172
8725.74899503
8727.24308025
8729.04126206
8731.14555707
8733.55813208
8736.27849608
8739.29868052
8725.7481396
8726.01944655
8726.58795656
8727.45079915
8728.60545875
8730.0534497
8731.79781441
8733.84281545
8736.19397013
8738.85981131
8741.82046196
8728.40300366
8728.66462686
8729.21303667
8730.04543976
8731.15961447
8732.55765296
8734.24372702
8736.22429438
8738.51533167
8741.10049107
8744.01153855
8730.77424361
8731.02485553
8731.55147414
8732.35089433
8733.42108292
8734.76440836
8736.38571721
8738.29760354
8740.49846126
8743.01049231
8732.87233304
8733.11129543
8733.61446754
8734.37843339
8735.40093176
8736.6840604
8738.23387571
8740.05882774
8742.16545227
8734.70894911
8734.9359147
8735.41425958
8736.14066071
8737.11200969
8738.32978038
8739.79948866
8741.5246957
8743.5194909
8736.2965428
8736.5111135
8736.96416232
8737.65150336
8738.56934829
8739.71777194
8741.09921613
8742.7186444
8744.57958664
8746.69801074
8737.64795512
8737.85010126
8738.27788542
8738.92607164
8739.78962017
8740.86678505
8742.15689114
8743.66175398
8745.37940375
8747.31001441
8738.77584862
8738.96625401
8739.36957554
8739.97984187
8740.79034781
8741.79724557
8742.99662057
8744.38555807
8745.95723216
8747.703401
8739.69274298
8739.87231169
8740.25337723
8740.82832701
8741.58945417
8742.5303437
8743.64388777
8744.9225833
8746.3562075
8747.91708346
8740.40943369
8740.5800059
8740.94181695
8741.48615009
8742.2039017
8743.08675508
8744.12442028
8745.30670206
8746.60745964
8748.01389166
8740.93472802
8741.09924329
8741.44601765
8741.96559079
8742.64836138
8743.48421958
8744.46055082
8745.56035603
8746.76173457
8741.27505547
8741.43668543
8741.772543
8742.2742797
8742.93203718
8743.73465201
8744.66708778
8745.71049591
8746.83363129
8741.43697371
8741.59632415
8741.92530101
8742.41752629
8743.06310431
8743.8492238
8744.76053816
8745.77159028
8746.85809879
)
;

boundaryField
{
    back
    {
        type            fixedFluxPressure;
        gradient        uniform 0;
        value           nonuniform List<scalar> 
167
(
8713.99402658
8715.28293092
8716.89977323
8718.84688048
8721.12367136
8723.73055576
8726.65754803
8729.90291653
8716.27576954
8716.89615083
8717.83660781
8719.09550618
8720.67365802
8722.57228248
8724.79115336
8727.32901116
8730.17901994
8733.32688429
8736.74666125
8719.83463703
8720.43833705
8721.35506057
8722.58164243
8724.11891036
8725.96806185
8728.1296762
8730.60307368
8733.38525516
8736.45962727
8739.80654198
8723.07983121
8723.66620539
8724.5570172
8725.74899503
8727.24308025
8729.04126206
8731.14555707
8733.55813208
8736.27849608
8739.29868052
8725.7481396
8726.01944655
8726.58795656
8727.45079915
8728.60545875
8730.0534497
8731.79781441
8733.84281545
8736.19397013
8738.85981131
8741.82046196
8728.40300366
8728.66462686
8729.21303667
8730.04543976
8731.15961447
8732.55765296
8734.24372702
8736.22429438
8738.51533167
8741.10049107
8744.01153855
8730.77424361
8731.02485553
8731.55147414
8732.35089433
8733.42108292
8734.76440836
8736.38571721
8738.29760354
8740.49846126
8743.01049231
8732.87233304
8733.11129543
8733.61446754
8734.37843339
8735.40093176
8736.6840604
8738.23387571
8740.05882774
8742.16545227
8734.70894911
8734.9359147
8735.41425958
8736.14066071
8737.11200969
8738.32978038
8739.79948866
8741.5246957
8743.5194909
8736.2965428
8736.5111135
8736.96416232
8737.65150336
8738.56934829
8739.71777194
8741.09921613
8742.7186444
8744.57958664
8746.69801074
8737.64795512
8737.85010126
8738.27788542
8738.92607164
8739.78962017
8740.86678505
8742.15689114
8743.66175398
8745.37940375
8747.31001441
8738.77584862
8738.96625401
8739.36957554
8739.97984187
8740.79034781
8741.79724557
8742.99662057
8744.38555807
8745.95723216
8747.703401
8739.69274298
8739.87231169
8740.25337723
8740.82832701
8741.58945417
8742.5303437
8743.64388777
8744.9225833
8746.3562075
8747.91708346
8740.40943369
8740.5800059
8740.94181695
8741.48615009
8742.2039017
8743.08675508
8744.12442028
8745.30670206
8746.60745964
8748.01389166
8740.93472802
8741.09924329
8741.44601765
8741.96559079
8742.64836138
8743.48421958
8744.46055082
8745.56035603
8746.76173457
8741.27505547
8741.43668543
8741.772543
8742.2742797
8742.93203718
8743.73465201
8744.66708778
8745.71049591
8746.83363129
8741.43697371
8741.59632415
8741.92530101
8742.41752629
8743.06310431
8743.8492238
8744.76053816
8745.77159028
8746.85809879
)
;
    }
    sides
    {
        type            fixedFluxPressure;
        gradient        uniform 0;
        value           nonuniform List<scalar> 9(8741.43697371 8741.59632415 8741.92530101 8742.41752629 8743.06310431 8743.8492238 8744.76053816 8745.77159028 8746.85809879);
    }
    bottom
    {
        type            fixedFluxPressure;
        gradient        uniform 0;
        value           nonuniform List<scalar> 
13
(
8725.7481396
8728.40300366
8730.77424361
8732.87233304
8734.70894911
8736.2965428
8737.64795512
8738.77584862
8739.69274298
8740.40943369
8740.93472802
8741.27505547
8741.43697371
)
;
    }
    front
    {
        type            fixedFluxPressure;
        gradient        uniform 0;
        value           nonuniform List<scalar> 
167
(
8713.99402658
8715.28293092
8716.89977323
8718.84688048
8721.12367136
8723.73055576
8726.65754803
8729.90291653
8716.27576954
8716.89615083
8717.83660781
8719.09550618
8720.67365802
8722.57228248
8724.79115336
8727.32901116
8730.17901994
8733.32688429
8736.74666125
8719.83463703
8720.43833705
8721.35506057
8722.58164243
8724.11891036
8725.96806185
8728.1296762
8730.60307368
8733.38525516
8736.45962727
8739.80654198
8723.07983121
8723.66620539
8724.5570172
8725.74899503
8727.24308025
8729.04126206
8731.14555707
8733.55813208
8736.27849608
8739.29868052
8725.7481396
8726.01944655
8726.58795656
8727.45079915
8728.60545875
8730.0534497
8731.79781441
8733.84281545
8736.19397013
8738.85981131
8741.82046196
8728.40300366
8728.66462686
8729.21303667
8730.04543976
8731.15961447
8732.55765296
8734.24372702
8736.22429438
8738.51533167
8741.10049107
8744.01153855
8730.77424361
8731.02485553
8731.55147414
8732.35089433
8733.42108292
8734.76440836
8736.38571721
8738.29760354
8740.49846126
8743.01049231
8732.87233304
8733.11129543
8733.61446754
8734.37843339
8735.40093176
8736.6840604
8738.23387571
8740.05882774
8742.16545227
8734.70894911
8734.9359147
8735.41425958
8736.14066071
8737.11200969
8738.32978038
8739.79948866
8741.5246957
8743.5194909
8736.2965428
8736.5111135
8736.96416232
8737.65150336
8738.56934829
8739.71777194
8741.09921613
8742.7186444
8744.57958664
8746.69801074
8737.64795512
8737.85010126
8738.27788542
8738.92607164
8739.78962017
8740.86678505
8742.15689114
8743.66175398
8745.37940375
8747.31001441
8738.77584862
8738.96625401
8739.36957554
8739.97984187
8740.79034781
8741.79724557
8742.99662057
8744.38555807
8745.95723216
8747.703401
8739.69274298
8739.87231169
8740.25337723
8740.82832701
8741.58945417
8742.5303437
8743.64388777
8744.9225833
8746.3562075
8747.91708346
8740.40943369
8740.5800059
8740.94181695
8741.48615009
8742.2039017
8743.08675508
8744.12442028
8745.30670206
8746.60745964
8748.01389166
8740.93472802
8741.09924329
8741.44601765
8741.96559079
8742.64836138
8743.48421958
8744.46055082
8745.56035603
8746.76173457
8741.27505547
8741.43668543
8741.772543
8742.2742797
8742.93203718
8743.73465201
8744.66708778
8745.71049591
8746.83363129
8741.43697371
8741.59632415
8741.92530101
8742.41752629
8743.06310431
8743.8492238
8744.76053816
8745.77159028
8746.85809879
)
;
    }
    atmosphere
    {
        type            totalPressure;
        rho             rho;
        psi             none;
        gamma           1;
        p0              nonuniform List<scalar> 0();
        value           nonuniform List<scalar> 0();
    }
    floatingObject
    {
        type            fixedFluxPressure;
        gradient        nonuniform List<scalar> 0();
        value           nonuniform List<scalar> 0();
    }
    procBoundary10to9
    {
        type            processor;
        value           nonuniform List<scalar> 
15
(
8709.81615173
8711.13284002
8712.78701928
8714.7806138
8717.1175801
8719.79630837
8722.81790071
8726.16421879
8712.39321999
8713.02985944
8713.02985944
8715.97493866
8719.54274399
8722.79767722
8722.79767722
)
;
    }
    procBoundary10to11
    {
        type            processor;
        value           nonuniform List<scalar> 
23
(
8733.41830424
8733.41830424
8740.38846797
8743.38326288
8742.60149102
8742.60149102
8745.0996683
8747.25069395
8745.84348257
8745.84348257
8744.57727831
8744.57727831
8745.78691184
8745.78691184
8749.0607732
8749.46348436
8749.62025553
8749.60719593
8749.48832403
8748.03544462
8748.03544462
8748.01035548
8747.97913732
)
;
    }
}


// ************************************************************************* //
