/*--------------------------------*- C++ -*----------------------------------*\
| =========                 |                                                 |
| \\      /  F ield         | OpenFOAM: The Open Source CFD Toolbox           |
|  \\    /   O peration     | Version:  v2012                                 |
|   \\  /    A nd           | Website:  www.openfoam.com                      |
|    \\/     M anipulation  |                                                 |
\*---------------------------------------------------------------------------*/
FoamFile
{
    version     2.0;
    format      ascii;
    class       volScalarField;
    location    "0.8";
    object      ddt0(k);
}
// * * * * * * * * * * * * * * * * * * * * * * * * * * * * * * * * * * * * * //

dimensions      [0 2 -3 0 0 0 0];


internalField   nonuniform List<scalar> 
167
(
-0.0266400636548
-0.0265897914346
-0.0265375117447
-0.0264809862167
-0.0264050144995
-0.0262200794405
-0.0254971893345
-0.0226724899544
-0.0139330162047
0.00437889676559
0.0233045573469
0.0122225534833
-0.0312347852723
-0.0311908101768
-0.031145234208
-0.0310941460995
-0.0310130884604
-0.0307719786007
-0.0298111627141
-0.0263068768897
-0.016407602427
0.00221556412254
0.0184744147978
0.00915341512906
-0.0316174300078
-0.0315691063655
-0.0315185962252
-0.0314616362261
-0.0313719827716
-0.0311133399464
-0.0301117378433
-0.0265347846507
-0.0165918242673
0.00195213812943
0.0185821463622
0.00961297392984
-0.0314254798148
-0.0313729867227
-0.0313136277069
-0.0312206556325
-0.0309560530134
-0.0299430657277
-0.0263559669543
-0.0164541791784
0.00193968647727
0.0184321961898
0.00958732843473
-0.0312749303546
-0.03121555589
-0.031121887953
-0.0308543945559
-0.0298331037419
-0.0262332842381
-0.0163454110723
0.00193944447071
0.0182715607748
0.00955852894345
-0.0312324425347
-0.031173833189
-0.0310801171255
-0.0308098089315
-0.0297781510127
-0.0261575516978
-0.016266361436
0.00191976716047
0.0180802257032
0.00951932885089
-0.031209499091
-0.0311517942943
-0.0310579940752
-0.0307841610998
-0.0297393636159
-0.0260913276029
-0.0161904184781
0.00188179941733
0.0178321587524
0.00945855998128
-0.0311907887041
-0.0311339666825
-0.0310398972223
-0.0307617459857
-0.0297013577137
-0.0260213590258
-0.0161106919344
0.0018247136402
0.0175264501646
0.00938188196957
-0.0311722486766
-0.0311162379101
-0.0310216855412
-0.0307384683404
-0.029660419879
-0.0259454513856
-0.0160290508313
0.00174095634159
0.0171508835947
0.00927626556677
-0.0311532449105
-0.0310979507795
-0.0310026934822
-0.030713735562
-0.0296163983386
-0.0258650534267
-0.0159500608034
0.00162517594568
0.0167148834927
0.00916535672613
-0.0311339711993
-0.0310792773222
-0.0309830885501
-0.0306877892114
-0.0295699367639
-0.0257822247069
-0.0158794770637
0.00146508080424
0.0161893405784
0.00902000585866
-0.031114783231
-0.0310605636831
-0.0309632242113
-0.0306610945363
-0.0295220506549
-0.0256997453894
-0.015823161369
0.00125473876339
0.0155859146008
0.00886507468615
-0.0310960726994
-0.0310421943319
-0.0309435034986
-0.0306341984001
-0.0294739244653
-0.0256207826411
-0.0157883122298
0.000981374944836
0.0148869126613
0.00868832614905
-0.0310782299408
-0.0310245638919
-0.0309243545303
-0.0306077105028
-0.0294268976691
-0.02554872474
-0.0157818195427
0.000636508932247
0.0140793244778
0.00845166461887
-0.0310616465012
-0.0310080812915
-0.0309062339631
-0.0305823246002
-0.0293825499871
-0.0254876514318
-0.0158121656633
0.000215146971393
0.0131535771034
0.00801362554086
-0.031046742697
-0.0309931659328
-0.0308896382834
-0.0305588308733
-0.0293427699699
-0.0254423793606
-0.0158896636493
-0.000315572488461
0.0120127353445
0.00673297504614
)
;

boundaryField
{
    back
    {
        type            calculated;
        value           nonuniform List<scalar> 
167
(
-0.0266400636548
-0.0265897914346
-0.0265375117447
-0.0264809862167
-0.0264050144995
-0.0262200794405
-0.0254971893345
-0.0226724899544
-0.0139330162047
0.00437889676559
0.0233045573469
0.0122225534833
-0.0312347852723
-0.0311908101768
-0.031145234208
-0.0310941460995
-0.0310130884604
-0.0307719786007
-0.0298111627141
-0.0263068768897
-0.016407602427
0.00221556412254
0.0184744147978
0.00915341512905
-0.0316174300078
-0.0315691063655
-0.0315185962252
-0.0314616362261
-0.0313719827716
-0.0311133399464
-0.0301117378433
-0.0265347846507
-0.0165918242673
0.00195213812943
0.0185821463622
0.00961297392984
-0.0314254798148
-0.0313729867227
-0.0313136277069
-0.0312206556325
-0.0309560530134
-0.0299430657277
-0.0263559669543
-0.0164541791784
0.00193968647727
0.0184321961898
0.00958732843473
-0.0312749303546
-0.03121555589
-0.031121887953
-0.0308543945559
-0.0298331037419
-0.0262332842381
-0.0163454110723
0.00193944447071
0.0182715607748
0.00955852894345
-0.0312324425347
-0.031173833189
-0.0310801171255
-0.0308098089315
-0.0297781510127
-0.0261575516978
-0.016266361436
0.00191976716047
0.0180802257032
0.00951932885089
-0.031209499091
-0.0311517942943
-0.0310579940752
-0.0307841610998
-0.0297393636159
-0.0260913276029
-0.0161904184781
0.00188179941733
0.0178321587524
0.00945855998128
-0.0311907887041
-0.0311339666825
-0.0310398972223
-0.0307617459857
-0.0297013577137
-0.0260213590258
-0.0161106919344
0.0018247136402
0.0175264501646
0.00938188196957
-0.0311722486766
-0.0311162379101
-0.0310216855412
-0.0307384683404
-0.029660419879
-0.0259454513856
-0.0160290508313
0.00174095634159
0.0171508835947
0.00927626556677
-0.0311532449105
-0.0310979507795
-0.0310026934822
-0.030713735562
-0.0296163983386
-0.0258650534267
-0.0159500608034
0.00162517594568
0.0167148834927
0.00916535672613
-0.0311339711993
-0.0310792773222
-0.0309830885501
-0.0306877892114
-0.0295699367639
-0.0257822247069
-0.0158794770637
0.00146508080423
0.0161893405784
0.00902000585866
-0.031114783231
-0.0310605636831
-0.0309632242113
-0.0306610945363
-0.0295220506549
-0.0256997453894
-0.015823161369
0.00125473876339
0.0155859146008
0.00886507468615
-0.0310960726994
-0.0310421943319
-0.0309435034986
-0.0306341984001
-0.0294739244653
-0.0256207826411
-0.0157883122298
0.000981374944836
0.0148869126613
0.00868832614905
-0.0310782299408
-0.0310245638919
-0.0309243545303
-0.0306077105028
-0.0294268976691
-0.02554872474
-0.0157818195427
0.000636508932247
0.0140793244778
0.00845166461887
-0.0310616465012
-0.0310080812915
-0.0309062339631
-0.0305823246002
-0.0293825499871
-0.0254876514318
-0.0158121656633
0.000215146971393
0.0131535771034
0.00801362554086
-0.031046742697
-0.0309931659328
-0.0308896382834
-0.0305588308733
-0.0293427699699
-0.0254423793606
-0.0158896636493
-0.000315572488461
0.0120127353445
0.00673297504614
)
;
    }
    sides
    {
        type            calculated;
        value           nonuniform List<scalar> 
12
(
-0.0266400636548
-0.0265897914346
-0.0265375117447
-0.0264809862167
-0.0264050144995
-0.0262200794405
-0.0254971893345
-0.0226724899544
-0.0139330162047
0.00437889676559
0.0233045573469
0.0122225534833
)
;
    }
    bottom
    {
        type            calculated;
        value           nonuniform List<scalar> 0();
    }
    front
    {
        type            calculated;
        value           nonuniform List<scalar> 
167
(
-0.0266400636548
-0.0265897914346
-0.0265375117447
-0.0264809862167
-0.0264050144995
-0.0262200794405
-0.0254971893345
-0.0226724899544
-0.0139330162047
0.00437889676559
0.0233045573469
0.0122225534833
-0.0312347852723
-0.0311908101768
-0.031145234208
-0.0310941460995
-0.0310130884604
-0.0307719786007
-0.0298111627141
-0.0263068768897
-0.016407602427
0.00221556412254
0.0184744147978
0.00915341512905
-0.0316174300078
-0.0315691063655
-0.0315185962252
-0.0314616362261
-0.0313719827716
-0.0311133399464
-0.0301117378433
-0.0265347846507
-0.0165918242673
0.00195213812943
0.0185821463622
0.00961297392984
-0.0314254798148
-0.0313729867227
-0.0313136277069
-0.0312206556325
-0.0309560530134
-0.0299430657277
-0.0263559669543
-0.0164541791784
0.00193968647727
0.0184321961898
0.00958732843473
-0.0312749303546
-0.03121555589
-0.031121887953
-0.0308543945559
-0.0298331037419
-0.0262332842381
-0.0163454110723
0.00193944447071
0.0182715607748
0.00955852894345
-0.0312324425347
-0.031173833189
-0.0310801171255
-0.0308098089315
-0.0297781510127
-0.0261575516978
-0.016266361436
0.00191976716047
0.0180802257032
0.00951932885089
-0.031209499091
-0.0311517942943
-0.0310579940752
-0.0307841610998
-0.0297393636159
-0.0260913276029
-0.0161904184781
0.00188179941733
0.0178321587524
0.00945855998128
-0.0311907887041
-0.0311339666825
-0.0310398972223
-0.0307617459857
-0.0297013577137
-0.0260213590258
-0.0161106919344
0.0018247136402
0.0175264501646
0.00938188196957
-0.0311722486766
-0.0311162379101
-0.0310216855412
-0.0307384683404
-0.029660419879
-0.0259454513856
-0.0160290508313
0.00174095634159
0.0171508835947
0.00927626556677
-0.0311532449105
-0.0310979507795
-0.0310026934822
-0.030713735562
-0.0296163983386
-0.0258650534267
-0.0159500608034
0.00162517594568
0.0167148834927
0.00916535672613
-0.0311339711993
-0.0310792773222
-0.0309830885501
-0.0306877892114
-0.0295699367639
-0.0257822247069
-0.0158794770637
0.00146508080423
0.0161893405784
0.00902000585866
-0.031114783231
-0.0310605636831
-0.0309632242113
-0.0306610945363
-0.0295220506549
-0.0256997453894
-0.015823161369
0.00125473876339
0.0155859146008
0.00886507468615
-0.0310960726994
-0.0310421943319
-0.0309435034986
-0.0306341984001
-0.0294739244653
-0.0256207826411
-0.0157883122298
0.000981374944836
0.0148869126613
0.00868832614905
-0.0310782299408
-0.0310245638919
-0.0309243545303
-0.0306077105028
-0.0294268976691
-0.02554872474
-0.0157818195427
0.000636508932247
0.0140793244778
0.00845166461887
-0.0310616465012
-0.0310080812915
-0.0309062339631
-0.0305823246002
-0.0293825499871
-0.0254876514318
-0.0158121656633
0.000215146971393
0.0131535771034
0.00801362554086
-0.031046742697
-0.0309931659328
-0.0308896382834
-0.0305588308733
-0.0293427699699
-0.0254423793606
-0.0158896636493
-0.000315572488461
0.0120127353445
0.00673297504614
)
;
    }
    atmosphere
    {
        type            calculated;
        value           uniform 0;
    }
    floatingObject
    {
        type            calculated;
        value           nonuniform List<scalar> 0();
    }
    procBoundary1to0
    {
        type            processor;
        value           nonuniform List<scalar> 10(-0.0310339003923 -0.0309802432136 -0.0308750814327 -0.0305381362258 -0.0293097492977 -0.0254186287276 -0.0160268335634 -0.000970024087145 0.0103698667187 0.00144468466123);
    }
    procBoundary1to2
    {
        type            processor;
        value           nonuniform List<scalar> 
18
(
-0.0266886933229
-0.0312777968801
-0.0316641615741
-0.0314753828912
-0.0314753828912
-0.0313271307457
-0.0313271307457
-0.0312835727056
-0.0312593680643
-0.0312393877799
-0.0312196201214
-0.0311994698927
-0.0311791471124
-0.0311590280034
-0.0311395054003
-0.0311209723618
-0.0311038230681
-0.0310884366925
)
;
    }
}


// ************************************************************************* //
