/*--------------------------------*- C++ -*----------------------------------*\
| =========                 |                                                 |
| \\      /  F ield         | OpenFOAM: The Open Source CFD Toolbox           |
|  \\    /   O peration     | Version:  v2012                                 |
|   \\  /    A nd           | Website:  www.openfoam.com                      |
|    \\/     M anipulation  |                                                 |
\*---------------------------------------------------------------------------*/
FoamFile
{
    version     2.0;
    format      ascii;
    class       volScalarField;
    location    "0.8";
    object      nut;
}
// * * * * * * * * * * * * * * * * * * * * * * * * * * * * * * * * * * * * * //

dimensions      [0 2 -1 0 0 0 0];


internalField   nonuniform List<scalar> 
167
(
0.00114607414067
0.00114716869581
0.00114825393147
0.00114933563574
0.00115047249549
0.00115205880733
0.00115626496302
0.00117273460188
0.00123390673048
0.00141033501174
0.00177411800944
0.00233013449677
0.00168084202158
0.00168212866182
0.00168341292622
0.00168471073748
0.00168614497782
0.00168844829034
0.00169524869822
0.0017211026557
0.00180999074023
0.00204620585824
0.00249763005527
0.00315648920564
0.00171743944558
0.00171868206905
0.00171992467156
0.00172118290307
0.00172258505692
0.00172488573016
0.00173175464385
0.00175765470893
0.00184553836148
0.00207682768603
0.00251925891625
0.00316435140295
0.00172805844816
0.0017292575725
0.00173047497808
0.00173183994767
0.00173411453639
0.00174098462121
0.00176688198902
0.0018544046662
0.00208414235484
0.00252396288522
0.00316577407876
0.00173171056249
0.00173289145336
0.00173422641662
0.00173648751151
0.00174339598519
0.00176945575661
0.00185727024194
0.00208709229036
0.00252628215799
0.00316670796249
0.00173266354663
0.00173381038442
0.0017351201032
0.00173737889667
0.0017443607482
0.00177070049041
0.00185913349659
0.00208960267069
0.00252860149405
0.00316767420835
0.00173337896155
0.00173449228016
0.00173577878227
0.00173804280454
0.00174512577245
0.00177183293559
0.00186108181971
0.00209242572622
0.00253121972667
0.00316870930753
0.00173411651977
0.00173519684778
0.00173646166538
0.00173873727252
0.0017459455675
0.00177309293715
0.001863304991
0.00209565660144
0.00253417556423
0.00316986633884
0.00173492034168
0.00173596904163
0.00173721429592
0.00173950806617
0.00174686485884
0.00177451901083
0.00186582060794
0.0020992824786
0.0025374515322
0.00317114439314
0.00173579314861
0.00173681252505
0.00173804117942
0.00174036028512
0.00174788824635
0.00177611071555
0.00186861306446
0.0021032680174
0.00254102516111
0.00317257749934
0.00173673075812
0.00173772397135
0.00173893980895
0.00174129209487
0.00174901382383
0.00177786297853
0.00187166474322
0.00210757576042
0.00254484631015
0.00317412935389
0.00173772838845
0.00173869929414
0.00173990680268
0.00174230061922
0.00175023804477
0.00177976696536
0.00187495184993
0.00211216146905
0.00254888077011
0.00317582087153
0.00173878162547
0.00173973467546
0.00174093894419
0.00174338299893
0.00175155704344
0.00178181280802
0.00187844750819
0.00211697038505
0.00255306669072
0.00317763120109
0.00173988656816
0.00174082671323
0.00174203334054
0.00174453653172
0.00175296668875
0.00178398967812
0.00188212443695
0.00212197410599
0.00255736640451
0.00317944514498
0.00174103972437
0.00174197233166
0.00174318734733
0.00174575851665
0.00175446211763
0.00178628384367
0.001885947531
0.00212709276909
0.00256164336577
0.0031807624573
0.00174223776876
0.00174316870572
0.00174439846014
0.00174704616496
0.00175603727015
0.00178867734377
0.00188986968548
0.00213223104599
0.00256555193435
0.00317919713014
)
;

boundaryField
{
    back
    {
        type            nutkWallFunction;
        blending        stepwise;
        Cmu             0.09;
        kappa           0.41;
        E               9.8;
        value           nonuniform List<scalar> 
167
(
0.000147781500862
0.00014789794813
0.000148013101766
0.000148127306471
0.000148245104106
0.000148398924967
0.000148776933509
0.000150266416133
0.000156079937333
0.000173959423111
0.000213197997114
0.000277981422833
0.000161082142414
0.000161184578954
0.000161286634492
0.000161389159985
0.000161499467103
0.000161663322916
0.000162118813047
0.000163877966281
0.000170232491148
0.000188199624545
0.000224660948577
0.000282212805617
0.000164172722629
0.000164270996527
0.000164369023189
0.000164467598843
0.00016457432714
0.000164736348065
0.000165194645026
0.000166955443225
0.000173234104364
0.000190801704329
0.00022645245027
0.000282913861761
0.000165036493636
0.000165130688696
0.000165225608431
0.000165328895945
0.0001654881895
0.000165945806932
0.000167706991194
0.000173963780034
0.000191418415525
0.000226856900622
0.000283144058886
0.000165324434384
0.000165416311687
0.00016551702693
0.00016567490817
0.000166134978344
0.00016790899116
0.00017419348359
0.000191667983216
0.000227065527864
0.000283376685092
0.000165399217722
0.000165488340786
0.000165586947651
0.000165744342121
0.00016620949223
0.000168005061196
0.000174342363827
0.000191882660599
0.000227277335149
0.000283664750541
0.000165456336358
0.000165542765473
0.000165639428956
0.000165796885535
0.000166269124242
0.000168092840155
0.000174498875498
0.0001921255926
0.000227519048467
0.000284024185776
0.000165515769139
0.000165599546233
0.00016569437433
0.000165852338575
0.000166333432352
0.000168190947841
0.00017467822981
0.000192404854452
0.000227793987797
0.000284477519837
0.000165580746071
0.000165661977398
0.000165755124313
0.000165914066925
0.000166405743601
0.00016830237611
0.000174882128303
0.000192720149478
0.000228101888778
0.000285055941442
0.000165651422894
0.00016573029029
0.000165821979783
0.000165982430389
0.000166486428866
0.00016842725559
0.000175109741824
0.000193068929471
0.000228440042626
0.000285804672853
0.000165727470634
0.000165804225301
0.000165894749322
0.000166057303146
0.00016657540442
0.000168565400112
0.000175360226162
0.00019344928959
0.000228806820461
0.000286800257422
0.000165808529319
0.000165883479003
0.000165973189404
0.00016613849756
0.000166672490399
0.00016871637874
0.000175632178253
0.000193857977313
0.000229198479694
0.000288173408095
0.00016589427258
0.000165967774449
0.000166057075742
0.000166225836494
0.000166777498988
0.000168879714704
0.000175924059112
0.000194291640632
0.000229611741082
0.000290177460776
0.00016598441758
0.000166056870767
0.000166146214031
0.00016631916319
0.000166890237587
0.00016905487931
0.00017623426281
0.000194747400463
0.000230043236899
0.000293376871527
0.000166078715433
0.000166150555141
0.00016624043361
0.000166418329574
0.00016701047868
0.000169241174527
0.000176560756673
0.000195221047749
0.00023048697212
0.000299346800186
0.000166176930815
0.000166248636708
0.000166339578266
0.000166523191256
0.000167137927471
0.00016943763507
0.000176900726621
0.000195706623427
0.000230930615898
0.000316078400162
)
;
    }
    sides
    {
        type            nutkWallFunction;
        blending        stepwise;
        Cmu             0.09;
        kappa           0.41;
        E               9.8;
        value           nonuniform List<scalar> 
12
(
7.86322395045e-05
7.86941046103e-05
7.87552821748e-05
7.88159553365e-05
7.88785370252e-05
7.8960256148e-05
7.91610755537e-05
7.99523445627e-05
8.30402866161e-05
9.25333330277e-05
0.000113349390985
0.000147726761065
)
;
    }
    bottom
    {
        type            nutkWallFunction;
        blending        stepwise;
        Cmu             0.09;
        kappa           0.41;
        E               9.8;
        value           nonuniform List<scalar> 0();
    }
    front
    {
        type            nutkWallFunction;
        blending        stepwise;
        Cmu             0.09;
        kappa           0.41;
        E               9.8;
        value           nonuniform List<scalar> 
167
(
0.000147781500862
0.00014789794813
0.000148013101766
0.000148127306471
0.000148245104106
0.000148398924967
0.000148776933509
0.000150266416133
0.000156079937333
0.000173959423111
0.000213197997114
0.000277981422833
0.000161082142414
0.000161184578954
0.000161286634492
0.000161389159985
0.000161499467103
0.000161663322916
0.000162118813047
0.000163877966281
0.000170232491148
0.000188199624545
0.000224660948577
0.000282212805617
0.000164172722629
0.000164270996527
0.000164369023189
0.000164467598843
0.00016457432714
0.000164736348065
0.000165194645026
0.000166955443225
0.000173234104364
0.000190801704329
0.00022645245027
0.000282913861761
0.000165036493636
0.000165130688696
0.000165225608431
0.000165328895945
0.0001654881895
0.000165945806932
0.000167706991194
0.000173963780034
0.000191418415525
0.000226856900622
0.000283144058886
0.000165324434384
0.000165416311687
0.00016551702693
0.00016567490817
0.000166134978344
0.00016790899116
0.00017419348359
0.000191667983216
0.000227065527864
0.000283376685092
0.000165399217722
0.000165488340786
0.000165586947651
0.000165744342121
0.00016620949223
0.000168005061196
0.000174342363827
0.000191882660599
0.000227277335149
0.000283664750541
0.000165456336358
0.000165542765473
0.000165639428956
0.000165796885535
0.000166269124242
0.000168092840155
0.000174498875498
0.0001921255926
0.000227519048467
0.000284024185776
0.000165515769139
0.000165599546233
0.00016569437433
0.000165852338575
0.000166333432352
0.000168190947841
0.00017467822981
0.000192404854452
0.000227793987797
0.000284477519837
0.000165580746071
0.000165661977398
0.000165755124313
0.000165914066925
0.000166405743601
0.00016830237611
0.000174882128303
0.000192720149478
0.000228101888778
0.000285055941442
0.000165651422894
0.00016573029029
0.000165821979783
0.000165982430389
0.000166486428866
0.00016842725559
0.000175109741824
0.000193068929471
0.000228440042626
0.000285804672853
0.000165727470634
0.000165804225301
0.000165894749322
0.000166057303146
0.00016657540442
0.000168565400112
0.000175360226162
0.00019344928959
0.000228806820461
0.000286800257422
0.000165808529319
0.000165883479003
0.000165973189404
0.00016613849756
0.000166672490399
0.00016871637874
0.000175632178253
0.000193857977313
0.000229198479694
0.000288173408095
0.00016589427258
0.000165967774449
0.000166057075742
0.000166225836494
0.000166777498988
0.000168879714704
0.000175924059112
0.000194291640632
0.000229611741082
0.000290177460776
0.00016598441758
0.000166056870767
0.000166146214031
0.00016631916319
0.000166890237587
0.00016905487931
0.00017623426281
0.000194747400463
0.000230043236899
0.000293376871527
0.000166078715433
0.000166150555141
0.00016624043361
0.000166418329574
0.00016701047868
0.000169241174527
0.000176560756673
0.000195221047749
0.00023048697212
0.000299346800186
0.000166176930815
0.000166248636708
0.000166339578266
0.000166523191256
0.000167137927471
0.00016943763507
0.000176900726621
0.000195706623427
0.000230930615898
0.000316078400162
)
;
    }
    atmosphere
    {
        type            calculated;
        value           uniform 0.009;
    }
    floatingObject
    {
        type            nutkWallFunction;
        blending        stepwise;
        Cmu             0.09;
        kappa           0.41;
        E               9.8;
        value           nonuniform List<scalar> 0();
    }
    procBoundary1to0
    {
        type            processor;
        value           nonuniform List<scalar> 10(0.00174347771369 0.00174441320589 0.00174566437202 0.00174839641791 0.00175768476886 0.00179114772186 0.00189383313066 0.00213725437891 0.0025685815017 0.00317198246982);
    }
    procBoundary1to2
    {
        type            processor;
        value           nonuniform List<scalar> 
18
(
0.00114497144511
0.00167955299987
0.00171619912452
0.00172686339427
0.00172686339427
0.00173055310738
0.00173055310738
0.00173154663445
0.0017323025961
0.00173308011181
0.00173392226703
0.00173483074571
0.00173580056127
0.00173682627113
0.00173790298675
0.00173902638292
0.00174019257799
0.00174139805847
)
;
    }
}


// ************************************************************************* //
