/*--------------------------------*- C++ -*----------------------------------*\
| =========                 |                                                 |
| \\      /  F ield         | OpenFOAM: The Open Source CFD Toolbox           |
|  \\    /   O peration     | Version:  v2012                                 |
|   \\  /    A nd           | Website:  www.openfoam.com                      |
|    \\/     M anipulation  |                                                 |
\*---------------------------------------------------------------------------*/
FoamFile
{
    version     2.0;
    format      ascii;
    class       volVectorField;
    location    "2.3";
    object      ddt0(rho,U);
}
// * * * * * * * * * * * * * * * * * * * * * * * * * * * * * * * * * * * * * //

dimensions      [1 -2 -2 0 0 0 0];


internalField   nonuniform List<vector> 
164
(
(79.5181539218 35.0311228158 3.40594530037e-22)
(84.0467474717 38.5954441815 2.73057626278e-20)
(89.6225744124 41.7246049341 6.95078063842e-20)
(96.5129971203 44.1736746924 -2.87060578164e-20)
(105.246289872 45.6744023022 7.97479545466e-19)
(116.676183354 45.5684542279 3.01844431794e-19)
(132.189338805 43.1305999987 8.04702893954e-19)
(153.222822254 36.941073223 1.62869070588e-18)
(188.646651539 14.6870370686 -2.67616460885e-18)
(130.051651244 -3.51335194874 -4.38433606894e-19)
(3.27791110617 -0.0596540689918 2.77717622752e-19)
(0.204168824762 0.313674311477 6.17147921089e-20)
(75.3817482359 39.3162616452 -2.28157245839e-22)
(80.1748053871 43.885822492 -6.51343575345e-20)
(86.0916477823 48.3144205959 1.45310283447e-19)
(93.5440776029 52.5520449184 -3.76462924494e-21)
(103.125598121 56.6282472882 2.80722946903e-19)
(115.805884596 60.295985356 -6.10178992802e-19)
(133.802478333 63.0585102097 -3.87602238952e-19)
(160.147806828 66.7087571895 -8.54911655806e-19)
(206.775151464 48.1839326625 7.76322498084e-21)
(147.298988039 12.5229825345 -2.54446012253e-17)
(0.347979949856 0.055358052777 -6.38948341021e-20)
(0.0347940929264 0.510120649289 -4.40720976546e-19)
(81.0018235092 55.1178980184 2.19681998729e-20)
(88.3620063528 61.2725315962 2.00071439985e-20)
(97.6751228891 68.0187623562 1.16473541175e-19)
(109.92181521 76.115610074 -1.7586490033e-19)
(126.935792921 85.8842778425 4.88867100008e-19)
(153.392833891 106.439145729 -1.59906905689e-18)
(200.469697056 106.795506292 -1.56947311289e-18)
(145.657037187 51.3874079365 -4.55367418362e-19)
(0.157701269204 0.181900663804 3.13033939057e-20)
(-0.040170077945 0.160778776421 8.67275950922e-21)
(74.4327310826 61.5809419189 1.10847115532e-19)
(81.1481235838 69.2759835229 -9.18040611704e-20)
(89.2521499809 78.262699087 1.92570995646e-19)
(99.2114970223 89.4670582787 -3.78301376395e-19)
(111.811074985 104.829399871 -2.09797440466e-18)
(129.309728268 138.574513059 -1.29954245015e-18)
(159.771409347 157.579407684 -1.05857129383e-17)
(123.920039305 85.8520309236 1.10833822888e-17)
(0.155294764662 0.272016254569 2.3867166736e-20)
(0.146049484718 0.282571506386 6.5266275575e-22)
(66.6488595848 67.3514985684 9.93100247455e-20)
(72.4733157815 76.0830998209 5.06521219292e-20)
(79.0028757703 86.0513886826 -1.36355555361e-19)
(85.9281095685 98.2098670974 -1.50997092343e-18)
(93.5777348427 113.671839552 -5.87855577085e-18)
(100.207585621 148.996430031 1.25698550036e-17)
(101.043061892 183.109960844 -1.21205297955e-17)
(73.1035644027 104.799037802 -2.2979931241e-17)
(0.125399613461 0.296786240892 -3.83815729426e-20)
(0.125664499735 0.453904640902 -1.55302871095e-20)
(58.0457676218 72.3328276774 6.69071716009e-20)
(63.0807895217 81.5489750796 1.68557774154e-19)
(68.3126624934 91.4198503488 -3.07323110957e-19)
(73.0321587371 102.309929369 -1.41424739088e-18)
(77.0120499196 113.306038891 -3.75737347698e-18)
(79.2841432724 133.59109963 -5.08698451364e-18)
(57.0744607302 169.617822726 8.25117448742e-18)
(13.536926358 99.4931484297 1.3661641353e-17)
(0.0810056222231 0.215434277074 4.00555506912e-20)
(0.0550448084434 0.418830546071 3.49839640423e-20)
(48.8643623407 76.7545060356 5.72026583184e-20)
(53.5892762413 86.2241434639 -1.9059292327e-19)
(58.6114933557 95.4549050149 -2.20400087638e-19)
(63.2593778248 103.49231963 -1.8806731495e-18)
(68.0887258029 107.708718997 -6.36446897635e-19)
(73.3739576117 105.107214336 9.53913005643e-19)
(48.2651509788 108.738182584 2.54058789487e-17)
(-14.6797765967 63.4425975296 5.29133381752e-18)
(0.0585957825899 0.0660354753206 2.96754223493e-20)
(-0.0645641106367 0.246349395485 -2.98726463605e-20)
(38.9635602948 81.0768040893 -3.43009924568e-20)
(43.8343087588 91.3883329928 -7.91956049928e-19)
(49.9810412795 100.880941845 -1.44300822234e-18)
(58.0149769755 107.435918315 -8.66199834738e-19)
(72.2115288394 106.23355183 1.37406751552e-17)
(95.1761291059 83.4408431828 7.61549280264e-17)
(89.6151038896 44.8384730571 1.40879191013e-16)
(25.1941275072 15.8670098656 1.06338847904e-16)
(0.0100614860864 -0.175003034445 2.1322887231e-19)
(-0.217628947204 -0.0622691354259 2.77475519504e-20)
(28.0003391719 85.3005414325 -5.03870580122e-19)
(32.951608209 97.3593897212 -4.71377712312e-19)
(40.5281771397 109.060414175 1.44954246717e-19)
(53.0950377129 118.76931131 1.30740998896e-17)
(75.322053484 123.432872309 6.83171868997e-17)
(115.275439437 114.17405844 2.405253099e-16)
(141.287590194 84.6945529515 2.99631743475e-16)
(125.973790485 50.9594370813 1.31478867486e-16)
(0.00090127672137 -0.0966763256196 4.65365582073e-19)
(-0.360191230069 -0.456590651012 -5.82215350363e-20)
(15.4316898703 89.0089530382 2.43634176518e-19)
(20.0341379938 103.238822794 -2.28175655082e-20)
(28.4219711651 118.260924163 6.20638924312e-18)
(43.8816733506 133.680740009 2.60423830112e-17)
(68.3326713916 153.964009303 1.05389799087e-16)
(103.117419507 181.056951726 2.19943907431e-16)
(161.034877433 185.046392827 1.22738355038e-16)
(223.189101268 117.006948724 -4.60739968699e-16)
(0.131223228031 0.267034254382 -7.86981051727e-20)
(0.46206942829 -0.163987894288 -1.71622378277e-18)
(0.306185966572 92.2742680401 4.49911079042e-19)
(2.80234535012 110.082303267 1.05268681618e-18)
(9.20103732554 131.504369405 8.29003041993e-18)
(21.5515143608 158.927009674 1.58646960061e-17)
(38.0509435984 194.771325584 6.86870363315e-18)
(65.6574986903 243.180572378 2.89103993591e-17)
(117.09288862 256.936341565 -1.64905641005e-16)
(168.013823239 151.157903749 -8.2498404052e-16)
(-0.0457360278599 0.502343249844 3.4662055968e-19)
(0.229480985328 0.983559146102 -3.09636218893e-19)
(-17.0989808444 92.3928745368 1.1463193924e-18)
(-18.3160436864 112.284342519 -4.22984376254e-21)
(-18.3705881505 136.922339961 -2.00077609712e-18)
(-15.5458673612 166.615800485 8.4987688632e-18)
(-10.6247110983 211.612253708 -4.04201214996e-18)
(2.68362083674 286.462403245 -7.9847596795e-17)
(9.88824198015 372.370542128 -1.94184377055e-16)
(26.5289921945 214.875535744 -1.47653379856e-16)
(-0.114331085009 0.676862143627 -2.62127922686e-19)
(0.286905056398 0.919437865155 -2.99636599184e-19)
(-35.8294816838 88.7784223478 -4.4530935162e-19)
(-41.2741622789 109.657690934 -4.05251298109e-19)
(-45.4148437455 135.628587647 -7.0223329495e-19)
(-49.3514427011 167.241938781 5.32092972341e-18)
(-53.9017903828 202.544350388 1.8592081557e-17)
(-61.9755376397 246.428593473 3.70395471592e-18)
(-120.250038314 389.608304331 -6.38614578946e-17)
(-106.525388612 243.211799095 5.48825148651e-17)
(-0.289147654544 0.529626241188 1.24923398308e-19)
(0.213552834471 1.33602280801 -5.12748764942e-19)
(-54.4734238692 80.906911698 1.71378317495e-18)
(-64.1013368606 101.352958728 7.77467178451e-19)
(-73.284485859 125.635224478 5.14827413806e-18)
(-81.7754225702 152.404799036 2.42650181681e-18)
(-89.3354172 181.182480258 -4.59308768734e-18)
(-107.677623583 222.086464778 1.09278718791e-17)
(-197.306578569 326.261061566 6.6555232437e-17)
(-237.139270162 202.338031211 2.52097095529e-18)
(-2.86773620757 1.14997470528 -1.61760768447e-18)
(-0.382439907759 0.356451000663 2.11705172761e-20)
(-73.0790580166 69.7120214116 -5.28106929326e-19)
(-88.3898052555 91.0920377867 1.91739079653e-18)
(-104.623985306 119.690505545 1.09849321052e-18)
(-122.037546424 155.565981902 1.47641156652e-18)
(-144.340165107 199.147541746 -8.51135095927e-18)
(-167.741666471 241.08571989 -1.21585789674e-17)
(-139.308971778 254.360462108 4.94394167789e-17)
(-35.0870424833 113.542141946 1.36935635281e-16)
(-4.23576414538 -0.868386094648 1.16856126562e-18)
(-0.320738706987 -2.18100627781 1.2220651609e-19)
(-90.176168406 52.6868017939 1.36418222229e-19)
(-111.2971378 70.9964270354 1.35140103802e-18)
(-135.074722555 94.4527848583 5.42648050989e-18)
(-164.421685316 123.14862873 -7.53840856826e-19)
(-201.330098315 160.846337056 5.52664701042e-18)
(-236.813583049 219.417563899 -3.50583760869e-17)
(-124.175031185 348.39121913 -2.20869391573e-17)
(102.147462843 234.536410927 -6.00973228506e-17)
(0.180820134841 0.788995431653 -4.49975221528e-20)
(-0.0535511266296 1.65011151042 2.4395721325e-19)
)
;

boundaryField
{
    back
    {
        type            calculated;
        value           uniform (0 0 0);
    }
    sides
    {
        type            calculated;
        value           nonuniform List<vector> 0();
    }
    bottom
    {
        type            calculated;
        value           nonuniform List<vector> 0();
    }
    front
    {
        type            calculated;
        value           uniform (0 0 0);
    }
    atmosphere
    {
        type            calculated;
        value           nonuniform List<vector> 
16
(
(3.69490824327e-05 0.313674311477 1.20828210202e-23)
(0.0347940929538 0.510120649289 -4.40720976474e-19)
(-0.0401700780281 0.160778776421 8.67275944098e-21)
(0.00203831930548 0.282571506386 1.26235744667e-21)
(-9.93384085678e-26 0.453904640902 -1.70420198901e-45)
(4.19362028149e-23 0.418830546071 1.27117738703e-41)
(-4.0952216559e-28 0.246349395485 4.62472412753e-48)
(2.07383182793e-31 -0.0622691354291 -2.15770294712e-51)
(-0.360192429708 -0.456590651012 -5.82229868434e-20)
(2.21420012036 -0.163987894483 -5.4923237235e-18)
(1.36944417622e-06 0.983559146102 -2.08595517078e-23)
(-0.00495326704323 0.919437865155 4.48723608034e-20)
(-0.122306625295 1.33602280801 -1.90433088823e-19)
(-0.449321306006 0.356451000663 5.08487314969e-20)
(-0.320371156115 -2.18100627781 1.22305642652e-19)
(3.56977439136e-07 1.65011151042 -3.98846254257e-24)
)
;
    }
    floatingObject
    {
        type            calculated;
        value           nonuniform List<vector> 0();
    }
    procBoundary5to0
    {
        type            processor;
        value           nonuniform List<vector> 
12
(
(82.8358826596 31.0408371484 7.85695511304e-21)
(86.8947077774 33.7706467932 -3.88722217251e-20)
(91.7688423478 35.8277480716 1.11236318345e-19)
(97.6230316608 36.880352542 -1.54409339266e-19)
(104.761142477 36.3968601736 -2.29026758465e-21)
(113.809035245 33.5864004255 -1.28569837642e-18)
(125.52958715 27.9618895296 6.43766902131e-19)
(140.76203468 16.485414653 4.52089289333e-19)
(165.097250358 -1.8702877277 6.08087575447e-18)
(98.9468841155 -3.75964825142 -1.39488528997e-17)
(5.22411899137 0.0629668442385 -3.99380342107e-19)
(0.156485611748 -0.0478762243694 2.48653840494e-20)
)
;
    }
    procBoundary5to3
    {
        type            processor;
        value           nonuniform List<vector> 10((-104.014122951 30.3566745106 1.49132256507e-18) (-130.868469363 44.7129535171 8.9727983415e-19) (-161.358768461 66.2797752649 -5.86987198422e-19) (-196.523508295 95.535349766 7.17469995249e-20) (-240.686231243 142.27050094 -2.70853450223e-18) (-292.903945104 215.794036659 -3.20614810934e-17) (-292.847863141 308.627831606 -4.80666918301e-17) (-41.9415643923 224.421401386 7.42695550623e-17) (-0.256333597169 0.776995901755 7.88879608669e-21) (-0.443966045073 1.36969470472 7.22085449687e-20));
    }
    procBoundary5to4
    {
        type            processor;
        value           nonuniform List<vector> 
18
(
(75.777466568 31.1744266129 1.85953864605e-20)
(71.5113410275 34.6836906334 6.69020398837e-21)
(70.3333259686 43.6997116436 1.29046031511e-21)
(75.1106331547 49.3146043111 -1.77762533789e-20)
(75.1106331547 49.3146043111 -1.77762533789e-20)
(68.8992699587 54.557019178 -2.97047381421e-20)
(61.6770335499 59.3695110498 -7.38748196353e-20)
(53.6209465832 63.6376754046 1.06480469052e-20)
(44.8423019654 67.4565098517 2.86190483937e-20)
(35.2884017771 70.8778966255 -1.88437112154e-19)
(24.7702513795 73.7831903493 -1.78338479515e-20)
(13.0547674107 76.005291686 -1.09954485369e-19)
(-0.185954701436 77.1651124723 5.7306530909e-20)
(-14.7707354829 76.0181274458 3.25593119364e-19)
(-30.0442276892 71.9163171087 9.54193503463e-20)
(-45.1310094731 64.5288467514 2.63300862975e-19)
(-59.5215948246 53.9821144964 2.23187178178e-19)
(-72.2039402521 39.4803461214 -1.0658643324e-19)
)
;
    }
}


// ************************************************************************* //
