/*--------------------------------*- C++ -*----------------------------------*\
| =========                 |                                                 |
| \\      /  F ield         | OpenFOAM: The Open Source CFD Toolbox           |
|  \\    /   O peration     | Version:  v2012                                 |
|   \\  /    A nd           | Website:  www.openfoam.com                      |
|    \\/     M anipulation  |                                                 |
\*---------------------------------------------------------------------------*/
FoamFile
{
    version     2.0;
    format      ascii;
    class       volVectorField;
    location    "2.3";
    object      ddtCorrDdt0(U);
}
// * * * * * * * * * * * * * * * * * * * * * * * * * * * * * * * * * * * * * //

dimensions      [0 1 -2 0 0 0 0];


internalField   nonuniform List<vector> 
164
(
(0.0796615657636 0.0350942645675 3.41207032307e-25)
(0.0841983860393 0.038665024663 2.73550126423e-23)
(0.0897843301833 0.0417998291609 6.96331993973e-23)
(0.0966872160243 0.0442533144502 -2.87578354377e-23)
(0.105436293187 0.0457567493886 7.98917725517e-22)
(0.116886804614 0.0456506360332 3.02388650383e-22)
(0.132427877317 0.0432083670996 8.06154312885e-22)
(0.153499293225 0.0370076752224 1.6316309476e-21)
(0.188986712234 0.014713534732 -2.68099545641e-21)
(0.244287507668 -0.00743263357588 4.5697992884e-22)
(0.630370811453 -0.014865147494 6.18829230215e-20)
(0.204168824823 0.313674311487 6.17147920885e-20)
(0.0755175659758 0.0393871432174 -2.28556933125e-25)
(0.0803192852533 0.0439649563519 -6.52517828774e-23)
(0.0862468013095 0.0484015444855 1.45572292211e-22)
(0.0937126971347 0.0526468121466 -3.77139412983e-24)
(0.103311510988 0.0567303681831 2.81229338923e-22)
(0.116014738439 0.0604047226574 -6.11279467365e-22)
(0.13404376714 0.0631722391083 -3.88301421737e-22)
(0.160436765626 0.0668290530351 -8.5645060252e-22)
(0.207123949524 0.0483068187282 -3.22423454768e-24)
(0.25078691011 0.0219377933463 -4.72648701274e-20)
(0.339640257203 0.0558262977614 -6.47193811415e-20)
(0.0347940929479 0.510120649314 -4.40720976548e-19)
(0.0811477059803 0.055217296072 2.20078439328e-23)
(0.0885212306424 0.0613830235687 2.00433118287e-23)
(0.0978511544058 0.0681414229291 1.16683895344e-22)
(0.110119987023 0.0762528874441 -1.76181724056e-22)
(0.127164685755 0.0860391970436 4.89748373076e-22)
(0.153669582756 0.106631100483 -1.60194876708e-21)
(0.200239198868 0.107104860709 -1.64838986206e-21)
(0.239225861222 0.0925349435459 -3.79734221463e-21)
(0.157701270529 0.181900664013 3.13033939739e-20)
(-0.0401700778794 0.160778776323 8.67275955539e-21)
(0.0745667416942 0.0616919907175 1.11047027697e-22)
(0.0812943063583 0.0694009072284 -9.1969442776e-23)
(0.0894129690635 0.0784038320788 1.92918889723e-22)
(0.0993902997768 0.0896284144296 -3.78982467946e-22)
(0.112012684218 0.105018489598 -2.10175853195e-21)
(0.129543071469 0.13882442552 -1.30188038071e-21)
(0.159151891032 0.158120340609 -1.07491952414e-20)
(0.201471925655 0.16212313968 1.70095986308e-20)
(0.155294406109 0.27201624899 2.38671520779e-20)
(0.146049484717 0.282571506386 6.52662755018e-22)
(0.0667687912555 0.0674729475664 9.94892091254e-23)
(0.0726038495069 0.0762202960208 5.07437102477e-23)
(0.0791451675044 0.0862065637926 -1.36600582594e-22)
(0.0860829349356 0.0983869875157 -1.51269295096e-21)
(0.0937462366632 0.113876840272 -5.88916069879e-21)
(0.100388435918 0.149265144357 1.25925304235e-20)
(0.100340361179 0.183885872541 -1.23540142678e-20)
(0.113892929971 0.207000458344 -6.4321842414e-20)
(0.125355710197 0.29677687377 -3.83905447805e-20)
(0.125664499735 0.453904640902 -1.55302871095e-20)
(0.058150162013 0.0724632535019 6.70280268341e-23)
(0.0631943409212 0.0816960211645 1.68862166219e-22)
(0.0684356566897 0.0915847018641 -3.07876845906e-22)
(0.0731636998147 0.102494440242 -1.41679786495e-21)
(0.0771507778758 0.113510377196 -3.76415391955e-21)
(0.079427114054 0.133832033274 -5.09616032266e-21)
(0.0563581376363 0.170425403934 8.22339750074e-21)
(0.00458327053075 0.200670105044 2.79768809213e-20)
(0.080967966968 0.215410873694 4.00513570404e-20)
(0.0550448084433 0.418830546071 3.49839640423e-20)
(0.0489521770397 0.0768928996178 5.7306129549e-23)
(0.0536856966356 0.0863796146007 -1.90936272799e-22)
(0.0587169683254 0.0956270262609 -2.20796847127e-22)
(0.0633732575117 0.103678956521 -1.8840656501e-21)
(0.068211551783 0.107902982925 -6.37594097689e-22)
(0.0735062511762 0.105296777449 9.55628301476e-22)
(0.0473213822724 0.109193257104 2.55493780948e-20)
(-0.0491537278651 0.12583993058 1.9581711423e-20)
(0.0586037149312 0.0660653527133 2.96788632484e-20)
(-0.0645641106367 0.246349395485 -2.98726463605e-20)
(0.039033476996 0.081222984496 -3.43630319048e-23)
(0.0439131109769 0.0915531092357 -7.93384874674e-22)
(0.0500709202556 0.101062838708 -1.44561229929e-21)
(0.0581193698162 0.107629658226 -8.67766397041e-22)
(0.0723417965223 0.106425167658 1.37654596272e-20)
(0.0953477582382 0.0835913295012 7.62922797826e-20)
(0.0877183605766 0.0443190775994 1.42305299753e-19)
(0.0118537240415 0.016341859857 2.21788427128e-19)
(0.010067175461 -0.175012533856 2.1322611349e-19)
(-0.21762894721 -0.0622691354291 2.77475519515e-20)
(0.0280504418576 0.0854543326532 -5.04780549715e-22)
(0.0330107521834 0.0975349252905 -4.72229016587e-22)
(0.0406009807209 0.109257056468 1.45211650311e-22)
(0.0531905328005 0.118983484023 1.30976807351e-20)
(0.0754577378988 0.123655457127 6.84404225328e-20)
(0.115483249494 0.114379946113 2.40959195917e-19)
(0.137526115026 0.082384488705 3.08784267254e-19)
(0.161593721111 0.0409488418987 4.90861530776e-19)
(0.000904555242325 -0.0966836652502 4.65362947698e-19)
(-0.360191232904 -0.456590654433 -5.82215349585e-20)
(0.0154590725278 0.089169425177 2.44072938142e-22)
(0.0200699545457 0.103424954223 -2.2859206058e-23)
(0.0284729116325 0.118474157011 6.21758412712e-21)
(0.0439605057714 0.133921804766 2.60893965265e-20)
(0.0684556862581 0.154241642325 1.05580040124e-19)
(0.103303214446 0.181383440253 2.20341069485e-19)
(0.155228565822 0.181249144914 1.50494370265e-19)
(0.307860982225 0.138655192424 -9.30436536101e-20)
(0.136013448758 0.267634105324 -8.82107320862e-20)
(0.462069428739 -0.163987894534 -1.71622378453e-18)
(0.000306221406548 0.0924406170026 4.50723172914e-22)
(0.00280704976054 0.110280770132 1.05458449313e-21)
(0.00921732482945 0.131741499996 8.30499007184e-21)
(0.0215901112804 0.159213643182 1.5893363856e-20)
(0.0381193072979 0.195122584151 6.88131667873e-21)
(0.065775685433 0.243619156945 2.89632610162e-20)
(0.111351077939 0.254269511049 -1.25840224915e-19)
(0.248744239429 0.234990555855 -6.10864978382e-19)
(0.088053628218 0.666399502959 -5.99046733574e-19)
(0.229480985147 0.98355914529 -3.09636220506e-19)
(-0.0171304018974 0.0925594233876 1.14839345582e-21)
(-0.0183494429938 0.112486780008 -4.23544057463e-24)
(-0.0184040463651 0.137169245838 -2.00437906074e-21)
(-0.0155742225338 0.166916288981 8.51411101112e-21)
(-0.0106441875485 0.211993907825 -4.04924729746e-21)
(0.00268816522297 0.286979115196 -7.99914751216e-20)
(0.00476092212981 0.374354288254 -1.85370376498e-19)
(0.0230429986675 0.47150494686 -8.99856218387e-20)
(-0.114589459027 0.677114734584 -2.63336639914e-19)
(0.286905056398 0.919437865155 -2.99636599184e-19)
(-0.0358947356391 0.0889384291799 -4.46113902068e-22)
(-0.0413490071455 0.109855380531 -4.05985770863e-22)
(-0.045497173721 0.135873147081 -7.03510214973e-22)
(-0.0494408637832 0.167543553806 5.33050445196e-21)
(-0.0539993649549 0.202909661463 1.8625616019e-20)
(-0.0620876711688 0.246873121834 3.71065180705e-21)
(-0.124765289072 0.395649631641 -6.59247454138e-20)
(-0.248820871733 0.589479128554 1.55352027677e-19)
(-0.289229822413 0.529673350608 1.24648517995e-19)
(0.213552834471 1.33602280801 -5.12748764942e-19)
(-0.0545724977144 0.0810526547256 1.71688243493e-21)
(-0.0642175136845 0.101535646272 7.78869878683e-22)
(-0.0734172401681 0.125861770705 5.15757675407e-21)
(-0.0819234433752 0.152679697811 2.4309005209e-21)
(-0.0894969519253 0.181509262134 -4.60134637874e-21)
(-0.107872324752 0.222487093325 1.09475699564e-20)
(-0.202230435501 0.333399032972 6.77226515045e-20)
(-0.467064432307 0.453066971123 1.0590652842e-19)
(-0.427306096064 0.0567897846165 2.4267461969e-19)
(-0.38243990776 0.356451000659 2.11705172761e-20)
(-0.073212189787 0.0698374125444 -5.29056977699e-22)
(-0.0885499440235 0.0912562141257 1.9208479979e-21)
(-0.104813449421 0.119906381445 1.10048392641e-21)
(-0.12225833738 0.15584664811 1.47908625051e-21)
(-0.144601044396 0.199506809374 -8.52668613838e-21)
(-0.16804491322 0.241520695927 -1.21804427779e-20)
(-0.141552690044 0.26116896069 5.06928779564e-20)
(0.0121917268645 0.241475076372 2.82219631741e-19)
(-0.0326277006509 -0.577432154294 1.12357626109e-19)
(-0.320738435996 -2.18102321562 1.22204387113e-19)
(-0.0903399143595 0.0527815328962 1.36668656935e-22)
(-0.111498865845 0.071124252485 1.35384681352e-21)
(-0.13531980932 0.0946228411339 5.43631887939e-21)
(-0.164719453881 0.123370804832 -7.55199253555e-22)
(-0.201694102259 0.161136628983 5.53665239488e-21)
(-0.237241822651 0.219813587494 -3.51215805226e-20)
(-0.131709561299 0.350052914244 -2.04403508973e-20)
(0.0944568576959 0.500096384771 -8.11823150576e-20)
(0.174621581216 0.786203579273 -4.41735989715e-20)
(-0.0535512616946 1.65011157747 2.43957438856e-19)
)
;

boundaryField
{
    back
    {
        type            calculated;
        value           uniform (0 0 0);
    }
    sides
    {
        type            calculated;
        value           nonuniform List<vector> 0();
    }
    bottom
    {
        type            calculated;
        value           nonuniform List<vector> 0();
    }
    front
    {
        type            calculated;
        value           uniform (0 0 0);
    }
    atmosphere
    {
        type            calculated;
        value           nonuniform List<vector> 
16
(
(3.69491426862e-05 0.313674311487 1.20828006209e-23)
(0.0347940929753 0.510120649314 -4.40720976476e-19)
(-0.0401700779625 0.160778776323 8.67275948715e-21)
(0.00203831930448 0.282571506386 1.26235744593e-21)
(-1.19684684743e-25 0.453904640902 -1.97622282484e-45)
(3.64613428957e-23 0.418830546071 1.08939399001e-41)
(-4.0952216559e-28 0.246349395485 4.62472412753e-48)
(2.07383182793e-31 -0.0622691354291 -2.15770294712e-51)
(-0.360192432544 -0.456590654433 -5.82229867656e-20)
(2.214200119 -0.163987894534 -5.49232372015e-18)
(1.36926387785e-06 0.98355914529 -2.0861165545e-23)
(-0.00495326704323 0.919437865155 4.48723608034e-20)
(-0.122306625296 1.33602280801 -1.90433088823e-19)
(-0.449321306007 0.356451000659 5.08487314969e-20)
(-0.320370885124 -2.18102321562 1.22303513674e-19)
(2.21912499715e-07 1.65011157747 -3.76285663648e-24)
)
;
    }
    floatingObject
    {
        type            calculated;
        value           nonuniform List<vector> 0();
    }
    procBoundary5to0
    {
        type            processor;
        value           nonuniform List<vector> 
12
(
(0.082985316045 0.0310967832733 7.87114540941e-24)
(0.0870514903167 0.0338315229489 -3.89423013505e-23)
(0.0919344487257 0.0358923359654 1.11436948547e-22)
(0.0977992068801 0.0369468438379 -1.54687862486e-22)
(0.104950195709 0.0364624881446 -2.2945306884e-24)
(0.114014460605 0.0336469651222 -1.28801852434e-21)
(0.125756098809 0.0280123015899 6.44928222935e-22)
(0.14101596595 0.0165151273449 4.52906608828e-22)
(0.165394729479 -0.00187361748984 6.09182483885e-21)
(0.219890398245 -0.0157251499339 -1.84128861743e-20)
(0.679384677276 -0.0354671306485 -8.7414287021e-21)
(0.156485612059 -0.0478762308104 2.48653837711e-20)
)
;
    }
    procBoundary5to3
    {
        type            processor;
        value           nonuniform List<vector> 10((-0.104202809263 0.030411012685 1.4940222136e-21) (-0.131106298057 0.0447929423333 8.98902673588e-22) (-0.161651128604 0.0663993570632 -5.88049215222e-22) (-0.196879563478 0.0957078296398 7.18789806073e-23) (-0.241119729474 0.142528677971 -2.71344298486e-21) (-0.29343258207 0.216184159622 -3.21194099604e-20) (-0.304332681806 0.306108135933 -4.71221877194e-20) (-0.382858960235 0.341315440378 1.90544133279e-19) (-0.306704151929 0.743335922678 2.38003758411e-21) (-0.443966045073 1.36969470472 7.22085449687e-20));
    }
    procBoundary5to4
    {
        type            processor;
        value           nonuniform List<vector> 
18
(
(0.0759141102744 0.0312306182768 1.8628913811e-23)
(0.0716402288098 0.0347462193909 6.70226399686e-24)
(0.0704600077737 0.0437785030626 1.29283368602e-24)
(0.0752459261996 0.0494035315212 -1.78082589815e-23)
(0.0752459261996 0.0494035315212 -1.78082589815e-23)
(0.0690233496392 0.0546553948952 -2.97582293914e-23)
(0.0617880762333 0.0594765632346 -7.4007947624e-23)
(0.0537174631554 0.0637524225847 1.06672609212e-23)
(0.0449229646353 0.0675781407139 2.86707072096e-23)
(0.0353518033357 0.0710056926415 -1.88776916414e-22)
(0.0248146522221 0.0739162211561 -1.78658164526e-23)
(0.0130779982698 0.0761423228968 -1.1015229416e-22)
(-0.000186645682987 0.0773042254277 5.74099444481e-23)
(-0.0147977574333 0.0761551621211 3.26181185971e-22)
(-0.0300988545329 0.072045926962 9.55922267332e-23)
(-0.0452129753301 0.0646450882449 2.63777066181e-22)
(-0.0596296411383 0.054079268661 2.23591814002e-22)
(-0.0723350879227 0.0395511969524 -1.06777450403e-22)
)
;
    }
}


// ************************************************************************* //
