/*--------------------------------*- C++ -*----------------------------------*\
| =========                 |                                                 |
| \\      /  F ield         | OpenFOAM: The Open Source CFD Toolbox           |
|  \\    /   O peration     | Version:  v2012                                 |
|   \\  /    A nd           | Website:  www.openfoam.com                      |
|    \\/     M anipulation  |                                                 |
\*---------------------------------------------------------------------------*/
FoamFile
{
    version     2.0;
    format      ascii;
    class       volScalarField;
    location    "2.3";
    object      k;
}
// * * * * * * * * * * * * * * * * * * * * * * * * * * * * * * * * * * * * * //

dimensions      [0 2 -2 0 0 0 0];


internalField   nonuniform List<scalar> 
164
(
0.00697655250256
0.00699342544352
0.00701421995038
0.00704507769764
0.00710626019719
0.00725705220317
0.0076574511689
0.00871322130002
0.0112971678135
0.016810729853
0.030674449565
0.0699288090332
0.00698352614799
0.00700095904646
0.00702214582364
0.00705273590357
0.00711180848272
0.0072570217651
0.00764988266213
0.00871311712568
0.0113460326018
0.0165747354423
0.0242109865334
0.0334058001133
0.00702969809848
0.00706039402759
0.00711816302572
0.00726007494752
0.00765334725466
0.00876403776424
0.0116464223929
0.0174931030435
0.0262322546259
0.0372071266589
0.00703685170335
0.00706804006059
0.00712518098488
0.00726472746404
0.00765869902551
0.00881637045195
0.0120464487591
0.0195428359325
0.0344378842471
0.0709351490021
0.00704354239996
0.00707558715362
0.00713263155829
0.007270262191
0.0076640251095
0.00886533890109
0.0124796677953
0.0216415365934
0.0396063381779
0.0754906570538
0.00704966465196
0.00708295935763
0.00714077679745
0.00727924536762
0.00768262451377
0.00894918344744
0.0128438996241
0.0226443756821
0.0411514652116
0.0762683509274
0.00705503840859
0.00709008948988
0.00715042819525
0.00729783498843
0.00774397045361
0.00915136454405
0.0132288979014
0.0227595961822
0.040668239291
0.0758692868205
0.00705953671209
0.00709701520139
0.00716317306487
0.00733694885282
0.00789534888281
0.00959038576235
0.0137681197003
0.0220158380294
0.0375531164682
0.0726374978604
0.0070629922686
0.00710368678756
0.00718012617415
0.00740202570128
0.00814332562557
0.0102348287815
0.014558858139
0.0215180063406
0.031969646052
0.0451589545401
0.00706512358815
0.0071099597876
0.00720155799073
0.00748604538869
0.00841934107912
0.010892999529
0.0159117082417
0.024758458511
0.0385652053164
0.0617813521603
0.00706556792225
0.00711443457707
0.00721995350458
0.00755446066925
0.00860737095206
0.0112980219319
0.0171153643502
0.0292774395636
0.0490482467772
0.0783661386074
0.00706315289124
0.00711000577827
0.00719813761464
0.00746326959911
0.00837653738785
0.0110823256953
0.0172812107695
0.0280346228341
0.0438367530719
0.0755370563711
0.00705999001252
0.00710702403681
0.00718742355697
0.00741981036698
0.00827622606433
0.0110696813347
0.017706111016
0.0286490782491
0.043222339903
0.0672741726939
0.00705589103086
0.00710591555814
0.00719612236943
0.00748293123786
0.00856290664486
0.0118081541943
0.0184617681281
0.0287693886055
0.0412667719608
0.0578072366805
0.00705051669938
0.0071049279904
0.00721442533906
0.00760012422399
0.00899829102557
0.0125977070765
0.0188941119935
0.0288193428779
0.0404913249612
0.0551577036756
0.00704256801901
0.00709345237295
0.00716871563902
0.00736675944513
0.00811051888409
0.0106550833159
0.0172627818557
0.0299236364606
0.0466509500188
0.0761817177605
)
;

boundaryField
{
    back
    {
        type            kqRWallFunction;
        value           nonuniform List<scalar> 
164
(
0.00697655250256
0.00699342544352
0.00701421995038
0.00704507769764
0.00710626019719
0.00725705220317
0.0076574511689
0.00871322130002
0.0112971678135
0.016810729853
0.030674449565
0.0699288090332
0.00698352614799
0.00700095904646
0.00702214582364
0.00705273590357
0.00711180848272
0.0072570217651
0.00764988266213
0.00871311712568
0.0113460326018
0.0165747354423
0.0242109865334
0.0334058001133
0.00702969809848
0.00706039402759
0.00711816302572
0.00726007494752
0.00765334725466
0.00876403776424
0.0116464223929
0.0174931030435
0.0262322546259
0.0372071266589
0.00703685170335
0.00706804006059
0.00712518098488
0.00726472746404
0.00765869902551
0.00881637045195
0.0120464487591
0.0195428359325
0.0344378842471
0.0709351490021
0.00704354239996
0.00707558715362
0.00713263155829
0.007270262191
0.0076640251095
0.00886533890109
0.0124796677953
0.0216415365934
0.0396063381779
0.0754906570538
0.00704966465196
0.00708295935763
0.00714077679745
0.00727924536762
0.00768262451377
0.00894918344744
0.0128438996241
0.0226443756821
0.0411514652116
0.0762683509274
0.00705503840859
0.00709008948988
0.00715042819525
0.00729783498843
0.00774397045361
0.00915136454405
0.0132288979014
0.0227595961822
0.040668239291
0.0758692868205
0.00705953671209
0.00709701520139
0.00716317306487
0.00733694885282
0.00789534888281
0.00959038576235
0.0137681197003
0.0220158380294
0.0375531164682
0.0726374978604
0.0070629922686
0.00710368678756
0.00718012617415
0.00740202570128
0.00814332562557
0.0102348287815
0.014558858139
0.0215180063406
0.031969646052
0.0451589545401
0.00706512358815
0.0071099597876
0.00720155799073
0.00748604538869
0.00841934107912
0.010892999529
0.0159117082417
0.024758458511
0.0385652053164
0.0617813521603
0.00706556792225
0.00711443457707
0.00721995350458
0.00755446066925
0.00860737095206
0.0112980219319
0.0171153643502
0.0292774395636
0.0490482467772
0.0783661386074
0.00706315289124
0.00711000577827
0.00719813761464
0.00746326959911
0.00837653738785
0.0110823256953
0.0172812107695
0.0280346228341
0.0438367530719
0.0755370563711
0.00705999001252
0.00710702403681
0.00718742355697
0.00741981036698
0.00827622606433
0.0110696813347
0.017706111016
0.0286490782491
0.043222339903
0.0672741726939
0.00705589103086
0.00710591555814
0.00719612236943
0.00748293123786
0.00856290664486
0.0118081541943
0.0184617681281
0.0287693886055
0.0412667719608
0.0578072366805
0.00705051669938
0.0071049279904
0.00721442533906
0.00760012422399
0.00899829102557
0.0125977070765
0.0188941119935
0.0288193428779
0.0404913249612
0.0551577036756
0.00704256801901
0.00709345237295
0.00716871563902
0.00736675944513
0.00811051888409
0.0106550833159
0.0172627818557
0.0299236364606
0.0466509500188
0.0761817177605
)
;
    }
    sides
    {
        type            kqRWallFunction;
        value           nonuniform List<scalar> 0();
    }
    bottom
    {
        type            kqRWallFunction;
        value           nonuniform List<scalar> 0();
    }
    front
    {
        type            kqRWallFunction;
        value           nonuniform List<scalar> 
164
(
0.00697655250256
0.00699342544352
0.00701421995038
0.00704507769764
0.00710626019719
0.00725705220317
0.0076574511689
0.00871322130002
0.0112971678135
0.016810729853
0.030674449565
0.0699288090332
0.00698352614799
0.00700095904646
0.00702214582364
0.00705273590357
0.00711180848272
0.0072570217651
0.00764988266213
0.00871311712568
0.0113460326018
0.0165747354423
0.0242109865334
0.0334058001133
0.00702969809848
0.00706039402759
0.00711816302572
0.00726007494752
0.00765334725466
0.00876403776424
0.0116464223929
0.0174931030435
0.0262322546259
0.0372071266589
0.00703685170335
0.00706804006059
0.00712518098488
0.00726472746404
0.00765869902551
0.00881637045195
0.0120464487591
0.0195428359325
0.0344378842471
0.0709351490021
0.00704354239996
0.00707558715362
0.00713263155829
0.007270262191
0.0076640251095
0.00886533890109
0.0124796677953
0.0216415365934
0.0396063381779
0.0754906570538
0.00704966465196
0.00708295935763
0.00714077679745
0.00727924536762
0.00768262451377
0.00894918344744
0.0128438996241
0.0226443756821
0.0411514652116
0.0762683509274
0.00705503840859
0.00709008948988
0.00715042819525
0.00729783498843
0.00774397045361
0.00915136454405
0.0132288979014
0.0227595961822
0.040668239291
0.0758692868205
0.00705953671209
0.00709701520139
0.00716317306487
0.00733694885282
0.00789534888281
0.00959038576235
0.0137681197003
0.0220158380294
0.0375531164682
0.0726374978604
0.0070629922686
0.00710368678756
0.00718012617415
0.00740202570128
0.00814332562557
0.0102348287815
0.014558858139
0.0215180063406
0.031969646052
0.0451589545401
0.00706512358815
0.0071099597876
0.00720155799073
0.00748604538869
0.00841934107912
0.010892999529
0.0159117082417
0.024758458511
0.0385652053164
0.0617813521603
0.00706556792225
0.00711443457707
0.00721995350458
0.00755446066925
0.00860737095206
0.0112980219319
0.0171153643502
0.0292774395636
0.0490482467772
0.0783661386074
0.00706315289124
0.00711000577827
0.00719813761464
0.00746326959911
0.00837653738785
0.0110823256953
0.0172812107695
0.0280346228341
0.0438367530719
0.0755370563711
0.00705999001252
0.00710702403681
0.00718742355697
0.00741981036698
0.00827622606433
0.0110696813347
0.017706111016
0.0286490782491
0.043222339903
0.0672741726939
0.00705589103086
0.00710591555814
0.00719612236943
0.00748293123786
0.00856290664486
0.0118081541943
0.0184617681281
0.0287693886055
0.0412667719608
0.0578072366805
0.00705051669938
0.0071049279904
0.00721442533906
0.00760012422399
0.00899829102557
0.0125977070765
0.0188941119935
0.0288193428779
0.0404913249612
0.0551577036756
0.00704256801901
0.00709345237295
0.00716871563902
0.00736675944513
0.00811051888409
0.0106550833159
0.0172627818557
0.0299236364606
0.0466509500188
0.0761817177605
)
;
    }
    atmosphere
    {
        type            inletOutlet;
        inletValue      uniform 0.1;
        value           nonuniform List<scalar> 
16
(
0.1
0.0334058001133
0.0372071266589
0.1
0.1
0.1
0.1
0.1
0.0451589545401
0.1
0.1
0.1
0.0672741726939
0.0578072366805
0.0551577036756
0.1
)
;
    }
    floatingObject
    {
        type            kqRWallFunction;
        value           nonuniform List<scalar> 0();
    }
    procBoundary5to0
    {
        type            processor;
        value           nonuniform List<scalar> 
12
(
0.00696887738262
0.00698533179953
0.00700591563108
0.00703732575322
0.00710113830641
0.00725868083366
0.00766998588462
0.00873372996328
0.0113274623423
0.0169512715913
0.0309308174448
0.0721609456532
)
;
    }
    procBoundary5to3
    {
        type            processor;
        value           nonuniform List<scalar> 10(0.00703489317456 0.00708668589698 0.00715254596376 0.00729035560765 0.00779606265329 0.00983121306896 0.0164778730171 0.0308163981634 0.0505477634493 0.0796208870409);
    }
    procBoundary5to4
    {
        type            processor;
        value           nonuniform List<scalar> 
18
(
0.00696189655873
0.00696833977235
0.00698974439203
0.00700789238439
0.00700789238439
0.00701418702878
0.00701977014929
0.00702453284083
0.0070283272008
0.00703100528207
0.00703240860418
0.007032358597
0.00703065565944
0.00702710281098
0.00702218581674
0.00701579439049
0.0070078794224
0.00699832331342
)
;
    }
}


// ************************************************************************* //
