/*--------------------------------*- C++ -*----------------------------------*\
| =========                 |                                                 |
| \\      /  F ield         | OpenFOAM: The Open Source CFD Toolbox           |
|  \\    /   O peration     | Version:  v2012                                 |
|   \\  /    A nd           | Website:  www.openfoam.com                      |
|    \\/     M anipulation  |                                                 |
\*---------------------------------------------------------------------------*/
FoamFile
{
    version     2.0;
    format      ascii;
    class       volVectorField;
    location    "2.3";
    object      U;
}
// * * * * * * * * * * * * * * * * * * * * * * * * * * * * * * * * * * * * * //

dimensions      [0 1 -1 0 0 0 0];


internalField   nonuniform List<vector> 
164
(
(-0.0658048091213 0.00817955045817 1.31470811474e-24)
(-0.0682851695236 0.00932524787106 -1.04732183077e-23)
(-0.0711342807037 0.0104893776575 -2.4335038376e-23)
(-0.0743821829152 0.0116415939457 3.5865000658e-24)
(-0.0781131135329 0.0126984506249 5.69485133278e-23)
(-0.0824903111196 0.0135527443715 1.79761795682e-22)
(-0.087796948883 0.0141798053103 -7.25118700516e-23)
(-0.0937071141825 0.0133927521028 -1.99738671623e-21)
(-0.0993736725289 0.0121016884934 -4.94755770922e-21)
(-0.0935874552061 0.00798355538696 -7.97500760099e-21)
(0.012418842468 0.0030031009566 -7.92884269207e-21)
(0.000123962022152 -0.0278426903117 -4.47716295446e-21)
(-0.0667689943819 0.00585891466016 1.08670527321e-23)
(-0.0692772177762 0.00666595956937 1.16210199972e-23)
(-0.0721049269906 0.00747021170363 1.91767375034e-24)
(-0.0752898750717 0.00822638161409 3.52783980503e-23)
(-0.0788537148869 0.00884623276291 2.74491478221e-22)
(-0.0828527841735 0.00916364995456 6.50731355316e-22)
(-0.087440888398 0.0091817647949 -4.74292633551e-22)
(-0.0921560038121 0.0074068997507 -1.95028406265e-21)
(-0.0947790452083 0.00417729755547 -6.94003780122e-21)
(-0.0883591348852 -0.00363069554024 -8.03642150311e-21)
(-0.0158384448655 0.0035267399702 -6.71612234548e-21)
(-0.020195170014 0.118326321884 -5.7772069095e-20)
(-0.0727361233207 0.00451088209836 1.29681587286e-23)
(-0.0758336874579 0.00495988640818 6.7477658367e-23)
(-0.0791959826909 0.00531311301931 2.58625974271e-22)
(-0.0827998043414 0.00538229693963 4.21778387135e-22)
(-0.0864789410978 0.00519771135537 -6.66149048016e-22)
(-0.0897131099329 0.00357987124837 -3.39321946599e-21)
(-0.0892862506759 -0.000766345043878 -8.09625663664e-21)
(-0.0851681563977 -0.00982305509867 -7.1955481255e-21)
(-0.0766303108616 -0.00453117364791 -9.68406879227e-21)
(-0.0514584699869 0.0153898358023 -1.75029792269e-20)
(-0.0730911144548 0.00160314291259 8.83348740564e-24)
(-0.0761450808173 0.00183175681963 8.74948125523e-23)
(-0.0793938721646 0.00204131898496 3.86413988187e-22)
(-0.0827540398756 0.00219140536611 7.87956140446e-22)
(-0.085778008821 0.00229642751967 7.50734923833e-23)
(-0.0875563742619 0.00196926337311 -3.70206888742e-21)
(-0.0845151338826 -0.00258914151541 -8.58386971268e-21)
(-0.0791635511303 -0.0112588327657 -9.50779684231e-21)
(-0.0804396304042 -0.00627950914726 -9.57493846342e-21)
(-0.0375057256325 -0.0290003429467 -5.17930023931e-21)
(-0.0732160871306 -0.00130902246659 2.78777098779e-23)
(-0.0763110111975 -0.00128401964277 1.22164158785e-22)
(-0.079620107724 -0.00115913676924 3.89253016859e-22)
(-0.083029513957 -0.000839675311966 7.01051991932e-22)
(-0.0859787326724 -0.000208172088699 -1.08278861425e-21)
(-0.0867269605849 0.00128514853508 -3.90389165985e-21)
(-0.0804506536044 -0.00252438130095 -1.25297817853e-20)
(-0.0701444676582 -0.00972071456841 -3.64204925391e-20)
(-0.0719757701168 -0.00574610081549 -3.62123152578e-20)
(-0.0215058552824 -0.0442409545695 3.9250135768e-22)
(-0.0731072875538 -0.00429547477025 5.08706995995e-23)
(-0.0763083555096 -0.0045261863493 1.63674465343e-22)
(-0.0798437295671 -0.00457847540064 1.92701593881e-22)
(-0.0836848639294 -0.00424001612398 9.18736421844e-23)
(-0.0870609334951 -0.00321872271365 -2.21701605431e-21)
(-0.0871776920679 -0.000361655468009 -6.27346877027e-21)
(-0.0776147112648 -0.00349520662415 -5.45684237601e-21)
(-0.0615755988583 -0.00843958031491 -2.07153329815e-22)
(-0.0598083259207 -0.00459901549587 -5.55531166744e-22)
(-0.000327856992639 -0.0418840787904 -1.63760253691e-21)
(-0.0726575480248 -0.00738952574343 7.32608025513e-23)
(-0.0759695477128 -0.00800330544725 1.24966948344e-22)
(-0.0798008623735 -0.00850931416265 2.50699174395e-22)
(-0.0843463308697 -0.00868241339835 -2.0957041868e-22)
(-0.0887284823635 -0.00807777115455 -2.33935051706e-21)
(-0.0890451253919 -0.00569821587467 -1.15227640671e-20)
(-0.0762482962238 -0.00873448568994 4.78528071991e-22)
(-0.0570144212708 -0.0105686580723 2.66437858459e-20)
(-0.047619513437 -0.00678212898826 2.59325993196e-20)
(0.0171709852657 -0.0333812662353 1.84232679811e-21)
(-0.0718206613208 -0.0105274373911 -3.27679271824e-23)
(-0.0751230717309 -0.0116467445959 -1.63028091913e-22)
(-0.0790047313741 -0.0129177619003 -4.79263256655e-22)
(-0.0838006302384 -0.0144580505075 -1.39954587852e-21)
(-0.0885855430184 -0.0162184266019 -2.8568107434e-21)
(-0.0888988558861 -0.0182758602742 1.87175394121e-21)
(-0.0752828016759 -0.0244702584758 1.83480909565e-20)
(-0.055166464487 -0.0224395258078 1.30034710149e-20)
(-0.0366941622025 -0.020845232211 1.28342026348e-20)
(0.0230854757886 -0.00758977279226 5.50425644052e-21)
(-0.070641250843 -0.0135824464125 -1.89574124616e-22)
(-0.0737800963839 -0.015113305828 -2.84511945763e-22)
(-0.0772707996554 -0.0170284127287 -1.07082243233e-21)
(-0.0810892097593 -0.0198391538759 -7.69870418179e-22)
(-0.0837039742106 -0.0246599059573 5.50092425218e-21)
(-0.081120856835 -0.0329302309111 4.23186864875e-20)
(-0.0701388417457 -0.0427300432787 1.0919578628e-19)
(-0.0634828973011 -0.042814179823 1.58792905614e-19)
(-0.0511832698954 -0.0397656408277 1.59560919804e-19)
(0.00550134463055 0.0308653291416 7.15625133323e-20)
(-0.0690654011729 -0.0165228333756 -1.15513430454e-22)
(-0.0719289135824 -0.0182948268585 -1.06688667464e-22)
(-0.0748141819706 -0.0204792015302 -8.78938121705e-23)
(-0.07736968778 -0.023541257046 7.39823166896e-21)
(-0.0776385670689 -0.0290058924111 4.24422774799e-20)
(-0.0733944190835 -0.0377433379949 1.4192323558e-19)
(-0.0663810066458 -0.0476145130416 2.64244364416e-19)
(-0.0728045589637 -0.0482298143546 4.07677409528e-19)
(-0.0802728262053 -0.0493545853114 4.06269583002e-19)
(-0.071496805689 -0.0325106137471 1.5339902597e-19)
(-0.0672414343523 -0.0192596279914 3.75701029429e-23)
(-0.069783971268 -0.0211564254881 -2.44936485998e-22)
(-0.0720097703585 -0.0234268206423 1.04703695394e-21)
(-0.0734041307485 -0.0263155469248 1.13956337085e-20)
(-0.0723653181098 -0.029754308779 5.67247682977e-20)
(-0.0678577426943 -0.0317835367858 1.81042307883e-19)
(-0.0588588737866 -0.0381175591732 3.59850874366e-19)
(-0.0507305530077 -0.0389443323063 5.07259083057e-19)
(-0.0666339957164 -0.0486220986297 4.95187022429e-19)
(-0.0190434722189 -0.126727421876 7.40681735026e-20)
(-0.0655028945209 -0.0214996896387 6.10920043705e-22)
(-0.0679039520323 -0.0227893379257 3.86711027415e-22)
(-0.0697986902878 -0.0237771609008 1.43624312679e-21)
(-0.0706668288544 -0.0247260466904 2.10229472525e-21)
(-0.0702397413925 -0.0254868850184 1.31417856622e-20)
(-0.0691634306718 -0.0234110820668 4.07620417077e-20)
(-0.0605877655888 -0.0284972823505 1.27336376093e-19)
(-0.0350300471955 -0.0271857129448 2.18686594133e-19)
(-0.0600735569678 -0.0110221125247 2.07326123106e-19)
(0.0205148641815 -0.0289974941011 7.82098608654e-20)
(-0.0641385336226 -0.0241873852144 -9.60417508734e-23)
(-0.0671195801729 -0.0252883286992 -5.96542629484e-22)
(-0.0699279980692 -0.0257088954432 -1.77692893672e-21)
(-0.0720000336472 -0.0250402612186 -4.84860399686e-21)
(-0.0730409891691 -0.0226198664041 -1.77515752431e-21)
(-0.0722026890787 -0.0166068798459 2.99081986253e-21)
(-0.064073631136 -0.0138893623041 -2.52372386652e-20)
(-0.0446784673938 0.000682716276391 -1.01401899584e-19)
(-0.076481235422 0.0319668100577 -1.01045367063e-19)
(0.0206877284101 0.0711651337009 -2.40609332616e-20)
(-0.0626320956772 -0.0273911595347 4.55816560981e-22)
(-0.066208855698 -0.0286578216273 -5.8862501982e-23)
(-0.0700224936228 -0.029080003649 1.57944731695e-21)
(-0.0740803065403 -0.0281337366555 3.34641873313e-21)
(-0.0784500992547 -0.025996511168 6.31762926273e-21)
(-0.0823664550228 -0.0203254666241 -3.97188992321e-21)
(-0.0808935053106 -0.0092671981531 -4.27511212366e-20)
(-0.0793202874139 0.0167107105975 -8.84273733653e-20)
(-0.100689293499 0.0432263513394 -7.63773087548e-20)
(0.00882300214215 0.155887411212 3.98740631359e-21)
(-0.0607717745962 -0.031143403871 2.26842687185e-22)
(-0.0647812726544 -0.0329590712211 -5.23063998066e-22)
(-0.06892146948 -0.0342761057747 9.08223112029e-22)
(-0.0729454375971 -0.034604549577 1.4739022276e-21)
(-0.0780886291576 -0.0346945145809 5.48202126627e-21)
(-0.0895354720809 -0.0280571264458 1.48532693772e-20)
(-0.11192845729 -0.0120832008347 3.26335959136e-21)
(-0.141273279739 0.0134179455622 3.07842731528e-20)
(-0.11938747145 0.021271622554 2.65908647802e-20)
(-0.0768960548949 0.0323072023725 -5.41466100248e-21)
(-0.0586876987793 -0.0349559820206 3.13259708546e-22)
(-0.063296587728 -0.0364951945612 4.40763404946e-22)
(-0.0680571203144 -0.0367182797276 2.23177682427e-21)
(-0.0726298896697 -0.0350853966339 4.01991563306e-22)
(-0.0791195126626 -0.0333700917551 4.68129684677e-21)
(-0.0955148735302 -0.027575741726 1.5116106557e-20)
(-0.129247490728 -0.029055516161 3.69711092397e-20)
(-0.160314012442 -0.0245903011756 6.33824121095e-20)
(-0.102850279919 0.00386428000918 6.01945397267e-20)
(-0.0818036802192 0.00917321544187 1.67934557947e-20)
)
;

boundaryField
{
    back
    {
        type            noSlip;
    }
    sides
    {
        type            noSlip;
    }
    bottom
    {
        type            noSlip;
    }
    front
    {
        type            noSlip;
    }
    atmosphere
    {
        type            pressureInletOutletVelocity;
        value           nonuniform List<vector> 
16
(
(0 -0.0278426903117 0)
(-0.020195170014 0.118326321884 -5.7772069095e-20)
(-0.0514584699869 0.0153898358023 -1.75029792269e-20)
(0 -0.0290003429467 0)
(0 -0.0442409545695 0)
(0 -0.0418840787904 0)
(0 -0.0333812662353 0)
(0 -0.00758977279226 0)
(0.00550134463055 0.0308653291416 7.15625133323e-20)
(0 -0.0325106137471 0)
(0 -0.126727421876 0)
(0 -0.0289974941011 0)
(0.0206877284101 0.0711651337009 -2.40609332616e-20)
(0.00882300214215 0.155887411212 3.98740631359e-21)
(-0.0768960548949 0.0323072023725 -5.41466100248e-21)
(0 0.00917321544187 0)
)
;
    }
    floatingObject
    {
        type            movingWallVelocity;
        value           nonuniform List<vector> 0();
    }
    procBoundary5to0
    {
        type            processor;
        value           nonuniform List<vector> 
12
(
(-0.0645107256109 0.0104635020049 -1.7507442513e-23)
(-0.0669305506018 0.0119686515077 -8.4898445912e-24)
(-0.0697513608368 0.0135344209079 -2.01777939141e-23)
(-0.0730107787419 0.0151440477796 2.80753706458e-23)
(-0.0768091569162 0.0167688292904 1.08471704617e-22)
(-0.0813907742224 0.0183501091799 5.31445255738e-22)
(-0.0870906861719 0.0197878725204 -1.54569912621e-22)
(-0.0937732601414 0.0207126903725 -2.39316645965e-21)
(-0.101336519547 0.0206508690552 -7.43645330948e-21)
(-0.100978233073 0.0194228890326 -1.19446992112e-20)
(-0.0242627347021 0.0127221110989 -1.08499309217e-20)
(-0.0311223380121 -0.0505658544467 2.53744145442e-21)
)
;
    }
    procBoundary5to3
    {
        type            processor;
        value           nonuniform List<vector> 10((-0.0563568579081 -0.0398008063032 3.70923856957e-22) (-0.0620574348273 -0.0420726365423 4.96806727359e-23) (-0.0683498052673 -0.0433327832126 -2.52907159171e-23) (-0.0749014357332 -0.0432573417294 2.89934122249e-22) (-0.0839999737759 -0.0429719340022 4.76236176254e-22) (-0.101209000343 -0.0400319480861 6.30516852384e-22) (-0.128886458339 -0.0510969014249 1.50813151134e-20) (-0.149156141987 -0.0548927288765 2.07703386937e-20) (-0.109843318047 -0.0435989170631 1.80120574233e-20) (-0.0355300683205 -0.108814413657 -4.48852539756e-21));
    }
    procBoundary5to4
    {
        type            processor;
        value           nonuniform List<vector> 
18
(
(-0.063654944266 0.00707279304641 -9.46502444146e-24)
(-0.0645877284753 0.00506608029339 -1.75839771477e-24)
(-0.0674169091958 0.00351517016565 2.59008883961e-23)
(-0.0699318435786 0.00401619603712 2.35120351835e-23)
(-0.0699318435786 0.00401619603712 2.35120351835e-23)
(-0.0702922394474 0.00137443232569 3.21420221303e-23)
(-0.0703874583069 -0.00128060459459 3.44095316888e-23)
(-0.0702103937119 -0.00398418758418 4.78455936341e-24)
(-0.0697205299708 -0.00674695313824 1.59581417497e-23)
(-0.0689064742358 -0.00951243626115 1.43989995202e-23)
(-0.0677745079116 -0.0122436926067 4.8705177535e-23)
(-0.0663256867458 -0.0149487980226 1.11238515073e-22)
(-0.0646445398567 -0.0175338400627 5.68432583918e-24)
(-0.062906020137 -0.0199657430298 9.97863408029e-23)
(-0.0611946376282 -0.0226431836758 1.04908505401e-22)
(-0.059277989566 -0.0256496688012 1.11194646599e-22)
(-0.0570364404103 -0.0290194669804 1.60931255955e-22)
(-0.0544816028962 -0.0326325519987 1.06840550085e-22)
)
;
    }
}


// ************************************************************************* //
