/*--------------------------------*- C++ -*----------------------------------*\
| =========                 |                                                 |
| \\      /  F ield         | OpenFOAM: The Open Source CFD Toolbox           |
|  \\    /   O peration     | Version:  v2012                                 |
|   \\  /    A nd           | Website:  www.openfoam.com                      |
|    \\/     M anipulation  |                                                 |
\*---------------------------------------------------------------------------*/
FoamFile
{
    version     2.0;
    format      ascii;
    class       volScalarField;
    location    "5.5";
    object      alpha.water;
}
// * * * * * * * * * * * * * * * * * * * * * * * * * * * * * * * * * * * * * //

dimensions      [0 0 0 0 0 0 0];


internalField   nonuniform List<scalar> 
1984
(
0.999999026736
0.999998929737
0.999998749042
0.999998749042
0.999999293735
1.00000065556
1.00000212907
1.00000340734
1.00000478156
1.00000562443
1.00000737138
1.00000600735
1.00000099115
0.999998743457
0.999998762554
0.999998788068
0.94364644011
0.265132587965
1.94442589324e-22
-7.13435481557e-07
0.999998933204
0.99999876835
0.999998751944
0.999998757711
0.999999503276
1.00000076013
1.00000232556
1.00000397599
1.0000047743
1.00000634589
1.00000779266
1.0000051048
1.00000085606
0.9999988254
0.999998825769
0.999998818557
0.937730982381
0.273023160447
1.80700362081e-21
4.47486657231e-06
0.999998945921
0.999998839162
0.999998757294
0.999998964982
0.999999688534
1.00000067187
1.00000224538
1.00000385001
1.00000326949
1.00000322392
1.00000607308
1.00000484868
1.00000002903
0.999998579673
0.999998723448
0.999998738652
0.94045824696
0.277696747639
2.10253157085e-41
-7.80588448132e-13
0.99999916603
0.999999146909
0.999999127497
0.999999285311
0.999999783416
1.00000048218
1.0000020676
1.00000391438
1.00000281308
0.999998225864
0.999998800118
0.999999999539
0.999999622601
0.999998361764
0.999998493253
0.999998543382
0.944801047021
0.284577379668
-1.58491414141e-27
-7.37982798229e-14
0.999999436565
0.999999468755
0.999999535812
0.999999642215
0.999999903035
1.00000030212
1.00000134234
1.00000265898
1.00000180704
0.999996764282
0.99999209158
0.999995235783
0.999999192358
0.999998172809
0.999998253358
0.99999830904
0.951716843237
0.293232440824
-5.13581318503e-35
-4.0473884876e-16
0.999999722105
0.99999979414
0.999999901634
0.999999979801
0.999999999405
1.0000001607
1.00000062101
1.00000102773
0.999999623392
0.999994272655
0.99998519161
0.999988884178
0.999998308513
0.999998129573
0.99999813656
0.999998140806
0.960408309182
0.305637631855
-3.22960895161e-17
-1.32169592868e-17
0.999999987679
1.00000007805
1.00000017421
1.00000022302
1.00000011083
0.999999969419
0.999999989508
0.999999603014
0.999997804091
0.999988709076
0.999977869756
0.999987756759
0.999997619806
0.999998038778
0.999997937609
0.999998036983
0.968158206667
0.322504719831
-1.52646265176e-18
-7.67150490455e-13
1.00000016968
1.00000024923
1.00000035984
1.00000035616
1.00000016902
0.999999793284
0.999999549998
0.999998538692
0.999995180792
0.999984245965
0.999977869756
0.99998108147
0.999993458645
0.999996690284
0.999997907145
0.999997607369
0.973685223244
0.343659238413
-3.79258020272e-17
-1.85834994099e-14
1.00000026161
1.00000033167
1.00000039328
1.00000034399
1.00000013121
0.999999712491
0.999999103374
0.999997450318
0.999992668016
0.999979908964
0.999977869756
0.999982013877
0.999991754638
0.999993217185
0.999996823937
0.999996130349
0.978990991692
0.36860704198
-3.7762027438e-19
-1.99672237544e-15
1.00000023511
1.00000027089
1.00000032735
1.00000025132
1.00000003384
0.999999656634
0.999998855056
0.999996709463
0.999990478698
0.999981085303
0.999977869756
0.999990010974
0.999996308517
0.999996519779
0.999998849936
0.999998409413
0.984388801887
0.396404010249
-4.84705854133e-18
-2.25006834787e-10
1.00000012534
1.0000001191
1.00000015175
1.00000010935
0.999999787727
0.999999427028
0.999998442151
0.99999446245
0.999992085089
0.999990547711
0.999986963259
0.999997973503
0.999999032068
0.999999075589
0.999999774574
0.99999958571
0.989340006197
0.425443984715
-4.56645027864e-19
-1.44859939169e-11
0.999999910329
0.999999848699
0.999999876017
0.999999862327
0.999999534743
0.99999820693
0.999996776975
0.99999675261
0.999998809417
0.999999342708
0.999998935571
1
1.00000093447
1
0.999999999982
0.999999941306
0.993267099284
0.454523526462
-2.41807640516e-21
-1.27182265361e-09
0.999999563103
0.999999433421
0.999999386767
0.999999293596
0.999999112533
0.999997966121
0.99999796617
0.999999680991
1.00000043734
1.00000165433
1.00000239322
1.00000398898
1.00000511905
1.0000028591
1
1.00000000002
0.99601891226
0.482666325298
-3.37331540097e-21
-2.19981143e-13
0.999999187285
0.999998917079
0.999998809177
0.999998460395
0.999998226519
0.999998664553
0.99999940867
1.00000046238
1.00000307447
1.00000584906
1.00000834882
1.00001018065
1.00001141856
1.00000854329
1
1.00000000003
0.997803424715
0.508894150221
-1.74467042885e-14
-1.87367304523e-31
0.999997761169
0.999997712408
0.999997728403
0.999998014488
0.99999776041
0.999998747918
0.999999501315
1.00000121773
1.00000576662
1.0000102733
1.00001549719
1.0000173236
1.00001889796
1.00001541694
1.00000000001
1.00000000002
0.998914027488
0.532907398365
-4.56151843856e-47
-1.98396249581e-14
0.999998057992
0.99999752736
0.999997194527
0.999997255365
0.999997045052
0.999997404582
0.999999130096
1.00000131655
1.00000681494
1.00001349053
1.000020552
1.00002334345
1.00002533201
1.00002182875
1
1.00000000005
0.999566327392
0.555273619833
6.62390724896e-27
5.48667543365e-15
0.999998241539
0.999998092182
0.999997295961
0.999993494228
0.999991512375
0.999987553844
0.999996112036
1.00000038589
1.00000706627
1.00001436781
1.00002214761
1.00002668217
1.00002933201
1.0000259674
1.00000592822
1.00000000001
0.999899853767
0.577195524281
2.25875452601e-22
-2.19064489982e-28
0.999998098764
0.999997285485
0.999995589785
0.999992880097
0.999986956786
0.999986956494
0.99998781045
0.999999505892
1.00000516977
1.00001159669
1.00001872614
1.00002381793
1.00002666794
1.00002386685
1.00000904592
1
0.999999911987
0.599669451397
5.94101111021e-07
-1.59181526674e-36
0.999997847224
0.999996465327
0.999992997065
0.999990635795
0.999986956504
0.999986956786
0.999990138074
0.999999506801
1.00000352287
1.00000886306
1.00001482851
1.00001963285
1.00002228211
1.00002008615
1.00000939902
1.00000000002
0.99999993495
0.619088672582
0.00347886155742
2.20581496681e-25
0.999999000702
0.999997839966
0.999994376288
0.999991740901
0.999990137192
0.999993019522
0.999994014368
0.999999230413
1.0000022142
1.00000665269
1.00001159664
1.00001585022
1.00001826041
1.00001660248
1.00000852025
1
0.999999970902
0.636856280796
0.00957816938324
-2.74122590717e-28
0.999999760623
0.999998971928
0.999997495118
0.999996628722
0.999997582654
0.99999758283
0.99999618627
0.999997443303
1.00000123274
1.00000475507
1.00000882528
1.00001245162
1.00001459275
1.00001329771
1.00000615559
1
0.999999991948
0.654160127438
0.016629821716
-9.10066880051e-32
0.999999951376
0.999999680408
0.999999003985
0.999998965277
0.999998530778
0.999997445496
0.999998429886
0.999997361063
1.00000050585
1.00000297645
1.00000609845
1.00000903287
1.00001084977
1.00000970619
1.00000256178
1
1.00000000001
0.670635587754
0.0243769535239
9.39844467681e-36
1.00000035284
1.00000003471
0.999999848094
0.999999011542
0.999997428052
0.999997428066
0.999999648299
0.999999637391
1.00000016263
1.00000137009
1.00000308068
1.00000505242
1.00000643108
1.00000534632
1.00000032818
1
1.00000000003
0.686104235319
0.0321169369824
-8.80418929133e-23
1.00000096877
1.00000067286
1.00000025825
0.999999747213
0.999998844586
0.999998139339
0.99999906674
0.999999046222
1.00000001899
1.0000003162
1.00000093713
1.0000014821
1.00000193961
1.00000147353
0.999999195162
0.999998889083
0.999999737931
0.70077302156
0.0397329647568
-5.28855267032e-22
1.00000160049
1.00000140365
1.00000095098
1.00000044226
1
0.999998960871
0.999994802576
0.999992556147
0.999993977041
0.999997810613
0.999998905803
0.999999121156
0.999999506534
0.999998676714
0.999991176207
0.999996027432
0.999997253254
0.714929944194
0.0470372671681
-9.06008171686e-22
1.00000217909
1.00000216954
1.00000182232
1.00000139254
1.00000102647
1.00000002016
0.999997397681
0.999992465524
0.999989152948
0.999994063156
0.999994098926
0.999994689551
0.999993259271
0.999991704477
0.99999027289
0.999992400635
0.999995443874
0.726686297049
0.0534463282406
-3.54883191268e-21
1.00000249227
1.00000264418
1.00000246736
1.00000213009
1.00000169998
1.00000089533
1.00000001261
0.999997576782
0.999989042552
0.999988151867
0.999992597374
0.999988677335
0.99998849986
0.999988727667
0.999991287532
0.999994975778
0.999997243601
0.736075424481
0.0594674309208
-8.82064603859e-22
1.0000028965
1.00000316601
1.00000312313
1.00000287287
1.00000239364
1.00000153804
1.0000004845
0.999998440419
0.999991132053
0.999974261579
0.999974287558
0.999984598984
0.999988505417
0.999989743473
0.999991775852
0.999997488431
0.99999837231
0.750328029377
0.0638176805699
-1.02460059984e-19
1.00000337822
1.00000372169
1.00000375749
1.0000035504
1.00000301584
1.00000199189
1.00000054939
0.999997838389
0.999992895754
0.999979395203
0.999969101334
0.999984332001
0.999988579243
0.999987149381
0.999988851509
0.999998078381
0.999999454467
0.763047259576
0.0680127348124
-7.40372315243e-19
1.00000382883
1.00000421163
1.00000429007
1.00000409373
1.00000349417
1.00000229655
1.00000045266
0.999997449952
0.99999218855
0.999984535729
0.999969098727
0.999970410923
0.999988194213
0.999975168043
0.99998765405
0.999999021568
0.999999967836
0.772938918508
0.0720219124225
-1.47841316997e-19
1.00000416915
1.00000455926
1.00000465777
1.00000445561
1.00000379366
1.00000246275
1.00000031472
0.999997520174
0.999990789241
0.99997975456
0.999969098501
0.999969098501
0.999976770059
0.999970325643
0.999981247328
0.999999926587
1
0.780147129804
0.0764502981915
-1.95915725137e-40
1.00000434453
1.00000471324
1.00000481676
1.0000046025
1.0000038925
1.00000248185
1.0000002075
0.999997587992
0.999991080858
0.999980389453
0.999969950664
0.999971662016
0.999970325643
0.999970325643
0.999970325653
1
1.00000360961
0.783554360296
0.0809378544357
-1.16733923992e-24
1.00000431932
1.00000464418
1.00000474016
1.00000451166
1.00000377229
1.00000234202
1.00000009607
0.999997705098
0.999991817584
0.99998643144
0.999978676533
0.999978600409
0.999970325643
0.999971401829
0.999982666355
1.00000110052
1.00000517878
0.784532108221
0.0869610007782
-6.92727607278e-24
1.00000407736
1.00000434378
1.00000441782
1.00000417502
1.00000343042
1.00000204992
0.999999996818
0.999997908342
0.999993311728
0.99999106284
0.99998739262
0.999973150541
0.999971196206
0.999984491046
0.999999701496
1.00000491745
1.00000581217
0.78611104809
0.090441609242
-5.3628574511e-24
1.00000362613
1.00000383053
1.00000386738
1.00000361912
1.00000291601
1.00000165321
0.999999930909
0.999998247741
0.999995344339
0.999989899428
0.999981924922
0.999981385079
0.999984755229
0.999994384296
1.00000334735
1.00000679465
1.00000584894
0.791441632986
0.0945357504562
-4.92527261339e-25
1.00000300037
1.00000315196
1.00000315605
1.00000293185
1.00000233042
1.0000012647
0.999999828442
0.999998678697
0.999996499993
0.999991572722
0.999983320555
0.999992190708
0.999999625312
0.999999985363
1.00000457204
1.00000730106
1.00000540272
0.800484205177
0.0996714120878
-3.05105242253e-12
1.00000228017
1.00000239123
1.00000240386
1.00000223428
1.0000017667
1.00000090973
0.999999838629
0.999999046616
0.999997546406
0.999995870874
0.999992697538
0.999999784337
1.00000230092
1.00000280294
1.00000493128
1.00000683639
1.00000460328
0.807687862417
0.101243329505
3.43006080422e-05
1.00000160471
1.00000168607
1.00000173632
1.00000163274
1.0000012914
1.00000062912
0.999999850264
0.999999586322
0.999999574057
0.999999887695
0.999998419727
1.00000157032
1.00000608019
1.00000702583
1.00000549257
1.00000572898
1.00000354074
0.810980251956
0.10143320911
0.00017154813851
1.00000108704
1.00000116403
1.00000123997
1.00000118941
1.00000093123
1.00000043561
0.999999932307
1.00000020219
1.00000104642
1.00000202135
1.0000003517
1.00000385083
1.00000627825
1.00000563331
1.00000453954
1.0000047594
1.00000274093
0.811796629449
0.100723987358
0.000562065420844
1.00000072727
1.00000082578
1.00000090499
1.00000088412
1.00000066223
1.0000002644
1.00000020768
1.00000117438
1.00000304039
1.00000347523
1.00000577193
1.0000040968
1.00000271713
0.999997530239
1.00000119595
1.00000271691
1.00000210718
0.813128045397
0.101597451651
0.0010685599155
1.00000049859
1.0000006022
1.00000070436
1.00000049876
1.00000032789
1.00000005632
1.00000058332
1.00000195285
1.00000309898
1.00000540839
1.00000745106
1.00000084874
0.999994349155
0.999992747324
0.999995419663
1.00000120764
1.00000160406
0.809933102906
0.10103523259
0.00145772453609
1.00000033761
1.00000052415
1.00000030828
1.00000032575
0.999999704886
1.00000014724
1.00000054816
1.00000194046
1.000004758
1.00000637119
1.00000804162
1.00000633607
1.00000159054
0.999995394078
0.999998402561
1.00000214272
1.00000291895
0.806352730824
0.0992681179925
0.00179820554997
1.00000020626
1.00000022513
1.00000024713
0.99999947061
0.999999543777
0.999998982265
1.00000051461
1.00000153751
1.00000256054
1.00000343931
1.00000419578
1.00000426826
1.00000220309
0.999998664298
0.999998128976
1.00000053661
1.00000116448
0.809483866265
0.105416235134
0.00196844605577
1.0000006015
1.00000074419
1.00000049242
1.00000019301
0.999999272627
1.00000004172
1.00000039493
1.00000108755
1.00000202068
1.0000028066
1.00000359805
1.00000354731
1.00000248048
0.999999096129
0.999998216044
1.00000057971
1.00000075372
0.810455445744
0.0969872062899
0.00196844605577
1.00000085007
1.00000087698
1.00000057651
1.00000009028
0.999999782581
0.999999646901
0.999999874753
1.00000044868
1.00000114056
1.00000149156
1.00000157126
1.00000119711
1.00000034576
0.999995795487
0.999997912989
1.00000057201
1.00000074876
0.807611107855
0.0924648647617
0.0024969595413
1.00000094353
1.00000081513
1.00000043229
0.999999903226
0.999999436963
0.99999923066
0.999999394731
0.999999827308
1.00000025781
1.00000050577
1.0000003545
1.00000008333
0.999998283919
0.999990693061
0.999998147768
1.00000128158
1.0000013015
0.803726070714
0.0909582798179
0.00355398651235
1.00000085479
1.00000057563
1.00000007359
0.999999505268
0.999999053581
0.999998802452
0.999998919419
0.999999109337
0.999999844733
1.00000049018
1.00000056004
1.00000046892
0.999997032648
0.999989086302
0.999997559529
1.0000021719
1.00000182049
0.799625344282
0.0890653806945
0.00408249999788
1.0000005528
1.00000016753
0.999999550819
0.99999889173
0.999998558876
0.999998458057
0.999998059589
0.999998638356
1.00000025505
1.00000094121
1.00000122396
1.00000123517
0.999997618497
0.999989086302
0.999998305443
1.00000323002
1.00000230409
0.798509082654
0.0910671438458
0.00408249999788
1.00000003198
0.999999589213
0.999998941016
0.999998365096
0.999998151466
0.999998137146
0.99999822653
0.999999482476
0.999993256528
0.99999171213
1.00000220949
1.00000574724
1.00000394899
0.798210619421
0.0995461912869
0.00413451440928
0.999999391482
0.999999070596
0.999998562784
0.999998306733
0.99999854768
0.999998766601
0.999998913978
0.999999929583
0.999997575137
0.999992904179
1.00000140892
1.00000479864
1.00000244353
0.796737902167
0.090505591267
0.00440728279933
0.999999123177
0.999998895069
0.999998895069
0.999999192396
0.999999702319
1.00000007203
1.0000004842
1.00000104882
0.999998974679
0.999993148022
0.999999535572
1.00000363631
1.00000213594
0.798267828487
0.0899838217579
0.00470840587923
0.999999022232
0.999998897259
0.999999578203
1.00000033858
1.00000095919
1.00000153817
1.00000196158
1.00000201861
0.999999998864
0.999996342961
0.999997943765
1.00000235996
1.00000204644
0.800211737341
0.0904481184588
0.00462270253482
1.00000002682
1.0000007054
1.00000120233
1.00000191981
1.00000277498
1.00000339477
1.00000360676
1.00000284529
1.00000367894
1.00000326735
1.00000347284
1.00000506392
1.0000036485
1.00000067851
0.999999612698
1.00000166423
1.00000184375
0.801636165341
0.0906958735642
0.00395187995394
1.00000155731
1.0000024856
1.00000300707
1.00000353658
1.00000413845
1.00000454458
1.00000446694
1.00000371325
1.00000250326
1.00000130012
1.00000102008
1.00000211095
1.00000288618
0.999995645544
1.00000006392
1.00000195989
1.00000187215
0.803210452899
0.0930798444077
0.00212538173936
1.00000333218
1.00000422042
1.00000474404
1.00000515599
1.00000542693
1.0000052865
1.00000446613
1.00000283722
1.000000703
0.999999094428
0.999997689435
0.999998547686
1.00000051954
0.999993678215
1.00000009561
1.00000200413
1.0000017784
0.805895117145
0.105095726016
0.00048485305283
1.0000047372
1.0000055689
1.00000597437
1.0000061431
1.00000598788
1.00000526793
1.00000378714
1.00000146863
0.99999910656
0.999997253071
0.999994945769
0.999993677064
0.999994043322
0.999989555186
0.999997411619
1.00000124498
1.00000128904
0.803093588747
0.10530948746
-6.36545259862e-20
1.00000569097
1.00000646418
1.00000682981
1.00000678134
1.00000613818
1.00000487634
1.00000282879
1.00000000312
0.999997950082
0.999995866448
0.999994915087
0.999990133862
0.999979513706
0.999975197593
0.999988535145
1.00000033011
1.00000077031
0.810236202908
0.106895596656
3.91532156557e-24
1.00000652634
1.00000719164
1.00000744704
1.00000722779
1.00000634492
1.00000463474
1.00000200145
0.999999226703
0.999997326258
0.999992704303
0.99999079096
0.99998938178
0.999969604776
0.999928851925
0.999965074442
1
1.00000039914
0.81355755228
0.102096281038
8.07793566946e-25
1.00000683364
1.00000730909
1.00000749352
1.0000072394
1.00000625595
1.00000429604
1.00000131475
0.999998844549
0.999995746619
0.999988672237
0.999981469378
0.999976845989
0.999935880561
0.999905072182
0.999935718272
0.999996981192
1.00000018541
0.812777015995
0.0970864178216
0.000412017396382
1.0000063932
1.00000670512
1.00000693735
1.00000681523
1.00000596347
1.00000407423
1.00000112116
0.999999180298
0.999993709035
0.999982733355
0.999979679162
0.999954925615
0.999905072182
0.999905072182
0.999905072182
0.999987167632
1
0.811145615826
0.0972062995392
0.00123605243163
1.00000522589
1.00000562148
1.00000619179
1.00000653752
1.00000620386
1.00000475038
1.00000199256
0.999999882356
0.999992804479
0.999985914937
0.999982071416
0.999967418569
0.999912596639
0.999905072182
0.999905072182
0.999979022754
1
0.810708195002
0.0967514429155
0.00158556561255
1.00000383305
1.00000458414
1.00000575224
1.00000683584
1.00000724513
1.00000638924
1.00000381023
1.00000098876
0.999996690352
0.999993162183
0.999986267258
0.999972011441
0.999967785231
0.999909174455
0.999922083337
0.999987197105
0.999999985666
0.811762228361
0.0963061657933
0.00122215430217
1.00000276812
1.00000383709
1.00000552836
1.00000726195
1.00000835414
1.0000080426
1.00000595838
1.00000268273
1.00000015231
0.999994021956
0.999984432211
0.999983625474
0.999976771656
0.999954715515
0.999946614372
0.999984748396
0.999999939291
0.813183629052
0.0997836965591
0.000589977767122
1.00000192318
1.00000315853
1.00000515089
1.00000737694
1.00000903394
1.00000950578
1.00000783378
1.00000465729
1.00000195719
0.999992211795
0.99997447375
0.99996153037
0.99995890706
0.999958109242
0.999954788641
0.999983986003
0.999999916541
0.810979830216
0.105988771911
0.000147597355001
1.00000134707
1.00000226372
1.00000378266
1.00000552567
1.00000691119
1.00000743096
1.00000675114
1.00000448617
1.00000140821
0.999994821283
0.999978826789
0.999944158095
0.999929471848
0.999924448382
0.999934569657
0.999983416058
0.999999967944
0.804617458129
0.110042103926
1.82432680942e-05
1.0000010692
1.0000017877
1.00000308499
1.00000467739
1.00000606077
1.00000679033
1.00000659553
1.00000499777
1.00000192788
0.99999870088
0.999991348026
0.999966882522
0.999924887074
0.999924448382
0.999925699563
0.999983708157
0.999999995768
0.797301320501
0.103418775838
-1.41549268931e-12
1.00000081088
1.00000155116
1.00000264993
1.00000411598
1.00000548746
1.00000637083
1.00000641976
1.00000522734
1.00000276262
0.999999531845
0.999994688362
0.999987440228
0.999966866628
0.999924448382
0.999946209323
0.99998651168
1
0.788231930089
0.0939255768995
-3.15844130002e-16
1.00000028473
1.00000114176
1.00000229317
1.00000360131
1.00000491084
1.00000585712
1.00000599422
1.00000502392
1.00000282858
0.999999871956
0.999995921949
0.999988681138
0.999980082048
0.999969534845
0.999963092856
0.999987961908
1
0.782048609435
0.0861908600121
-7.14043430828e-22
1.00000000012
1.00000064208
1.0000018672
1.00000308918
1.00000427794
1.00000516026
1.00000530568
1.00000444244
1.00000255989
0.999999887789
0.999996259719
0.999989353276
0.999983821061
0.999983594545
0.99997519034
0.99999044555
1.00000002333
0.782667817046
0.0817192201974
3.98272977783e-57
0.999999827354
1.00000024043
1.00000142711
1.00000258255
1.00000359657
1.00000432732
1.00000444669
1.00000367291
1.0000021097
0.999999709123
0.999996580903
0.9999909162
0.999982063857
0.999975995103
0.999976746041
0.999992612482
1.00000003559
0.777489178938
0.0763507945171
2.50772128175e-38
0.999999702523
1.00000019105
1.00000104112
1.00000205288
1.00000291178
1.00000347298
1.00000354512
1.00000285928
1.00000156415
0.999999538875
0.999997069749
0.999993240867
0.999986463794
0.999972280377
0.999972280377
0.999993527906
1
0.770603038245
0.0706564295833
0
0.999999830871
1.00000029173
1.00000082664
1.00000160263
1.0000023191
1.00000273029
1.00000272548
1.00000207138
1.00000095226
0.999999391078
0.999997506199
0.999994829454
0.999991858686
0.999975806641
0.999972280377
0.999995601945
0.999999992816
0.761779648069
0.0656157822762
-7.26021455757e-11
0.999999979618
1.00000036127
1.00000082297
1.0000013589
1.00000189729
1.0000021686
1.00000200771
1.0000012666
1.00000011142
0.999998651155
0.999997087753
0.999996076058
0.99999477254
0.999988467696
0.999972285633
0.999997032984
0.999999750939
0.751353525769
0.0614095037292
-3.78205857835e-18
1.00000000383
1.00000031316
1.00000076354
1.00000123548
1.00000163386
1.00000175103
1.00000133958
1.00000044633
0.99999911383
0.999996634936
0.999994403882
0.999992963727
0.999991509428
0.999987102375
0.9999819036
0.999994376194
0.999998410703
0.740345500102
0.0575063618806
-1.09332754077e-17
1.00000003691
1.00000032805
1.00000073152
1.00000119608
1.00000153418
1.00000144436
1.00000079105
0.999999745333
0.999997141367
0.99999281752
0.999987440034
0.999981284855
0.999976515593
0.999974458675
0.999982670426
0.999994412363
0.99999586463
0.728997662786
0.0529890943973
-9.01335591467e-18
1.00000005261
1.00000033589
1.00000070366
1.00000112631
1.00000134799
1.00000108402
1.00000023995
0.999998946939
0.999996026306
0.99999090945
0.999982495233
0.999974470345
0.999974458635
0.999974458666
0.999974799954
0.999994214173
0.999993574653
0.717055161491
0.0477357192554
-2.66375019788e-18
1.00000040098
1.00000061684
1.00000081564
1.00000093373
1.00000082058
1.00000033928
0.999999554464
0.999998269468
0.999996723338
0.999995049541
0.999991452256
0.999990000174
0.999983249191
0.999975411614
0.999987174649
0.999995151022
0.999992891543
0.704809470324
0.0413202298586
-5.0171373069e-17
1.00000063805
1.00000076508
1.00000084541
1.00000081967
1.00000056974
0.999999996108
0.99999907505
0.999997523378
0.999996677894
0.999996541189
0.999996069503
0.999992282679
0.999994363768
0.999995585891
0.999993787765
0.999996696665
0.99999574322
0.69185883539
0.0340979181658
-4.58382332342e-16
1.00000070721
1.00000076196
1.00000078006
1.00000069874
1.00000040411
0.999999796906
0.999998643363
0.999996700061
0.999993627537
0.999991717335
0.999992492504
0.99999227641
0.999994529837
0.999996611758
0.999996600805
0.999997394468
0.999996970601
0.677867175373
0.0265960740893
-1.11394956066e-24
1.00000060776
1.00000065407
1.00000068688
1.00000064501
1.00000042998
0.999999915697
0.999998890537
0.999996989238
0.999993949505
0.999991718287
0.999991717335
0.999992372794
0.999991529187
0.99999407474
0.999997744887
0.999997603251
0.999997394499
0.662523589138
0.019453099174
-1.29421930196e-17
1.00000045652
1.00000056265
1.00000062561
1.00000070611
1.0000006681
1.00000032862
0.999999877304
0.999999035237
0.999998295136
0.999996761509
0.99999550769
0.999997611938
0.999991529378
0.999991531267
0.99999820829
0.999997945758
0.999997603267
0.645880189433
0.0129727490199
-1.78035424302e-14
1.00000037106
1.00000051533
1.00000057591
1.00000089578
1.00000105724
1.00000094685
1.00000038972
0.999999976343
0.999999515556
0.999998953365
0.9999989344
0.999997629803
0.999994552301
0.999993402426
0.999999044696
0.999998438357
0.999997945765
0.627939477744
0.0071057219189
-9.99729183316e-29
1.00000039739
1.00000051115
1.00000080548
1.00000105648
1.0000014809
1.00000139638
1.00000101521
1.0000003138
0.999999823667
0.999999476566
0.999999215887
0.999997845869
0.999997195639
0.999998766886
0.999999997343
0.99999922683
0.999998613384
0.608838134681
0.00156018009431
2.24310591771e-30
1.00000082908
1.00000080535
1.00000084127
1.00000135049
1.00000164275
1.00000165091
1.00000115927
1.00000065554
1.0000000341
1.00000045199
1.00000010935
1.00000051812
1.0000004949
1.00000035669
1.00000000042
1.00000000019
0.999999217668
0.585636740791
2.25875452601e-22
-9.74687678631e-30
1.0000011569
1.00000116278
1.00000117103
1.00000151175
1.0000016547
1.00000154283
1.00000115631
1.0000008324
1.00000065942
1.00000097197
1.00000149624
1.0000013592
1.0000017811
1.00000149427
1.00000000004
1.00000000022
0.999678026737
0.56052784169
0
2.30600597621e-12
1.00000098253
1.00000189634
1.00000153312
1.00000167622
1.00000169018
1.00000149924
1.00000116199
1.00000094269
1.00000096009
1.00000117009
1.00000188899
1.00000241998
1.00000317989
1.00000226505
1
1.0000000006
0.998965876171
0.53477289016
2.15411617852e-27
-4.23365456125e-13
1.00000200763
1.00000146367
1.00000180239
1.00000182716
1.00000172129
1.00000146533
1.0000011576
1.00000101233
1.00000088554
1.00000051034
1.00000103852
1.0000022072
1.00000317871
1.00000214567
1
1.00000000004
0.997735193904
0.507631413282
-2.03566521191e-12
-1.04324994655e-12
1.0000015873
1.00000203737
1.00000196559
1.00000190523
1.00000171944
1.00000142175
1.0000011612
1.0000008972
1.00000009247
0.999999790803
1.00000004562
1.00000069166
1.00000240065
1.00000144664
1
1.00000000003
0.995814210751
0.478889450588
-1.24383984218e-12
5.90618516279e-32
1.00000206563
1.00000203724
1.00000196762
1.00000186618
1.0000016415
1.00000136038
1.00000107587
1.00000018766
0.999998883624
0.999999243303
0.999998431207
0.999999935402
1.00000109956
1.00000030685
1
1.00000000001
0.99300511405
0.449246443337
-5.97474438455e-18
-7.52875910893e-11
1.00000189934
1.00000183262
1.00000177854
1.00000167078
1.00000146394
1.00000120991
1.00000066942
0.999998880249
0.999997121325
0.999995769157
0.999996004903
0.999999494021
0.999999911524
0.999999909455
0.999999999992
0.999999926141
0.98904454798
0.419802053245
-3.4285292765e-16
-6.37863714966e-09
1.00000152738
1.00000143284
1.0000013922
1.00000132017
1.00000116265
1.00000089802
0.999999987663
0.999998061308
0.999992564001
0.999989319964
0.999996660974
0.999998615322
0.999999152907
0.999999299592
0.999999710359
0.999999624748
0.98398370928
0.391702016056
-5.10364948913e-18
-1.45315618089e-09
1.00000098351
1.00000085632
1.00000084759
1.00000084416
1.00000074549
1.00000040705
0.99999958263
0.999997795016
0.999990189414
0.999983060878
0.999994751764
0.999994949871
0.999995033283
0.999996351572
0.999999059902
0.999998510961
0.978108159295
0.365707513804
-1.39466624859e-15
-1.3255754153e-08
1.00000033611
1.00000019913
1.00000023071
1.00000032133
1.00000024738
1.00000001512
0.999999368763
0.999996744846
0.999989864311
0.99998008051
0.999981698031
0.99999017676
0.999991586419
0.999992021722
0.999996177723
0.999995821737
0.971776864452
0.342507027315
-5.83863483285e-17
-6.50361408583e-13
0.999999839808
0.999999727538
0.999999839953
0.999999951076
0.999999910244
0.99999959292
0.999998780341
0.999996013249
0.999991750267
0.999980013319
0.999968035953
0.999985427399
0.999987443714
0.999989080074
0.999992110411
0.99999221029
0.965250643144
0.322443069853
-7.11050972556e-17
-1.49551377431e-11
0.999998935112
0.999998783549
0.999998979135
0.999999250463
0.999999305401
0.999998906772
0.999998046569
0.999994827774
0.999987921552
0.999974731218
0.999968035878
0.999975350182
0.999984263139
0.999988830476
0.999989181587
0.999989597926
0.958212658539
0.306973448254
-4.37581062757e-18
-1.94355740466e-11
0.999998176947
0.999998022546
0.99999828453
0.999998708877
0.99999882574
0.999998411158
0.999997267992
0.999992089437
0.999983442116
0.99997069886
0.999968035841
0.999968035878
0.999984622777
0.999987894125
0.999988778057
0.999988743586
0.951341825187
0.295045874807
-1.15364786664e-10
-4.99449083093e-14
0.999997169604
0.999997097074
0.999997569207
0.999997968309
0.999998130245
0.999997960791
0.999996412526
0.999988137978
0.99997879181
0.999968035845
0.999968035843
0.999974412351
0.999983712039
0.999988090627
0.99999002585
0.999990280592
0.944959691639
0.286028430548
-2.38514515793e-25
-1.86659123536e-12
0.999996488593
0.999996488593
0.999996488593
0.999996896364
0.999997565553
0.999997182781
0.999994883951
0.99998667627
0.99996803627
0.999968035986
0.999972115403
0.999984215269
0.999984667461
0.999990654735
0.999990638515
0.999991844576
0.939561090221
0.278191863025
-1.80700361313e-21
2.37450365845e-07
0.999996576174
0.999996706412
0.999997223008
0.999997392457
0.999997784755
0.999997252653
0.999993573093
0.999985172717
0.999974550082
0.99996803627
0.999983157537
0.999987870932
0.999987436756
0.999990826915
0.999992811078
0.999992606182
0.937237220601
0.270075614337
1.35450825306e-21
-2.42864467079e-07
0.999998285781
0.999998584911
0.999998627122
0.999998619678
0.999998599068
0.999997833751
0.999993606053
0.999991796048
0.999985715115
0.999982103924
0.99999282354
0.99999282354
0.999992815437
0.999992815586
0.999992814253
0.999992811078
0.942174771766
0.260449562235
3.58978643672e-07
-4.79940937101e-07
)
;

boundaryField
{
    back
    {
        type            zeroGradient;
    }
    sides
    {
        type            zeroGradient;
    }
    bottom