/*--------------------------------*- C++ -*----------------------------------*\
| =========                 |                                                 |
| \\      /  F ield         | OpenFOAM: The Open Source CFD Toolbox           |
|  \\    /   O peration     | Version:  v2012                                 |
|   \\  /    A nd           | Website:  www.openfoam.com                      |
|    \\/     M anipulation  |                                                 |
\*---------------------------------------------------------------------------*/
FoamFile
{
    version     2.0;
    format      ascii;
    class       volVectorField;
    location    "5.5";
    object      U_0;
}
// * * * * * * * * * * * * * * * * * * * * * * * * * * * * * * * * * * * * * //

dimensions      [0 1 -1 0 0 0 0];


internalField   nonuniform List<vector> 
1984
(
(0.000509248950454 -0.000513930846071 6.31705771754e-22)
(0.00072140359864 -0.00169880066031 7.03480171283e-22)
(0.000813285783046 -0.00304993238646 3.10176912034e-22)
(0.00081920026733 -0.00446473359875 -2.67190443994e-22)
(0.000792933741073 -0.00585571515164 -6.7931171845e-22)
(0.000761374182852 -0.00720117664753 -6.94138183688e-22)
(0.000726718130398 -0.00849530778174 -4.33300418423e-22)
(0.000691983467205 -0.00973299144975 6.96380360839e-23)
(0.000657170496642 -0.0108959968951 4.24321259302e-22)
(0.000611380194963 -0.0119438625682 3.58942796032e-22)
(0.000540962344006 -0.0128431326821 1.0974907295e-22)
(0.000416188870649 -0.0135968972409 -1.66245677202e-22)
(0.000191613121649 -0.0139121189482 -5.36567053029e-22)
(-0.000308563809234 -0.0133198980738 -1.34921839659e-21)
(-0.00109396171553 -0.012630150706 -6.54758387447e-22)
(-0.00187217513519 -0.0119091326279 6.08365051271e-21)
(0.000266567893317 -0.0228172965526 1.76141932508e-20)
(0.0187923495577 -0.0165256879071 6.31679729773e-20)
(0.0393873141932 -0.00517301926361 6.12081263212e-20)
(0.00576752157688 -0.0524809431587 3.95729235423e-21)
(0.00172163019919 -0.000738827280853 9.24151848574e-22)
(0.00199340622442 -0.00200736960047 9.61586053234e-22)
(0.00212020611967 -0.00337649235131 4.85664416614e-22)
(0.002141932433 -0.00481503287379 -1.58062563168e-22)
(0.00210455871606 -0.00624817542427 -6.11146179473e-22)
(0.00204509308564 -0.00766651708492 -6.7146694046e-22)
(0.00196949183608 -0.00904890888177 -4.39675861099e-22)
(0.00187540630811 -0.0103782368424 -9.67591626005e-23)
(0.00174811865536 -0.0116416806756 1.27868247249e-22)
(0.00156660904175 -0.012812401903 1.03290207168e-22)
(0.00131048007201 -0.0138587632418 -1.03572585737e-22)
(0.000942938066907 -0.0147900370008 -2.43055778984e-22)
(0.000421818725775 -0.015391604339 -6.7938930011e-22)
(-0.000203115548041 -0.0152673668053 -2.27095520844e-21)
(-0.000586223744907 -0.0154234197998 -5.13560867991e-21)
(-0.000954145037474 -0.016900649787 -1.11789105328e-20)
(-0.00184136997937 -0.0277979577838 -1.10123673563e-20)
(-0.00265607868295 -0.0204158488075 -1.21651790059e-20)
(0.00101799260565 -0.000340766715545 -1.15762943735e-20)
(0.0243899088745 0.0390139522202 9.34932872485e-21)
(0.00311427533564 -0.000838520290536 1.26713520635e-21)
(0.00337786017709 -0.00218910500827 1.22430267754e-21)
(0.00352022483428 -0.00361604378623 7.73908513841e-22)
(0.00355884314621 -0.00509364225025 9.77699503106e-23)
(0.00351853109031 -0.00656976009397 -3.3901164277e-22)
(0.00343717690516 -0.00804274146423 -4.60683170115e-22)
(0.00333104070332 -0.0094925370148 -3.08833003742e-22)
(0.00319356749725 -0.0109011953418 -1.22371932488e-22)
(0.00300328662501 -0.0122605904201 -2.50451598289e-25)
(0.00272812448188 -0.0135523921465 -2.41994902595e-24)
(0.00234303087107 -0.0147472957852 -1.62914671803e-22)
(0.00183796604714 -0.0158716505007 -3.61484428348e-22)
(0.00117300288394 -0.0167791911814 -8.76060198716e-22)
(0.00038072471397 -0.0170984942731 -2.28063462256e-21)
(-0.000266827181753 -0.0177196050104 -7.44799004709e-21)
(-0.00206001718327 -0.0195133196498 -1.93941306682e-20)
(-0.00415508231218 -0.0289869615214 -2.89766152427e-20)
(-0.00971247667928 -0.0200619359541 -5.35665612379e-20)
(-0.00674143210527 -0.00269192703082 -4.93740217048e-20)
(-0.00380805284881 0.0256874872637 -1.15084230042e-20)
(0.00461460263872 -0.000862236613 1.32416353153e-21)
(0.00486611185065 -0.00227318425574 1.3219132088e-21)
(0.00501846670225 -0.00375880125667 9.23413780746e-22)
(0.00507303489666 -0.00528638671294 3.33410981234e-22)
(0.00503969092729 -0.00681383685646 -6.07407730964e-23)
(0.00494931060827 -0.0083401037309 -1.9240705956e-22)
(0.0048199186925 -0.00985256490329 -1.51358662204e-22)
(0.0046453139069 -0.0113378214112 -3.03901086141e-23)
(0.0044076462881 -0.0127819372834 -6.4246585498e-24)
(0.00407413137583 -0.0141775108348 -6.45579340955e-23)
(0.00360868848295 -0.0155172104222 -9.51825347432e-23)
(0.00300385245752 -0.0168307511527 -2.85193549737e-22)
(0.00226676269487 -0.0180041641498 -6.26224995952e-22)
(0.00143632566178 -0.018682296119 -1.27143674669e-21)
(0.000570154523732 -0.0195707754224 -2.79299059342e-21)
(-0.00268817113078 -0.0215770891262 -6.64178545146e-21)
(-0.00785341622451 -0.0306694944878 -1.68150872853e-20)
(-0.0203494423653 -0.0227909999622 -3.03712161284e-20)
(-0.0162777581559 -0.00601624273321 -3.01835224645e-20)
(-0.00918373291855 0.00957953026018 -6.31446628806e-21)
(0.00614497613449 -0.000854710958205 1.1214623201e-21)
(0.0063961486328 -0.00230191156897 1.19159271437e-21)
(0.00655957434531 -0.00382839516121 9.45721684826e-22)
(0.00662798351127 -0.0054005786669 4.63359242723e-22)
(0.00660240109267 -0.00697434262352 1.15842816791e-22)
(0.00651166150243 -0.00855219034355 -2.29969282924e-23)
(0.00636744832465 -0.0101245880918 -3.99639128252e-23)
(0.00616692262398 -0.0116835063851 -5.69251075669e-24)
(0.00589468693896 -0.0132186990805 2.76774895883e-24)
(0.00552673823076 -0.0147222963542 -2.45889214305e-23)
(0.00502056598637 -0.0161896182775 -8.97470491477e-23)
(0.00435685330326 -0.0176381001207 -3.05623796868e-22)
(0.00357057456896 -0.0189937989025 -7.92292162963e-22)
(0.00271843009176 -0.0199290152325 -1.36623518727e-21)
(0.0015693549122 -0.020719811497 -1.82546091061e-21)
(-0.00286957617733 -0.0224946717639 -2.68281383913e-21)
(-0.0106241296243 -0.0319585186342 -5.72958123769e-21)
(-0.0268220280434 -0.0270788053871 -1.1942077164e-20)
(-0.0197807598871 -0.0130803878969 -1.10432843928e-20)
(-0.010423231342 -0.0131849485353 -1.99821791669e-21)
(0.00767558417315 -0.000843627338732 9.17450087119e-22)
(0.00795248046189 -0.00231305426656 1.05388444091e-21)
(0.00813493523917 -0.00386455398887 8.60991358454e-22)
(0.00821975281487 -0.00547287420442 4.67006899506e-22)
(0.00820452122936 -0.00708688508484 1.74674956712e-22)
(0.00811881148034 -0.00871104332869 3.82238726651e-23)
(0.00797371937771 -0.010340538459 8.05372567021e-25)
(0.00776417618296 -0.0119732536295 -9.28494221007e-25)
(0.00747700043559 -0.0136029687365 -4.74132953955e-24)
(0.00708970698903 -0.015222076545 -1.79173283449e-23)
(0.00655815205515 -0.0168220601645 -8.63490927233e-23)
(0.00584630505935 -0.018386786216 -2.92683597235e-22)
(0.00494725450275 -0.0198456155926 -1.08520017867e-21)
(0.00387001384485 -0.0208875658253 -2.03334682713e-21)
(0.00226530622629 -0.0212688753293 -2.54513111845e-21)
(-0.00251077420113 -0.0224770310738 -1.31592651174e-22)
(-0.0102741787984 -0.0322402671306 6.8010427608e-21)
(-0.025689803208 -0.0320445835706 8.88219860171e-21)
(-0.0172151620577 -0.0219600874029 8.69026593044e-21)
(-0.00573949365436 -0.0416660172952 1.69951795648e-21)
(0.00920463892272 -0.000833682322095 8.23597386815e-22)
(0.00952408167872 -0.00232227408535 9.99661261622e-22)
(0.00973573194512 -0.00388910180337 7.97407622353e-22)
(0.00984332530553 -0.00552492450496 4.30527448925e-22)
(0.00984516398355 -0.00717290711947 1.64995039654e-22)
(0.00977328694948 -0.0088395483227 5.63593999931e-23)
(0.00964128415864 -0.0105245903686 3.50368177054e-24)
(0.00944249942351 -0.012229833489 -7.48725488829e-24)
(0.00916273240789 -0.0139559771423 -1.37410476765e-23)
(0.00877596160154 -0.0156993093731 -2.49614613972e-23)
(0.00823562496586 -0.0174601833564 -1.15396037031e-22)
(0.00747627235672 -0.0192186902961 -3.82682272159e-22)
(0.00638431283082 -0.0208747816642 -1.20800608288e-21)
(0.00481307910705 -0.022156295287 -2.65603794142e-21)
(0.00250889353018 -0.0227515610279 -5.84163241036e-21)
(-0.00168894270768 -0.024077973893 -9.14570622143e-21)
(-0.00668229282234 -0.0332490128947 7.24948057133e-21)
(-0.0166109235773 -0.036078712814 2.40747555399e-20)
(-0.00847790274073 -0.0309988712959 2.47764494643e-20)
(0.00511185569706 -0.0625710154443 5.72975159072e-21)
(0.0107352755919 -0.000826548333724 8.84582900608e-22)
(0.0111043988905 -0.00233035148683 9.45116959183e-22)
(0.0113547135429 -0.00390490050588 7.73892047603e-22)
(0.0114928476503 -0.00556139961446 4.38977944014e-22)
(0.0115200715836 -0.0072375123286 1.83071968501e-22)
(0.0114735627395 -0.0089416547701 6.12080838321e-23)
(0.0113696904736 -0.0106786084016 1.58972735058e-23)
(0.0112050295275 -0.012455757471 -2.44885597132e-24)
(0.0109619206247 -0.0142801867721 -9.99989119109e-24)
(0.0106123796853 -0.0161621968685 -3.33825903633e-23)
(0.0101057301232 -0.0181155029352 -1.33605251128e-22)
(0.00935100207146 -0.0201491105988 -4.10053798096e-22)
(0.00817871046129 -0.0222438116168 -1.01342307827e-21)
(0.00633228926108 -0.0242571289409 -1.83307378135e-21)
(0.00369548074848 -0.026112729663 -4.41358064394e-21)
(0.000277613490694 -0.0292926302851 -8.96647417025e-21)
(-0.00163831728244 -0.037437289632 2.83067427995e-21)
(-0.00510836902792 -0.0396333424002 -5.06775796506e-21)
(0.00230471912381 -0.0373541981255 -5.26172751058e-21)
(0.0161052789243 -0.0656034767418 7.30417825181e-22)
(0.0122670419717 -0.000820687200536 8.55169315305e-22)
(0.0126894189213 -0.00233285988118 9.26889918473e-22)
(0.0129855854574 -0.00390825584574 7.56888350229e-22)
(0.0131615325064 -0.00557869041152 4.3357275789e-22)
(0.013222937195 -0.00727482990385 1.89442967433e-22)
(0.0132131702326 -0.00900977193526 7.76409464897e-23)
(0.0131537737401 -0.0107910796505 2.25626834044e-23)
(0.0130453111449 -0.0126307082293 5.26484089366e-24)
(0.0128729492919 -0.0145461657838 -4.05255302378e-24)
(0.0126131516539 -0.0165641336038 -3.34983039095e-23)
(0.012216850112 -0.0187210094737 -1.13723870316e-22)
(0.0115901463391 -0.0210597412432 -3.54516369567e-22)
(0.0105779580336 -0.0236419357112 -7.21237689582e-22)
(0.00897223513791 -0.0264932108483 -1.2810896262e-21)
(0.00674675768584 -0.029837211692 -2.43556114652e-21)
(0.00396964119266 -0.0351373898908 -4.74115298385e-21)
(0.00274146748843 -0.04203403277 -6.28618730499e-21)
(0.00303066888237 -0.0426131320957 -9.64846079669e-21)
(0.00948829369586 -0.0429479166964 -9.49387802142e-21)
(0.0207664004516 -0.0565915169121 -1.1079430443e-21)
(0.0137952572679 -0.0008153789308 6.37894789447e-22)
(0.0142769905132 -0.00232493254284 7.1483372959e-22)
(0.0146192817297 -0.00389376695068 6.25502495435e-22)
(0.0148400875211 -0.00557065347596 3.81312215869e-22)
(0.0149448446641 -0.00727735227286 1.64215607704e-22)
(0.0149822729765 -0.00903176100956 5.58509444632e-23)
(0.0149825618341 -0.0108450456882 1.70764498754e-23)
(0.0149509163943 -0.0127333926148 3.18926397583e-24)
(0.0148803015387 -0.0147217034596 -3.92834576185e-24)
(0.0147625288958 -0.0168485753055 -2.21208954942e-23)
(0.0145578293664 -0.0191697307133 -1.04340621935e-22)
(0.0141845769868 -0.0217512486338 -3.10373284318e-22)
(0.0135422297393 -0.0246922170994 -5.84142997325e-22)
(0.0125570423 -0.0281081222347 -1.03147570253e-21)
(0.0112380674763 -0.0323439815052 -1.98338620875e-21)
(0.00901815283922 -0.0386157613199 -4.27538840387e-21)
(0.00695813177756 -0.0444953014776 -5.78976274459e-21)
(0.00761032432154 -0.0440986427615 -1.36320651128e-20)
(0.0111769134661 -0.0464549834611 -1.36729438407e-20)
(0.0168843545605 -0.0496538681632 -1.87178284056e-21)
(0.0153130100497 -0.000803655015094 2.95602215925e-22)
(0.0158576204554 -0.00230339796695 5.18658180515e-22)
(0.0162467539927 -0.00386135797974 4.85958560805e-22)
(0.0165185959676 -0.00552907080722 2.92043442133e-22)
(0.0166741834322 -0.0072340364982 1.29550945767e-22)
(0.0167694294523 -0.00899451447308 4.06101027066e-23)
(0.0168412594497 -0.0108229311081 8.44297192215e-24)
(0.0169071281702 -0.012742650879 -7.26710140389e-25)
(0.0169663599379 -0.0147838069813 -1.63250386099e-24)
(0.0170224869006 -0.0169859889225 -2.21345715768e-23)
(0.0170533887834 -0.0194020226729 -1.05522881453e-22)
(0.0169978954886 -0.0220957665184 -2.97864852633e-22)
(0.0168137951545 -0.025171942767 -5.68344857118e-22)
(0.0165677587919 -0.0287891173523 -9.75221983518e-22)
(0.0162165404225 -0.0331938082495 -1.43666267257e-21)
(0.0144349079648 -0.0392408320793 -1.71099302009e-21)
(0.011347267498 -0.0444714290045 -6.2886357188e-21)
(0.0106427685137 -0.0435649573659 -1.12804039352e-20)
(0.0122075854152 -0.0477327473263 -1.10700261588e-20)
(0.0132382585039 -0.0525880041513 -1.0686422902e-21)
(0.0168102311715 -0.000785121771186 1.66824479651e-22)
(0.0174157082087 -0.00226545834527 4.17058416207e-22)
(0.0178586534974 -0.00380337912549 4.27211842429e-22)
(0.0181859749542 -0.00544866045646 2.7025628681e-22)
(0.0183976972707 -0.00713799745425 1.13135931566e-22)
(0.0185603199933 -0.00888782361133 3.26120861889e-23)
(0.0187147842123 -0.0107118563604 1.06706987741e-23)
(0.0188900937045 -0.0126427024762 -1.58259913566e-23)
(0.0190951926323 -0.0147052775837 -1.33789647194e-23)
(0.0193319216277 -0.0169235631748 -2.10574100719e-23)
(0.0195984226055 -0.0193464929918 -1.04694346056e-22)
(0.0198639883315 -0.0220343771029 -2.33620505004e-22)
(0.020128077022 -0.0250768464141 -4.6309982207e-22)
(0.0205123917191 -0.0286046696811 -9.69949082955e-22)
(0.0209358389868 -0.0326683005506 -2.08326584935e-21)
(0.0196922298407 -0.0378622497961 -3.17775031931e-21)
(0.0161948292292 -0.0427401037897 -7.4345577194e-21)
(0.0137490497805 -0.0411539114988 -1.18343905007e-20)
(0.0148078934656 -0.0476456186416 -1.20785362205e-20)
(0.0109516535947 -0.0553410961962 -2.9122994698e-21)
(0.0182768813932 -0.000758964581435 1.43176140341e-22)
(0.0189398608228 -0.00220854700474 3.10335259538e-22)
(0.0194431063156 -0.0037152911294 3.78059036922e-22)
(0.0198293910677 -0.00532532927088 2.58571988308e-22)
(0.0201012067985 -0.00698314210519 1.09015643809e-22)
(0.0203345015877 -0.00870746340436 2.78663886863e-23)
(0.0205809441364 -0.0105114731305 9.04312032575e-24)
(0.0208657772769 -0.0124158838614 -4.63841222528e-24)
(0.0212131104545 -0.0144464295644 -1.03550680473e-24)
(0.0216245318445 -0.0166266322275 -2.27118603529e-23)
(0.022112449411 -0.0189982677344 -8.0873200191e-23)
(0.0226712713703 -0.0216102430331 -1.37295022519e-22)
(0.0233015443507 -0.0245187556366 -3.69599451934e-22)
(0.024100715631 -0.0277963449661 -7.64693397457e-22)
(0.0249796681588 -0.0313451465631 -2.28653698047e-21)
(0.024430244676 -0.0355391587701 -5.59592134213e-21)
(0.0213492484232 -0.0399749321967 -8.31273499844e-22)
(0.0176206531388 -0.0381098151206 -1.04489772025e-20)
(0.0179792889954 -0.0464735528174 -1.0537875386e-20)
(0.00738058123837 -0.0516992480099 -2.10106956242e-21)
(0.0197025938923 -0.000727996501603 -2.44784803391e-23)
(0.0204206494444 -0.00213242605811 1.72733298796e-22)
(0.0209871340787 -0.00359257564295 2.45718420177e-22)
(0.0214339602214 -0.00515472619415 1.80524231707e-22)
(0.0217695463924 -0.00677052774969 7.65172277126e-23)
(0.0220730172598 -0.00845142884575 2.23627040496e-23)
(0.0224092603639 -0.0102085528988 7.44870525307e-24)
(0.0228021172763 -0.0120574847447 -1.47894206005e-23)
(0.0232805040877 -0.0140275482612 -9.85654518676e-24)
(0.0238553884783 -0.0161403038276 -1.42588372081e-23)
(0.0245417186554 -0.0184155759572 -1.03006101765e-22)
(0.0253499009684 -0.0209015789629 -1.62990288568e-22)
(0.0262630038692 -0.0236319658592 -4.34058927806e-22)
(0.0273125328796 -0.0266276197218 -7.86061567244e-22)
(0.0283960723622 -0.0297423479372 -2.11344991762e-21)
(0.0284402294261 -0.0331964738563 -2.00229861897e-21)
(0.0263620221025 -0.0371430922462 -4.9668841355e-21)
(0.022019402508 -0.0348003100705 -6.26923460556e-21)
(0.0227865685981 -0.0441699592635 -6.05686680048e-21)
(0.00122252172792 -0.0517193102081 -6.71446749391e-24)
(0.0210726936343 -0.000693044375458 -2.90951829141e-22)
(0.0218486975021 -0.00203563040476 -1.18328041905e-22)
(0.0224771930375 -0.00343772175536 2.36935194498e-23)
(0.0229857997402 -0.00494152494832 3.78061411277e-23)
(0.0233844740232 -0.00649616186349 1.37812943067e-23)
(0.023756783318 -0.00810996401698 5.6059344375e-25)
(0.0241745753991 -0.00979639738034 -2.57506998692e-24)
(0.0246721129939 -0.0115730194746 -1.68516643356e-23)
(0.025270643901 -0.013460433042 -6.68618278276e-24)
(0.0259990617149 -0.0154810513585 9.71404824364e-24)
(0.0268636835706 -0.0176364150425 -7.968315977e-23)
(0.0278601053986 -0.0199621763502 -7.53163966547e-23)
(0.0289822674084 -0.0224881963817 -1.87066509835e-22)
(0.0302015861417 -0.0252180947884 -1.22609918099e-22)
(0.0314017843655 -0.0280223089983 3.54383145202e-22)
(0.0318812388041 -0.0309611346223 2.76262764142e-21)
(0.030761598382 -0.0344960020201 2.14893693869e-21)
(0.0265969112639 -0.0315765498796 -4.83516287407e-21)
(0.021162850406 -0.0411158665016 -4.83765951524e-21)
(-0.00502694079234 -0.0417741783864 2.69592109319e-21)
(0.0223737274479 -0.000651631267022 -6.01631328121e-22)
(0.0232095823283 -0.00192589083462 -3.67835114497e-22)
(0.0238975240206 -0.00325335602956 -1.92416288472e-22)
(0.0244676324982 -0.00467562905173 -8.68750605422e-23)
(0.0249269717416 -0.00614727583652 -3.22665319265e-23)
(0.0253656336667 -0.00767664288748 -6.57252019678e-24)
(0.0258589453348 -0.00927515733723 4.43272371999e-24)
(0.0264571204264 -0.0109588495515 5.2943308307e-24)
(0.0271758000643 -0.0127400960521 3.12494560256e-23)
(0.0280290162131 -0.0146399759789 3.62549412097e-23)
(0.0290381208884 -0.0166667710659 -6.52619178061e-23)
(0.0301852441401 -0.0188248919965 -9.11550608182e-23)
(0.0314590918125 -0.0211298042657 -1.96031467029e-22)
(0.0328058234128 -0.0236079181117 -1.66643327309e-22)
(0.0340971313934 -0.0261826330704 1.00216406697e-22)
(0.0348636908324 -0.0286384903685 2.96162809194e-21)
(0.034432953653 -0.0317122078679 -1.24560849296e-21)
(0.0312421702292 -0.0286403749661 -4.0205814468e-21)
(0.0266356530435 -0.0332025942814 -4.02905185597e-21)
(-0.00774306883275 -0.006648872072 -5.08418319835e-21)
(0.0235940871993 -0.000603870969925 -6.71942079317e-22)
(0.0244845578775 -0.00179620050252 -4.06711655447e-22)
(0.0252279600773 -0.00302989358548 -2.32672689252e-22)
(0.0258549597533 -0.00434634323455 -1.05791117426e-22)
(0.0263715452421 -0.00571141725586 -4.16797946652e-23)
(0.0268762378561 -0.00713558439695 -2.1218488182e-24)
(0.0274487458744 -0.00863248261251 2.72550901453e-23)
(0.0281383344758 -0.0102101485955 2.45163958591e-23)
(0.028962449438 -0.0118793012331 2.13258190314e-23)
(0.0299185166895 -0.0136454466495 1.30516335717e-23)
(0.0310347747221 -0.0155141940928 -3.03124652131e-23)
(0.0323140017518 -0.0174895413699 -8.04588840594e-23)
(0.0337100410279 -0.0195660622712 -2.30552923343e-22)
(0.0351424721583 -0.0217734585908 -7.63860111723e-22)
(0.0364921200541 -0.02415164856 -1.80195151277e-21)
(0.0374150869378 -0.0261263891781 1.02093029083e-22)
(0.0376239906572 -0.0287237032941 -4.48140362164e-21)
(0.0361836312217 -0.0258283626277 -5.01288994111e-21)
(-0.0262717986481 -0.0285747398379 -4.83166057985e-21)
(0.000994324478465 0.00330654351377 -4.86350647285e-21)
(0.0247232359814 -0.000550980249872 -3.8765743947e-22)
(0.0256614142697 -0.00164572092092 -2.01433807109e-22)
(0.02645693362 -0.00277996116949 -9.66985204261e-23)
(0.0271347731068 -0.00398875410886 -3.94074645085e-23)
(0.0277060469781 -0.00524020706156 -1.24149268774e-23)
(0.0282770954199 -0.00654583701267 4.71135432368e-24)
(0.0289289872154 -0.00792176101849 8.06295173656e-24)
(0.0296952553498 -0.00937517518737 -3.84520576637e-24)
(0.0305950335029 -0.0109033249452 1.20924691483e-23)
(0.0316381032785 -0.0124998735832 1.98951971652e-23)
(0.0328479261962 -0.0141727819894 -1.41464667914e-23)
(0.0342295542708 -0.01593146439 -6.40610169943e-23)
(0.0357280206188 -0.017766995465 -2.84050206189e-22)
(0.0372038835063 -0.0196523118171 -1.02759688615e-21)
(0.0385300888782 -0.0218480140175 -1.57851202606e-21)
(0.0395137006491 -0.0234424402188 -3.39022678933e-21)
(0.0404779741735 -0.0256801591424 -5.38017726394e-21)
(0.0412723464206 -0.0230869222868 -1.01166700775e-20)
(-0.0448022575211 -0.0310697708243 -1.24848840388e-20)
(0.0121749471461 -0.0206170326518 -4.82239818543e-21)
(0.0257554615256 -0.000485318613009 -5.56018364483e-23)
(0.0267354138117 -0.00148179224077 5.23697535518e-23)
(0.0275795148702 -0.00251199086738 7.2797399427e-23)
(0.0283023769325 -0.00361106092528 6.43186847258e-23)
(0.0289258619614 -0.0047506786498 2.49188966085e-23)
(0.0295625395579 -0.00594269367366 3.45503726431e-24)
(0.0302740224744 -0.00719323542531 -1.8297381018e-25)
(0.0310986498187 -0.00849727706409 -4.8774312404e-24)
(0.03205834707 -0.00985408333722 -1.26149577592e-23)
(0.0331727020534 -0.0112594724825 6.46530919038e-24)
(0.0344489802751 -0.0127169846016 -5.99569590458e-24)
(0.0359044215399 -0.0142332426057 -1.17142966753e-22)
(0.0374798849913 -0.0158114828794 -5.43507467527e-22)
(0.0389841959654 -0.0173410007078 -1.7149016656e-21)
(0.0402107962587 -0.0192870258077 -3.54079276252e-21)
(0.0412158916267 -0.0205611370119 -4.54120526827e-21)
(0.0431118874174 -0.0227241592575 -5.74452203888e-21)
(0.046228562135 -0.020311409689 -1.12465961551e-20)
(-0.0441595521365 -0.0300143704889 -1.68079884712e-20)
(0.0136034931127 -0.0374378757891 -6.59011666861e-21)
(0.0266765609648 -0.000423168395387 1.30452489228e-23)
(0.0277021328384 -0.00132158554782 7.46491097086e-23)
(0.0285930396283 -0.00224604029731 1.04706665042e-22)
(0.0293649010345 -0.00323822517406 8.27677257227e-23)
(0.0300349736996 -0.0042685071877 3.44668376878e-23)
(0.030717731404 -0.00533999724593 6.97089203899e-24)
(0.0314697652093 -0.00644423145274 6.54552352575e-24)
(0.0323351327471 -0.00757887219588 -1.4603063904e-23)
(0.0333351707675 -0.00875503472343 -3.71256761094e-23)
(0.0345002099545 -0.0099715753918 -4.12070778798e-23)
(0.0358255849267 -0.0112189362847 -7.66396138876e-23)
(0.0373148678707 -0.0124866215802 -1.67995360597e-22)
(0.0389228741571 -0.0137999257281 -7.10602543073e-22)
(0.040456781824 -0.0149996390062 -2.07108580976e-21)
(0.0416115840256 -0.016639818803 -3.22517217e-21)
(0.0426484849331 -0.0176381008661 -9.18500956033e-22)
(0.0454966140276 -0.0196398945607 -3.97764780976e-21)
(0.0504995333972 -0.0173412436562 -1.2880502794e-20)
(-0.0374572103593 -0.0262781451952 -1.56963192794e-20)
(0.0120362175373 -0.0350055033965 -6.1362304889e-21)
(0.0274931402537 -0.00036619985486 -2.22711403197e-22)
(0.0285598319135 -0.00116192015264 -7.10549522257e-23)
(0.0294965319147 -0.00197934428799 1.57819798376e-24)
(0.0303162644475 -0.00285763062409 4.53284699588e-23)
(0.0310241728748 -0.00376428927788 1.89819806174e-23)
(0.0317257464319 -0.00469653341211 7.58957953905e-25)
(0.0325106565326 -0.00564807673116 2.29367145149e-24)
(0.0334078968471 -0.00662253383606 -7.58375738011e-24)
(0.0344351858019 -0.00762753155875 -1.98195616938e-23)
(0.0356232409241 -0.0086586561652 -3.51657703491e-23)
(0.0369755741944 -0.00971122804918 -4.03409468279e-23)
(0.0384754818963 -0.0107548139541 -1.4000831223e-22)
(0.0400756538929 -0.0118097626088 -5.9110979013e-22)
(0.0416185722688 -0.0127340032315 -1.37429906245e-21)
(0.042778591862 -0.0140861221617 -2.75992783885e-21)
(0.0439904429137 -0.0148779917763 -5.19332027584e-22)
(0.0475617071629 -0.0165483486835 -5.67809740934e-21)
(0.0537637265195 -0.0141812166876 -1.02000396646e-20)
(-0.0297167294304 -0.021917730225 -1.11393067929e-20)
(0.0109084181249 -0.0352167717024 -6.49711349319e-21)
(0.0281997660473 -0.000302882266359 -4.07746894221e-22)
(0.0293044335896 -0.000990490195163 -2.12965202749e-22)
(0.0302853116128 -0.00169059571336 -6.10497178714e-23)
(0.0311430805491 -0.00243929481155 2.96474494341e-23)
(0.0318764701446 -0.00321517665118 2.12336886773e-23)
(0.032594645602 -0.0040098258094 1.96216816339e-23)
(0.0333979116351 -0.00481814342266 7.61974216392e-24)
(0.0343183188124 -0.00564655764329 7.69918314778e-24)
(0.0353692610203 -0.00648887077262 1.5881947508e-23)
(0.0365666684274 -0.00734032216632 -6.61450941542e-24)
(0.0379172198749 -0.00820437678907 -3.00038936448e-23)
(0.0394146975209 -0.00905180331672 -1.50947935388e-22)
(0.0409898354924 -0.00988339636181 -4.4313845803e-22)
(0.0425342780707 -0.0105998736454 -1.27542494355e-21)
(0.0437765977878 -0.0117043568404 -2.65296872213e-21)
(0.0452673796458 -0.0124979651275 -7.39318845931e-22)
(0.0490417510241 -0.0137543376576 -4.77641829375e-21)
(0.0559801914045 -0.0109143359117 -6.66124574893e-21)
(-0.0178521020757 -0.0173421839119 -7.09552185294e-21)
(0.0122876752739 -0.0372307726694 -1.97429179362e-21)
(0.0287864138844 -0.000238504495743 -4.19887891818e-22)
(0.0299294205726 -0.000810100496636 -2.35366069111e-22)
(0.0309487911109 -0.00138353663726 -6.35782109712e-23)
(0.0318361258692 -0.00199838443974 3.24217667805e-23)
(0.0325880268408 -0.00264026530324 1.58065807339e-23)
(0.0333280999801 -0.00330105141476 1.31687253044e-23)
(0.0341430170502 -0.00397510416574 8.6717871299e-24)
(0.0350744204505 -0.00465956665495 1.40112466101e-23)
(0.0361391994673 -0.00534382520918 2.10642362191e-23)
(0.0373395221156 -0.00602677537811 1.56256808884e-23)
(0.0386823853499 -0.00671231804418 -1.3920021194e-23)
(0.0401488042496 -0.00738183349745 -1.26902558965e-22)
(0.0417059224469 -0.00801949807264 -2.54814661773e-22)
(0.043272314983 -0.00858439649463 -7.86671292807e-22)
(0.0446896444036 -0.00946120226828 -7.96409898275e-22)
(0.0464485762634 -0.0103937045498 -1.48690575381e-22)
(0.0498766595676 -0.0112242077703 -3.22242817386e-21)
(0.0567561657009 -0.00802352932488 -5.06795073964e-21)
(-0.00221441800557 -0.0130007247728 -8.33506956974e-21)
(0.0175620127336 -0.0388274349205 -5.5481848957e-21)
(0.0292517885907 -0.000172246390952 -3.43406697504e-22)
(0.0304282092119 -0.000623610236009 -1.60815522865e-22)
(0.0314815319921 -0.00107027203134 -1.38180866433e-23)
(0.0323949963521 -0.00155135963506 6.23497896347e-23)
(0.0331673855014 -0.00205708415801 3.30488848659e-23)
(0.0339243433099 -0.00257742056738 1.19285942808e-23)
(0.0347508753788 -0.0031088236996 2.69424896284e-24)
(0.0356858475924 -0.00364800910085 3.50106010318e-24)
(0.0367479315549 -0.00418538126304 1.38831269303e-23)
(0.0379420421999 -0.00471517426235 1.12408969966e-23)
(0.0392735481939 -0.00524623244831 -2.10790874117e-23)
(0.0407169138199 -0.0057521255387 -4.06194377307e-23)
(0.0422576865521 -0.00621559032276 -1.71634129108e-22)
(0.0438473458602 -0.00664817935479 -7.57057617075e-22)
(0.0454866578367 -0.00730857498732 -7.87837726479e-22)
(0.0474900996506 -0.00816632327203 4.52862969955e-22)
(0.0503705664691 -0.00884265319608 -2.27158453241e-21)
(0.0560370290304 -0.00563057261068 -4.54987889852e-21)
(0.0119321649487 -0.00840599741791 -4.60789790336e-21)
(0.0252478505691 -0.0309581672776 -2.7496649622e-21)
(0.0295931044224 -0.000105888944292 -2.17803680842e-22)
(0.030797617279 -0.000432688948555 -1.16545506176e-22)
(0.0318829353663 -0.000748790238043 4.42902012301e-24)
(0.0328206453584 -0.00109448309518 6.29835227436e-23)
(0.0336099511604 -0.00146145294089 3.81263681449e-23)
(0.0343748934567 -0.00183522787191 1.0129345248e-23)
(0.0352103137449 -0.0022129710833 -3.53976630081e-25)
(0.0361539259764 -0.00260103222271 -7.71559077953e-24)
(0.0372146132938 -0.00299906751235 -1.09207996481e-24)
(0.0383970456633 -0.00339421158002 -4.82734053807e-24)
(0.0397095598256 -0.00378971511487 1.80344574308e-23)
(0.0411456874835 -0.00415476341688 1.53204975316e-23)
(0.0426616789493 -0.0044757647634 -8.5374807503e-23)
(0.0442638714694 -0.00478098019039 -5.54724698167e-22)
(0.0460782539839 -0.00524043040121 -7.76412673616e-22)
(0.0483531643227 -0.00586128116518 4.59209630615e-22)
(0.0507875230451 -0.00691727836266 -2.5520387743e-21)
(0.0545997056184 -0.00366175000905 -6.7290558182e-21)
(0.0192434057542 -0.00444642452512 -1.73388580908e-20)
(0.0306658532476 -0.0148804990494 -2.17615974511e-20)
(0.0298023861681 -3.74443231429e-05 -1.87970508597e-22)
(0.03103883877 -0.000236883831339 -7.70428147742e-23)
(0.0321512486366 -0.000421555006653 -1.11486975437e-23)
(0.0331097218929 -0.000631591299976 4.43691985578e-23)
(0.0339096944776 -0.000864001841482 2.50827042989e-23)
(0.0346800836496 -0.00110126585376 2.73801803217e-24)
(0.0355205486306 -0.00133795757582 -3.52546123287e-24)
(0.0364740372437 -0.00158152576283 -5.05662715726e-24)
(0.0375430551448 -0.00183656275539 7.35565847087e-25)
(0.0387201213262 -0.00209306194246 2.5790019262e-24)
(0.0400130048907 -0.00234402157709 2.62647568855e-23)
(0.0414332082053 -0.00258017334841 4.24137677736e-23)
(0.0429403802817 -0.00278597389329 -1.08029468498e-25)
(0.04455485518 -0.0029779767944 -2.26311469358e-22)
(0.0464890865327 -0.00326871042507 -7.07250545502e-22)
(0.0489701392396 -0.00363542076171 7.1332033805e-22)
(0.0511181136631 -0.00495528731327 -2.9858050717e-21)
(0.0537829462931 -0.00159498845667 -6.57611803008e-21)
(0.023469704947 -0.00450139478481 -4.33189635814e-21)
(0.0395928022577 -0.00942576647093 -2.28035117934e-21)
(0.0298794189629 3.68621743921e-05 -1.2948950499e-22)
(0.0311460943359 -3.34485586162e-05 -8.46950475972e-23)
(0.032285708101 -9.09802477942e-05 -1.76528266557e-23)
(0.0332635963645 -0.00016551109955 1.55565050954e-23)
(0.0340733232383 -0.000263492505265 6.83758111945e-24)
(0.034849932786 -0.000370087958506 -2.00632036601e-24)
(0.0356928690515 -0.000479450173764 -5.14433719942e-24)
(0.0366498188841 -0.000587872219939 -1.13223563369e-24)
(0.0377292246279 -0.000699015408878 6.64051322154e-24)
(0.0389095139709 -0.000818879474202 2.0378195865e-23)
(0.0401843346054 -0.00093344839169 2.46852676798e-23)
(0.0415835702953 -0.00103396887348 5.14911323415e-23)
(0.0431010309702 -0.0011335210024 7.00792747414e-23)
(0.044750076961 -0.00123326235467 -7.68200971279e-23)
(0.0467839210438 -0.00140482270858 -2.41603995921e-22)
(0.0493589088539 -0.00157014752484 1.24682855163e-21)