/*--------------------------------*- C++ -*----------------------------------*\
| =========                 |                                                 |
| \\      /  F ield         | OpenFOAM: The Open Source CFD Toolbox           |
|  \\    /   O peration     | Version:  v2012                                 |
|   \\  /    A nd           | Website:  www.openfoam.com                      |
|    \\/     M anipulation  |                                                 |
\*---------------------------------------------------------------------------*/
FoamFile
{
    version     2.0;
    format      ascii;
    class       surfaceScalarField;
    location    "3.3";
    object      alphaPhi0.water;
}
// * * * * * * * * * * * * * * * * * * * * * * * * * * * * * * * * * * * * * //

dimensions      [0 3 -1 0 0 0 0];
oriented        oriented;


internalField   nonuniform List<scalar> 
304
(
-0.000121968826176
-0.000133432196898
-0.000188895730896
-0.000145460602867
-0.000183397569251
-0.000157727606139
-0.000172702084403
-0.000167842098813
-0.000156526970355
-0.000171084690176
-0.000142993389178
-2.8601857069e-06
-8.39848301938e-05
-1.63135583214e-11
-1.90743835542e-08
-1.60760521937e-11
-0.000129085830444
-0.000179424836689
-0.000137833643485
-0.00017464920501
-0.000144981750497
-0.000165553680241
-0.000149421320263
-0.000152085101956
-0.000150649415829
-0.000138166144135
-9.27711027756e-06
-7.6484107205e-05
-1.37118470989e-09
-2.54900946559e-08
-1.4344122264e-09
-0.000125482530219
-0.000171734781283
-0.000131377955609
-0.000168752998135
-0.000133901867622
-0.000163030171234
-0.000132609329066
-0.000153379708019
-0.000130193945042
-0.000137039699746
-3.69012291705e-06
-6.68899798953e-05
-2.13311088271e-07
-2.14806356563e-08
-3.46862073092e-09
-0.00011703624086
-0.000165024726315
-0.000123801433043
-0.0001649686894
-0.000128722887841
-0.000163830872088
-0.000130450979936
-0.00016130284826
-0.000127141735285
-0.000156691019458
-0.000118306439688
-0.000142339537088
-1.24431033603e-06
-6.17918992403e-05
-1.45142919224e-07
-1.88139856802e-08
-4.2041221035e-09
-0.000117399479051
-0.000157482133042
-0.000123662835245
-0.000158704460928
-0.000128244451488
-0.000159248634248
-0.000130320259906
-0.000159228159451
-0.000127886916571
-0.000159124715659
-0.000115253438373
-0.000151469535313
-9.87988585815e-08
-6.47178196775e-05
-1.04251808264e-07
-7.72578731662e-09
-1.74931420252e-10
-0.000118964077086
-0.00015007611902
-0.000125046697769
-0.000152620971655
-0.00012947364783
-0.00015482116185
-0.000131720664974
-0.000156980707871
-0.00013028788135
-0.000160556988212
-0.000118168803193
-0.000160231877532
2.35040104409e-06
-7.56964656816e-05
-1.94578017762e-08
3.73574899849e-09
-5.23897586576e-11
-0.000114248015163
-0.000138813061456
-0.000121828602553
-0.00014249464857
-0.000127975193925
-0.000146473570532
-0.000132261954074
-0.000150533909995
-0.000134190275401
-0.000155051916718
-0.000132861436444
-0.000161885458816
-0.000122011510999
-0.000168231048641
3.69993106183e-06
-8.9595119596e-05
4.31669819059e-10
-2.47271819663e-08
8.77817281228e-11
-0.000108817709214
-0.00012568061887
-0.000117994901602
-0.000129635138193
-0.000126143117767
-0.000134345689508
-0.000132782937435
-0.000139832965093
-0.000137425926596
-0.000145890504422
-0.000139111664097
-0.000153365853469
-0.000137675860379
-0.000163321190944
-0.000129094395872
-0.000174757636034
2.40042569466e-06
-0.000103968878542
-6.63467768078e-10
-2.22573495054e-07
-2.02831859172e-10
-0.000112791768902
-0.000122806032878
-0.000119620158054
-0.000131978503258
-0.000125172539391
-0.000139771558364
-0.000132039223443
-0.00014555115629
-0.000140110268581
-0.000148496617504
-0.000150420392126
-0.000148431916713
-0.000163385897782
-0.000143372662436
-0.000178258501833
-4.46075104134e-06
-0.000116476765501
-1.91578935383e-09
3.72605380615e-07
2.09126615052e-09
-0.000128527198719
-0.000108510155595
-0.000139028183061
-0.000114670938442
-0.000148669337746
-0.000122397447057
-0.000156961471229
-0.000131817322177
-0.000163203319289
-0.00014417854429
-0.000167311306565
-0.000159277914856
-0.000169489290632
-0.000176078957067
7.99233647429e-06
-0.000126307471762
-6.74865418818e-09
-1.19928768917e-06
-2.16461091039e-09
-0.000134765243573
-9.60164022964e-05
-0.000147054042622
-0.000102381627235
-0.00015906413523
-0.000110386758712
-0.000170287838389
-0.000120592531742
-0.000181343209345
-0.000133123176225
-0.000192055847662
-0.000148565297087
-0.000203925891499
-0.000164206826375
-2.01893795999e-05
-0.000130849327114
2.4736600466e-09
-2.03860149527e-06
2.05051660631e-11
-0.000141020844384
-8.22307236244e-05
-0.000155191728846
-8.82103360027e-05
-0.00016967245186
-9.59054831419e-05
-0.000184804025198
-0.000105459513566
-0.000200493729445
-0.000117433478079
-0.000218176896742
-0.000130882064988
-0.000237760214489
-0.000144620479071
-5.36661493361e-05
-0.000127469195552
-4.33370188212e-08
-4.07242605175e-06
-3.48881912922e-09
-0.000146924939731
-6.70716125957e-05
-0.000162858399463
-7.22765385277e-05
-0.000179751730954
-7.90116268545e-05
-0.00019813683967
-8.70726160808e-05
-0.000218514033456
-9.70562693115e-05
-0.00024128937438
-0.000108106544426
-0.000265494982049
-0.000120411325077
-6.65279055667e-05
-0.000117397864253
-5.40648943249e-08
-7.52708659747e-06
-5.61681736099e-15
-0.000151484806595
-5.08427625019e-05
-0.000168804534608
-5.49565616932e-05
-0.000187795568063
-6.00201506949e-05
-0.000208760793988
-6.61053481362e-05
-0.000232375800061
-7.34412642041e-05
-0.000258052642614
-8.24298477862e-05
-0.000283125800055
-9.53336747962e-05
-7.75806455859e-05
-0.000101358349313
-7.52666458498e-09
-8.39235511155e-06
-4.32485681502e-11
-0.000136864266674
-3.17110154206e-05
-0.000153770575562
-3.39363395954e-05
-0.000171963489626
-3.67635374046e-05
-0.00019201201492
-3.99712682457e-05
-0.00021446479625
-4.36504771101e-05
-0.00023998316694
-4.79229456422e-05
-0.000267464479822
-5.49486036659e-05
-0.000292178654522
-7.06144619859e-05
-8.65257268377e-05
-7.82895995155e-05
-1.86010498972e-08
-5.98669621048e-06
-1.48865401965e-11
-0.000135778830991
-1.57040928642e-05
-0.000152901203188
-1.68139069887e-05
-0.00017144996506
-1.82147029383e-05
-0.000191770650422
-1.96503048963e-05
-0.000214264449388
-2.11546519205e-05
-0.000239026401401
-2.31610799535e-05
-0.000266377924174
-2.75971665195e-05
-0.000297170571228
-3.98166143212e-05
-9.36908593651e-05
-4.54020030034e-05
-2.58883520165e-09
-2.43106651538e-06
-1.51948147818e-13
-0.000131880888039
-0.000148694782826
-0.000166909486551
-0.000186559656768
-0.000207712769334
-0.00023087385421
-0.000258471021332
-0.000298282611754
-9.76617983696e-05
-8.02386665681e-07
)
;

boundaryField
{
    back
    {
        type            calculated;
        value           uniform 0;
    }
    sides
    {
        type            calculated;
        value           uniform 0;
    }
    bottom
    {
        type            calculated;
        value           nonuniform List<scalar> 0();
    }
    front
    {
        type            calculated;
        value           uniform 0;
    }
    atmosphere
    {
        type            calculated;
        value           nonuniform List<scalar> 
17
(
1.29890557375e-14
-4.6967887841e-14
-2.11276653728e-07
-1.44407549768e-07
-1.08280134211e-07
-1.95790382347e-08
2.93949205253e-10
-3.77415465993e-10
-4.20188427099e-09
-2.49860504341e-09
2.88543971333e-10
-3.98276945244e-08
-5.75537067385e-08
-7.47008906316e-09
-1.86323209295e-08
-2.60356777032e-09
-8.02386829525e-07
)
;
    }
    floatingObject
    {
        type            calculated;
        value           nonuniform List<scalar> 0();
    }
    procBoundary11to9
    {
        type            processor;
        value           nonuniform List<scalar> 9(0.00020265678909 0.000200361873309 0.000195427673304 0.000184969096932 0.000166646186658 0.000150015799519 8.87271060744e-05 -2.18599008133e-08 -9.03032762383e-15);
    }
    procBoundary11to10
    {
        type            processor;
        value           nonuniform List<scalar> 
23
(
0.000110746949857
-0.000191433553806
0.000119616185115
0.00011779357237
0.000172974667981
0.000109087800156
0.000109858575215
0.000111559464847
0.000147457401371
0.000105605430133
0.000135550617152
9.89497225103e-05
0.000102199134926
-0.000115087284248
0.000117418282791
0.00012227242233
0.00012723587401
0.000131766690997
0.000135256394652
4.75879349466e-05
0.000120987783936
0.000119772214835
0.000116176855412
)
;
    }
}


// ************************************************************************* //
