/*--------------------------------*- C++ -*----------------------------------*\
| =========                 |                                                 |
| \\      /  F ield         | OpenFOAM: The Open Source CFD Toolbox           |
|  \\    /   O peration     | Version:  v2012                                 |
|   \\  /    A nd           | Website:  www.openfoam.com                      |
|    \\/     M anipulation  |                                                 |
\*---------------------------------------------------------------------------*/
FoamFile
{
    version     2.0;
    format      ascii;
    class       volScalarField;
    location    "3.3";
    object      epsilon_0;
}
// * * * * * * * * * * * * * * * * * * * * * * * * * * * * * * * * * * * * * //

dimensions      [0 2 -3 0 0 0 0];


internalField   nonuniform List<scalar> 
167
(
0.00210643312295
0.00216199629981
0.00228762427492
0.00258647479219
0.00343316288642
0.006473492592
0.0181594738171
0.0574544006613
0.165845203982
0.00215851363291
0.00228544739255
0.00258267825211
0.00342948324501
0.00656909892323
0.0188860093368
0.0581514920503
0.165793838111
0.002155218718
0.00228440248515
0.00258210735262
0.00342306867932
0.00660059598627
0.0194428379374
0.0590009148489
0.165674035823
0.00209148574334
0.00215249107098
0.00228627667849
0.00259458014233
0.0034596331955
0.00665396746373
0.0194361254406
0.0597022246776
0.166074313543
0.00208648557629
0.00214967624223
0.00228795023865
0.00260800358847
0.00351187443795
0.00677591271844
0.0192301586671
0.058564298891
0.165451787393
0.00208137203059
0.00214637275038
0.00228716781458
0.00260902705808
0.0035118510883
0.00675011830564
0.0186529055472
0.05462854958
0.162126316779
0.00204435496805
0.00207616390938
0.00214261272008
0.00228453059979
0.00260205570261
0.003479657764
0.0066581390889
0.018419930699
0.0518605296973
0.138671865725
0.00202073933932
0.00203830569204
0.00207094860614
0.00213857218565
0.00228063422359
0.00258864919617
0.00341278324232
0.00642953239628
0.018053705213
0.0509110493507
0.131096805325
0.00201432874457
0.00203239381912
0.00206582084815
0.00213456155812
0.00227724732703
0.00258078877896
0.00337694992633
0.00631467700259
0.0180739276051
0.053028814292
0.139735267372
0.00202656805288
0.00206072757892
0.00213064753632
0.00227466057543
0.00257719234492
0.00335798625824
0.00622485627936
0.0179562430035
0.0554210602101
0.162934811168
0.00202049530361
0.00205541032411
0.00212653183382
0.00227195233951
0.00257444759654
0.00334097453685
0.00609965488757
0.0173208359088
0.0553325307014
0.164478567041
0.00201307256186
0.00204869925524
0.00212111248756
0.00226875346498
0.00257302283168
0.0033271121664
0.00592494386451
0.0161083968514
0.0522020257788
0.163383889826
0.00200099421608
0.00203721175161
0.00211088996878
0.00226123291472
0.00257035799196
0.0033164793503
0.00570209251746
0.0142977247709
0.0460521865513
0.158282256975
0.00197496098246
0.00201128620841
0.00208540329658
0.0022370948713
0.00254932704223
0.00328962976691
0.0055115580877
0.0128640445331
0.0407649483955
0.151553442589
0.00189087600137
0.00191016091573
0.00194537192811
0.0020173526777
0.00216532302241
0.00247017951913
0.00318596551527
0.00528096954025
0.012173541412
0.0398719945093
0.151047514916
0.00172377457777
0.00174139601182
0.00177286276271
0.00183702176501
0.00196924810652
0.0022400742884
0.00286772288258
0.00474437395643
0.0115709429927
0.0413760176727
0.155102222255
0.00165005431725
0.00166705474441
0.00169544603719
0.00175229655941
0.00186898887063
0.00210384878576
0.00262175491264
0.00427812600346
0.0122080036226
0.052300093846
0.207057086013
)
;

boundaryField
{
    back
    {
        lowReCorrection 0;
        blending        stepwise;
        n               2;
        type            epsilonWallFunction;
        value           nonuniform List<scalar> 
167
(
0.00210643312295
0.00216199629981
0.00228762427492
0.00258647479219
0.00343316288642
0.006473492592
0.0181594738171
0.0574544006613
0.165845203982
0.00215851363291
0.00228544739255
0.00258267825211
0.00342948324501
0.00656909892323
0.0188860093368
0.0581514920503
0.165793838111
0.002155218718
0.00228440248515
0.00258210735262
0.00342306867932
0.00660059598627
0.0194428379374
0.0590009148489
0.165674035823
0.00209148574334
0.00215249107098
0.00228627667849
0.00259458014233
0.0034596331955
0.00665396746373
0.0194361254406
0.0597022246776
0.166074313543
0.00208648557629
0.00214967624223
0.00228795023865
0.00260800358847
0.00351187443795
0.00677591271844
0.0192301586671
0.058564298891
0.165451787393
0.00208137203059
0.00214637275038
0.00228716781458
0.00260902705808
0.0035118510883
0.00675011830564
0.0186529055472
0.05462854958
0.162126316779
0.00204435496805
0.00207616390938
0.00214261272008
0.00228453059979
0.00260205570261
0.003479657764
0.0066581390889
0.018419930699
0.0518605296973
0.138671865725
0.00202073933932
0.00203830569204
0.00207094860614
0.00213857218565
0.00228063422359
0.00258864919617
0.00341278324232
0.00642953239628
0.018053705213
0.0509110493507
0.131096805325
0.00201432874457
0.00203239381912
0.00206582084815
0.00213456155812
0.00227724732703
0.00258078877896
0.00337694992633
0.00631467700259
0.0180739276051
0.053028814292
0.139735267372
0.00202656805288
0.00206072757892
0.00213064753632
0.00227466057543
0.00257719234492
0.00335798625824
0.00622485627936
0.0179562430035
0.0554210602101
0.162934811168
0.00202049530361
0.00205541032411
0.00212653183382
0.00227195233951
0.00257444759654
0.00334097453685
0.00609965488757
0.0173208359088
0.0553325307014
0.164478567041
0.00201307256186
0.00204869925524
0.00212111248756
0.00226875346498
0.00257302283168
0.0033271121664
0.00592494386451
0.0161083968514
0.0522020257788
0.163383889826
0.00200099421608
0.00203721175161
0.00211088996878
0.00226123291472
0.00257035799196
0.0033164793503
0.00570209251746
0.0142977247709
0.0460521865513
0.158282256975
0.00197496098246
0.00201128620841
0.00208540329658
0.0022370948713
0.00254932704223
0.00328962976691
0.0055115580877
0.0128640445331
0.0407649483955
0.151553442589
0.00189087600137
0.00191016091573
0.00194537192811
0.0020173526777
0.00216532302241
0.00247017951913
0.00318596551527
0.00528096954025
0.012173541412
0.0398719945093
0.151047514916
0.00172377457777
0.00174139601182
0.00177286276271
0.00183702176501
0.00196924810652
0.0022400742884
0.00286772288258
0.00474437395643
0.0115709429927
0.0413760176727
0.155102222255
0.00165005431725
0.00166705474441
0.00169544603719
0.00175229655941
0.00186898887063
0.00210384878576
0.00262175491264
0.00427812600346
0.0122080036226
0.052300093846
0.207057086013
)
;
    }
    sides
    {
        lowReCorrection 0;
        blending        stepwise;
        n               2;
        type            epsilonWallFunction;
        value           nonuniform List<scalar> 
11
(
0.00165005431725
0.00166705474441
0.00169544603719
0.00175229655941
0.00186898887063
0.00210384878576
0.00262175491264
0.00427812600346
0.0122080036226
0.052300093846
0.207057086013
)
;
    }
    bottom
    {
        lowReCorrection 0;
        blending        stepwise;
        n               2;
        type            epsilonWallFunction;
        value           nonuniform List<scalar> 0();
    }
    front
    {
        lowReCorrection 0;
        blending        stepwise;
        n               2;
        type            epsilonWallFunction;
        value           nonuniform List<scalar> 
167
(
0.00210643312295
0.00216199629981
0.00228762427492
0.00258647479219
0.00343316288642
0.006473492592
0.0181594738171
0.0574544006613
0.165845203982
0.00215851363291
0.00228544739255
0.00258267825211
0.00342948324501
0.00656909892323
0.0188860093368
0.0581514920503
0.165793838111
0.002155218718
0.00228440248515
0.00258210735262
0.00342306867932
0.00660059598627
0.0194428379374
0.0590009148489
0.165674035823
0.00209148574334
0.00215249107098
0.00228627667849
0.00259458014233
0.0034596331955
0.00665396746373
0.0194361254406
0.0597022246776
0.166074313543
0.00208648557629
0.00214967624223
0.00228795023865
0.00260800358847
0.00351187443795
0.00677591271844
0.0192301586671
0.058564298891
0.165451787393
0.00208137203059
0.00214637275038
0.00228716781458
0.00260902705808
0.0035118510883
0.00675011830564
0.0186529055472
0.05462854958
0.162126316779
0.00204435496805
0.00207616390938
0.00214261272008
0.00228453059979
0.00260205570261
0.003479657764
0.0066581390889
0.018419930699
0.0518605296973
0.138671865725
0.00202073933932
0.00203830569204
0.00207094860614
0.00213857218565
0.00228063422359
0.00258864919617
0.00341278324232
0.00642953239628
0.018053705213
0.0509110493507
0.131096805325
0.00201432874457
0.00203239381912
0.00206582084815
0.00213456155812
0.00227724732703
0.00258078877896
0.00337694992633
0.00631467700259
0.0180739276051
0.053028814292
0.139735267372
0.00202656805288
0.00206072757892
0.00213064753632
0.00227466057543
0.00257719234492
0.00335798625824
0.00622485627936
0.0179562430035
0.0554210602101
0.162934811168
0.00202049530361
0.00205541032411
0.00212653183382
0.00227195233951
0.00257444759654
0.00334097453685
0.00609965488757
0.0173208359088
0.0553325307014
0.164478567041
0.00201307256186
0.00204869925524
0.00212111248756
0.00226875346498
0.00257302283168
0.0033271121664
0.00592494386451
0.0161083968514
0.0522020257788
0.163383889826
0.00200099421608
0.00203721175161
0.00211088996878
0.00226123291472
0.00257035799196
0.0033164793503
0.00570209251746
0.0142977247709
0.0460521865513
0.158282256975
0.00197496098246
0.00201128620841
0.00208540329658
0.0022370948713
0.00254932704223
0.00328962976691
0.0055115580877
0.0128640445331
0.0407649483955
0.151553442589
0.00189087600137
0.00191016091573
0.00194537192811
0.0020173526777
0.00216532302241
0.00247017951913
0.00318596551527
0.00528096954025
0.012173541412
0.0398719945093
0.151047514916
0.00172377457777
0.00174139601182
0.00177286276271
0.00183702176501
0.00196924810652
0.0022400742884
0.00286772288258
0.00474437395643
0.0115709429927
0.0413760176727
0.155102222255
0.00165005431725
0.00166705474441
0.00169544603719
0.00175229655941
0.00186898887063
0.00210384878576
0.00262175491264
0.00427812600346
0.0122080036226
0.052300093846
0.207057086013
)
;
    }
    atmosphere
    {
        type            inletOutlet;
        inletValue      uniform 0.1;
        value           nonuniform List<scalar> 
17
(
0.1
0.1
0.1
0.1
0.1
0.1
0.1
0.131096805325
0.139735267372
0.162934811168
0.1
0.1
0.1
0.1
0.1
0.1
0.1
)
;
    }
    floatingObject
    {
        lowReCorrection 0;
        blending        stepwise;
        n               2;
        type            epsilonWallFunction;
        value           nonuniform List<scalar> 0();
    }
    procBoundary11to9
    {
        type            processor;
        value           nonuniform List<scalar> 9(0.00211113887529 0.00216478830901 0.00228783212025 0.00258468243414 0.00342250836115 0.00638096597832 0.0176895751262 0.0561905154241 0.165353064776);
    }
    procBoundary11to10
    {
        type            processor;
        value           nonuniform List<scalar> 
23
(
0.00208053624732
0.00210145420037
0.00210145420037
0.00209644098655
0.00209644098655
0.00206265759869
0.00205657439809
0.00205046138219
0.00205046138219
0.00202726971587
0.00202726971587
0.00200914992218
0.00200238608582
0.00200802325202
0.00200802325202
0.00200147150189
0.0019936352693
0.00198123661242
0.00195515640641
0.00195515640641
0.00187771914828
0.00171140924597
0.0016371274404
)
;
    }
}


// ************************************************************************* //
