/*--------------------------------*- C++ -*----------------------------------*\
| =========                 |                                                 |
| \\      /  F ield         | OpenFOAM: The Open Source CFD Toolbox           |
|  \\    /   O peration     | Version:  v2012                                 |
|   \\  /    A nd           | Website:  www.openfoam.com                      |
|    \\/     M anipulation  |                                                 |
\*---------------------------------------------------------------------------*/
FoamFile
{
    version     2.0;
    format      ascii;
    class       volScalarField;
    location    "3.3";
    object      ddt0(k);
}
// * * * * * * * * * * * * * * * * * * * * * * * * * * * * * * * * * * * * * //

dimensions      [0 2 -3 0 0 0 0];


internalField   nonuniform List<scalar> 
167
(
-0.00113059044823
-0.00130628963199
-0.00136229857711
-0.00138185318903
-0.0013895699016
-0.00139373525971
-0.00139688789452
-0.00139960826298
-0.00131103625377
-0.00161027073897
-0.00170128329036
-0.00173334544104
-0.00174547660173
-0.0017516099019
-0.00175612809056
-0.00176022537059
-0.00135788218877
-0.00168648161255
-0.00178806061782
-0.00182371937101
-0.00183660037326
-0.00184237768196
-0.00184623981888
-0.0018495022212
-0.00137200655687
-0.00170949844592
-0.00181442781546
-0.00185113966813
-0.00186403447908
-0.00186948793295
-0.00187289616143
-0.00187566347495
-0.00187766231008
-0.00137764119635
-0.00171749540564
-0.00182327314778
-0.00186009974146
-0.0018727933383
-0.00187796661068
-0.00188109136873
-0.00188360849282
-0.00188539495281
-0.00188514972362
-0.0013815900663
-0.00172199357177
-0.00182777966352
-0.00186441134094
-0.00187687291428
-0.00188183451514
-0.00188479355055
-0.00188721188794
-0.0018889857107
-0.00188892234047
-0.00138530443543
-0.00172604435636
-0.00183158297594
-0.00186795514188
-0.00188020605238
-0.0018850154158
-0.00188789658598
-0.00189030007902
-0.00189217933924
-0.00189242623452
-0.00138909542329
-0.00173010239223
-0.00183542066286
-0.00187155032248
-0.00188363324571
-0.00188835003792
-0.00189119077043
-0.00189364218605
-0.00189569382747
-0.00189634070542
-0.00139279812332
-0.00173422965217
-0.00183934378542
-0.00187524915447
-0.00188718950628
-0.00189185040129
-0.00189470110177
-0.0018972352104
-0.00189947778211
-0.00190052469449
-0.00139635654555
-0.001738328339
-0.00184325986067
-0.0018789573329
-0.00189078034857
-0.00189539592868
-0.0018982804439
-0.00190091049368
-0.00190336615496
-0.00190480712831
-0.00139975579279
-0.00174226685972
-0.00184707709664
-0.00188258436523
-0.00189430640193
-0.00189889893216
-0.00190181253022
-0.00190454874997
-0.00190718502103
-0.00190896822398
-0.00140291737721
-0.00174604809508
-0.00185074915979
-0.00188606917705
-0.00189769363042
-0.00190226794804
-0.00190521622962
-0.00190803383916
-0.00191083610936
-0.00191287776476
-0.00140576940279
-0.00174962632742
-0.00185422995987
-0.0018893706836
-0.00190089189402
-0.00190543967026
-0.00190841299078
-0.00191129514125
-0.00191420673196
-0.00191644501938
-0.00140838267589
-0.00175297401658
-0.0018574794254
-0.00189243804429
-0.00190385885584
-0.00190836971024
-0.00191134474557
-0.00191426208012
-0.00191724546932
-0.00191959753279
-0.00141069095094
-0.00175604116302
-0.00186045329982
-0.0018952422191
-0.00190655605933
-0.00191101700578
-0.00191396404542
-0.00191688507936
-0.00191989370247
-0.00192229353066
-0.00141265835536
-0.00175884742432
-0.00186315891351
-0.00189776264224
-0.00190894350999
-0.00191334454829
-0.00191626800236
-0.00191913850446
-0.00192211203615
-0.00192448256422
-0.0014143513842
-0.00176140608378
-0.00186559271432
-0.00189996330594
-0.00191104480117
-0.00191536594722
-0.00191821502591
-0.00141589509961
-0.00176363844165
-0.00186770019512
-0.00190190909924
-0.00191282083496
-0.00186953020218
-0.00190351324505
)
;

boundaryField
{
    back
    {
        type            calculated;
        value           nonuniform List<scalar> 
167
(
-0.00113059044823
-0.00130628963199
-0.00136229857711
-0.00138185318903
-0.0013895699016
-0.00139373525971
-0.00139688789452
-0.00139960826298
-0.00131103625377
-0.00161027073897
-0.00170128329036
-0.00173334544104
-0.00174547660173
-0.0017516099019
-0.00175612809056
-0.00176022537059
-0.00135788218877
-0.00168648161255
-0.00178806061782
-0.00182371937101
-0.00183660037326
-0.00184237768196
-0.00184623981888
-0.0018495022212
-0.00137200655687
-0.00170949844592
-0.00181442781546
-0.00185113966813
-0.00186403447908
-0.00186948793295
-0.00187289616143
-0.00187566347495
-0.00187766231008
-0.00137764119635
-0.00171749540564
-0.00182327314778
-0.00186009974146
-0.0018727933383
-0.00187796661068
-0.00188109136873
-0.00188360849282
-0.00188539495281
-0.00188514972362
-0.0013815900663
-0.00172199357177
-0.00182777966352
-0.00186441134094
-0.00187687291428
-0.00188183451514
-0.00188479355055
-0.00188721188794
-0.0018889857107
-0.00188892234047
-0.00138530443543
-0.00172604435636
-0.00183158297594
-0.00186795514188
-0.00188020605238
-0.0018850154158
-0.00188789658598
-0.00189030007902
-0.00189217933924
-0.00189242623452
-0.00138909542329
-0.00173010239223
-0.00183542066286
-0.00187155032248
-0.00188363324571
-0.00188835003792
-0.00189119077043
-0.00189364218605
-0.00189569382747
-0.00189634070542
-0.00139279812332
-0.00173422965217
-0.00183934378542
-0.00187524915447
-0.00188718950628
-0.00189185040129
-0.00189470110177
-0.0018972352104
-0.00189947778211
-0.00190052469449
-0.00139635654555
-0.001738328339
-0.00184325986067
-0.0018789573329
-0.00189078034857
-0.00189539592868
-0.0018982804439
-0.00190091049368
-0.00190336615496
-0.00190480712831
-0.00139975579279
-0.00174226685972
-0.00184707709664
-0.00188258436523
-0.00189430640193
-0.00189889893216
-0.00190181253022
-0.00190454874997
-0.00190718502103
-0.00190896822398
-0.00140291737721
-0.00174604809508
-0.00185074915979
-0.00188606917705
-0.00189769363042
-0.00190226794804
-0.00190521622962
-0.00190803383916
-0.00191083610936
-0.00191287776476
-0.00140576940279
-0.00174962632742
-0.00185422995987
-0.0018893706836
-0.00190089189402
-0.00190543967026
-0.00190841299078
-0.00191129514125
-0.00191420673196
-0.00191644501938
-0.00140838267589
-0.00175297401658
-0.0018574794254
-0.00189243804429
-0.00190385885584
-0.00190836971024
-0.00191134474557
-0.00191426208012
-0.00191724546932
-0.00191959753279
-0.00141069095094
-0.00175604116302
-0.00186045329982
-0.0018952422191
-0.00190655605933
-0.00191101700578
-0.00191396404542
-0.00191688507936
-0.00191989370247
-0.00192229353066
-0.00141265835536
-0.00175884742432
-0.00186315891351
-0.00189776264224
-0.00190894350999
-0.00191334454829
-0.00191626800236
-0.00191913850446
-0.00192211203615
-0.00192448256422
-0.0014143513842
-0.00176140608378
-0.00186559271432
-0.00189996330594
-0.00191104480117
-0.00191536594722
-0.00191821502591
-0.00141589509961
-0.00176363844165
-0.00186770019512
-0.00190190909924
-0.00191282083496
-0.00186953020218
-0.00190351324505
)
;
    }
    sides
    {
        type            calculated;
        value           nonuniform List<scalar> 8(-0.00113059044823 -0.00130628963199 -0.00136229857711 -0.00138185318903 -0.0013895699016 -0.00139373525971 -0.00139688789452 -0.00139960826298);
    }
    bottom
    {
        type            calculated;
        value           nonuniform List<scalar> 
18
(
-0.00113059044823
-0.00131103625377
-0.00135788218877
-0.00137200655687
-0.00137764119635
-0.0013815900663
-0.00138530443543
-0.00138909542329
-0.00139279812332
-0.00139635654555
-0.00139975579279
-0.00140291737721
-0.00140576940279
-0.00140838267589
-0.00141069095094
-0.00141265835536
-0.0014143513842
-0.00141589509961
)
;
    }
    front
    {
        type            calculated;
        value           nonuniform List<scalar> 
167
(
-0.00113059044823
-0.00130628963199
-0.00136229857711
-0.00138185318903
-0.0013895699016
-0.00139373525971
-0.00139688789452
-0.00139960826298
-0.00131103625377
-0.00161027073897
-0.00170128329036
-0.00173334544104
-0.00174547660173
-0.0017516099019
-0.00175612809056
-0.00176022537059
-0.00135788218877
-0.00168648161255
-0.00178806061782
-0.00182371937101
-0.00183660037326
-0.00184237768196
-0.00184623981888
-0.0018495022212
-0.00137200655687
-0.00170949844592
-0.00181442781546
-0.00185113966813
-0.00186403447908
-0.00186948793295
-0.00187289616143
-0.00187566347495
-0.00187766231008
-0.00137764119635
-0.00171749540564
-0.00182327314778
-0.00186009974146
-0.0018727933383
-0.00187796661068
-0.00188109136873
-0.00188360849282
-0.00188539495281
-0.00188514972362
-0.0013815900663
-0.00172199357177
-0.00182777966352
-0.00186441134094
-0.00187687291428
-0.00188183451514
-0.00188479355055
-0.00188721188794
-0.0018889857107
-0.00188892234047
-0.00138530443543
-0.00172604435636
-0.00183158297594
-0.00186795514188
-0.00188020605238
-0.0018850154158
-0.00188789658598
-0.00189030007902
-0.00189217933924
-0.00189242623452
-0.00138909542329
-0.00173010239223
-0.00183542066286
-0.00187155032248
-0.00188363324571
-0.00188835003792
-0.00189119077043
-0.00189364218605
-0.00189569382747
-0.00189634070542
-0.00139279812332
-0.00173422965217
-0.00183934378542
-0.00187524915447
-0.00188718950628
-0.00189185040129
-0.00189470110177
-0.0018972352104
-0.00189947778211
-0.00190052469449
-0.00139635654555
-0.001738328339
-0.00184325986067
-0.0018789573329
-0.00189078034857
-0.00189539592868
-0.0018982804439
-0.00190091049368
-0.00190336615496
-0.00190480712831
-0.00139975579279
-0.00174226685972
-0.00184707709664
-0.00188258436523
-0.00189430640193
-0.00189889893216
-0.00190181253022
-0.00190454874997
-0.00190718502103
-0.00190896822398
-0.00140291737721
-0.00174604809508
-0.00185074915979
-0.00188606917705
-0.00189769363042
-0.00190226794804
-0.00190521622962
-0.00190803383916
-0.00191083610936
-0.00191287776476
-0.00140576940279
-0.00174962632742
-0.00185422995987
-0.0018893706836
-0.00190089189402
-0.00190543967026
-0.00190841299078
-0.00191129514125
-0.00191420673196
-0.00191644501938
-0.00140838267589
-0.00175297401658
-0.0018574794254
-0.00189243804429
-0.00190385885584
-0.00190836971024
-0.00191134474557
-0.00191426208012
-0.00191724546932
-0.00191959753279
-0.00141069095094
-0.00175604116302
-0.00186045329982
-0.0018952422191
-0.00190655605933
-0.00191101700578
-0.00191396404542
-0.00191688507936
-0.00191989370247
-0.00192229353066
-0.00141265835536
-0.00175884742432
-0.00186315891351
-0.00189776264224
-0.00190894350999
-0.00191334454829
-0.00191626800236
-0.00191913850446
-0.00192211203615
-0.00192448256422
-0.0014143513842
-0.00176140608378
-0.00186559271432
-0.00189996330594
-0.00191104480117
-0.00191536594722
-0.00191821502591
-0.00141589509961
-0.00176363844165
-0.00186770019512
-0.00190190909924
-0.00191282083496
-0.00186953020218
-0.00190351324505
)
;
    }
    atmosphere
    {
        type            calculated;
        value           nonuniform List<scalar> 0();
    }
    floatingObject
    {
        type            calculated;
        value           nonuniform List<scalar> 0();
    }
    procBoundary2to0
    {
        type            processor;
        value           nonuniform List<scalar> 
14
(
-0.00192099075189
-0.00192389343413
-0.00192615937813
-0.00191702449042
-0.00192099075189
-0.00191981942293
-0.0014171784747
-0.00176558717333
-0.00191702449042
-0.00191428374644
-0.00176558717333
-0.00187109977878
-0.00191428374644
-0.00190483854981
)
;
    }
    procBoundary2to1
    {
        type            processor;
        value           nonuniform List<scalar> 
18
(
-0.00140179383659
-0.00176388157936
-0.00185201472178
-0.00185201472178
-0.00187751478876
-0.00187751478876
-0.00188014786137
-0.00188451205936
-0.00188881638613
-0.00189356534842
-0.00189858521177
-0.00190356939265
-0.00190830299705
-0.00191259787668
-0.0019163924552
-0.00191966100225
-0.00192238590014
-0.00192446402052
)
;
    }
}


// ************************************************************************* //
