/*--------------------------------*- C++ -*----------------------------------*\
| =========                 |                                                 |
| \\      /  F ield         | OpenFOAM: The Open Source CFD Toolbox           |
|  \\    /   O peration     | Version:  v2012                                 |
|   \\  /    A nd           | Website:  www.openfoam.com                      |
|    \\/     M anipulation  |                                                 |
\*---------------------------------------------------------------------------*/
FoamFile
{
    version     2.0;
    format      ascii;
    class       volScalarField;
    location    "5.4";
    object      ddt0(epsilon);
}
// * * * * * * * * * * * * * * * * * * * * * * * * * * * * * * * * * * * * * //

dimensions      [0 2 -4 0 0 0 0];


internalField   nonuniform List<scalar> 
166
(
-0.000237831967306
-0.00024869696593
-0.000272449936265
-0.000281019591513
-0.000284162581255
-0.000285557670032
-0.000286504141033
-0.000287425225375
-0.000288467768661
-0.000289744852709
-0.000291514536824
-0.000294580336956
-0.000301377750882
-0.00032036707033
-0.000386947995492
-0.000675114585152
-0.0018880614751
-0.00486071942252
-0.00800741049667
-0.0315106027856
-0.000237520740241
-0.000248038018388
-0.000271880337549
-0.00028056143856
-0.000283769663596
-0.000285184153347
-0.000286118023102
-0.000287007418307
-0.000288004314166
-0.000289223280507
-0.000290919657192
-0.000293851039344
-0.000300296794707
-0.000317977487175
-0.000378236248385
-0.000627499246526
-0.00158368753473
-0.00265379120486
-0.00736180618893
-0.163344108586
-0.000236900737502
-0.00024742727894
-0.000271361979603
-0.000280141605804
-0.00028338875819
-0.000284802963567
-0.000285712495537
-0.000286561937006
-0.000287506827637
-0.000288652443979
-0.000290236611727
-0.000292937212841
-0.000298788876989
-0.000314669482613
-0.000366186936998
-0.00055752618921
-0.00128717940248
-0.00293417781442
-0.0263913892409
-0.165620330075
-0.000235858200072
-0.000246876066521
-0.000270883826209
-0.000279719415981
-0.000282979170883
-0.000284379938862
-0.000285257874773
-0.000286062225595
-0.000286943750097
-0.000287990374048
-0.000289377181228
-0.00029157424158
-0.000295818117282
-0.000305949936739
-0.000336278136769
-0.000436612100676
-0.000823160917543
-0.00322512221947
-0.0357628866791
-0.0486223636168
-0.000234791553795
-0.00024626181107
-0.000270353538615
-0.000279250708734
-0.00028252643965
-0.000283912901621
-0.000284759887091
-0.000285519991538
-0.000286338489768
-0.000287282848811
-0.000288460135725
-0.000290120606322
-0.000292653722885
-0.00029674848457
-0.000304791590497
-0.00030282152834
-0.000249957487495
-0.00244357587908
-0.0174052348538
0.63110182887
-0.000233745104633
-0.000245577088652
-0.000269761775442
-0.000278730680334
-0.000282029907204
-0.000283406938828
-0.000284225311903
-0.00028494445399
-0.000285697023868
-0.000286532388879
-0.000287480666499
-0.000288569761745
-0.000289323964871
-0.000287465798115
-0.000272588499246
-0.000163858909547
0.000342915690724
0.000222268101969
0.0258299409831
0.378040789982
-0.000232827082664
-0.000244806106199
-0.000269091092146
-0.000278139439186
-0.000281479902848
-0.000282857420638
-0.000283659558654
-0.000284333492215
-0.000285026755807
-0.000285742269077
-0.000286479412914
-0.000286927419293
-0.000285765136904
-0.000277359542861
-0.000238190931059
-1.49330416135e-05
0.00103451427601
0.00355763763782
0.0461973078041
0.355718941014
-0.000232080901688
-0.000243954415808
-0.000268329548172
-0.000277483992553
-0.000280868659529
-0.000282266153488
-0.00028304589209
-0.00028369559111
-0.000284322985179
-0.000284965051712
-0.000285430494592
-0.000285306112649
-0.000282124632726
-0.000266758104541
-0.000200838670729
0.000149428817338
0.00189561865893
0.00817744509736
0.0439000282551
0.0950548149839
-0.000231310422852
-0.000243045251064
-0.000267523974593
-0.000230481578404
-0.000229585073076
-0.000228722507395
)
;

boundaryField
{
    back
    {
        type            calculated;
        value           nonuniform List<scalar> 
166
(
-0.000237831967306
-0.00024869696593
-0.000272449936265
-0.000281019591513
-0.000284162581255
-0.000285557670032
-0.000286504141033
-0.000287425225375
-0.000288467768661
-0.000289744852709
-0.000291514536824
-0.000294580336956
-0.000301377750882
-0.00032036707033
-0.000386947995492
-0.000675114585152
-0.0018880614751
-0.00486071942252
-0.00800741049667
-0.0315106027856
-0.000237520740241
-0.000248038018388
-0.000271880337549
-0.00028056143856
-0.000283769663596
-0.000285184153347
-0.000286118023102
-0.000287007418307
-0.000288004314166
-0.000289223280507
-0.000290919657192
-0.000293851039344
-0.000300296794707
-0.000317977487175
-0.000378236248385
-0.000627499246526
-0.00158368753473
-0.00265379120486
-0.00736180618893
-0.163344108586
-0.000236900737502
-0.00024742727894
-0.000271361979603
-0.000280141605804
-0.00028338875819
-0.000284802963567
-0.000285712495537
-0.000286561937006
-0.000287506827637
-0.000288652443979
-0.000290236611727
-0.000292937212841
-0.000298788876989
-0.000314669482613
-0.000366186936998
-0.00055752618921
-0.00128717940248
-0.00293417781442
-0.0263913892409
-0.165620330075
-0.000235858200072
-0.000246876066521
-0.000270883826209
-0.000279719415981
-0.000282979170883
-0.000284379938862
-0.000285257874773
-0.000286062225595
-0.000286943750097
-0.000287990374048
-0.000289377181228
-0.00029157424158
-0.000295818117282
-0.000305949936739
-0.000336278136769
-0.000436612100676
-0.000823160917543
-0.00322512221947
-0.0357628866791
-0.0486223636168
-0.000234791553795
-0.00024626181107
-0.000270353538615
-0.000279250708734
-0.00028252643965
-0.000283912901621
-0.000284759887091
-0.000285519991538
-0.000286338489768
-0.000287282848811
-0.000288460135725
-0.000290120606322
-0.000292653722885
-0.00029674848457
-0.000304791590497
-0.00030282152834
-0.000249957487495
-0.00244357587908
-0.0174052348538
0.63110182887
-0.000233745104633
-0.000245577088652
-0.000269761775442
-0.000278730680334
-0.000282029907204
-0.000283406938828
-0.000284225311903
-0.00028494445399
-0.000285697023868
-0.000286532388879
-0.000287480666499
-0.000288569761745
-0.000289323964871
-0.000287465798115
-0.000272588499246
-0.000163858909547
0.000342915690724
0.000222268101969
0.0258299409831
0.378040789982
-0.000232827082664
-0.000244806106199
-0.000269091092146
-0.000278139439186
-0.000281479902848
-0.000282857420638
-0.000283659558654
-0.000284333492215
-0.000285026755807
-0.000285742269077
-0.000286479412914
-0.000286927419293
-0.000285765136904
-0.000277359542861
-0.000238190931059
-1.49330416135e-05
0.00103451427601
0.00355763763782
0.0461973078041
0.355718941014
-0.000232080901688
-0.000243954415808
-0.000268329548172
-0.000277483992553
-0.000280868659529
-0.000282266153488
-0.00028304589209
-0.00028369559111
-0.000284322985179
-0.000284965051712
-0.000285430494592
-0.000285306112649
-0.000282124632726
-0.000266758104541
-0.000200838670729
0.000149428817338
0.00189561865893
0.00817744509736
0.0439000282551
0.0950548149839
-0.000231310422852
-0.000243045251064
-0.000267523974593
-0.000230481578404
-0.000229585073076
-0.000228722507395
)
;
    }
    sides
    {
        type            calculated;
        value           nonuniform List<scalar> 0();
    }
    bottom
    {
        type            calculated;
        value           nonuniform List<scalar> 
12
(
-0.000237831967306
-0.000237520740241
-0.000236900737502
-0.000235858200072
-0.000234791553795
-0.000233745104633
-0.000232827082664
-0.000232080901688
-0.000231310422852
-0.000230481578404
-0.000229585073076
-0.000228722507395
)
;
    }
    front
    {
        type            calculated;
        value           nonuniform List<scalar> 
166
(
-0.000237831967306
-0.00024869696593
-0.000272449936265
-0.000281019591513
-0.000284162581255
-0.000285557670032
-0.000286504141033
-0.000287425225375
-0.000288467768661
-0.000289744852709
-0.000291514536824
-0.000294580336956
-0.000301377750882
-0.00032036707033
-0.000386947995492
-0.000675114585152
-0.0018880614751
-0.00486071942252
-0.00800741049667
-0.0315106027856
-0.000237520740241
-0.000248038018388
-0.000271880337549
-0.00028056143856
-0.000283769663596
-0.000285184153347
-0.000286118023102
-0.000287007418307
-0.000288004314166
-0.000289223280507
-0.000290919657192
-0.000293851039344
-0.000300296794707
-0.000317977487175
-0.000378236248385
-0.000627499246526
-0.00158368753473
-0.00265379120486
-0.00736180618893
-0.163344108586
-0.000236900737502
-0.00024742727894
-0.000271361979603
-0.000280141605804
-0.00028338875819
-0.000284802963567
-0.000285712495537
-0.000286561937006
-0.000287506827637
-0.000288652443979
-0.000290236611727
-0.000292937212841
-0.000298788876989
-0.000314669482613
-0.000366186936998
-0.00055752618921
-0.00128717940248
-0.00293417781442
-0.0263913892409
-0.165620330075
-0.000235858200072
-0.000246876066521
-0.000270883826209
-0.000279719415981
-0.000282979170883
-0.000284379938862
-0.000285257874773
-0.000286062225595
-0.000286943750097
-0.000287990374048
-0.000289377181228
-0.00029157424158
-0.000295818117282
-0.000305949936739
-0.000336278136769
-0.000436612100676
-0.000823160917543
-0.00322512221947
-0.0357628866791
-0.0486223636168
-0.000234791553795
-0.00024626181107
-0.000270353538615
-0.000279250708734
-0.00028252643965
-0.000283912901621
-0.000284759887091
-0.000285519991538
-0.000286338489768
-0.000287282848811
-0.000288460135725
-0.000290120606322
-0.000292653722885
-0.00029674848457
-0.000304791590497
-0.00030282152834
-0.000249957487495
-0.00244357587908
-0.0174052348538
0.63110182887
-0.000233745104633
-0.000245577088652
-0.000269761775442
-0.000278730680334
-0.000282029907204
-0.000283406938828
-0.000284225311903
-0.00028494445399
-0.000285697023868
-0.000286532388879
-0.000287480666499
-0.000288569761745
-0.000289323964871
-0.000287465798115
-0.000272588499246
-0.000163858909547
0.000342915690724
0.000222268101969
0.0258299409831
0.378040789982
-0.000232827082664
-0.000244806106199
-0.000269091092146
-0.000278139439186
-0.000281479902848
-0.000282857420638
-0.000283659558654
-0.000284333492215
-0.000285026755807
-0.000285742269077
-0.000286479412914
-0.000286927419293
-0.000285765136904
-0.000277359542861
-0.000238190931059
-1.49330416135e-05
0.00103451427601
0.00355763763782
0.0461973078041
0.355718941014
-0.000232080901688
-0.000243954415808
-0.000268329548172
-0.000277483992553
-0.000280868659529
-0.000282266153488
-0.00028304589209
-0.00028369559111
-0.000284322985179
-0.000284965051712
-0.000285430494592
-0.000285306112649
-0.000282124632726
-0.000266758104541
-0.000200838670729
0.000149428817338
0.00189561865893
0.00817744509736
0.0439000282551
0.0950548149839
-0.000231310422852
-0.000243045251064
-0.000267523974593
-0.000230481578404
-0.000229585073076
-0.000228722507395
)
;
    }
    atmosphere
    {
        type            calculated;
        value           nonuniform List<scalar> 8(-0.0314482278775 0.934931596067 0.377025354847 0.425628497445 0.0718751789956 0.0582036967574 0.0691800095444 0.0010754928449);
    }
    floatingObject
    {
        type            calculated;
        value           nonuniform List<scalar> 0();
    }
    procBoundary9to6
    {
        type            processor;
        value           nonuniform List<scalar> 4(-0.00206869408235 -0.00615333337324 -0.0163456589591 -0.18146618858);
    }
    procBoundary9to7
    {
        type            processor;
        value           nonuniform List<scalar> 
16
(
-0.000238021553548
-0.000249242031765
-0.000272893676127
-0.000281346298171
-0.000284421444549
-0.00028580029989
-0.000286765126894
-0.000287729540319
-0.000288831995727
-0.000290179526586
-0.000292029110905
-0.000295190470052
-0.000302207117636
-0.000321899753184
-0.000391783722833
-0.000701052154604
)
;
    }
    procBoundary9to10
    {
        type            processor;
        value           nonuniform List<scalar> 
15
(
-0.000276809783421
-0.000280234514211
-0.000281639022552
-0.000282417117126
-0.000283026823119
-0.000283614267894
-0.00028411112411
-0.000284397283812
-0.000242132990353
-0.000276809783421
-0.00026667677046
-0.000242132990353
-0.000241122981986
-0.000240079627961
-0.000227786934872
)
;
    }
    procBoundary9to11
    {
        type            processor;
        value           nonuniform List<scalar> 9(-0.000283523218845 -0.000278163402506 -0.000255174908398 -0.000160339366664 0.000316932074853 0.00265903579897 0.0120802847539 0.0531096226692 0.0404522943365);
    }
}


// ************************************************************************* //
