/*--------------------------------*- C++ -*----------------------------------*\
| =========                 |                                                 |
| \\      /  F ield         | OpenFOAM: The Open Source CFD Toolbox           |
|  \\    /   O peration     | Version:  v2012                                 |
|   \\  /    A nd           | Website:  www.openfoam.com                      |
|    \\/     M anipulation  |                                                 |
\*---------------------------------------------------------------------------*/
FoamFile
{
    version     2.0;
    format      ascii;
    class       surfaceVectorField;
    location    "5.4";
    object      Uf;
}
// * * * * * * * * * * * * * * * * * * * * * * * * * * * * * * * * * * * * * //

dimensions      [0 1 -1 0 0 0 0];


internalField   nonuniform List<vector> 
300
(
(-0.0373000012191 -8.32490410746e-06 -2.93088114232e-22)
(-0.0366864042218 -4.61296040393e-06 -3.5677103656e-22)
(-0.0384645770878 -4.18212902872e-05 -1.69206497439e-22)
(-0.0378733861749 -0.000142193068417 -2.30145865674e-22)
(-0.0395287560116 -0.000101519887071 -4.88328205083e-23)
(-0.0389879367667 -0.000265650132553 -1.07096447653e-22)
(-0.0404639295665 -0.000176259209847 1.16735470982e-23)
(-0.039979659979 -0.000410001467947 -4.55790278689e-24)
(-0.0413350285653 -0.00025057124889 8.0168107102e-24)
(-0.0408460784752 -0.000567759634635 6.29934031765e-24)
(-0.0422563770369 -0.000318054292434 5.64414195473e-25)
(-0.0417245815975 -0.000722308563844 -3.97031847829e-25)
(-0.0432998991715 -0.000369700574297 -4.13476725237e-25)
(-0.0427031887978 -0.000866182170022 1.10158038008e-24)
(-0.0444974348123 -0.000397849128173 3.41868899388e-24)
(-0.0438305172626 -0.00099363042973 -9.3930298149e-25)
(-0.0458593097586 -0.00039246719775 6.95613366878e-24)
(-0.0451253431986 -0.00109540602643 9.4290377073e-24)
(-0.0473876844917 -0.000344141568521 1.14249479096e-23)
(-0.0465907971401 -0.00116218220195 3.04855444293e-24)
(-0.0490744106601 -0.000241121251943 5.11779285151e-24)
(-0.048228817246 -0.00120240540952 1.51308850193e-24)
(-0.0508954669773 -9.61829289125e-05 -6.47929408751e-23)
(-0.0500143230247 -0.00117198307763 -5.31436814842e-23)
(-0.0528281317896 0.000103773748552 -2.99441860155e-22)
(-0.0519219437532 -0.00105287483908 -2.17712360121e-22)
(-0.0549092757414 0.000344083760828 -7.53857264361e-22)
(-0.0539339348489 -0.00086297063022 -7.79170170826e-22)
(-0.0573124636239 0.000482105745853 -8.91082634885e-22)
(-0.0560667848283 -0.000809325293073 -1.04177998386e-21)
(-0.0599891224469 0.000455785481401 -2.38385828778e-21)
(-0.0585735552575 -0.000834671626392 -1.1737613112e-21)
(-0.0630961046982 0.00107619473308 -4.69104038629e-21)
(-0.061652718393 -0.000441655649018 -4.88836965858e-21)
(-0.0576178508608 0.00313726087184 -4.38007393775e-21)
(-0.0660690829996 0.00202016004156 -5.96768973526e-21)
(-0.0596202114549 -0.000822321213323 -3.51611193974e-21)
(-0.0480781339877 0.00185417868962 -6.5949032253e-21)
(-0.0619622729806 -0.00640096441094 -5.41809804496e-21)
(-0.0372019064732 -0.000160177138518 -2.93828788002e-22)
(-0.036526460455 -8.65552766073e-05 -3.54455931543e-22)
(-0.0383402654973 -0.000351585138488 -1.68035815889e-22)
(-0.0376821887983 -0.000375921736872 -2.34484554318e-22)
(-0.0393839598502 -0.000568032233605 -6.28215299319e-23)
(-0.0387716410759 -0.000652545526364 -1.16065006173e-22)
(-0.040309578623 -0.000801355680117 -9.93210956746e-24)
(-0.0397464043919 -0.000956799003444 -3.52413498106e-23)
(-0.0411823011038 -0.00103814862588 -2.11450224038e-24)
(-0.0406092626178 -0.00127714541194 -1.38750556686e-23)
(-0.042113642053 -0.00127133250187 1.40134336779e-25)
(-0.0414912947511 -0.00159764591228 -6.42713134493e-24)
(-0.043173685668 -0.00149355821385 5.75754123828e-25)
(-0.0424808056738 -0.00191113974434 -3.22227605643e-25)
(-0.0443968052903 -0.0016987591208 5.07104573194e-24)
(-0.0436251396258 -0.00221641855132 5.65314980362e-25)
(-0.0457950549231 -0.0018761830617 5.52145848146e-24)
(-0.0449477609488 -0.00250295070728 1.26492323137e-23)
(-0.0473685069562 -0.00201312589829 -6.86330496476e-24)
(-0.0464537466742 -0.00276040991749 6.79461858969e-24)
(-0.0491025710609 -0.00210138536086 -5.67483858338e-23)
(-0.0481405240234 -0.00299038923012 -2.09583946616e-23)
(-0.0509811572569 -0.00213758485253 -2.0606310073e-22)
(-0.0499781754713 -0.00315878901432 -1.48714211544e-22)
(-0.0529685819212 -0.00207979332944 -6.97440670793e-22)
(-0.0519798708982 -0.00324050472504 -3.90347829964e-22)
(-0.0550172731285 -0.0019875904718 -1.06709289033e-21)
(-0.0540263410661 -0.00320448809111 -1.17120441268e-21)
(-0.0572954286204 -0.00200695434137 -1.32445866017e-21)
(-0.0560476459306 -0.00336493864771 -1.13468464131e-21)
(-0.060220979258 -0.00209812316042 -3.67827268199e-21)
(-0.0584825768208 -0.00352946427412 -1.57546433539e-21)
(-0.0645983749543 -0.00160852337868 -6.16501900755e-21)
(-0.0621423752703 -0.00367368811626 -5.73341345395e-21)
(-0.0568638055294 0.000767350592551 -8.1825190228e-21)
(-0.0684451171541 -0.00150847412517 -8.85230228783e-21)
(-0.0502477996397 -0.00227793592079 -8.49688933052e-21)
(-0.0450406477237 -0.00131691999408 -1.64237504163e-20)
(-0.0527229566782 -0.0120580759632 -1.20446405058e-20)
(-0.0369492837504 -0.000316997592384 -2.95111697859e-22)
(-0.0362096503089 -0.000168764486857 -3.62583473213e-22)
(-0.0380588864537 -0.000662337549366 -1.82513744602e-22)
(-0.037337010194 -0.000608373997126 -2.48270264031e-22)
(-0.0390802518917 -0.00103727765737 -8.84848260519e-23)
(-0.0383967997531 -0.00103936269621 -1.43436722663e-22)
(-0.0399939076345 -0.00142973843882 -3.91842959117e-23)
(-0.0393539573598 -0.00150523981692 -6.77579754765e-23)
(-0.040864298267 -0.00183200787659 -1.81876847731e-23)
(-0.0402069188589 -0.0019906883191 -3.54028216623e-23)
(-0.0418000598348 -0.00223497384959 -6.88949328735e-24)
(-0.0410881831344 -0.00248003395866 -1.24198327826e-23)
(-0.0428700201948 -0.00263334606386 -3.32666749109e-25)
(-0.0420822507152 -0.00296648054511 -5.21446146953e-24)
(-0.0441110312169 -0.00302411982241 8.14350156209e-24)
(-0.0432341883058 -0.00345352605356 6.38261497049e-24)
(-0.0455377444256 -0.00339340990743 1.39223924219e-23)
(-0.0445783439109 -0.00392920311359 2.04376384826e-23)
(-0.0471500573212 -0.0037349481173 -7.30047110712e-24)
(-0.0461121674562 -0.00438160338325 1.51793059323e-23)
(-0.0489410916866 -0.00403647986127 -1.12924220371e-22)
(-0.0478390596166 -0.00481479404851 -1.94729661593e-23)
(-0.0508933703066 -0.00425860679076 -3.32998940777e-22)
(-0.049756225518 -0.00520320976714 -2.12413300139e-22)
(-0.0529399304331 -0.0044206159605 -8.64111571855e-22)
(-0.0518181309212 -0.00552585800972 -5.45995722396e-22)
(-0.0549422609954 -0.00452418441412 -1.23879616366e-21)
(-0.0539230967959 -0.00569297386249 -1.53124920731e-21)
(-0.0570605758213 -0.00474028008812 -1.38569031653e-21)
(-0.0558318725195 -0.00614406428107 -1.81606587695e-21)
(-0.0601790606745 -0.00518801394888 -3.63060510734e-21)
(-0.0580350876876 -0.00634709061044 -1.39488623037e-21)
(-0.0658313194795 -0.00520061889321 -8.42069673422e-21)
(-0.062129872537 -0.00693920165093 -5.21930708071e-21)
(-0.0562227523521 -0.00377241548284 -1.70935336813e-20)
(-0.0698734321521 -0.00475447535682 -1.15863932221e-20)
(-0.0460257411511 -0.00842071055358 -1.99715015916e-20)
(-0.0403875649783 -0.00673857841718 -2.33010333095e-20)
(-0.046944016491 -0.0151057582815 -1.63743371618e-20)
(-0.0365415315461 -0.000470154011058 -3.15742039385e-22)
(-0.0357396510503 -0.000250555999706 -3.72743874759e-22)
(-0.0376204941763 -0.000970684730166 -2.09193242093e-22)
(-0.0368366079837 -0.000837998092428 -2.70632546839e-22)
(-0.0386161249431 -0.0015031998746 -1.22709872088e-22)
(-0.037864348316 -0.00142467251001 -1.70739187902e-22)
(-0.039514639636 -0.00206032359243 -6.39765012271e-23)
(-0.0387968110161 -0.00205496249318 -8.96124199407e-23)
(-0.0403784593709 -0.00263352934564 -2.96349696718e-23)
(-0.039633602789 -0.0027061326844 -4.41937193408e-23)
(-0.0413139693225 -0.00320677993184 -1.07448009648e-23)
(-0.0405147540042 -0.00336650474848 -9.55246120372e-24)
(-0.042389868574 -0.00377972218835 1.50082025007e-24)
(-0.0415091039161 -0.00403082049062 -4.80613174383e-24)
(-0.0436390708034 -0.00434273892611 1.8676751891e-23)
(-0.0426709867022 -0.0047007157439 7.08023090613e-24)
(-0.0450808132452 -0.00491092646311 2.1694551993e-23)
(-0.0440100443438 -0.00536928381785 2.19723441042e-23)
(-0.0467232692003 -0.00546217979279 3.00681088008e-24)
(-0.0455609096906 -0.00602628813089 1.1348875684e-23)
(-0.0485678922147 -0.00598846088247 -1.18962045927e-22)
(-0.0473129055354 -0.00668191271787 1.0142524682e-24)
(-0.0505899717362 -0.0064567922478 -4.25410081758e-22)
(-0.0492881442666 -0.00731332039312 -2.06825326347e-22)
(-0.0527005695136 -0.00685142777129 -1.21313335785e-21)
(-0.0514238431425 -0.00791025608364 -6.78367030577e-22)
(-0.0546889496771 -0.00719831059812 -2.1085189206e-21)
(-0.0535766051538 -0.00833176628822 -2.0055770566e-21)
(-0.0566244825648 -0.00761683039077 -1.82526179079e-21)
(-0.0554137249983 -0.00913358628863 -2.86864579976e-21)
(-0.0597089872329 -0.00830572407666 -2.98358820374e-21)
(-0.0573464637935 -0.00944115089851 -1.28087335747e-21)
(-0.0659604501457 -0.00906015877284 -8.38500356861e-21)
(-0.0613755433145 -0.0104182014695 -5.0288036642e-21)
(-0.0550104503182 -0.0092500556672 -1.77938928503e-20)
(-0.0696836301934 -0.00810884329708 -1.26427549428e-20)
(-0.0427922627359 -0.0115289322075 -1.97038688798e-20)
(-0.0381070622146 -0.0125844539134 -2.07515856744e-20)
(-0.0444207484174 -0.0140593889241 -1.27609211139e-20)
(-0.0359779637367 -0.000621647469744 -3.27634382213e-22)
(-0.0351181450243 -0.000330364139325 -3.46967381222e-22)
(-0.0370241398717 -0.00127903247902 -2.32178492648e-22)
(-0.0361793391447 -0.00106641611572 -2.44552681807e-22)
(-0.037990496076 -0.00197259821856 -1.37641735754e-22)
(-0.0371708327375 -0.00181015106231 -1.53299584723e-22)
(-0.038870950613 -0.00269231728683 -6.98296380545e-23)
(-0.0380770556608 -0.0026070281906 -7.15207996929e-23)
(-0.0397231844418 -0.00343503315246 -2.41112108728e-23)
(-0.0388907588438 -0.00342274945811 -3.20473898269e-23)
(-0.0406511136446 -0.00418619233527 -3.61379198276e-24)
(-0.0397633957306 -0.00425408799706 -4.7647261926e-24)
(-0.0417262787739 -0.00494287365857 7.73278912235e-25)
(-0.0407521982217 -0.00510180151848 -2.63387921129e-24)
(-0.0429762394093 -0.00570578746951 1.03758231193e-23)
(-0.0419078735864 -0.00596007677056 1.17554454086e-24)
(-0.044421149507 -0.00646796861294 1.16266677952e-23)
(-0.0432477462487 -0.00683079701195 4.93081684651e-24)
(-0.0460812882005 -0.00723977400963 9.35631727208e-24)
(-0.0447891064931 -0.00770940447192 -2.78688414641e-24)
(-0.0479551362694 -0.00799461677581 -8.68490279519e-23)
(-0.0465582069309 -0.00860022161043 -3.11778322526e-23)
(-0.0500182287127 -0.00873667148528 -4.59782275166e-22)
(-0.0485463634725 -0.00949059181109 -1.63917913293e-22)
(-0.052183701147 -0.00946401009846 -1.47081072932e-21)
(-0.050696877299 -0.0103929519253 -5.98779719236e-22)
(-0.0541997893016 -0.0101749804936 -2.76570393576e-21)
(-0.052866042264 -0.0111358069491 -1.57142680321e-21)
(-0.0560254935373 -0.0108270936696 -2.32425736644e-21)
(-0.0547619911131 -0.0123397248304 -2.84202339166e-21)
(-0.058784993 -0.0116742343212 -3.32608881793e-21)
(-0.0564995899173 -0.0128800390986 -1.41951405114e-21)
(-0.0648367262071 -0.0131424545245 -9.28655503843e-21)
(-0.059907410085 -0.0141273519215 -5.66370930682e-21)
(-0.0544633274942 -0.0147597495786 -1.56004477669e-20)
(-0.0680664621152 -0.011548896961 -1.14763515714e-20)
(-0.0418506973494 -0.0118477579623 -1.38086379085e-20)
(-0.0410219074211 -0.0182197245779 -1.52237702679e-20)
(-0.043354392888 -0.017436375005 -9.06552996792e-21)
(-0.0352599013207 -0.000768329125836 -2.63885680816e-22)
(-0.0343499625126 -0.000411731784427 -2.52528882359e-22)
(-0.0362685208918 -0.00158605565847 -1.65673773882e-22)
(-0.035361735136 -0.00129652129762 -1.36112536983e-22)
(-0.0372014836049 -0.00244033822309 -8.71786486618e-23)
(-0.0363166091939 -0.00219612442829 -7.39096191161e-23)
(-0.0380564037569 -0.00332732656973 -3.37385514653e-23)
(-0.0371900159527 -0.00315592671379 -1.2811517907e-23)
(-0.0388926864495 -0.00422981831289 -1.27009051467e-23)
(-0.0379881130809 -0.00413661046546 -1.34535216845e-23)
(-0.0398082808834 -0.00515732791877 -3.78481342114e-24)
(-0.0388356271112 -0.00513783704947 2.02428337277e-24)
(-0.0408690321963 -0.00610149812551 -2.23161358267e-24)
(-0.039807742255 -0.00616524983279 -2.34250476417e-24)
(-0.0421080436621 -0.0070675757243 -4.26946173195e-24)
(-0.0409415172495 -0.00721536825177 5.3751258538e-24)
(-0.0435466277122 -0.00805092099678 -9.48273509505e-24)
(-0.0422642285335 -0.00829357815686 5.82395273674e-24)
(-0.0452009584288 -0.00904293386789 -4.3321033671e-23)
(-0.0437970553057 -0.00939644121926 3.82466686326e-25)
(-0.0470757434134 -0.0100619762813 -1.08246717594e-22)
(-0.0455393312993 -0.0105289043403 -6.47545559387e-23)
(-0.0491512875126 -0.0110849467086 -3.02915357363e-22)
(-0.047523633977 -0.0116941897049 -1.18737445433e-22)
(-0.0513203449049 -0.0121199097584 -6.99395793123e-22)
(-0.0496622591612 -0.0129136631803 -3.97264308379e-22)
(-0.0533480732274 -0.0131718378946 -1.64774625911e-21)
(-0.0518145098354 -0.0140424421593 -9.3089515025e-22)
(-0.0551654365765 -0.014239257257 -1.93728007637e-21)
(-0.0536949521542 -0.015683020479 -2.0855945631e-21)
(-0.0575592560693 -0.0153498805208 -3.75713454004e-21)
(-0.0553892394412 -0.0165041393443 -1.97195734138e-21)
(-0.0629872245155 -0.0170734702128 -7.85350583975e-21)
(-0.0581839065256 -0.0179037658357 -5.93467620078e-21)
(-0.0542443017556 -0.0194164589743 -1.10996740724e-20)
(-0.0657236457671 -0.0149022163131 -9.09027891719e-21)
(-0.0419075689643 -0.0188201406286 -1.04806623273e-20)
(-0.041621865767 -0.0235988133907 -1.1976316095e-20)
(-0.0406097043842 -0.0295916932777 -8.31827770581e-21)
(-0.0343892940071 -0.000925374269265 -1.24755738525e-22)
(-0.0334247521082 -0.000497103645697 -1.18795076964e-22)
(-0.0353547076102 -0.00189456626364 -4.43483822169e-23)
(-0.0343926910046 -0.00152608877066 -1.29153449198e-23)
(-0.0362496979038 -0.00290691687478 4.57511638742e-25)
(-0.0353042562604 -0.0025772390399 2.88876754625e-23)
(-0.0370731442417 -0.00395592438344 7.47351187376e-24)
(-0.0361409809793 -0.00369417917558 3.75339117053e-23)
(-0.0378876828694 -0.00502728785726 1.27166683493e-24)
(-0.0369165020116 -0.00483858498931 3.97655179518e-24)
(-0.0387853726943 -0.00612737036603 3.46659202973e-24)
(-0.0377352290045 -0.00600792674847 4.7976576272e-24)
(-0.0398231607697 -0.00725523350382 5.2642346723e-24)
(-0.0386794318422 -0.00720796348506 5.93688709729e-25)
(-0.0410375814984 -0.00841022944693 1.54685403225e-23)
(-0.0397861731713 -0.00844458557574 1.13380900716e-23)
(-0.0424475374755 -0.00959653529471 1.56891545181e-23)
(-0.041077641208 -0.00972205804454 3.39366868081e-23)
(-0.0440670695274 -0.0108320295742 -2.10510555813e-23)
(-0.042561577939 -0.0110419446881 1.868767218e-23)
(-0.0459106811672 -0.0121000112103 -7.52452837783e-23)
(-0.0442713299968 -0.0124177012091 -3.72028865269e-23)
(-0.0479562144601 -0.0134405100738 -2.13086396449e-22)
(-0.0461834483592 -0.0138625798305 -8.97802758056e-23)
(-0.0500791275428 -0.0148280845374 -6.28763665505e-22)
(-0.0482750505626 -0.0153934209131 -3.81401979713e-22)
(-0.0521045801657 -0.0162909081939 -1.36874345424e-21)
(-0.0503521248665 -0.0169409014019 -1.23305538031e-21)
(-0.0539573871597 -0.017703823157 -2.12027182812e-21)
(-0.0522824224801 -0.0189740825825 -2.28932564114e-21)
(-0.0560588070275 -0.0191359059608 -4.14949900213e-21)
(-0.0539574451813 -0.0201454885035 -3.78878257065e-21)
(-0.0607816025787 -0.0210638241816 -7.17144927823e-21)
(-0.0562560628304 -0.0218324538425 -5.33605934203e-21)
(-0.0516443693531 -0.0240516986141 -9.96692093983e-21)
(-0.0627359680323 -0.0184326525702 -8.90027592572e-21)
(-0.0391776983348 -0.0307888329658 -9.8139314735e-21)
(-0.0348886058684 -0.0292893292559 -1.18291523481e-20)
(-0.0370110202118 -0.0430947875858 -7.76905215998e-21)
(-0.0333626684104 -0.00107919740692 -6.95468335792e-24)
(-0.0323457558115 -0.000577510388971 -2.29393271341e-23)
(-0.0342862907669 -0.00219771736739 6.03207127595e-23)
(-0.033274273316 -0.00174771574978 5.71222159533e-23)
(-0.0351405746739 -0.00336520258281 6.59640755291e-23)
(-0.0341369389818 -0.00294531198448 7.94001087851e-23)
(-0.035930764071 -0.00456963363523 3.40369516268e-23)
(-0.0367152163866 -0.00580692898334 7.50254258745e-24)
(-0.0375840358661 -0.0070738412917 1.9247543072e-24)
(-0.0385929097539 -0.0083780144818 6.66754410902e-24)
(-0.0397696004534 -0.00973031920509 2.98062365572e-23)
(-0.0411280701828 -0.0111278431366 3.69352044699e-23)
(-0.042689728451 -0.0125854487091 2.53584123441e-24)
(-0.0444649523397 -0.0141225619545 -5.17378785542e-23)
(-0.0464216376188 -0.0157415301891 -2.5809585907e-22)
(-0.0484621468026 -0.0174787281185 -9.85693694514e-22)
(-0.0504821439527 -0.0193064146489 -2.15363756721e-21)
(-0.0523318557166 -0.0210391991013 -3.95783638368e-21)
(-0.0541121292615 -0.0228863185814 -4.97534291056e-21)
(-0.057939476664 -0.0255540964749 -7.06488598953e-21)
(-0.0456243560563 -0.0295734609886 -1.0762507334e-20)
(-0.0327067127244 -0.040294800654 -9.78427303456e-21)
(-0.0321923850027 -0.00122033719406 4.11375721772e-23)
(-0.031125639273 -0.000651504296037 3.07378449038e-23)
(-0.0330695287308 -0.00248730929492 7.62016119789e-23)
(-0.0297701355503 -0.000724137068391 8.56306174033e-23)
(-0.0282858128369 -0.000792423649119 2.24009777978e-22)
)
;

boundaryField
{
    back
    {
        type            calculated;
        value           uniform (0 0 0);
    }
    sides
    {
        type            calculated;
        value           nonuniform List<vector> 0();
    }
    bottom
    {
        type            calculated;
        value           uniform (0 0 0);
    }
    front
    {
        type            calculated;
        value           uniform (0 0 0);
    }
    atmosphere
    {
        type            calculated;
        value           nonuniform List<vector> 8((0 -0.00293357263485 0) (0 -0.0115103215169 0) (0 -0.0142035742972 0) (0 -0.014053725793 0) (0 -0.0129115242367 0) (0 -0.0215613774145 0) (0 -0.0343839273252 0) (0 -0.0455620080881 0));
    }
    floatingObject
    {
        type            calculated;
        value           nonuniform List<vector> 0();
    }
    procBoundary9to6
    {
        type            processor;
        value           nonuniform List<vector> 4((-0.0610323411316 0.00253304435213 -4.79782242448e-21) (-0.0640077724909 0.00555108808573 -5.01705028401e-21) (-0.0520328423148 0.0036960074141 1.91142525477e-21) (-0.0640782038429 0.0045408380314 3.06540225738e-21));
    }
    procBoundary9to7
    {
        type            processor;
        value           nonuniform List<vector> 
16
(
(-0.0366943203071 7.73968702654e-05 -3.34738348395e-22)
(-0.0379064799868 9.22992038939e-05 -2.2608739085e-22)
(-0.0390472941363 0.00012197806996 -1.02458294369e-22)
(-0.040054158348 0.000136719219826 1.49993240056e-23)
(-0.0409202739928 0.000138200199491 1.5830892882e-23)
(-0.0417920751882 0.000144646386468 3.92995068663e-24)
(-0.0427549624331 0.00016401651876 -1.00284212088e-24)
(-0.0438588859734 0.000202787945333 -2.1990018985e-24)
(-0.0451202476281 0.000269860519636 4.93239841104e-24)
(-0.0465427966799 0.000374098637803 -5.14799352926e-24)
(-0.0481261292248 0.000505411283129 3.05018524488e-23)
(-0.0498696869281 0.000704191286969 3.12843221676e-23)
(-0.0517222276135 0.000981551273577 -3.54091319303e-23)
(-0.0536937874993 0.00130396625893 -3.46743577001e-22)
(-0.0559288747748 0.00154228179891 -1.09358501535e-21)
(-0.0585998736295 0.00176383684204 -3.4349406586e-22)
)
;
    }
    procBoundary9to10
    {
        type            processor;
        value           nonuniform List<vector> 
15
(
(-0.0349364151886 -0.00421524902002 4.76548476211e-23)
(-0.0356789797069 -0.00551719699165 6.80882176202e-24)
(-0.0364678605982 -0.00685004116011 -2.50173532268e-24)
(-0.0373748259823 -0.00821955028075 2.92018930333e-24)
(-0.0384333927556 -0.00963413273429 2.09067331342e-23)
(-0.0396798856643 -0.0110992028711 5.92564782335e-23)
(-0.0411037099603 -0.0126303863271 1.84914156484e-23)
(-0.0427345013587 -0.0142422469089 -2.65394846685e-23)
(-0.0320075927214 -0.00195898938984 7.37660062492e-23)
(-0.0338796440661 -0.00379946857687 6.10908808772e-23)
(-0.03282480912 -0.00329585721858 8.09211917287e-23)
(-0.0308825266477 -0.00135561046158 6.33662789758e-23)
(-0.0294376217179 -0.00148454832581 1.48722481485e-22)
(-0.0278666629269 -0.00160336946384 3.10841696714e-22)
(-0.0266822037756 -0.000853086078717 4.02909263609e-22)
)
;
    }
    procBoundary9to11
    {
        type            processor;
        value           nonuniform List<vector> 9((-0.0445645461927 -0.0159500727501 -1.0390091247e-22) (-0.0465382107665 -0.0177732251017 -4.64809103408e-22) (-0.0485248058265 -0.0197125514868 -1.66846269826e-21) (-0.0505500134494 -0.0220101731429 -3.80799744739e-21) (-0.0521105640004 -0.0236117620452 -4.80021529225e-21) (-0.0535883472717 -0.0257113192684 -5.654440115e-21) (-0.0587168208488 -0.02186813587 -1.06845397561e-20) (-0.0241708481142 -0.034918056865 -1.39609593352e-20) (-0.0317404958227 -0.0574311002335 -9.70377932629e-21));
    }
}


// ************************************************************************* //
