/*--------------------------------*- C++ -*----------------------------------*\
| =========                 |                                                 |
| \\      /  F ield         | OpenFOAM: The Open Source CFD Toolbox           |
|  \\    /   O peration     | Version:  v2012                                 |
|   \\  /    A nd           | Website:  www.openfoam.com                      |
|    \\/     M anipulation  |                                                 |
\*---------------------------------------------------------------------------*/
FoamFile
{
    version     2.0;
    format      ascii;
    class       surfaceVectorField;
    location    "5.4";
    object      Uf_0;
}
// * * * * * * * * * * * * * * * * * * * * * * * * * * * * * * * * * * * * * //

dimensions      [0 1 -1 0 0 0 0];


internalField   nonuniform List<vector> 
300
(
(-0.0401227245197 0.000128942758382 -2.94165841837e-22)
(-0.039581331788 6.33297379083e-05 -3.58741214417e-22)
(-0.0412943023048 0.000234488795786 -1.69380827279e-22)
(-0.0407627469065 5.88714428452e-05 -2.3032493323e-22)
(-0.042382136445 0.000316548147656 -4.84180085649e-23)
(-0.0418996820744 6.99682294445e-05 -1.06930773424e-22)
(-0.0433469954157 0.000387294073646 1.23704998706e-23)
(-0.0429196982837 6.51230590285e-05 -3.52996503918e-24)
(-0.044255003548 0.000463347038846 8.36774770222e-24)
(-0.0438215073238 5.09456314598e-05 6.89011835901e-24)
(-0.0452211924565 0.000551771827206 6.19703832156e-25)
(-0.044743803086 4.53679642773e-05 -2.75331152068e-25)
(-0.0463174149936 0.000662083317189 -4.85313516969e-25)
(-0.0457743885141 5.65214837951e-05 1.02345359072e-24)
(-0.0475751551371 0.000801925353946 3.23926652902e-24)
(-0.0469613711415 9.05368915816e-05 -1.00552740674e-24)
(-0.0490043788085 0.000980708767108 6.73356014777e-24)
(-0.0483228382029 0.00015644121382 9.05925818567e-24)
(-0.0506068784376 0.00120635957933 1.18284421449e-23)
(-0.0498611478969 0.000262702165536 3.19020689153e-24)
(-0.0523743393024 0.00148828906787 6.80998070795e-24)
(-0.0515773634572 0.000398266713372 2.39268593034e-24)
(-0.054281862467 0.00180974319628 -5.75676585994e-23)
(-0.0534455634186 0.000605586549012 -5.17842369627e-23)
(-0.0563046369448 0.0021781769735 -2.84840355494e-22)
(-0.0554378988031 0.000899167709673 -2.06761931063e-22)
(-0.0584853439478 0.00256586327289 -7.50220213903e-22)
(-0.0575308725306 0.00124579300559 -7.64814558164e-22)
(-0.0610129706649 0.00282568047096 -8.39359717491e-22)
(-0.0597590879528 0.00142509961556 -1.04250120448e-21)
(-0.0638037717301 0.00289304926724 -2.29214852332e-21)
(-0.0623917013732 0.00156980839524 -1.0825277526e-21)
(-0.0668258077899 0.00350017774912 -4.75930851356e-21)
(-0.0655040150055 0.00220357710104 -4.86153407757e-21)
(-0.0647391625234 0.00559691580113 -4.34510385517e-21)
(-0.0697122806786 0.00419483852003 -6.0344413686e-21)
(-0.0769418950804 0.00311945517897 -3.10206827827e-21)
(-0.0594990972012 0.0043512031933 -6.44999676261e-21)
(-0.0885619069957 -0.00152763829523 -6.19421121157e-21)
(-0.0401580185187 -3.29064175709e-05 -2.9490030581e-22)
(-0.0395485366023 -2.29134031678e-05 -3.56080587786e-22)
(-0.0413060889779 -9.31579944752e-05 -1.67874879375e-22)
(-0.0407026107336 -0.000189560631559 -2.33991072779e-22)
(-0.042376532783 -0.000176781089506 -6.20427298983e-23)
(-0.0418161722894 -0.000340921065508 -1.15392951286e-22)
(-0.0433363037693 -0.000273418956784 -9.01034655082e-24)
(-0.042823170769 -0.000515137325708 -3.41243985095e-23)
(-0.0442514178515 -0.000368410269592 -1.75296049528e-24)
(-0.0437266258195 -0.000701086525371 -1.323803319e-23)
(-0.0452337851652 -0.000453792604887 1.28418606493e-25)
(-0.0446585340407 -0.000881354741879 -6.32158530805e-24)
(-0.0463530098125 -0.000521577017292 5.03239700943e-25)
(-0.0457067237159 -0.00104790841121 -2.92541009357e-25)
(-0.0476426111783 -0.00056549326378 4.81446424991e-24)
(-0.0469175804145 -0.00119895424086 4.81688182033e-25)
(-0.0491135630576 -0.000574994859399 5.51590492943e-24)
(-0.0483134614792 -0.00132376962701 1.24226717767e-23)
(-0.0507646935317 -0.000538563123738 -6.24554932298e-24)
(-0.04989769035 -0.00141254577417 7.09529678216e-24)
(-0.0525794054243 -0.000449986091934 -5.62015317403e-23)
(-0.0516660187202 -0.00146869711422 -2.01744710286e-23)
(-0.0545391077013 -0.00031151760507 -2.00978509427e-22)
(-0.0535840611756 -0.00145962629631 -1.47148195907e-22)
(-0.0566045465167 -8.65021723692e-05 -6.86736133733e-22)
(-0.0556628895702 -0.00136182939036 -3.80473664869e-22)
(-0.058724172478 0.000161909421217 -1.05709554874e-21)
(-0.0577792207994 -0.00115742485591 -1.15756575195e-21)
(-0.0610545181756 0.000241305242715 -1.28566923959e-21)
(-0.0598384013922 -0.00117027992781 -1.1123870006e-21)
(-0.0639865690401 7.24495431497e-05 -3.65191330686e-21)
(-0.0622227801925 -0.00113312054998 -1.52477098336e-21)
(-0.0684025346801 0.000367037028903 -6.13666693261e-21)
(-0.0657985710357 -0.00104276136447 -5.81457070696e-21)
(-0.0653151568593 0.00322400467839 -8.13933427603e-21)
(-0.0725692835307 0.000641561758362 -8.78023978194e-21)
(-0.0686329600866 0.00375851672023 -9.5421396959e-21)
(-0.0600344475989 0.00157435920294 -1.68032425912e-20)
(-0.0709755390766 -0.00834329904766 -1.40382909704e-20)
(-0.0400295796149 -0.000198180525961 -2.95171354755e-22)
(-0.0393504499316 -0.000110729809124 -3.6364376418e-22)
(-0.0411511557608 -0.000424239379033 -1.8150914469e-22)
(-0.0404766543153 -0.000439191083352 -2.47509932171e-22)
(-0.0422025818072 -0.000676746390064 -8.74746198971e-23)
(-0.0415637692418 -0.000755099598481 -1.42696419943e-22)
(-0.0431551886112 -0.000942367642498 -3.83520851487e-23)
(-0.0425576531967 -0.0011016965761 -6.68982330122e-23)
(-0.0440738820406 -0.00121229357692 -1.78066580028e-23)
(-0.0434568045582 -0.0014630119974 -3.47755421472e-23)
(-0.0450674198829 -0.00147624650155 -6.7425449239e-24)
(-0.0443946889274 -0.00182169448955 -1.23646022834e-23)
(-0.0462038304972 -0.00172810926391 -3.14092528267e-25)
(-0.0454549729322 -0.00216984675684 -5.17744064305e-24)
(-0.0475187852834 -0.00196433119033 8.08989570886e-24)
(-0.046681472525 -0.00251029073213 6.23740054111e-24)
(-0.0490251400948 -0.00217067579001 1.40020636295e-23)
(-0.0481072265897 -0.00283018216808 2.02326156012e-23)
(-0.0507206037171 -0.00234165319013 -6.83362492346e-24)
(-0.049726806861 -0.00311738276497 1.51465701262e-23)
(-0.0525952165074 -0.00246661725163 -1.11121135195e-22)
(-0.0515411190927 -0.00337669191862 -1.88090077836e-23)
(-0.0546279138496 -0.00250671990967 -3.26643351349e-22)
(-0.0535439818771 -0.00358322869165 -2.09639061437e-22)
(-0.0567483317136 -0.00248422558521 -8.51303283087e-22)
(-0.0556853646228 -0.00371682071909 -5.34843986088e-22)
(-0.0588046702089 -0.00240322900485 -1.21285720382e-21)
(-0.0578601673283 -0.00369089332001 -1.51263497179e-21)
(-0.0609253912671 -0.00243276833432 -1.35148874437e-21)
(-0.0598087996989 -0.00394602953209 -1.78660663178e-21)
(-0.0639915485604 -0.00265787398385 -3.68742838346e-21)
(-0.0619976237801 -0.00390470010446 -1.35393991955e-21)
(-0.069868336397 -0.00241259616339 -8.45814355629e-21)
(-0.0660438290522 -0.00432039323328 -5.36521114367e-21)
(-0.0662602492484 -0.000649113672813 -1.74441480971e-20)
(-0.0743326802441 -0.00256780230165 -1.1548720574e-20)
(-0.0622353587286 -0.00359621303943 -2.12993938656e-20)
(-0.0570895363258 -0.00339704371902 -2.40366455349e-20)
(-0.0629728638996 -0.00931021486138 -1.80989499694e-20)
(-0.0397349431156 -0.000363496193272 -3.15982341597e-22)
(-0.0389870485863 -0.00019876202228 -3.74171289786e-22)
(-0.0408279066518 -0.000756194714579 -2.08697207425e-22)
(-0.0400840624558 -0.00068812153639 -2.71020201316e-22)
(-0.0418575420095 -0.00117768360525 -1.22120033059e-22)
(-0.0411423900544 -0.00117172482297 -1.71237462446e-22)
(-0.0428002943597 -0.00161907789156 -6.33216900107e-23)
(-0.0421163686695 -0.00169470731386 -8.96442793722e-23)
(-0.0437189830411 -0.00207044030125 -2.93334864278e-23)
(-0.043005552232 -0.00223318094819 -4.40231139985e-23)
(-0.0447199163144 -0.00251423197586 -1.07994980026e-23)
(-0.0439510083648 -0.00277352466742 -9.39251590402e-24)
(-0.0458707360577 -0.00294906863148 1.37405242633e-24)
(-0.045020248383 -0.00330897704539 -4.79724601896e-24)
(-0.0472028602529 -0.0033641511059 1.83801204335e-23)
(-0.0462664994438 -0.00384020892895 7.00095572119e-24)
(-0.0487334241979 -0.00377444507852 2.13771220979e-23)
(-0.0476970332558 -0.00435892589888 2.20508796543e-23)
(-0.0504676625036 -0.00415678504699 3.17118726608e-24)
(-0.0493445480753 -0.00485366748214 1.14663111309e-23)
(-0.0524038564642 -0.00450361133042 -1.17326934025e-22)
(-0.0511943446777 -0.00533479175579 2.12726552671e-24)
(-0.0545133307641 -0.00478203869024 -4.17839696175e-22)
(-0.0532655688362 -0.00577897660407 -2.03252949369e-22)
(-0.0567031329817 -0.00497685601745 -1.19617567479e-21)
(-0.05549052619 -0.00617635707769 -6.65833814874e-22)
(-0.0587529753169 -0.00511404439448 -2.08638439976e-21)
(-0.0577229317275 -0.00638243250985 -1.99415717664e-21)
(-0.0607142120376 -0.00530402365197 -1.78905780696e-21)
(-0.0596187654951 -0.0069611981207 -2.87997495545e-21)
(-0.0637857339297 -0.00572524450961 -3.03172267976e-21)
(-0.0615763581139 -0.0069965388271 -1.22663208173e-21)
(-0.0703296224312 -0.00616794766119 -8.45578816136e-21)
(-0.0656011088657 -0.00778649034077 -5.27401579384e-21)
(-0.0662965463233 -0.00595818662998 -1.81412180118e-20)
(-0.0745424561146 -0.00580276769272 -1.27543131022e-20)
(-0.0597688517232 -0.005852946069 -2.08362016387e-20)
(-0.0571935364362 -0.0093338231799 -2.08889344565e-20)
(-0.0585392761899 -0.00807613079433 -1.36136594743e-20)
(-0.0392718397454 -0.000528794704421 -3.29209149504e-22)
(-0.038458360842 -0.000285389956306 -3.49732483068e-22)
(-0.0403345061916 -0.00109144196808 -2.33560456336e-22)
(-0.0395215359389 -0.000938143917765 -2.46704290885e-22)
(-0.0413390824249 -0.00168687224388 -1.38761708759e-22)
(-0.0405470837063 -0.001592678643 -1.55452654475e-22)
(-0.0422696997822 -0.00230326612879 -7.034570336e-23)
(-0.0415000970573 -0.00229588221181 -7.24775398296e-23)
(-0.0431841526381 -0.0029358431635 -2.40821434747e-23)
(-0.0423730947104 -0.00301173695529 -3.25776037201e-23)
(-0.0441862071713 -0.0035682557334 -3.3902639204e-24)
(-0.0433187128857 -0.00373499258748 -4.5103308174e-24)
(-0.0453464257274 -0.00419596674233 8.29657275904e-25)
(-0.0443926510819 -0.00446457975911 -2.49611278166e-24)
(-0.0466904111793 -0.0048183084877 1.0671714942e-23)
(-0.0456442637363 -0.0051928420619 1.10479576151e-24)
(-0.0482359957169 -0.00542677984966 1.21400686873e-23)
(-0.0470886542078 -0.00592001224491 5.24976281196e-24)
(-0.0500005127449 -0.00603100597756 1.04223893916e-23)
(-0.0487403910252 -0.0066398588456 -2.30595487342e-24)
(-0.0519785265353 -0.00660323640247 -8.37987498172e-23)
(-0.0506221527271 -0.00735572454461 -2.99228773007e-23)
(-0.0541413794793 -0.00714773390597 -4.51247068068e-22)
(-0.0527210743706 -0.00805340065931 -1.60625649019e-22)
(-0.0563990740926 -0.0076621670822 -1.46381531673e-21)
(-0.0549760657548 -0.00874662613683 -5.91929325269e-22)
(-0.0584939288515 -0.00814439773443 -2.78774773233e-21)
(-0.0572406511447 -0.00925565596065 -1.57354800871e-21)
(-0.0603704568631 -0.0085452064829 -2.31754923022e-21)
(-0.0592179035312 -0.0102215308999 -2.88723296752e-21)
(-0.0631402627395 -0.00912258930715 -3.46892519581e-21)
(-0.0609989329686 -0.0104754170451 -1.34779993097e-21)
(-0.0694859225397 -0.0103310204862 -9.5725407347e-21)
(-0.0643926622816 -0.0115304506834 -5.71219033571e-21)
(-0.066853216362 -0.0117919083895 -1.55020295469e-20)
(-0.0730815740732 -0.00918890423012 -1.16486645356e-20)
(-0.0584639405025 -0.00738438365755 -1.36663922922e-20)
(-0.0616010699141 -0.0153253893395 -1.53050508791e-20)
(-0.0560409893663 -0.0125507131777 -9.68027266337e-21)
(-0.0386399241639 -0.000690653039517 -2.67227624448e-22)
(-0.0377678325944 -0.000374335652422 -2.5612321902e-22)
(-0.0396679438841 -0.00142872489293 -1.68596489023e-22)
(-0.0387836041759 -0.00119254187954 -1.38997908697e-22)
(-0.0406437169318 -0.0021995873613 -8.9168485545e-23)
(-0.0397763631086 -0.00201877500825 -7.66223391855e-23)
(-0.0415553150547 -0.00299747243815 -3.47094401897e-23)
(-0.0407023585316 -0.00290036732021 -1.37203567609e-23)
(-0.042462204683 -0.00380292707656 -1.30057910628e-23)
(-0.0415677852471 -0.00379591048604 -1.41248592138e-23)
(-0.0434620364113 -0.00462381295582 -3.61617967866e-24)
(-0.042497963636 -0.00470276354945 2.18646593999e-24)
(-0.0446196420672 -0.00544950113392 -2.22097429606e-24)
(-0.0435670940627 -0.00562451714418 -2.33757833088e-24)
(-0.0459661763675 -0.00628332054091 -4.31715636858e-24)
(-0.0448105577381 -0.00655509310445 5.10517040607e-24)
(-0.0475204811337 -0.00711861281778 -9.19626074876e-24)
(-0.0462534595559 -0.00749774018675 5.48642051527e-24)
(-0.0492955437653 -0.00794472968793 -4.26512215657e-23)
(-0.047914341844 -0.00844656397645 7.14853646541e-25)
(-0.0512917139602 -0.00877872414774 -1.06749776503e-22)
(-0.0497882080745 -0.00940443952201 -6.47561365622e-23)
(-0.0534851585733 -0.00959619130864 -3.0130790622e-22)
(-0.0519035814836 -0.0103720196221 -1.16281553119e-22)
(-0.0557647398682 -0.010404093529 -7.01662017249e-22)
(-0.0541681046169 -0.011372759386 -3.93362576442e-22)
(-0.057889489281 -0.0112093316892 -1.6730332439e-21)
(-0.0564353384106 -0.0122502301492 -9.26448571736e-22)
(-0.0597739306539 -0.0120162456921 -1.91748366828e-21)
(-0.0584109218653 -0.0136392661545 -2.09820807652e-21)
(-0.0621701770092 -0.0128612913498 -3.59106507087e-21)
(-0.0601538362415 -0.0141502519268 -1.85203884991e-21)
(-0.0677872940498 -0.014362045732 -7.78831413658e-21)
(-0.0628918853586 -0.0153299097816 -5.58955534012e-21)
(-0.0672483488198 -0.0166706338563 -1.14516858678e-20)
(-0.0707729954331 -0.012492816819 -9.16030142456e-21)
(-0.0581137920513 -0.0147839882661 -1.13189312503e-20)
(-0.06348852822 -0.0207016001077 -1.27815369614e-20)
(-0.0523552048265 -0.0250299814839 -9.36181122224e-21)
(-0.0378395173258 -0.000864949890586 -1.2789350327e-22)
(-0.0369030284406 -0.00046841018504 -1.21222723444e-22)
(-0.0388273464051 -0.00177142194822 -4.70237588595e-23)
(-0.0378773050001 -0.00144951196575 -1.49173569007e-23)
(-0.0397701687538 -0.00271708676474 -1.17421040141e-24)
(-0.0388308967457 -0.00244516786686 2.74124645181e-23)
(-0.0406573654318 -0.00369313916097 6.86422421501e-24)
(-0.0397265139462 -0.00350135440363 3.74377924686e-23)
(-0.0415519135538 -0.00468294071917 1.06739778901e-24)
(-0.0405781652971 -0.00457761651353 3.76536401548e-24)
(-0.0425455453365 -0.00569060894191 3.46506728778e-24)
(-0.0414904746633 -0.00566863932824 4.89013837706e-24)
(-0.0436939172485 -0.00671269563831 4.98856637125e-24)
(-0.0425451533742 -0.00677766019713 4.92913355462e-25)
(-0.0450319164172 -0.00774574408693 1.49087472899e-23)
(-0.0437776515377 -0.00790768435756 1.1014452633e-23)
(-0.0465759877832 -0.00879114962148 1.53975349106e-23)
(-0.0452081548972 -0.00905999102933 3.40156553907e-23)
(-0.0483365972996 -0.00986441399838 -2.139006135e-23)
(-0.046841187238 -0.0102325644225 1.919607556e-23)
(-0.0503238966363 -0.0109457446301 -7.42879131785e-23)
(-0.0487068203732 -0.0114359022515 -3.73671249826e-23)
(-0.0525117128356 -0.0120735885513 -2.08336223341e-22)
(-0.0507757151731 -0.012679656564 -8.55037553125e-23)
(-0.0547682666459 -0.0132198436846 -6.18149130929e-22)
(-0.053021758307 -0.0139814068341 -3.70611896763e-22)
(-0.0569098982022 -0.0144178802673 -1.35162340436e-21)
(-0.0552372228881 -0.0152589262642 -1.20598233078e-21)
(-0.0588447633099 -0.0155455673762 -2.03276325816e-21)
(-0.0572831321774 -0.0170204574319 -2.23521219881e-21)
(-0.0609343340003 -0.0166806046863 -3.85052911917e-21)
(-0.0590187517538 -0.0178307692498 -3.72139186381e-21)
(-0.0657496637304 -0.018340804294 -6.96154262811e-21)
(-0.0612316543238 -0.0192044239917 -5.41116758188e-21)
(-0.0655424667173 -0.0211541138785 -1.04901525182e-20)
(-0.0679597023271 -0.0158690078253 -8.88181236129e-21)
(-0.0562743019626 -0.0261284347519 -1.08244169334e-20)
(-0.0585158608322 -0.0259691263999 -1.25042166539e-20)
(-0.0479486509835 -0.0383682491765 -8.50490132812e-21)
(-0.0368647963881 -0.00103825442923 -8.24657707501e-24)
(-0.0358649894164 -0.000558678513224 -2.41433485245e-23)
(-0.0378142713742 -0.0021131291917 5.95188664769e-23)
(-0.0368026928471 -0.00170180409498 5.63355060468e-23)
(-0.0387217762332 -0.00323274242483 6.60244673882e-23)
(-0.0377115538125 -0.0028640005803 7.94341854893e-23)
(-0.0395835421233 -0.0043826626951 3.43389322691e-23)
(-0.0404582502215 -0.00555621042669 7.58810460353e-24)
(-0.0414358930369 -0.00674745136589 1.91798444475e-24)
(-0.0425711286476 -0.00796109461381 6.51879961726e-24)
(-0.0438900947537 -0.009204857435 3.01213607338e-23)
(-0.0454042631075 -0.0104718022604 3.78141960401e-23)
(-0.047131918791 -0.0117732302358 3.21901192743e-24)
(-0.0490792006237 -0.0131246801209 -4.85829671165e-23)
(-0.051208911309 -0.014524374964 -2.47779428734e-22)
(-0.0534129819092 -0.0160067220736 -9.58445096614e-22)
(-0.0555777467511 -0.0175460259887 -2.08957112523e-21)
(-0.0575343146122 -0.0189526487264 -3.92384080447e-21)
(-0.0593149639206 -0.0204395159469 -5.28203032653e-21)
(-0.0632436756618 -0.0227251181502 -7.33143731506e-21)
(-0.0604415658693 -0.0262342021623 -1.0895876497e-20)
(-0.0501263424893 -0.0355837012788 -1.01847010486e-20)
(-0.0357261704183 -0.0012009020832 4.04387345973e-23)
(-0.0346643913374 -0.000643565273411 3.01923202861e-23)
(-0.0366327565118 -0.00244563634425 7.62508250591e-23)
(-0.0333048552598 -0.000728213823359 8.28974225643e-23)
(-0.031790474817 -0.000809717752886 2.20813588914e-22)
)
;

boundaryField
{
    back
    {
        type            calculated;
        value           uniform (0 0 0);
    }
    sides
    {
        type            calculated;
        value           nonuniform List<vector> 0();
    }
    bottom
    {
        type            calculated;
        value           uniform (0 0 0);
    }
    front
    {
        type            calculated;
        value           uniform (0 0 0);
    }
    atmosphere
    {
        type            calculated;
        value           nonuniform List<vector> 8((-0.0928474009655 0.00580552216468 -3.08460146776e-21) (0 -0.0138269531709 0) (0 -0.0115969959174 0) (0 -0.0102874778138 0) (0 -0.00988264621802 0) (0 -0.0184689977516 0) (0 -0.0305335761719 0) (0 -0.0415754839035 0));
    }
    floatingObject
    {
        type            calculated;
        value           nonuniform List<vector> 0();
    }
    procBoundary9to6
    {
        type            processor;
        value           nonuniform List<vector> 4((-0.0648970002597 0.00522464880574 -5.05443589771e-21) (-0.0676155580056 0.00779588318565 -5.19465686769e-21) (-0.0619766955373 0.00658228502469 1.92363661665e-21) (-0.085875829898 0.021321103592 2.01348503304e-21));
    }
    procBoundary9to7
    {
        type            processor;
        value           nonuniform List<vector> 
16
(
(-0.0394521105895 0.000149127773887 -3.36067614826e-22)
(-0.0406569258524 0.000305982629315 -2.2575191925e-22)
(-0.0418173622771 0.000478836413816 -1.02562456314e-22)
(-0.0428487072438 0.000641169452882 1.55751371092e-23)
(-0.0437452199813 0.000794357060051 1.61171052529e-23)
(-0.0446551442404 0.000957730255412 3.98035145922e-24)
(-0.045663835516 0.0011398193647 -1.17935637067e-24)
(-0.0468212763911 0.00134730631101 -2.28310170217e-24)
(-0.0481438012006 0.00158877525823 4.54552773447e-24)
(-0.0496352669377 0.00187207735877 -5.55574891468e-24)
(-0.0512952651575 0.00218479010419 3.12023298623e-23)
(-0.0531240393846 0.00256509379727 3.25229231362e-23)
(-0.0550695150163 0.00301954209156 -2.63158485618e-23)
(-0.0571433375311 0.00350525514773 -3.34984429974e-22)
(-0.059499506753 0.00388730093064 -1.11354023076e-21)
(-0.0623245180291 0.00428010793345 -2.49375517093e-22)
)
;
    }
    procBoundary9to10
    {
        type            processor;
        value           nonuniform List<vector> 
15
(
(-0.0385768239232 -0.0040930198629 4.84801652194e-23)
(-0.0394048315707 -0.00534627750029 7.0458857319e-24)
(-0.0402994072185 -0.00661953598624 -2.5935297311e-24)
(-0.0413316813322 -0.00791555166417 2.9057151771e-24)
(-0.0425340132556 -0.00923936969502 2.10732556058e-23)
(-0.0439413393351 -0.0105925101075 6.02209139575e-23)
(-0.0455397262049 -0.0119863412046 1.93363870321e-23)
(-0.0473554533676 -0.0134310340413 -2.55516212056e-23)
(-0.0355582548554 -0.00194709258925 7.24943599744e-23)
(-0.0375017958409 -0.00373117249538 6.18898833205e-23)
(-0.0364262792391 -0.00327102145479 8.06218196997e-23)
(-0.0344254822042 -0.00135986150556 6.22479456633e-23)
(-0.0329649527618 -0.00151463019058 1.45559350995e-22)
(-0.0313513063976 -0.00166173551224 3.08916288415e-22)
(-0.0301289933209 -0.000884615334736 4.01121636063e-22)
)
;
    }
    procBoundary9to11
    {
        type            processor;
        value           nonuniform List<vector> 9((-0.049375850086 -0.0149368903866 -9.84053599244e-23) (-0.0515393275016 -0.0165214299452 -4.50152926238e-22) (-0.0536977857306 -0.0181734896707 -1.62743748355e-21) (-0.055876434864 -0.0201673939284 -3.76651869514e-21) (-0.0575318094192 -0.0213332740414 -4.78825643454e-21) (-0.0589460219802 -0.0230209516619 -6.16339772461e-21) (-0.0644506708301 -0.0191054059097 -1.06375541123e-20) (-0.0491667621712 -0.0311127976477 -1.46392542692e-20) (-0.0419564890076 -0.0531689815791 -9.73774290895e-21));
    }
}


// ************************************************************************* //
