/*--------------------------------*- C++ -*----------------------------------*\
| =========                 |                                                 |
| \\      /  F ield         | OpenFOAM: The Open Source CFD Toolbox           |
|  \\    /   O peration     | Version:  v2012                                 |
|   \\  /    A nd           | Website:  www.openfoam.com                      |
|    \\/     M anipulation  |                                                 |
\*---------------------------------------------------------------------------*/
FoamFile
{
    version     2.0;
    format      ascii;
    class       volScalarField;
    location    "4.9";
    object      ddt0(k);
}
// * * * * * * * * * * * * * * * * * * * * * * * * * * * * * * * * * * * * * //

dimensions      [0 2 -3 0 0 0 0];


internalField   nonuniform List<scalar> 
164
(
-0.000553178719606
-0.000683985395289
-0.00072106980979
-0.000734018978671
-0.000739522339868
-0.000743281887479
-0.000747053411871
-0.000751349286449
-0.000554299193
-0.000685984407647
-0.000722994510008
-0.000735633272139
-0.000740806049817
-0.000744267819337
-0.000747765800003
-0.000751805864807
-0.000756591923155
-0.000762442679068
-0.000771008443674
-0.000555041559777
-0.000687523209394
-0.000724494094154
-0.000736853760842
-0.000741734081632
-0.00074494439797
-0.000748205304248
-0.00075200790973
-0.000756535576684
-0.000762134748878
-0.00077035537326
-0.000787217881111
-0.000830825232789
-0.000555431740184
-0.000688605733168
-0.000725570925865
-0.000737702060467
-0.000742316778519
-0.000745290014026
-0.000748349040076
-0.000751926671586
-0.000756202262992
-0.000761479652021
-0.000769086112038
-0.000784156969379
-0.000822478507622
-0.000922604435682
-0.000555512773543
-0.000689248169343
-0.000726247165005
-0.000738191996239
-0.000742576211008
-0.000745326080781
-0.000748162665945
-0.000751518930539
-0.000755527476915
-0.000760421520844
-0.000767253000334
-0.000780128497502
-0.000812015573202
-0.000896047886786
-0.000555299926029
-0.000689493549158
-0.000726544429931
-0.000738338492551
-0.000742524849955
-0.000745072589437
-0.000747690444296
-0.000750806848998
-0.000754524725879
-0.000759031818118
-0.000765100112309
-0.000775882567419
-0.000801648411052
-0.000870320268473
-0.000554785902567
-0.000689336355259
-0.000726464812105
-0.000738160693839
-0.000742179707009
-0.000744544875596
-0.000746962209614
-0.000749838317998
-0.00075326611274
-0.000757390897027
-0.00076281146338
-0.000771999533587
-0.000793327848577
-0.000851723637298
-0.000554045070372
-0.000688798615313
-0.000726008838823
-0.000737647839746
-0.0007415487618
-0.000743760410239
-0.000745996220144
-0.000748651106526
-0.000751813608217
-0.000755599747934
-0.000760526106533
-0.000768684337914
-0.00078738147728
-0.000840107690975
-0.000553172618869
-0.000687842175464
-0.000725193003657
-0.000736835313753
-0.000740659651379
-0.000742745128162
-0.000744818177968
-0.000747275940962
-0.000750201719091
-0.00075370290039
-0.00075827265695
-0.000765818694158
-0.000783053399917
-0.000832089896122
-0.000552143003312
-0.000686538257663
-0.000724051185032
-0.000735751491002
-0.000739545249983
-0.000741534927305
-0.000743467626739
-0.000745749554862
-0.000748465087606
-0.000751728506852
-0.000756033543542
-0.000763222653694
-0.000779580805043
-0.000825980037794
-0.00097638051927
-0.00155252498582
-0.0005509544056
-0.000684932098945
-0.000722626848301
-0.000734430844148
-0.00073823194913
-0.000740153544167
-0.000741967059778
-0.000744093088219
-0.000746624718534
-0.00074968893975
-0.000753792110719
-0.000760735773075
-0.000776609113624
-0.000821254105116
-0.000967927335322
-0.00154329589364
-0.00054963535311
-0.000683046123176
-0.000720955112236
-0.000732902438753
-0.000736743185064
-0.000738621872207
-0.000740334432745
-0.000742322288828
-0.000744690284038
-0.000747579538292
-0.000751517106349
-0.00075828440297
-0.000773786678435
-0.000817511487609
-0.000964297820038
-0.00155005013331
)
;

boundaryField
{
    back
    {
        type            calculated;
        value           nonuniform List<scalar> 
164
(
-0.000553178719606
-0.000683985395289
-0.00072106980979
-0.000734018978671
-0.000739522339868
-0.000743281887479
-0.000747053411871
-0.000751349286449
-0.000554299193
-0.000685984407647
-0.000722994510008
-0.000735633272139
-0.000740806049817
-0.000744267819337
-0.000747765800003
-0.000751805864807
-0.000756591923155
-0.000762442679068
-0.000771008443674
-0.000555041559777
-0.000687523209394
-0.000724494094154
-0.000736853760842
-0.000741734081632
-0.00074494439797
-0.000748205304248
-0.00075200790973
-0.000756535576684
-0.000762134748878
-0.00077035537326
-0.000787217881111
-0.000830825232789
-0.000555431740184
-0.000688605733168
-0.000725570925865
-0.000737702060467
-0.000742316778519
-0.000745290014026
-0.000748349040076
-0.000751926671586
-0.000756202262992
-0.000761479652021
-0.000769086112038
-0.000784156969379
-0.000822478507622
-0.000922604435682
-0.000555512773543
-0.000689248169343
-0.000726247165005
-0.000738191996239
-0.000742576211008
-0.000745326080781
-0.000748162665945
-0.000751518930539
-0.000755527476915
-0.000760421520844
-0.000767253000334
-0.000780128497502
-0.000812015573202
-0.000896047886786
-0.000555299926029
-0.000689493549158
-0.000726544429931
-0.000738338492551
-0.000742524849955
-0.000745072589437
-0.000747690444296
-0.000750806848998
-0.000754524725879
-0.000759031818118
-0.000765100112309
-0.000775882567419
-0.000801648411052
-0.000870320268473
-0.000554785902567
-0.000689336355259
-0.000726464812105
-0.000738160693839
-0.000742179707009
-0.000744544875596
-0.000746962209614
-0.000749838317998
-0.00075326611274
-0.000757390897027
-0.00076281146338
-0.000771999533587
-0.000793327848577
-0.000851723637298
-0.000554045070372
-0.000688798615313
-0.000726008838823
-0.000737647839746
-0.0007415487618
-0.000743760410239
-0.000745996220144
-0.000748651106526
-0.000751813608217
-0.000755599747934
-0.000760526106533
-0.000768684337914
-0.00078738147728
-0.000840107690975
-0.000553172618869
-0.000687842175464
-0.000725193003657
-0.000736835313753
-0.000740659651379
-0.000742745128162
-0.000744818177968
-0.000747275940962
-0.000750201719091
-0.00075370290039
-0.00075827265695
-0.000765818694158
-0.000783053399917
-0.000832089896122
-0.000552143003312
-0.000686538257663
-0.000724051185032
-0.000735751491002
-0.000739545249983
-0.000741534927305
-0.000743467626739
-0.000745749554862
-0.000748465087606
-0.000751728506852
-0.000756033543542
-0.000763222653694
-0.000779580805043
-0.000825980037794
-0.00097638051927
-0.00155252498582
-0.0005509544056
-0.000684932098945
-0.000722626848301
-0.000734430844148
-0.00073823194913
-0.000740153544167
-0.000741967059778
-0.000744093088219
-0.000746624718534
-0.00074968893975
-0.000753792110719
-0.000760735773075
-0.000776609113624
-0.000821254105116
-0.000967927335322
-0.00154329589364
-0.00054963535311
-0.000683046123176
-0.000720955112236
-0.000732902438753
-0.000736743185064
-0.000738621872207
-0.000740334432745
-0.000742322288828
-0.000744690284038
-0.000747579538292
-0.000751517106349
-0.00075828440297
-0.000773786678435
-0.000817511487609
-0.000964297820038
-0.00155005013331
)
;
    }
    sides
    {
        type            calculated;
        value           nonuniform List<scalar> 0();
    }
    bottom
    {
        type            calculated;
        value           nonuniform List<scalar> 
12
(
-0.000553178719606
-0.000554299193
-0.000555041559777
-0.000555431740184
-0.000555512773543
-0.000555299926029
-0.000554785902567
-0.000554045070372
-0.000553172618869
-0.000552143003312
-0.0005509544056
-0.00054963535311
)
;
    }
    front
    {
        type            calculated;
        value           nonuniform List<scalar> 
164
(
-0.000553178719606
-0.000683985395289
-0.00072106980979
-0.000734018978671
-0.000739522339868
-0.000743281887479
-0.000747053411871
-0.000751349286449
-0.000554299193
-0.000685984407647
-0.000722994510008
-0.000735633272139
-0.000740806049817
-0.000744267819337
-0.000747765800003
-0.000751805864807
-0.000756591923155
-0.000762442679068
-0.000771008443674
-0.000555041559777
-0.000687523209394
-0.000724494094154
-0.000736853760842
-0.000741734081632
-0.00074494439797
-0.000748205304248
-0.00075200790973
-0.000756535576684
-0.000762134748878
-0.00077035537326
-0.000787217881111
-0.000830825232789
-0.000555431740184
-0.000688605733168
-0.000725570925865
-0.000737702060467
-0.000742316778519
-0.000745290014026
-0.000748349040076
-0.000751926671586
-0.000756202262992
-0.000761479652021
-0.000769086112038
-0.000784156969379
-0.000822478507622
-0.000922604435682
-0.000555512773543
-0.000689248169343
-0.000726247165005
-0.000738191996239
-0.000742576211008
-0.000745326080781
-0.000748162665945
-0.000751518930539
-0.000755527476915
-0.000760421520844
-0.000767253000334
-0.000780128497502
-0.000812015573202
-0.000896047886786
-0.000555299926029
-0.000689493549158
-0.000726544429931
-0.000738338492551
-0.000742524849955
-0.000745072589437
-0.000747690444296
-0.000750806848998
-0.000754524725879
-0.000759031818118
-0.000765100112309
-0.000775882567419
-0.000801648411052
-0.000870320268473
-0.000554785902567
-0.000689336355259
-0.000726464812105
-0.000738160693839
-0.000742179707009
-0.000744544875596
-0.000746962209614
-0.000749838317998
-0.00075326611274
-0.000757390897027
-0.00076281146338
-0.000771999533587
-0.000793327848577
-0.000851723637298
-0.000554045070372
-0.000688798615313
-0.000726008838823
-0.000737647839746
-0.0007415487618
-0.000743760410239
-0.000745996220144
-0.000748651106526
-0.000751813608217
-0.000755599747934
-0.000760526106533
-0.000768684337914
-0.00078738147728
-0.000840107690975
-0.000553172618869
-0.000687842175464
-0.000725193003657
-0.000736835313753
-0.000740659651379
-0.000742745128162
-0.000744818177968
-0.000747275940962
-0.000750201719091
-0.00075370290039
-0.00075827265695
-0.000765818694158
-0.000783053399917
-0.000832089896122
-0.000552143003312
-0.000686538257663
-0.000724051185032
-0.000735751491002
-0.000739545249983
-0.000741534927305
-0.000743467626739
-0.000745749554862
-0.000748465087606
-0.000751728506852
-0.000756033543542
-0.000763222653694
-0.000779580805043
-0.000825980037794
-0.00097638051927
-0.00155252498582
-0.0005509544056
-0.000684932098945
-0.000722626848301
-0.000734430844148
-0.00073823194913
-0.000740153544167
-0.000741967059778
-0.000744093088219
-0.000746624718534
-0.00074968893975
-0.000753792110719
-0.000760735773075
-0.000776609113624
-0.000821254105116
-0.000967927335322
-0.00154329589364
-0.00054963535311
-0.000683046123176
-0.000720955112236
-0.000732902438753
-0.000736743185064
-0.000738621872207
-0.000740334432745
-0.000742322288828
-0.000744690284038
-0.000747579538292
-0.000751517106349
-0.00075828440297
-0.000773786678435
-0.000817511487609
-0.000964297820038
-0.00155005013331
)
;
    }
    atmosphere
    {
        type            calculated;
        value           nonuniform List<scalar> 0();
    }
    floatingObject
    {
        type            calculated;
        value           nonuniform List<scalar> 0();
    }
    procBoundary7to6
    {
        type            processor;
        value           nonuniform List<scalar> 
11
(
-0.00117304968048
-0.00111414763423
-0.00105866170178
-0.00102582102179
-0.00100792096762
-0.000990902931431
-0.000990902931431
-0.00159918141658
-0.00400211855685
-0.00397287446101
-0.00396606692471
)
;
    }
    procBoundary7to8
    {
        type            processor;
        value           nonuniform List<scalar> 
17
(
-0.000551629026524
-0.000681585356617
-0.000718771728135
-0.000732057729409
-0.000737916474735
-0.000741990447539
-0.00074604729687
-0.000750603847978
-0.000756342400629
-0.000756342400629
-0.00076239716248
-0.000771050367105
-0.000788608203969
-0.000788608203969
-0.000834149297258
-0.000942820089554
-0.000942820089554
)
;
    }
    procBoundary7to9
    {
        type            processor;
        value           nonuniform List<scalar> 
16
(
-0.000548210629365
-0.000680919115563
-0.000719072708542
-0.000731202575105
-0.000735114529077
-0.000736968061781
-0.000738590734527
-0.000740448326114
-0.000742656883331
-0.000745369687521
-0.000749134211279
-0.000755763198024
-0.000770989015684
-0.000814144369088
-0.000958873767074
-0.00153058433964
)
;
    }
}


// ************************************************************************* //
