/*--------------------------------*- C++ -*----------------------------------*\
| =========                 |                                                 |
| \\      /  F ield         | OpenFOAM: The Open Source CFD Toolbox           |
|  \\    /   O peration     | Version:  v2012                                 |
|   \\  /    A nd           | Website:  www.openfoam.com                      |
|    \\/     M anipulation  |                                                 |
\*---------------------------------------------------------------------------*/
FoamFile
{
    version     2.0;
    format      ascii;
    class       surfaceVectorField;
    location    "4.9";
    object      ddtCorrDdt0(Uf);
}
// * * * * * * * * * * * * * * * * * * * * * * * * * * * * * * * * * * * * * //

dimensions      [0 1 -2 0 0 0 0];


internalField   nonuniform List<vector> 
300
(
(-0.0705377253521 0.00644532382946 1.6142803247e-22)
(-0.0737482038747 0.00335716123473 4.51713886887e-23)
(-0.0704680093696 0.0129566525361 1.64518829673e-22)
(-0.0738194357097 0.00967719103705 2.66297620006e-22)
(-0.0703463745604 0.0195522653928 9.96793161929e-24)
(-0.0736813788421 0.016228193911 1.52287967191e-23)
(-0.0702720934071 0.0262914612681 -3.25211595813e-23)
(-0.0736921414495 0.0229314824608 -2.00798432914e-23)
(-0.0701380196515 0.0332281184066 -2.9549311409e-23)
(-0.0737052646599 0.0297890090534 -3.30135467566e-23)
(-0.0698876203788 0.0404207945081 -1.49114933137e-23)
(-0.0736507844634 0.0368854168915 -1.24711738321e-23)
(-0.0694775130211 0.0479333812495 -5.14177872797e-24)
(-0.0734901273356 0.0442890812595 -3.34711706364e-24)
(-0.0731802054618 0.0520771767221 -1.36440546201e-23)
(-0.0770271204435 0.00644687901926 1.50040976224e-22)
(-0.0802007454382 0.00334242834444 2.46307870867e-24)
(-0.077038675551 0.0129629438254 1.17007587052e-22)
(-0.0803428300251 0.00963949289193 1.38441713431e-22)
(-0.0770396284995 0.0195737746309 -1.48189781916e-23)
(-0.0803011955129 0.0161737719521 -2.26581672508e-23)
(-0.0771461992708 0.0263434224375 -2.05722304667e-23)
(-0.0804721203168 0.022869866946 -1.0608736648e-23)
(-0.0772514716923 0.0333319795854 -1.59354091797e-23)
(-0.0807044219081 0.0297368658996 -2.27352492611e-23)
(-0.077304106059 0.0406083957649 -9.06797582063e-25)
(-0.0809358733729 0.0368664808148 -1.10890845383e-23)
(-0.0772707757092 0.0482531357167 -1.18493929557e-23)
(-0.0811390278595 0.0443365937364 -1.09558420169e-23)
(-0.0771061551767 0.0563604397149 -7.09846179861e-24)
(-0.0812838163183 0.052242851291 -2.05106297973e-23)
(-0.0767403320019 0.0650458240129 3.41736029224e-24)
(-0.0813220474767 0.0606993593127 5.6730877736e-24)
(-0.0760636177842 0.0744471032673 -1.54223883744e-23)
(-0.0811849658767 0.0698441523912 -1.04456101449e-23)
(-0.0807563759961 0.0798460181124 -3.00510752903e-23)
(-0.0834920795849 0.00639371134489 -9.13618408399e-24)
(-0.0866009705431 0.00329768487049 -3.82326019709e-23)
(-0.083590542608 0.0128607798685 -1.22404087147e-24)
(-0.0868179363341 0.00951809643753 5.18129923864e-23)
(-0.0837229866498 0.0194314021049 -1.84479257072e-23)
(-0.0868812509964 0.0159804969812 -9.68364455715e-24)
(-0.0840258700231 0.0261684474943 -1.27717554423e-23)
(-0.087219625211 0.02260719984 -1.00029330596e-23)
(-0.0843966633688 0.0331429094556 -1.78889246196e-23)
(-0.0876893638833 0.0294147742514 -1.37691628562e-23)
(-0.0847904357094 0.0404329705033 -2.11381289732e-23)
(-0.0882346757358 0.0365023905534 -6.84779132323e-24)
(-0.0851864389342 0.0481174759258 -1.96170788585e-23)
(-0.0888283333532 0.0439528812086 -1.51506849794e-24)
(-0.08556063936 0.0563223702331 -7.73908022504e-24)
(-0.0894871124037 0.0518704620451 6.94937037304e-24)
(-0.0858698327987 0.0651736102517 -8.18988266358e-24)
(-0.0901625216447 0.0603836850745 -9.05706484999e-25)
(-0.0860433766474 0.0748429373025 -2.50742970608e-23)
(-0.0908337757594 0.0696491972633 1.46044267538e-23)
(-0.0859672471312 0.0855552124298 7.6233360736e-23)
(-0.0914355078273 0.0798703065302 2.18192164185e-23)
(-0.0854725784826 0.0975872605654 2.48429494258e-22)
(-0.0918442872871 0.0913194284699 1.58247514512e-22)
(-0.0919090606512 0.104331991964 3.74576900184e-22)
(-0.0898785737076 0.00628615062228 2.27165744995e-23)
(-0.0928944540085 0.00322536479738 -2.29715182636e-23)
(-0.0900674870708 0.0126484844119 4.33533887007e-23)
(-0.0931889980834 0.00931371586079 7.47518039052e-23)
(-0.0903374785407 0.0191151257811 -1.23865190962e-24)
(-0.0933578359727 0.015644231572 1.40996176968e-24)
(-0.0908449108842 0.0257543922174 -1.10003404735e-23)
(-0.093869660477 0.0221367700708 -6.55311886725e-24)
(-0.0914935775412 0.0326388001 -2.72802955981e-24)
(-0.0945844367803 0.0288125074713 6.59191331174e-24)
(-0.0922537808934 0.039847433774 1.2775269152e-23)
(-0.0954523364141 0.035771104739 5.44493767805e-25)
(-0.0931176284897 0.0474835334612 2.50513807336e-23)
(-0.0964699306668 0.0431022190663 1.38636722254e-23)
(-0.0940817779696 0.0556502672078 1.37827441131e-23)
(-0.0976538162056 0.0509106335451 1.17855433213e-23)
(-0.0951382045549 0.0645040443586 2.18886029324e-23)
(-0.0990091863619 0.0593278623788 1.75814366541e-23)
(-0.0962664473923 0.0742257482084 6.14979402331e-23)
(-0.100540421488 0.068517440584 5.1755064073e-23)
(-0.0974167352648 0.0850636183542 1.03833370194e-22)
(-0.10224990405 0.0786925435504 7.63439860902e-23)
(-0.0984789217583 0.0973689209536 2.84394920439e-22)
(-0.104116931878 0.090145150099 1.72159931497e-22)
(-0.0993361972601 0.111527177408 2.34181826216e-22)
(-0.106023641679 0.103232496902 3.96914474674e-22)
(-0.10792269454 0.118494863599 3.83755635766e-22)
(-0.09613038897 0.0061245706695 2.90637111421e-23)
(-0.0990268724001 0.00312812848063 -2.23567819508e-25)
(-0.0964098986567 0.0123215123769 3.28083769741e-23)
(-0.0993950548794 0.00902760739284 3.89440290717e-23)
(-0.0968203253281 0.018622938342 -3.90450518795e-24)
(-0.099669487575 0.0151632739246 6.51511836116e-24)
(-0.0975359774655 0.0250963447046 1.1039134918e-23)
(-0.100354052358 0.0214557152716 3.56336141595e-24)
(-0.0984658577971 0.0318108038352 9.86443663935e-24)
(-0.101309810994 0.0279274249022 5.89149043503e-24)
(-0.0995947449063 0.0388474599347 1.63289684123e-24)
(-0.10249850297 0.0346710748589 -4.33871936643e-24)
(-0.100935300265 0.0463057652049 5.97834813195e-25)
(-0.103934602162 0.0417759628881 1.81464104375e-24)
(-0.102507689315 0.0542997748351 1.55842358623e-23)
(-0.105649302698 0.0493448396859 9.09674824769e-25)
(-0.104334380451 0.0629776886536 4.74478977947e-23)
(-0.10768214158 0.0575043720458 2.58071904109e-23)
(-0.106444395934 0.0725186612272 6.66011099301e-23)
(-0.110068968801 0.0664092278407 3.89453786581e-23)
(-0.108868666512 0.0831714414352 1.44670547393e-22)
(-0.112882265578 0.076263570055 6.80948719895e-23)
(-0.111592030455 0.0952634335134 2.84679485733e-22)
(-0.116176757895 0.0873467175535 1.74187827886e-22)
(-0.114574259295 0.109249295047 5.46488284224e-22)
(-0.119960958288 0.0999729232203 4.6076106621e-22)
(-0.124225783772 0.114688502524 8.87442055605e-22)
(-0.102190107557 0.00590519082784 9.6567501101e-24)
(-0.104940053855 0.00300334611155 2.04855207647e-23)
(-0.102559685721 0.0118779645576 1.26507704588e-23)
(-0.105376953145 0.00865955166319 1.23013923133e-23)
(-0.10310670518 0.0179551975602 1.39829849651e-23)
(-0.105756905439 0.0145411004845 9.75332899638e-24)
(-0.104024327542 0.0241935847172 -1.58428306706e-24)
(-0.106603410817 0.0205702802577 6.30162405437e-24)
(-0.105229433368 0.0306608421625 -8.31166557075e-24)
(-0.10778812211 0.0267655768656 1.29660261149e-23)
(-0.106714858582 0.0374335742127 -4.15697516392e-24)
(-0.109281187478 0.0332132810705 -7.65504594816e-24)
(-0.108513440157 0.0446005490235 2.12648105532e-24)
(-0.11110879758 0.0399916941146 2.80378834654e-24)
(-0.110671314926 0.0522738610913 1.11326293734e-23)
(-0.113325261355 0.0471950156177 -2.03465547577e-24)
(-0.113243806355 0.0605808218772 1.73046712743e-23)
(-0.115985352376 0.0549371461052 8.94480289801e-24)
(-0.116302051831 0.0697076187639 4.04391407175e-23)
(-0.119183910432 0.0633546302155 -6.47330649793e-24)
(-0.119937354546 0.0798551105752 9.76121524824e-23)
(-0.123008619596 0.072626129533 2.06742334243e-23)
(-0.124237214197 0.0913167274069 3.50269408364e-22)
(-0.127601741684 0.0829941643698 1.02809381858e-22)
(-0.129248517438 0.104503231591 8.01714837591e-22)
(-0.133087682495 0.0947277530131 3.43422011177e-22)
(-0.139527932561 0.108265056105 8.40274304685e-22)
(-0.108002773704 0.00563213618522 2.31301629679e-23)
(-0.110579926848 0.00285136115352 1.74127123991e-23)
(-0.108455457598 0.0113266672842 9.40395085095e-24)
(-0.111080200508 0.00821487246345 -9.55601823656e-25)
(-0.109131453528 0.0171128124649 2.07196808569e-24)
(-0.111552786094 0.0137857312905 2.04791684159e-24)
(-0.110237443683 0.0230544177115 2.08519332363e-23)
(-0.112555576406 0.0194946494269 2.11618212565e-24)
(-0.111696276948 0.0292030673674 1.36226457375e-23)
(-0.113947559741 0.0253482319407 1.83925641685e-23)
(-0.113512024605 0.0356235539155 -6.94282437707e-25)
(-0.115711612821 0.0314236867583 -2.07471766723e-23)
(-0.115730438594 0.0423949078593 -1.35734818455e-24)
(-0.117887658685 0.0377866818254 -5.59018158332e-25)
(-0.118417502424 0.0496097563105 -4.22248195118e-24)
(-0.120543168617 0.0445151769971 -7.84186757621e-24)
(-0.121659909249 0.0573900211469 -1.48331748742e-23)
(-0.123761980476 0.0516995871689 1.22572430645e-24)
(-0.125565966717 0.0658684254253 -2.62382137911e-23)
(-0.127649699408 0.059452186146 -2.13433739028e-23)
(-0.13027517605 0.0752349900916 2.58714627995e-23)
(-0.132351810576 0.0679152813095 -1.07094719165e-23)
(-0.135951004975 0.0857288880915 9.59619846706e-23)
(-0.138053128882 0.0772821887712 4.31749071014e-23)
(-0.142726216202 0.0976667485958 3.8198147827e-22)
(-0.144954999084 0.0877838936149 8.47517019729e-23)
(-0.153209186079 0.0997425834281 4.55398881314e-22)
(-0.113514913534 0.00530447586429 -6.67305239252e-24)
(-0.115891436721 0.00267671716353 6.40154143394e-24)
(-0.114044259715 0.0106786671981 -8.31163583301e-24)
(-0.116462197541 0.00770179739871 1.72786329017e-23)
(-0.114834850671 0.0161337117696 2.09213088155e-24)
(-0.117016558652 0.0129126221377 6.36285873542e-24)
(-0.116108199276 0.0217136777538 -3.4318694217e-25)
(-0.118145053176 0.0182493898864 2.42517473114e-24)
(-0.11778955029 0.0274716546461 -1.59772582413e-23)
(-0.11971530307 0.0237059480368 4.45791169044e-24)
(-0.119892121598 0.0334630157194 -2.06119123929e-23)
(-0.121711999549 0.0293453867579 -1.13871180765e-24)
(-0.122471218024 0.0397494822688 -7.04353754998e-24)
(-0.12418086796 0.035219207873 -6.14342436334e-24)
(-0.125608507908 0.0464017190696 -2.39366131858e-24)
(-0.12719777022 0.0413833710364 -2.82583778405e-24)
(-0.129410863422 0.0535055897249 -5.28447472212e-24)
(-0.130861381727 0.0479006101738 1.60717174049e-23)
(-0.134016451999 0.0611705491204 -5.81463202823e-24)
(-0.135300928906 0.0548489767407 -8.58382571891e-24)
(-0.139606204156 0.0695288389468 6.59397238544e-24)
(-0.140685303281 0.0623244967079 -2.32503040949e-23)
(-0.146403132291 0.078778408465 3.19646244037e-23)
(-0.147257175204 0.0704607172378 2.93849364692e-23)
(-0.154639475834 0.0891852428967 1.58169105017e-22)
(-0.155287088567 0.0794294074196 1.04896229622e-22)
(-0.165078911579 0.0894763460501 2.98349779815e-22)
(-0.118680322316 0.0049422041604 3.03532267281e-23)
(-0.120839467429 0.00248145582091 5.27211282141e-24)
(-0.119279829959 0.00994349721572 3.19531274701e-23)
(-0.1214697937 0.00712724327116 2.43271830922e-23)
(-0.120165369772 0.0150129492639 6.69590258501e-24)
(-0.122093017214 0.0119399563322 -1.29139319067e-23)
(-0.121576880706 0.0201875291811 7.22627336375e-24)
(-0.123327232167 0.0168612227288 -9.64975016715e-25)
(-0.123442363503 0.0255063664984 1.9296458124e-23)
(-0.125041857636 0.0218757382971 4.54704780703e-24)
(-0.125777520108 0.0310096896509 1.33297762219e-23)
(-0.127222265738 0.0270314915742 2.31810212835e-23)
(-0.128643614636 0.0367394210241 -1.92572459741e-24)
(-0.129915368383 0.0323624330408 -2.10926304721e-24)
(-0.132130848989 0.0427416452634 1.56395409394e-23)
(-0.133200677196 0.0379003172349 1.63551753682e-24)
(-0.136357248016 0.0490692530496 1.27723664081e-23)
(-0.13718338659 0.0436770304447 1.42709528759e-23)
(-0.141480093145 0.0557834500276 -2.60194977856e-23)
(-0.142001358196 0.0497287436541 -1.11832584148e-23)
(-0.147709498486 0.0629664541229 -4.59340011154e-25)
(-0.147845293536 0.0560952027982 -2.03731826769e-23)
(-0.155329539282 0.0707283802101 1.02316541688e-22)
(-0.154977582992 0.0628280481171 2.83140498564e-23)
(-0.164673737354 0.0792335566989 2.45076904421e-22)
(-0.163738853631 0.0700098977007 1.41515876895e-22)
(-0.174533031579 0.0777716893489 2.4759176349e-22)
(-0.123456841497 0.0045420577479 -7.53930814509e-25)
(-0.125384985448 0.00226651019068 4.66351377697e-24)
(-0.124115363625 0.00913394019448 -2.05398762846e-23)
(-0.126065330555 0.00650152275445 -1.40914586695e-23)
(-0.125079298211 0.0137816238575 -2.05748095084e-23)
(-0.126744668286 0.010885242534 -2.39294283566e-23)
(-0.126601647176 0.0185123056997 -3.64420057343e-24)
(-0.128062027477 0.0153581233572 -4.66241232319e-25)
(-0.128609581496 0.0233533543186 8.43161096652e-24)
(-0.129886784314 0.0198991373129 1.13507376793e-23)
(-0.131118242037 0.028328188759 7.74198201442e-24)
(-0.132200067618 0.0245409870619 1.01849817996e-23)
(-0.134189090011 0.0334581423178 1.45197908702e-24)
(-0.13504647768 0.0292989528637 8.42692446278e-25)
(-0.137912022233 0.0387617147061 2.66929473311e-25)
(-0.138502421169 0.0341809808089 2.84555743243e-24)
(-0.142406717905 0.0442532296755 -9.68467194698e-24)
(-0.142669123481 0.0391860500471 3.79972390919e-24)
(-0.147836130142 0.0499432445857 -5.53694330611e-24)
(-0.147681491372 0.0443039946048 -9.15956133864e-24)
(-0.154429359383 0.0558384181013 8.40020719063e-24)
(-0.153727691674 0.0495086283178 1.61379795621e-24)
(-0.162483998295 0.0619523283818 6.75133850637e-23)
(-0.161076579195 0.0547729892945 -2.90604832376e-23)
(-0.17240283335 0.0682830372311 1.44030735965e-22)
(-0.170052105362 0.0600546345098 8.25774927614e-23)
(-0.184687379136 0.0749541867526 4.02404352493e-22)
(-0.181186266168 0.0653334913479 2.75797840128e-22)
(-0.199796462436 0.0821261773623 -1.04242215631e-21)
(-0.194985465042 0.0707771797041 6.15540485041e-22)
(-0.212270971075 0.0761528799597 -3.99129625682e-22)
(-0.127810278948 0.00411111947235 -8.67401407798e-24)
(-0.129496368627 0.00203612185277 1.07919489953e-23)
(-0.128517816513 0.00826551489248 -1.74810107414e-23)
(-0.130219689716 0.00583604162451 -6.95093993386e-24)
(-0.129543335103 0.0124635998888 -3.82086008047e-24)
(-0.130942425928 0.00976714630882 4.06500840588e-24)
(-0.131148697158 0.0167238017319 1.45286970204e-23)
(-0.132321492775 0.0137694774864 1.29315412354e-23)
(-0.133257830053 0.0210644455527 1.31041085124e-23)
(-0.134226058499 0.0178189670681 1.2099540045e-23)
(-0.135881739278 0.0254900522615 3.28569223147e-24)
(-0.136623599877 0.0219338751238 7.5554513048e-24)
(-0.139075539718 0.0300049264439 2.23627079169e-24)
(-0.139558573406 0.026112494143 1.78254022466e-23)
(-0.142919745761 0.0345991652839 6.37835186832e-24)
(-0.143093661415 0.0303415491866 -4.94813318919e-24)
(-0.147525409862 0.0392467673554 4.32483451753e-24)
(-0.14731472375 0.0345872554051 1.82640347072e-23)
(-0.153045531864 0.0439004835206 -2.00882007633e-24)
(-0.152337028423 0.0387951589325 -9.20004639097e-24)
(-0.159691364209 0.0484974113954 -3.5846892472e-23)
(-0.158334858266 0.0428813235103 -1.35754934007e-23)
(-0.167768769519 0.0529129796823 -1.39963755398e-23)
(-0.165515972241 0.046715391837 -4.37236630675e-23)
(-0.177701035987 0.0571397023017 2.14344596925e-22)
(-0.174319011671 0.0501268350207 -2.35390319573e-23)
(-0.190004474829 0.0610346265412 4.88933972676e-22)
(-0.185140288085 0.052940591743 1.38685798712e-22)
(-0.20533952782 0.064546601862 1.25883301567e-21)
(-0.198577946174 0.0549740108788 4.50472661465e-22)
(-0.215108809928 0.0559114877085 1.57100305613e-21)
(-0.131715378389 0.00365735319244 1.25150231395e-23)
(-0.13246331014 0.007351948287 1.45950792135e-23)
(-0.133534994221 0.0110819627517 2.08174097218e-23)
(-0.135197810166 0.0148575408526 1.050238426e-23)
(-0.137373031757 0.0186880963886 6.55088283742e-24)
(-0.140062900174 0.0225648470051 2.20951613199e-23)
(-0.143307362917 0.026476417469 1.06409982657e-23)
(-0.147170421324 0.0303857978935 6.93754964973e-24)
(-0.151740811473 0.0342314569893 4.73915379873e-24)
(-0.157143578644 0.0379182866969 -2.07667197154e-23)
(-0.163545191694 0.0413065024261 -2.14522639963e-23)
(-0.171238905053 0.0442030354305 -5.3266319485e-23)
(-0.180616017792 0.0463370395269 -9.91978301706e-23)
(-0.192164806659 0.0474001613259 1.002244875e-22)
(-0.206349588535 0.0470734411594 7.6264270192e-22)
)
;

boundaryField
{
    back
    {
        type            calculated;
        value           uniform (0 0 0);
    }
    sides
    {
        type            calculated;
        value           nonuniform List<vector> 0();
    }
    bottom
    {
        type            calculated;
        value           uniform (0 0 0);
    }
    front
    {
        type            calculated;
        value           uniform (0 0 0);
    }
    atmosphere
    {
        type            calculated;
        value           nonuniform List<vector> 0();
    }
    floatingObject
    {
        type            calculated;
        value           nonuniform List<vector> 0();
    }
    procBoundary7to6
    {
        type            processor;
        value           nonuniform List<vector> 
11
(
(-0.0995400877768 0.128044614827 3.37231713895e-21)
(-0.117407228295 0.125609240342 -8.60587861922e-22)
(-0.134696398251 0.119877212191 3.60218862203e-21)
(-0.150528812162 0.111432429252 -5.76569873165e-22)
(-0.164441925482 0.101138268411 8.73810183447e-22)
(-0.176107705088 0.0887554465619 7.276623145e-22)
(-0.187859595278 0.0865058481239 8.82474903502e-22)
(-0.203714485226 0.0962619411756 -4.46455102375e-21)
(-0.219963918188 0.090695771728 -1.33341269709e-20)
(-0.225393419006 0.0673102387224 -8.96276606494e-21)
(-0.2252934637 0.0450527649925 -1.67503500297e-20)
)
;
    }
    procBoundary7to8
    {
        type            processor;
        value           nonuniform List<vector> 
17
(
(-0.0672948197232 0.00334714457928 -1.05889383764e-23)
(-0.0672975907331 0.00963900263476 1.68652694153e-22)
(-0.067072377164 0.016156619047 2.61549801933e-23)
(-0.0669368922148 0.0228136636547 -2.23975451498e-23)
(-0.0667516218245 0.0296043474242 -4.35221055874e-23)
(-0.0664444220647 0.0366046545703 -1.69782157708e-23)
(-0.0659714352788 0.0438677747274 -6.01583846557e-24)
(-0.0652837915565 0.0514513143143 -1.56264206783e-26)
(-0.068851603014 0.0558370110904 -6.78078806785e-24)
(-0.0726611520849 0.0603430066188 -2.35195246405e-25)
(-0.0718256357255 0.0691903571016 -3.0344883933e-24)
(-0.0705398789235 0.0787311707752 7.12633040691e-25)
(-0.074923351361 0.0847221978417 4.70900912208e-23)
(-0.0798761332582 0.0909144588981 1.53374527247e-22)
(-0.0783279214094 0.103295880103 3.65896695843e-22)
(-0.084363592849 0.111240128616 1.18686761399e-22)
(-0.0914768043619 0.119333486254 -2.17083125694e-23)
)
;
    }
    procBoundary7to9
    {
        type            processor;
        value           nonuniform List<vector> 
16
(
(-0.133151326747 0.00179460141524 2.09268425685e-23)
(-0.133911006743 0.00513966831588 9.07206199982e-24)
(-0.13466841124 0.00860084860704 1.9981013023e-23)
(-0.136092205239 0.0121200273799 -2.41093784538e-25)
(-0.138051025232 0.0156704463673 3.07175668632e-24)
(-0.14049443417 0.0192600352392 -2.18501689673e-24)
(-0.143464985681 0.0228755212636 1.86966508187e-23)
(-0.147000499395 0.0264844382163 -6.08327730652e-24)
(-0.151163741122 0.0300268757455 2.10175466177e-23)
(-0.156038154322 0.0334104032469 -1.02092119023e-24)
(-0.161755137965 0.0365080016669 -2.18125194035e-23)
(-0.168470039439 0.0390654802537 -1.70030358139e-23)
(-0.176539891897 0.040789660124 -1.21744471847e-22)
(-0.186321804612 0.0413511103617 -1.11276867004e-22)
(-0.198381838811 0.0402871643143 3.36347744954e-22)
(-0.213196598003 0.0367329804054 1.34698242884e-22)
)
;
    }
}


// ************************************************************************* //
