/*--------------------------------*- C++ -*----------------------------------*\
| =========                 |                                                 |
| \\      /  F ield         | OpenFOAM: The Open Source CFD Toolbox           |
|  \\    /   O peration     | Version:  v2012                                 |
|   \\  /    A nd           | Website:  www.openfoam.com                      |
|    \\/     M anipulation  |                                                 |
\*---------------------------------------------------------------------------*/
FoamFile
{
    version     2.0;
    format      ascii;
    class       surfaceVectorField;
    location    "0.5";
    object      ddtCorrDdt0(Uf);
}
// * * * * * * * * * * * * * * * * * * * * * * * * * * * * * * * * * * * * * //

dimensions      [0 1 -2 0 0 0 0];


internalField   nonuniform List<vector> 
300
(
(-0.0949582593129 0.012513740818 -5.66121205383e-22)
(-0.0998794025816 0.00721739653751 -1.41765642189e-22)
(-0.0978651139447 0.0254103692869 -5.26738005087e-22)
(-0.104812218468 0.018672199499 -4.93877465823e-22)
(-0.0983486714507 0.0388768482311 1.4584456454e-23)
(-0.105951569411 0.031779629215 1.32283550689e-22)
(-0.0983810568668 0.0532414120146 1.70820122076e-22)
(-0.106523545442 0.0457314425614 2.42311895936e-22)
(-0.0983485864734 0.0688382445509 2.35513941403e-22)
(-0.107118446531 0.0605937324698 2.72173065493e-22)
(-0.0983707967482 0.0860721733731 3.46516951704e-22)
(-0.107925490584 0.0768249409453 2.2188976483e-22)
(-0.0985595049467 0.105424983193 4.42380849323e-22)
(-0.109059206836 0.0948526645363 2.8675218795e-22)
(-0.110728886058 0.115236888288 3.5564465222e-23)
(-0.10754430931 0.0124338648247 -6.95219026283e-23)
(-0.112312187052 0.00687046963803 1.28367451245e-22)
(-0.110964298178 0.0251797593469 1.65144089953e-22)
(-0.11755709777 0.0183137874561 3.79854525659e-22)
(-0.112193730745 0.038503817834 3.6001099017e-22)
(-0.119274912732 0.0312134125361 4.25140698758e-22)
(-0.113275972081 0.0526593212796 3.43664839353e-22)
(-0.120678709707 0.0448108017319 3.05574361263e-22)
(-0.114658450309 0.0679840233406 2.58548888921e-22)
(-0.12244309384 0.0592694932574 1.55463851227e-22)
(-0.116526165257 0.0848485769016 1.62125001076e-22)
(-0.124790030187 0.0749908873286 4.04282070482e-23)
(-0.119061613099 0.10372037153 -1.20064196151e-22)
(-0.127930778028 0.0923377135215 -3.22264601736e-23)
(-0.122528757889 0.125025038106 6.71977629321e-23)
(-0.132032689962 0.111776070566 -3.26278227234e-22)
(-0.127247180147 0.149431086343 2.82654608081e-22)
(-0.137536972077 0.133913666103 1.92720858172e-22)
(-0.133756622006 0.177680891354 -1.97413834388e-22)
(-0.144788805593 0.159284173599 -9.65996863931e-23)
(-0.15461280419 0.188522690534 -4.67743083555e-22)
(-0.119900722599 0.0120320238248 5.77743879532e-22)
(-0.124342830992 0.00643446982563 3.53379192234e-22)
(-0.123775335333 0.0243880828723 6.39851134464e-22)
(-0.129911817401 0.0176797543489 4.98087297111e-22)
(-0.125706207761 0.0372815360205 3.70704069852e-22)
(-0.132167294593 0.0300409485345 4.98766450878e-22)
(-0.127760636967 0.0509268580912 1.17373373137e-22)
(-0.13432332199 0.0429390689322 1.67716560308e-22)
(-0.1304274775 0.0655850076892 -6.2656830646e-23)
(-0.137100857261 0.0566591214632 -1.30667697302e-23)
(-0.133961056033 0.081592746026 -1.53923254202e-22)
(-0.140797567461 0.0714800510752 -1.28111439863e-23)
(-0.138589047926 0.0993165690483 -2.38440491256e-22)
(-0.145654392795 0.0877179178523 -2.10398772565e-23)
(-0.144627905406 0.119219776569 -2.00755131994e-22)
(-0.151935399419 0.105735477983 -9.11831107105e-23)
(-0.1525362933 0.141674070623 -1.86533436302e-22)
(-0.159990087611 0.125995100124 -1.72399948913e-22)
(-0.162926538225 0.167379196318 -3.6692893556e-22)
(-0.170492140988 0.148878703038 -5.7039460889e-23)
(-0.176640581937 0.196805554408 -2.78535987649e-22)
(-0.18403605367 0.174787816932 -2.12662087145e-22)
(-0.194868049969 0.230552498058 -7.15115536235e-22)
(-0.201645894043 0.204235520413 8.57474282329e-23)
(-0.224663463051 0.237580734902 -1.3098491897e-21)
(-0.131524133136 0.0117839573836 2.73722609813e-22)
(-0.136125207583 0.00622232891626 2.38154041795e-22)
(-0.135976791819 0.0231763090262 3.57002613525e-22)
(-0.141302634241 0.0167590675065 -2.43054939839e-22)
(-0.138621670918 0.035365352479 2.95778941335e-22)
(-0.1443550526 0.0281575531838 4.08871703733e-22)
(-0.141481936372 0.0481131307892 3.72764174409e-23)
(-0.147070157719 0.0402103525074 1.13350059787e-22)
(-0.145258929775 0.0617357772709 3.67789169295e-23)
(-0.150722898724 0.0528978467731 3.04094987899e-23)
(-0.150224285937 0.0765440075566 1.20072232959e-22)
(-0.155605438952 0.0665099120025 2.59798615455e-23)
(-0.156635237102 0.0928069937329 1.26217503289e-22)
(-0.161917121138 0.0812946832635 7.23577315313e-23)
(-0.164826626272 0.110828514058 -6.28279276303e-23)
(-0.169956540899 0.0975288212597 -3.17036378706e-24)
(-0.175307095876 0.130978381685 -4.29059735006e-23)
(-0.180139291616 0.115494545805 -1.89508064359e-22)
(-0.18871230288 0.153522721804 9.72273875266e-23)
(-0.193035454949 0.13544777458 9.42792176147e-23)
(-0.20584929695 0.178815448743 1.51621328737e-22)
(-0.20932710296 0.157623755508 -5.49352942512e-23)
(-0.227836134294 0.207112724953 -5.08986225235e-22)
(-0.229940577219 0.182217836055 3.25455841364e-22)
(-0.256102284299 0.238508826776 -7.3370955565e-22)
(-0.25605643871 0.209294983963 -3.67731178024e-22)
(-0.289166822121 0.238708625596 -2.60656746526e-22)
(-0.143279494292 0.0104734570752 -2.78623507857e-22)
(-0.146597010324 0.00568057391323 -2.61379206145e-22)
(-0.147638318488 0.0217065879888 -1.91185849631e-22)
(-0.15253416924 0.015367808059 -9.75846962325e-22)
(-0.150614612981 0.0327207738921 2.26442822185e-22)
(-0.155367869671 0.0256668018491 -1.43342424261e-22)
(-0.154153522821 0.0443671143821 1.06483141136e-22)
(-0.158715440678 0.0367056726077 1.01223050341e-23)
(-0.158864729375 0.056783727681 1.96104434059e-23)
(-0.163138771162 0.048152842543 2.45471131124e-24)
(-0.165005345706 0.070130700285 -2.17346398818e-23)
(-0.168951930624 0.0603347989534 -2.70323780892e-23)
(-0.172840763269 0.0846167265528 -5.70301355445e-23)
(-0.176402789456 0.0734283472365 -4.07862306838e-24)
(-0.182728844772 0.100458511142 -1.29850500516e-22)
(-0.185797951894 0.0876105339851 -1.30907886778e-22)
(-0.195149743903 0.117858814266 -5.2322873244e-23)
(-0.197539058635 0.103044337826 -8.15219811887e-23)
(-0.210710807328 0.136972978685 -5.78834641631e-23)
(-0.212148874831 0.119857168124 -1.39861932111e-22)
(-0.230179186509 0.157919747474 1.18899218376e-22)
(-0.230272766775 0.138125002144 -1.38469153995e-22)
(-0.254530998828 0.180707135842 4.66710888575e-22)
(-0.252726192814 0.157831082937 1.31268804178e-22)
(-0.284978642533 0.205156111663 1.053216311e-22)
(-0.280503078507 0.17881485766 -2.53462984209e-22)
(-0.314811489477 0.200743489212 -4.63116053586e-22)
(-0.15354167126 0.00948586243197 -9.58602660613e-22)
(-0.156081279083 0.00480509639616 -1.27294912359e-21)
(-0.158204239704 0.0192860607844 -9.28003536955e-22)
(-0.162332836435 0.0137427795312 -1.16629755155e-21)
(-0.161474010389 0.0293832484425 -3.59662941412e-22)
(-0.16546372255 0.0228710435462 -8.41550510663e-22)
(-0.165590195302 0.0398438866115 -9.39061247906e-23)
(-0.169175009282 0.0325947962792 -2.10208560405e-22)
(-0.171031413083 0.0508503197454 -4.41881101839e-23)
(-0.174144406534 0.0426595182785 -4.78798090787e-23)
(-0.178066769605 0.0625495436851 -9.3763612758e-24)
(-0.180650585536 0.053253058131 -2.64447629737e-23)
(-0.186966473593 0.0750774973147 -7.79563743014e-23)
(-0.18893029407 0.0644899256909 6.4944743063e-23)
(-0.198074226953 0.088554459557 -8.25793674503e-23)
(-0.199274457637 0.0764684474086 -4.18220567547e-23)
(-0.211831059961 0.103069998539 -1.69061040056e-22)
(-0.212054042624 0.0892552706889 -4.28254404471e-23)
(-0.228787824894 0.118656885363 -2.20447621943e-22)
(-0.227735030143 0.102869211974 -1.84307324712e-22)
(-0.249623738606 0.13527198926 -1.26099568193e-22)
(-0.246886871276 0.117258711793 -2.74088428131e-23)
(-0.275161048866 0.152746623063 -5.88905068606e-22)
(-0.270199320379 0.132259479046 -4.790307563e-22)
(-0.306375156438 0.170722370942 -8.21900668895e-22)
(-0.298476715435 0.147557869094 -3.52275555208e-22)
(-0.332643665605 0.162742576642 1.42542564256e-22)
(-0.162647747491 0.0084367087142 -1.48064401452e-21)
(-0.164516558093 0.00407355179886 -1.65752234716e-21)
(-0.167520949832 0.0169584480546 -1.07984452525e-21)
(-0.170853206835 0.0120265436061 -6.59130020935e-22)
(-0.171100052502 0.0257253546263 -6.92096129656e-22)
(-0.174229424022 0.0198345404756 -1.11758341842e-21)
(-0.175622767177 0.0347892755871 -1.64182244693e-22)
(-0.178237940904 0.0281149682889 -2.43562117943e-22)
(-0.181589672197 0.0442392010822 -3.01364618685e-23)
(-0.183593560102 0.0366580935662 -5.52367318671e-23)
(-0.189255648337 0.0541584535766 4.78763413651e-23)
(-0.190569243865 0.045549083845 -6.29702554466e-23)
(-0.198874677003 0.0646144346952 1.0107906061e-22)
(-0.199385772982 0.0548368948087 6.68064183281e-23)
(-0.210760892227 0.075647622669 -2.0681297516e-24)
(-0.210307125001 0.0645513184645 2.75502471332e-23)
(-0.225305991852 0.0872557784554 -5.80717251032e-23)
(-0.22366158223 0.0746809885665 9.33033543435e-24)
(-0.242988184027 0.0993718117095 8.73145441812e-24)
(-0.239850274843 0.0851586968321 2.48920767698e-23)
(-0.264380527358 0.111838107736 -3.80340030921e-22)
(-0.259352130548 0.0958391899796 -7.73964588756e-23)
(-0.290150655676 0.124368620397 -2.42401242902e-22)
(-0.282728329013 0.106459280556 -3.45562754032e-22)
(-0.321055694631 0.136502704737 6.12167677944e-22)
(-0.310608600289 0.116608009008 2.62583969588e-22)
(-0.343687115721 0.125836334824 2.08158733612e-22)
(-0.170535917549 0.00722436623308 -8.36008353579e-22)
(-0.171739715168 0.00328889776379 -1.91986353253e-21)
(-0.175531871373 0.0144611454166 -6.96868914105e-22)
(-0.178088834766 0.0101646199854 -4.09976384856e-23)
(-0.179324044772 0.0218284102384 -6.69049406711e-22)
(-0.181595672924 0.0166005774627 -3.43232501417e-22)
(-0.184125734783 0.0293896361366 -1.34616605117e-22)
(-0.185798322783 0.0233867300835 -1.43221951634e-22)
(-0.190433667751 0.0371905317415 -8.80705254452e-23)
(-0.191393779132 0.0303396899506 -1.11048215155e-22)
(-0.198485742133 0.045259902577 -4.40401784835e-23)
(-0.198638066499 0.0374750948596 -7.92198378098e-23)
(-0.208511450223 0.0536054431339 -6.72239514831e-24)
(-0.207730821329 0.0447881535378 -1.62256543149e-24)
(-0.220786899571 0.0622022012853 3.89487123191e-23)
(-0.218903352874 0.0522530271132 4.43462365959e-23)
(-0.235647267158 0.0709767956727 9.22941373073e-23)
(-0.232435531327 0.0597979218457 1.10754146266e-23)
(-0.253491121499 0.0797873172484 -6.12358365239e-23)
(-0.248659963222 0.0672920660909 7.33412577191e-23)
(-0.274782054842 0.0883986525423 -4.26191819872e-23)
(-0.267962372347 0.0745261204953 -2.24103483848e-22)
(-0.300041056366 0.0964514275889 1.59422458458e-22)
(-0.290779488333 0.081176312333 -1.69016700284e-22)
(-0.329832861919 0.103426237501 -1.41424974743e-22)
(-0.31758088878 0.0867753007074 -5.51590968933e-23)
(-0.348852444636 0.0908516935335 -3.7685753698e-22)
(-0.177140479905 0.00592674032847 -1.12485281744e-21)
(-0.177665483464 0.00248597673407 -2.30298681194e-21)
(-0.182176593056 0.0118207636525 3.12638774202e-22)
(-0.18398194254 0.0082086358909 1.10097657184e-22)
(-0.186081104826 0.0177571761704 1.8259495366e-22)
(-0.187531281119 0.0132383186512 2.45488090707e-22)
(-0.191036296747 0.0237801032811 -1.19653561672e-22)
(-0.191820580165 0.0185152227569 -1.00951880592e-22)
(-0.197516687004 0.0299029467126 -1.0219752752e-22)
(-0.197516078154 0.0238637462319 -9.86518485274e-23)
(-0.205737098251 0.0361142076456 -3.68022247578e-23)
(-0.204848869791 0.0292458601498 -2.52790610518e-23)
(-0.215897174097 0.042375546707 4.94460663127e-23)
(-0.213991725196 0.0346155981975 -1.37804418131e-23)
(-0.228230640464 0.0486122018669 1.64729389034e-23)
(-0.225139512167 0.0399052378019 5.34806969478e-23)
(-0.243013611327 0.0546990768333 -7.87746496159e-24)
(-0.238521769932 0.0449993642009 6.80864074838e-23)
(-0.260564782519 0.0604432249428 -8.95263896047e-23)
(-0.254403257503 0.0497242608786 5.89498381866e-23)
(-0.281242331831 0.0655624643203 -3.50501002145e-22)
(-0.273080462962 0.053831801987 -1.78549499998e-22)
(-0.305432068193 0.0696600049454 -3.83598255635e-22)
(-0.294875205683 0.0569688101763 -4.86505675738e-22)
(-0.333525767824 0.0721956099815 -2.9059165913e-22)
(-0.320113965299 0.0586479761108 -1.63229319096e-22)
(-0.349098631459 0.0584002363275 -1.57454715123e-22)
(-0.182408327745 0.00459093650567 -1.06803633731e-21)
(-0.182255640657 0.00168483154561 -8.46626970557e-22)
(-0.187420542217 0.00910805321726 4.29469736886e-23)
(-0.18849834153 0.00621351601472 3.04621497911e-24)
(-0.191348778217 0.0136009760072 -3.80587435447e-23)
(-0.192023578137 0.00982814636763 -1.83088883056e-22)
(-0.196341525863 0.0180863413981 -7.99501674476e-23)
(-0.196305424216 0.0136055218305 -3.85692673248e-22)
(-0.202844257505 0.0225475825002 -2.17333820595e-23)
(-0.201976889105 0.0173715895083 -8.61829064799e-23)
(-0.2110448166 0.0269414656823 -2.25727810707e-24)
(-0.209242375566 0.0210439145024 -2.32598971415e-23)
(-0.221110030691 0.031195453996 -9.74581117801e-24)
(-0.218245325836 0.0245451006964 -3.23879263102e-23)
(-0.233229957938 0.0351994019187 1.05094165528e-22)
(-0.229142978927 0.0277775183268 -2.08313881873e-23)
(-0.247622729 0.0387938579651 1.34913710632e-22)
(-0.242115555858 0.0305968683893 -5.99628244561e-23)
(-0.264531543926 0.0417555705884 -3.0073272207e-23)
(-0.257364007684 0.0328041021535 -2.75079701812e-23)
(-0.284218298083 0.0437803019636 -3.14554173592e-22)
(-0.275103826298 0.0341329331422 -1.99108093438e-23)
(-0.306948982468 0.0444629653182 -2.66136739199e-22)
(-0.295555916283 0.0342254873064 -4.97157904971e-22)
(-0.332966735538 0.0432763177913 -3.00923750896e-23)
(-0.318924535963 0.0326048747283 5.52373184745e-23)
(-0.362497060862 0.0395436451018 -1.19276168879e-23)
(-0.345362028442 0.0288279169971 -2.49199291619e-23)
(-0.395635700305 0.0323805893212 1.53651334453e-21)
(-0.374999073042 0.0222373508303 3.23093221433e-22)
(-0.407695750198 0.0102918565632 2.6248493867e-21)
(-0.186318494019 0.00325005351747 2.24455581736e-22)
(-0.185505073312 0.000899744090975 -4.65242912072e-22)
(-0.191254770361 0.00638760945707 -2.22989641765e-22)
(-0.191635328903 0.00422442965446 2.60388250855e-22)
(-0.195133796085 0.00944864126662 -5.30722812759e-22)
(-0.195084116172 0.00644222415856 -3.39441807731e-22)
(-0.20006449434 0.0124244403814 -3.9192541228e-22)
(-0.199280807901 0.00875339201244 -6.75925832971e-22)
(-0.206461806483 0.0152726551453 -8.77094215619e-23)
(-0.204824749705 0.0109861340533 -1.17619487743e-22)
(-0.214485839081 0.0179249931826 -5.33905453447e-23)
(-0.211894376885 0.0130216558592 -7.28023377954e-23)
(-0.2242703007 0.020284241243 -4.34735033195e-23)
(-0.220604185003 0.0147592286555 -8.20197785364e-23)
(-0.235962865162 0.0222169206625 -1.85888378172e-22)
(-0.231075118058 0.0160812180008 4.03648906955e-23)
(-0.249727511689 0.0235436290971 -2.22384505269e-22)
(-0.243441442398 0.0168265015456 -2.26957593832e-22)
(-0.265739459367 0.0240276235753 -1.73455073181e-23)
(-0.257846739382 0.0167846868968 -1.0299632681e-22)
(-0.284176707681 0.0233619680318 -2.02514540723e-22)
(-0.274436274117 0.0156870996946 1.61884713278e-22)
(-0.305204274834 0.0211551219118 -1.75783847297e-22)
(-0.293346334695 0.0131889877457 -3.38896232285e-22)
(-0.328946223865 0.0169177409993 6.04097644022e-23)
(-0.314683386192 0.00884517730597 2.0317172752e-22)
(-0.355475711698 0.010049543021 3.10100909159e-22)
(-0.338488772693 0.00225317927762 -7.87300195569e-23)
(-0.384704910247 -0.000197933074797 1.41142926361e-21)
(-0.364745530411 -0.00704186966748 6.02699032567e-22)
(-0.393159768098 -0.0213552647985 1.59756567273e-21)
(-0.188879400255 0.0019297641976 -4.29310242953e-22)
(-0.193696769317 0.00371216500672 1.4393608489e-22)
(-0.197468101412 0.00537677117622 -4.84644827943e-22)
(-0.202255487975 0.00689426156008 -4.01619908434e-22)
(-0.208443784187 0.00820194108543 -1.02712403977e-22)
(-0.216166529646 0.0092128154367 -1.01431570987e-22)
(-0.225526064129 0.00981298136569 1.81861547866e-24)
(-0.236630934531 0.00985534567171 -7.04324965296e-25)
(-0.249596711814 0.0091518588511 -1.07569415374e-22)
(-0.264539847917 0.00746494764078 7.62338937852e-23)
(-0.281568287314 0.00449845976948 2.55030217161e-23)
(-0.300766521358 -0.000111522315397 4.00593425326e-23)
(-0.32217008484 -0.00680274202556 6.40319435608e-23)
(-0.345748311726 -0.0160879776411 2.13868103851e-22)
(-0.371299150106 -0.0285695958426 7.88835441686e-22)
)
;

boundaryField
{
    back
    {
        type            calculated;
        value           uniform (0 0 0);
    }
    sides
    {
        type            calculated;
        value           nonuniform List<vector> 0();
    }
    bottom
    {
        type            calculated;
        value           uniform (0 0 0);
    }
    front
    {
        type            calculated;
        value           uniform (0 0 0);
    }
    atmosphere
    {
        type            calculated;
        value           nonuniform List<vector> 0();
    }
    floatingObject
    {
        type            calculated;
        value           nonuniform List<vector> 0();
    }
    procBoundary7to6
    {
        type            processor;
        value           nonuniform List<vector> 
11
(
(-0.292401342844 0.272877260021 2.96927174865e-23)
(-0.322980081549 0.230803428757 1.37308786617e-21)
(-0.344411603154 0.188556909426 -9.29315704325e-22)
(-0.357974141697 0.147548638117 2.82648069705e-21)
(-0.364806011281 0.108594660796 -4.59981759824e-22)
(-0.365946352494 0.0724451176821 1.62410444581e-22)
(-0.382168763847 0.0553713077019 3.07937542816e-22)
(-0.419405591807 0.0469334907017 1.76627086581e-21)
(-0.431853419266 0.0206768206975 6.19218387996e-21)
(-0.415959911221 -0.0147285142965 3.11252673546e-21)
(-0.398096513962 -0.0449144878853 1.25811628471e-21)
)
;
    }
    procBoundary7to8
    {
        type            processor;
        value           nonuniform List<vector> 
17
(
(-0.0873663557013 0.0073325146536 -2.03806982897e-22)
(-0.0919160911561 0.0185759536616 -3.48059986571e-22)
(-0.0924850476033 0.0316600353937 7.2263441543e-23)
(-0.0921583379288 0.0456486206542 4.70082626334e-22)
(-0.0915206732995 0.0605281412971 5.31474488671e-22)
(-0.0906909939968 0.0768237491644 6.27528257071e-22)
(-0.089706962995 0.0950253154853 8.97805527758e-22)
(-0.0886238845076 0.115718415407 5.72540573498e-23)
(-0.0990487622772 0.127532442978 2.61928265803e-22)
(-0.113134625614 0.138638220421 2.93561563513e-22)
(-0.116544997066 0.165803118161 5.18733350513e-22)
(-0.121636667918 0.197658114998 1.68407331032e-22)
(-0.142879376097 0.210665339416 -2.13018731786e-22)
(-0.167906093625 0.222487454985 -2.38116358792e-23)
(-0.186152011192 0.261926722302 -2.94350422871e-22)
(-0.21920174058 0.269074655093 -1.06371426584e-21)
(-0.254806173586 0.274998195547 -4.87574631791e-22)
)
;
    }
    procBoundary7to9
    {
        type            processor;
        value           nonuniform List<vector> 
16
(
(-0.187434366669 0.000141889822906 -1.17899051095e-21)
(-0.193417305 0.00227758414865 7.3677506097e-23)
(-0.196748353427 0.00313997152631 1.98197419968e-23)
(-0.200797983005 0.00403929169606 -3.13071027289e-22)
(-0.206132146291 0.00480892965232 -5.28992418895e-23)
(-0.212904955105 0.00530142005434 6.98459798564e-24)
(-0.221203969558 0.00539983245649 -6.68477885351e-23)
(-0.231116905406 0.00497464847633 5.4750287932e-23)
(-0.24273703336 0.00385732384538 -1.01824542458e-22)
(-0.2561583552 0.0018365668539 -5.30361649562e-23)
(-0.271467519745 -0.00134754362247 2.08186788765e-22)
(-0.288733054624 -0.00601580944937 -4.39947179377e-23)
(-0.307987721591 -0.0125701022904 3.21058724961e-22)
(-0.329197802511 -0.0213676555884 -3.64855107481e-23)
(-0.352257892884 -0.032690509846 6.7894266995e-22)
(-0.376808955666 -0.0485316380522 1.65678369727e-21)
)
;
    }
}


// ************************************************************************* //
