/*--------------------------------*- C++ -*----------------------------------*\
| =========                 |                                                 |
| \\      /  F ield         | OpenFOAM: The Open Source CFD Toolbox           |
|  \\    /   O peration     | Version:  v2012                                 |
|   \\  /    A nd           | Website:  www.openfoam.com                      |
|    \\/     M anipulation  |                                                 |
\*---------------------------------------------------------------------------*/
FoamFile
{
    version     2.0;
    format      ascii;
    class       volVectorField;
    location    "0.5";
    object      U_0;
}
// * * * * * * * * * * * * * * * * * * * * * * * * * * * * * * * * * * * * * //

dimensions      [0 1 -1 0 0 0 0];


internalField   nonuniform List<vector> 
164
(
(-0.125849896466 0.00202452402256 -3.92977810429e-23)
(-0.1296095074 0.00555862152379 -1.91566098732e-22)
(-0.132217708374 0.00921061629803 -7.24678918497e-23)
(-0.135804504548 0.0127730175135 -3.39556739225e-23)
(-0.140646372052 0.0160738973957 -2.98218997429e-23)
(-0.146836257249 0.0190341630839 -2.86833575762e-23)
(-0.154450154421 0.0215283978496 -1.66722700156e-23)
(-0.163557609062 0.0233851781636 -1.52695806288e-23)
(-0.128964807793 0.00133874537255 -5.7171673855e-23)
(-0.13269004527 0.00390634425401 5.59331601922e-23)
(-0.135184654552 0.00636218878274 -7.27698023587e-23)
(-0.138553125459 0.00870033922465 -3.91754880753e-23)
(-0.143071710009 0.0107361585468 -2.19105289181e-23)
(-0.148815701223 0.0123742219676 -8.46083240541e-24)
(-0.155834457006 0.0134889580603 -2.67469950794e-24)
(-0.164176668234 0.0139125022345 -1.15925475894e-23)
(-0.173872934422 0.0134423557411 -7.375444913e-23)
(-0.184965213374 0.0118685414981 -3.5963885711e-23)
(-0.19745784649 0.00895194617101 4.860155866e-23)
(-0.131010322554 0.000715339567835 -1.39374486614e-22)
(-0.134664316183 0.0023681712822 1.83510328449e-22)
(-0.137008914139 0.0037028081298 5.51759759135e-24)
(-0.140120546112 0.00491763905381 -1.49673505072e-23)
(-0.144276280158 0.0058054135365 -1.72389112931e-23)
(-0.149531105327 0.00626007603805 -1.83834015622e-23)
(-0.155913479185 0.00615257875123 -3.26228015214e-23)
(-0.163453097323 0.0053275101721 -1.98394817099e-23)
(-0.172156174003 0.0035917207425 -2.3684845503e-23)
(-0.182020891537 0.000743513421551 -6.45187321221e-23)
(-0.193035160809 -0.0034386151073 -3.47317560136e-23)
(-0.205167299633 -0.00922684698751 -2.80550864211e-22)
(-0.218355899818 -0.0169304654007 2.72976574774e-22)
(-0.132058892238 0.000167154039727 -6.21396484089e-23)
(-0.135630934684 0.000953028088481 6.47194082706e-22)
(-0.137774907073 0.00125484623379 1.87776837914e-22)
(-0.140613231321 0.00145255962652 -9.91850441419e-24)
(-0.144385738845 0.00130958121916 -2.64839093035e-23)
(-0.149132097099 0.000718096445538 -3.55760316241e-23)
(-0.15486425048 -0.000451669004329 -7.3409680656e-23)
(-0.161586194088 -0.00234920594507 -7.89472072528e-23)
(-0.169292916934 -0.00514726830809 -6.90415514564e-23)
(-0.177951860818 -0.00903460193355 -1.69987108956e-22)
(-0.187528286927 -0.0142212071975 -1.62279360411e-22)
(-0.197958140947 -0.0209483109102 -1.61777922059e-22)
(-0.209144423416 -0.0294896102093 -3.60166154239e-22)
(-0.220947226941 -0.0401374607226 -2.09436205347e-22)
(-0.132188526006 -0.000388448884622 -9.12998718777e-23)
(-0.135647345836 -0.000341946217552 6.53478186865e-22)
(-0.137588994912 -0.000955797518848 1.03566675709e-22)
(-0.140146447083 -0.00168509464204 -4.38011739519e-23)
(-0.143526390234 -0.00273461753754 -3.21134569023e-23)
(-0.147758471788 -0.00423936943048 -2.13563669195e-23)
(-0.152840309635 -0.00632154637926 -3.43342097372e-23)
(-0.158759229659 -0.00912080487631 -3.37242594579e-23)
(-0.165490065097 -0.0127938678927 -1.03618574502e-22)
(-0.172989253336 -0.0175129070887 -8.51413948157e-23)
(-0.181196419298 -0.0234674381572 5.2814954937e-23)
(-0.190024412413 -0.0308682444094 -5.1965730977e-23)
(-0.199351141291 -0.039949537649 3.44399416275e-22)
(-0.209008649395 -0.0509462202804 -7.19160794704e-23)
(-0.131442200708 -0.000858175699486 -2.19528157013e-22)
(-0.134788065754 -0.00150070274486 6.27650153451e-22)
(-0.136560202549 -0.0029266588116 1.10868163532e-22)
(-0.138831113782 -0.00447482704439 -4.66994096086e-23)
(-0.141820403216 -0.00632134223517 -2.47232494297e-23)
(-0.145545328951 -0.00861439261783 -3.00407300207e-23)
(-0.1499922648 -0.0114696858608 -4.44306426615e-23)
(-0.155135641805 -0.0150157389554 -6.1437718905e-23)
(-0.160936570184 -0.0193940647924 -6.23859646865e-23)
(-0.167338979322 -0.0247583257739 -1.46449937452e-22)
(-0.174266494849 -0.0312747398767 -7.90443964094e-23)
(-0.181616250354 -0.0391234038365 -1.39604956085e-22)
(-0.189250991189 -0.0484991224404 -2.03599673187e-22)
(-0.196988981787 -0.059584147461 -2.31127278828e-22)
(-0.129976937367 -0.0012647894464 -5.44307781551e-22)
(-0.133182813103 -0.00252473565351 -2.6864826984e-22)
(-0.134779563643 -0.00466290932226 -3.04175714522e-22)
(-0.136773627053 -0.00692295374526 -1.47483559952e-22)
(-0.139383628332 -0.00945934521688 -4.58909137125e-23)
(-0.142619451303 -0.0124237569764 -2.38141441479e-23)
(-0.146459073579 -0.0159242279296 -3.91788919678e-23)
(-0.150867595542 -0.0200775102681 2.58598686434e-23)
(-0.155796411991 -0.0250099280179 -4.2595036315e-23)
(-0.161179970229 -0.0308561875687 -6.43936060174e-23)
(-0.166932029562 -0.0377588764998 4.25913393418e-23)
(-0.172940877899 -0.0458683995285 -1.50320426791e-22)
(-0.179062625651 -0.0553426474554 7.2537496709e-23)
(-0.185112861401 -0.0663191154757 8.3052311712e-23)
(-0.127870098768 -0.00161752474683 -4.05341055774e-22)
(-0.130926350116 -0.00342378051695 -4.23261081168e-22)
(-0.13234746476 -0.00617636458357 -1.98872354483e-22)
(-0.134076289971 -0.0090461605819 -1.03957160167e-22)
(-0.136324959354 -0.0121693094572 -1.83501606267e-23)
(-0.139097702738 -0.0156959708546 -1.69009936615e-24)
(-0.142366490669 -0.0197250569495 9.35797617089e-25)
(-0.146090067214 -0.0243610686321 -3.21182090509e-24)
(-0.150213466969 -0.0297151758874 -4.69742501374e-23)
(-0.154665239018 -0.0359035140829 1.04215375957e-23)
(-0.159354112761 -0.0430460400613 5.96634994116e-23)
(-0.164165150962 -0.0512655425324 -3.95216398027e-23)
(-0.168954456589 -0.060686720192 1.25915044505e-22)
(-0.173542788162 -0.0714101015296 -3.10762976e-23)
(-0.125205849179 -0.00191815419388 -5.9794020609e-22)
(-0.128106934367 -0.00420174676759 6.08339539123e-22)
(-0.129357873963 -0.00747842324942 -1.24772558064e-22)
(-0.130836004813 -0.0108639722013 -6.33712398308e-23)
(-0.132745656037 -0.0144780506432 -2.75560754544e-23)
(-0.13508669928 -0.0184669657806 -4.62284192545e-23)
(-0.137827047294 -0.022919880497 -2.40508630114e-24)
(-0.140921507893 -0.0279289538988 1.46210748658e-23)
(-0.144311575552 -0.0335905861896 -4.45662830376e-23)
(-0.147923139819 -0.0400032972241 1.22901562936e-23)
(-0.151663753711 -0.0472661265423 3.65332309786e-23)
(-0.155419610395 -0.0554770361836 -5.05313693104e-23)
(-0.159051692791 -0.064731753481 4.90735104408e-23)
(-0.162391143432 -0.0751005863719 -2.72275662673e-23)
(-0.122063416239 -0.00217017621825 -5.33185885966e-22)
(-0.124807165441 -0.00486475369809 3.58935641494e-22)
(-0.125897228623 -0.00858206696096 1.65049285855e-22)
(-0.127142050809 -0.0123976973949 -1.31628419781e-23)
(-0.128738123871 -0.0164155731763 -1.0405832133e-23)
(-0.130682298413 -0.0207768165726 -2.0724928545e-23)
(-0.132940110456 -0.0255608216692 -2.70536741689e-24)
(-0.135464424249 -0.0308477551134 8.05630668035e-25)
(-0.138195514993 -0.0367200289474 1.53658217924e-23)
(-0.141059255759 -0.0432599043405 3.72493521485e-23)
(-0.143964977612 -0.0505476005896 -4.4242064795e-24)
(-0.146803237821 -0.0586593977424 -4.8813443712e-23)
(-0.149443278052 -0.0676664057703 5.88708780678e-24)
(-0.151729797756 -0.0776146634614 -1.08703492163e-23)
(-0.153485185432 -0.088508107846 1.30278263225e-23)
(-0.154488595909 -0.100561133366 -2.29550199573e-23)
(-0.118517408866 -0.00237778507492 -3.01743047737e-22)
(-0.121103926611 -0.00542084285447 1.314787282e-23)
(-0.122044504372 -0.00950223904098 -7.73654379577e-23)
(-0.123075372247 -0.0136702962793 -1.42399876086e-22)
(-0.12438534066 -0.0180137958333 -3.41392155156e-23)
(-0.125969421389 -0.0226676969922 -9.51703198197e-24)
(-0.127792202272 -0.0277019076787 -6.7171164484e-24)
(-0.129806241007 -0.0331852701851 -3.79692617175e-24)
(-0.131952442508 -0.0391872771558 -5.3592628408e-23)
(-0.13415868724 -0.0457755190689 -7.58243044541e-24)
(-0.136338247201 -0.0530136901651 -2.2978528008e-23)
(-0.138388303781 -0.0609596334329 -3.9705179787e-23)
(-0.140188393163 -0.0696640042139 2.65947044735e-23)
(-0.141598407866 -0.0791538233543 -5.83474219994e-24)
(-0.142459947255 -0.0894115777185 5.09132885172e-23)
(-0.142578843566 -0.100594128546 1.83316776871e-22)
(-0.114636614135 -0.00254525252515 -2.71202020438e-22)
(-0.11706777416 -0.00587896058071 2.24831777356e-22)
(-0.117871288856 -0.0102551162701 -2.2528966068e-22)
(-0.118708590353 -0.0147059188246 -2.12154022957e-22)
(-0.119760891086 -0.0193056590244 -3.78563276799e-23)
(-0.121022306308 -0.0241824772268 -3.28066863681e-23)
(-0.122457635031 -0.0293972645229 -3.14464432001e-23)
(-0.124020423987 -0.0350083874224 9.15829441429e-24)
(-0.125653612879 -0.0410736367281 -3.78981891776e-23)
(-0.127288556706 -0.0476476254298 -2.8735132289e-23)
(-0.128843966904 -0.0547798519731 2.17282575866e-23)
(-0.130225030745 -0.0625127894861 -2.14225465637e-23)
(-0.13132256448 -0.0708805037808 1.44623695016e-23)
(-0.132012132247 -0.0798954719771 -8.59005969206e-24)
(-0.132154824267 -0.0895267693934 1.98038332341e-23)
(-0.131582103772 -0.0998835316447 1.90955563176e-22)
)
;

boundaryField
{
    back
    {
        type            noSlip;
    }
    sides
    {
        type            noSlip;
    }
    bottom
    {
        type            noSlip;
    }
    front
    {
        type            noSlip;
    }
    atmosphere
    {
        type            pressureInletOutletVelocity;
        value           nonuniform List<vector> 0();
    }
    floatingObject
    {
        type            movingWallVelocity;
        value           nonuniform List<vector> 0();
    }
    procBoundary7to6
    {
        type            processor;
        value           nonuniform List<vector> 
11
(
(-0.23317581638 -0.053233976603 -7.53037157587e-22)
(-0.218783313523 -0.06412719228 7.143650948e-22)
(-0.204609137764 -0.0725730528263 -2.84622044324e-22)
(-0.190873517743 -0.0789282928945 3.89165962167e-22)
(-0.177721341607 -0.0835132966035 -3.19080832021e-23)
(-0.165243010825 -0.0866188935778 3.05217740972e-23)
(-0.165243010825 -0.0866188935778 3.05217740972e-23)
(-0.16735999782 -0.0995677100898 1.30197188052e-22)
(-0.154460318272 -0.113900487918 1.3005921414e-21)
(-0.141715642554 -0.112900076794 1.19220944409e-21)
(-0.130090298102 -0.111214469274 2.42688768412e-22)
)
;
    }
    procBoundary7to8
    {
        type            processor;
        value           nonuniform List<vector> 
17
(
(-0.121592747849 0.0027565648408 5.82665063517e-23)
(-0.125342325805 0.0072964029374 9.87332154836e-23)
(-0.128023778346 0.0122125236363 1.04401082556e-24)
(-0.13177720386 0.0170907654665 9.9384544068e-23)
(-0.136875926259 0.0217639668753 9.89820847014e-24)
(-0.143437789765 0.0261808648644 3.91342179817e-24)
(-0.151573243105 0.0302197589192 8.94224356639e-24)
(-0.161391173885 0.0337103876897 -1.00206045516e-22)
(-0.174231490992 0.0244023980652 -8.73897161925e-23)
(-0.174231490992 0.0244023980652 -8.73897161925e-23)
(-0.186537352253 0.0243538085112 -9.33336451631e-23)
(-0.200516160467 0.0229856879899 -8.29703750236e-23)
(-0.211360190811 0.00440246334157 -1.61712152197e-22)
(-0.211360190811 0.00440246334157 -1.61712152197e-22)
(-0.2266536201 -0.00211657553656 3.4578330599e-23)
(-0.232505749784 -0.0268981325141 -6.3471228715e-22)
(-0.232505749784 -0.0268981325141 -6.3471228715e-22)
)
;
    }
    procBoundary7to9
    {
        type            processor;
        value           nonuniform List<vector> 
16
(
(-0.110483491859 -0.00267692907531 -3.66829071337e-22)
(-0.112762574193 -0.0062485752545 8.62963991037e-24)
(-0.113441853249 -0.0108574962515 -9.9952754783e-23)
(-0.114106216266 -0.0155291665502 -1.03222468569e-22)
(-0.114929315744 -0.0203242120353 -1.25379000567e-23)
(-0.115905079831 -0.0253635878322 4.6305765946e-24)
(-0.116999406189 -0.0306997559869 -3.12515325732e-24)
(-0.118167797849 -0.0363815380732 7.92542913045e-26)
(-0.119356235662 -0.042456289937 -1.41025358294e-23)
(-0.120500556338 -0.0489673526282 -1.13563279261e-24)
(-0.121525831737 -0.055952239133 1.68752812297e-23)
(-0.122345910438 -0.0634408167704 3.55540145876e-25)
(-0.122863151705 -0.0714540008049 1.84730089191e-23)
(-0.122968372469 -0.0799933956005 -2.27969040418e-24)
(-0.122541256523 -0.0890209192653 7.89198219299e-24)
(-0.121436990021 -0.0986083416079 2.00103989885e-22)
)
;
    }
}


// ************************************************************************* //
