/*--------------------------------*- C++ -*----------------------------------*\
| =========                 |                                                 |
| \\      /  F ield         | OpenFOAM: The Open Source CFD Toolbox           |
|  \\    /   O peration     | Version:  v2012                                 |
|   \\  /    A nd           | Website:  www.openfoam.com                      |
|    \\/     M anipulation  |                                                 |
\*---------------------------------------------------------------------------*/
FoamFile
{
    version     2.0;
    format      ascii;
    class       surfaceVectorField;
    location    "0.5";
    object      Uf_0;
}
// * * * * * * * * * * * * * * * * * * * * * * * * * * * * * * * * * * * * * //

dimensions      [0 1 -1 0 0 0 0];


internalField   nonuniform List<vector> 
300
(
(-0.127729701933 0.00369349912015 -1.15431939887e-22)
(-0.127024027605 0.00168163469755 -4.8234727449e-23)
(-0.130913607887 0.00737572163136 -1.32016995291e-22)
(-0.130920721264 0.0047324828889 -6.78164692699e-23)
(-0.134011106461 0.0109696466288 -5.32117828861e-23)
(-0.133483810347 0.00778640254039 -7.26188471042e-23)
(-0.1382254383 0.0143707683433 -3.18887868327e-23)
(-0.136957240961 0.0107366783691 -3.65655809989e-23)
(-0.14374131465 0.0174860026355 -2.92526286596e-23)
(-0.141637202463 0.0134050279712 -2.58662143305e-23)
(-0.150643205835 0.0201978630305 -2.26778137959e-23)
(-0.147605626196 0.0157041925258 -1.85720949908e-23)
(-0.159003881742 0.0223600047098 -1.59709253222e-23)
(-0.154927358764 0.017508677955 -9.67348476175e-24)
(-0.163653854918 0.018648840199 -1.34310641091e-23)
(-0.130827426532 0.00257596654773 -6.19256831412e-25)
(-0.129599984431 0.00102704247019 -9.82730802344e-23)
(-0.133937349911 0.00510740351997 -8.41832108327e-24)
(-0.133452142637 0.0031372577681 1.19721744321e-22)
(-0.136868890006 0.0075107337177 -5.5972645217e-23)
(-0.13588711603 0.00503249845627 -3.36261023837e-23)
(-0.140812417734 0.00968403526546 -3.05430084967e-23)
(-0.139130506939 0.00680898913923 -2.70714192913e-23)
(-0.145943705616 0.0115143884253 -1.51856806618e-23)
(-0.143467508884 0.00827078604166 -1.95747201056e-23)
(-0.152325079114 0.012878123546 -5.56776595668e-24)
(-0.148969304651 0.00931714900281 -1.34221169838e-23)
(-0.16000556262 0.0136240409174 -7.13362354865e-24)
(-0.155673213717 0.00982076840578 -1.76487505147e-23)
(-0.169024801328 0.0135991866176 -4.26734983597e-23)
(-0.163628936388 0.00962000620328 -1.57160146496e-23)
(-0.179419073898 0.0125956342738 -5.48591674205e-23)
(-0.172842993634 0.00851703824182 -4.87196473165e-23)
(-0.191211529932 0.0103704404046 6.31883647448e-24)
(-0.183345017935 0.00630602745981 -5.02413089166e-23)
(-0.195132192738 0.00275666553185 6.93490132322e-24)
(-0.132837319368 0.00153479880511 2.20679209176e-23)
(-0.131134774209 0.000441246803781 -1.00757067511e-22)
(-0.135836615161 0.00299986879175 9.45139630201e-23)
(-0.134917198907 0.00166059968534 4.15352205578e-22)
(-0.138564730126 0.00430767531588 -4.72487645792e-24)
(-0.137194901914 0.0024788271818 9.66472177529e-23)
(-0.142198413135 0.00534594408178 -1.61031309001e-23)
(-0.140168746589 0.00318509934017 -1.24429274607e-23)
(-0.146903692742 0.00601586550239 -1.78111564276e-23)
(-0.144137392605 0.00355749737783 -2.18614102983e-23)
(-0.152722292256 0.00619003656059 -2.55031015418e-23)
(-0.149143430929 0.0034890862418 -2.69797165932e-23)
(-0.159683288254 0.00572577598594 -2.62311416156e-23)
(-0.155208904026 0.00285045487345 -5.30162410887e-23)
(-0.167804635663 0.0044464432551 -2.17621636065e-23)
(-0.162349554057 0.00148915211352 -4.93933444813e-23)
(-0.17708853277 0.00217833369521 -4.41017888126e-23)
(-0.170574840818 -0.000777773782794 -4.63631984797e-23)
(-0.187528026173 -0.00130898368693 -4.96252440678e-23)
(-0.179857668859 -0.004145544256 -1.17252920539e-22)
(-0.199101230221 -0.00625834290841 -1.57641310112e-22)
(-0.190182816095 -0.0088299111524 -9.85055582122e-23)
(-0.211761599725 -0.0129521983676 -3.78714471838e-24)
(-0.201501939376 -0.0150875789488 -2.21164393135e-22)
(-0.213735904453 -0.023210037805 -4.35947897326e-23)
(-0.133844913461 0.000567340963842 2.92527217149e-22)
(-0.131702106091 -0.000110647422448 -7.67197601433e-23)
(-0.136702920879 0.0010773769129 4.1748546031e-22)
(-0.135427222094 0.000305540935464 6.50336134786e-22)
(-0.139194069197 0.00136267048729 8.89291667501e-23)
(-0.137480177245 0.000149524357472 1.45671756812e-22)
(-0.142499485083 0.00138497128252 -1.82012068588e-23)
(-0.140191022458 -0.000116267507762 -2.68598391831e-23)
(-0.146758917972 0.00102165369254 -3.10299704638e-23)
(-0.143774043382 -0.000712518159187 -2.92986831029e-23)
(-0.15199817379 0.000148919345286 -5.44928561401e-23)
(-0.148270659513 -0.00176063649247 -2.84661992718e-23)
(-0.158225222284 -0.00137298393882 -7.61784439544e-23)
(-0.153686960515 -0.00338660769179 -5.38719451966e-23)
(-0.165439555511 -0.00370310628374 -7.39943793546e-23)
(-0.16001939138 -0.00573500541069 -5.63357333554e-23)
(-0.173622388876 -0.00702514842837 -1.19514330206e-22)
(-0.167252762807 -0.00897056810038 -8.63300629792e-23)
(-0.182740073872 -0.0115306035574 -1.66133234683e-22)
(-0.175352186014 -0.0132737545112 -1.27564251886e-22)
(-0.192743213937 -0.0174444240083 -1.62028641235e-22)
(-0.184268978294 -0.0188443226774 -5.47322027369e-23)
(-0.203551282181 -0.0250188742106 -2.60972038149e-22)
(-0.193927481438 -0.0259082776598 -1.06871826518e-22)
(-0.215045825178 -0.0345377912891 -2.84801179793e-22)
(-0.204216987209 -0.0347195739291 -7.88336898229e-24)
(-0.2149801102 -0.0455418405015 -1.40676142409e-22)
(-0.133917935921 -0.000304077987866 2.81089157494e-22)
(-0.131398019694 -0.000623312292054 -1.55414014445e-22)
(-0.136618170374 -0.000718572677908 3.78522431287e-22)
(-0.135012716349 -0.000921324481208 6.40564170158e-22)
(-0.138867720997 -0.00130625608839 2.98827508788e-23)
(-0.136892478535 -0.00194122816522 1.07217419621e-22)
(-0.141836418659 -0.0021855756548 -3.79573154271e-23)
(-0.139311682421 -0.00307996084322 -4.52502917803e-23)
(-0.145642431011 -0.00345679646032 -2.67349119109e-23)
(-0.142502796979 -0.00452797988636 -2.8418353166e-23)
(-0.150299390712 -0.00523873947043 -2.78452883284e-23)
(-0.146488686901 -0.00642688102416 -2.56985484701e-23)
(-0.155799769647 -0.00766359497717 -3.40292345976e-23)
(-0.151262073241 -0.00889561612001 -3.93824261993e-23)
(-0.162124647378 -0.0108787108217 -6.86714169799e-23)
(-0.156804244312 -0.0120682719159 -4.75809891815e-23)
(-0.169239659217 -0.0150479307425 -9.43799846588e-23)
(-0.163083515381 -0.0160939663425 -8.30022695942e-23)
(-0.177092836317 -0.0203491040512 -1.61632199394e-23)
(-0.170050991946 -0.0211356164313 -1.15795666134e-22)
(-0.185610415856 -0.0269802054262 4.24611979984e-25)
(-0.177637864207 -0.027371089017 -1.31147207362e-23)
(-0.194687776852 -0.0351593354745 1.46216842649e-22)
(-0.185748344329 -0.034995824123 -9.57853435308e-23)
(-0.204179895343 -0.0451253212477 1.36241668402e-22)
(-0.194250997543 -0.0442243300447 7.03998715439e-23)
(-0.202967523083 -0.0552651838707 -1.51521679149e-22)
(-0.133115133231 -0.00107525034295 2.04060998219e-22)
(-0.130322762882 -0.00106148257294 -3.81917969282e-22)
(-0.135674134152 -0.00229374512679 3.69259158491e-22)
(-0.133794213316 -0.00201271919919 1.79500941805e-22)
(-0.137695658166 -0.00368598607064 3.20843769616e-23)
(-0.135500226226 -0.00379478406693 -9.6653775495e-23)
(-0.140325758499 -0.00536035334298 -3.57113295192e-23)
(-0.137637299979 -0.00569889039483 -9.70914847804e-23)
(-0.143682866083 -0.00742086590945 -2.73819897252e-23)
(-0.140442265578 -0.00789034372603 -3.53070815711e-23)
(-0.147768796875 -0.00998034440947 -3.72356863411e-23)
(-0.143929186925 -0.0105190747971 -2.69274370843e-23)
(-0.152563953303 -0.0131619823282 -5.29341807832e-23)
(-0.148080412869 -0.0136969568952 -4.18047673146e-23)
(-0.158036105995 -0.0171003098791 -6.19118417958e-23)
(-0.152865895529 -0.0175466246118 -1.77889251308e-23)
(-0.164137774753 -0.0219417736025 -1.04417951069e-22)
(-0.158242034243 -0.0222019964051 -5.24905005008e-23)
(-0.170802737085 -0.0278446313628 -1.12747166931e-22)
(-0.164148122696 -0.0278072566713 -1.05421771735e-22)
(-0.177941372601 -0.0349801177635 -1.09324676247e-22)
(-0.170502372673 -0.0345168081882 -1.82265285338e-23)
(-0.185433620772 -0.0435319846257 -1.71602314636e-22)
(-0.177196476176 -0.0424959016825 -1.44962691438e-22)
(-0.193119986488 -0.0536949298613 -2.17363476007e-22)
(-0.184088052789 -0.0519208849479 -6.55310882391e-23)
(-0.190991006766 -0.0629516314683 -7.40374835578e-23)
(-0.131579875235 -0.00176078362065 -4.06478025695e-22)
(-0.12856197554 -0.00144115709661 -4.74824418662e-22)
(-0.133981188373 -0.00367928915247 -2.86411992181e-22)
(-0.131875702939 -0.00297425808523 -3.45954675504e-22)
(-0.135776595348 -0.00577567384228 -2.25829637237e-22)
(-0.133403834533 -0.00541963695291 -2.51524034502e-22)
(-0.138078627692 -0.00814323093595 -9.66872368323e-23)
(-0.135269733283 -0.00798455716358 -1.2572036006e-22)
(-0.141001539817 -0.0108817100173 -3.48525289302e-23)
(-0.137703774544 -0.010814327337 -3.21205371696e-23)
(-0.144539262441 -0.0140971793968 -3.14965180579e-23)
(-0.140713704208 -0.0140598639155 -1.2752121757e-23)
(-0.14866333456 -0.0179029551104 -6.65951166221e-24)
(-0.144274623966 -0.0178246424396 -1.91215471754e-23)
(-0.153332003766 -0.0224203112117 -8.3675838358e-24)
(-0.148348528262 -0.0222192894501 1.13240238692e-23)
(-0.15848819111 -0.0277787469727 -5.34943211662e-23)
(-0.152883591363 -0.0273625519526 -4.47846432262e-23)
(-0.164055999895 -0.0341157764954 -1.09011333378e-23)
(-0.157811091428 -0.0333798508258 -2.69860342109e-23)
(-0.16993645373 -0.0415764727912 -5.38645437248e-23)
(-0.163041679676 -0.0404024582805 5.11274193767e-23)
(-0.176001751775 -0.050311978873 -3.88914650412e-23)
(-0.168460976363 -0.0485669710305 -9.4921033297e-23)
(-0.182087743526 -0.0604765851766 7.77949042105e-23)
(-0.173923453777 -0.0580146838237 9.92262706072e-23)
(-0.179244743929 -0.0688646085026 2.5988007056e-23)
(-0.129398224442 -0.00236321979901 -4.14301068471e-22)
(-0.126198754734 -0.00176783947035 -5.01640630932e-22)
(-0.131636907438 -0.00488996313562 -3.11066717825e-22)
(-0.129348957909 -0.00381276364227 9.25392289777e-23)
(-0.133211877366 -0.00759174867614 -1.51414757325e-22)
(-0.130702045886 -0.00682739391649 -1.61822456273e-22)
(-0.135200624663 -0.0105521303564 -6.1153660397e-23)
(-0.132309346852 -0.00995506639159 -8.3664199999e-23)
(-0.137711331046 -0.0138633468586 -1.00201299964e-23)
(-0.134392551991 -0.0133236800502 -2.29531180406e-23)
(-0.140732096703 -0.0176228531023 -3.77150874532e-25)
(-0.136954191546 -0.0170814683176 -2.39592593103e-23)
(-0.144228278942 -0.0219332124795 -1.138011644e-24)
(-0.139964259212 -0.0213224687233 -7.34644342025e-25)
(-0.148151767092 -0.0269022322925 -2.50930355212e-23)
(-0.143379505731 -0.0261450112655 5.70462698037e-24)
(-0.152439352994 -0.0326427861478 -1.82763562709e-23)
(-0.147143038974 -0.0316528810385 -4.57702665875e-23)
(-0.157009675889 -0.0392721519538 3.50425185036e-23)
(-0.15118173196 -0.0379534056535 1.13558469446e-23)
(-0.161759631861 -0.0469107499342 1.00709298044e-23)
(-0.155403091971 -0.0451560833018 4.80983651951e-23)
(-0.166559803775 -0.0556799774862 4.31967023514e-23)
(-0.15969176128 -0.053371289358 -4.50265045565e-23)
(-0.171248622375 -0.0656985709654 4.74193734527e-23)
(-0.163904872184 -0.0627092368365 8.74942774731e-23)
(-0.167866263865 -0.0732553439507 -2.91519319336e-23)
(-0.126656391773 -0.00288369673828 5.19966651658e-24)
(-0.123315058993 -0.00204416520607 -5.65563046028e-22)
(-0.128732404165 -0.00593347523016 2.4178349053e-22)
(-0.126299179982 -0.00453325023284 4.83637590309e-22)
(-0.130096939388 -0.00915036660422 -9.40718989475e-23)
(-0.127485154144 -0.00803024510519 2.01383638952e-23)
(-0.131790830425 -0.0126100127294 -4.54636576426e-23)
(-0.12884969933 -0.0116308347981 -3.82670409045e-23)
(-0.133916177658 -0.0163967150778 -3.68922473544e-23)
(-0.130605847621 -0.0154468119098 -1.89809537937e-23)
(-0.136456873287 -0.0205986002307 -2.43167527778e-23)
(-0.132752304645 -0.0196218911766 -3.34766738997e-23)
(-0.139374277594 -0.0253071164238 6.10799428235e-24)
(-0.135255742848 -0.0242403510831 -2.55522685901e-24)
(-0.142616541723 -0.0306167337183 -1.49726040859e-23)
(-0.138069891264 -0.0293883545061 7.71335276693e-24)
(-0.146117357686 -0.0366243659372 -1.6138063372e-23)
(-0.141135413745 -0.0351553075685 -1.46002306226e-23)
(-0.149793446765 -0.0434283046665 2.44116936361e-23)
(-0.144377804605 -0.0416316007823 2.4769754221e-23)
(-0.153541682053 -0.0511265097437 -6.99906916592e-24)
(-0.147704901299 -0.048906863566 1.60545122495e-23)
(-0.157235651593 -0.0598140609658 -7.28929434819e-25)
(-0.151004225476 -0.057068216963 -4.96724065112e-23)
(-0.160721418111 -0.0695792376472 1.09229720867e-23)
(-0.154139708047 -0.0661990796256 2.74802991238e-23)
(-0.156947600948 -0.0763576249166 -1.90489577418e-23)
(-0.12343529084 -0.00332638546354 -8.71251222361e-23)
(-0.119988676261 -0.00227398064659 -4.17464466852e-22)
(-0.125352197032 -0.0068192978679 2.61992463674e-22)
(-0.122806269775 -0.00514279827628 1.86041757157e-22)
(-0.126519639716 -0.0104686478184 7.59432219382e-23)
(-0.123835805394 -0.00904215300097 4.38419239485e-23)
(-0.12794008734 -0.0143422718525 -1.17843370556e-23)
(-0.124976075459 -0.0130339968371 -7.77813590321e-23)
(-0.129710211142 -0.0185164484364 -1.5565380339e-23)
(-0.126431670609 -0.0172146845048 -2.22725238243e-23)
(-0.131811204435 -0.0230699461789 -1.1715147981e-23)
(-0.128198806882 -0.0217222567824 -1.51209802635e-23)
(-0.134202267353 -0.0280832545145 -9.49868374427e-25)
(-0.130242436306 -0.026631364674 -4.71124193264e-24)
(-0.136829969621 -0.0336380352061 8.08572623023e-24)
(-0.132515115761 -0.0320165126492 -1.49564775186e-24)
(-0.139627385376 -0.0398162726167 2.63075869705e-23)
(-0.134957186131 -0.0379536530516 -1.91134033078e-23)
(-0.142512116686 -0.0466989444548 1.64125728345e-23)
(-0.137495147331 -0.0445177117047 1.48334608516e-23)
(-0.145384107717 -0.0543640920817 -2.66188250957e-23)
(-0.140039771418 -0.0517806453774 -1.37013672437e-23)
(-0.148123257936 -0.0628841303407 -2.14631779526e-23)
(-0.142484205261 -0.0598095155877 -4.42593117495e-23)
(-0.150586537904 -0.0723219382004 -2.49163070475e-24)
(-0.144701914897 -0.0686652049921 1.62408961401e-23)
(-0.152607491594 -0.0827255911118 1.07873855308e-24)
(-0.146543952338 -0.0783842434078 -8.35254570811e-24)
(-0.15398689067 -0.0941243681484 -4.96359681742e-24)
(-0.147840796587 -0.0889598427822 3.19705574198e-23)
(-0.148386093285 -0.100577630956 8.0180878457e-23)
(-0.119810667738 -0.00369693347662 -1.44297587459e-22)
(-0.116291746486 -0.00246151880003 -2.86472534088e-22)
(-0.121574215491 -0.00755898407512 -3.21087825688e-23)
(-0.118944222005 -0.00564990171759 1.18989825088e-22)
(-0.122559938309 -0.0115653728757 -1.09882657022e-22)
(-0.119829417995 -0.00987867765553 -1.51327549319e-22)
(-0.123730356453 -0.0157760269485 -8.82695458009e-23)
(-0.120765421276 -0.014188107552 -1.77276949522e-22)
(-0.125177381024 -0.0202591742674 -2.18281237488e-23)
(-0.121948522303 -0.0186597274288 -3.59977715977e-23)
(-0.126880811831 -0.0250844326606 -8.11707421518e-24)
(-0.123373547913 -0.0234250871095 -2.1161859175e-23)
(-0.128799221639 -0.0303218076609 -5.25702131007e-24)
(-0.125005063056 -0.0285495861008 -1.90817798242e-23)
(-0.130879341757 -0.0360409803273 -2.86947772899e-23)
(-0.126795949231 -0.0340968288038 2.68068412127e-24)
(-0.133055564874 -0.0423102960059 -3.05875294267e-23)
(-0.128687882555 -0.040130456942 -4.57454087928e-23)
(-0.135248467221 -0.0491953169276 -1.52804792267e-23)
(-0.130610144604 -0.0467115722494 -1.81587813672e-23)
(-0.137363275491 -0.0567568313822 -3.13418538975e-23)
(-0.132478279149 -0.0538967710691 -6.25135210696e-25)
(-0.139288348472 -0.0650481714521 -6.55523765678e-24)
(-0.13419288716 -0.0617362114595 -3.05638631754e-23)
(-0.140893400514 -0.0741116450173 1.03799811368e-23)
(-0.135638457873 -0.0702722539974 2.05285369875e-23)
(-0.14202917756 -0.083973753174 2.25392731587e-23)
(-0.136681847415 -0.0795246476657 -7.212400946e-24)
(-0.14251939541 -0.0946411825498 1.17115032694e-22)
(-0.137173353917 -0.089469173556 3.53585608757e-23)
(-0.136932943046 -0.100238830095 1.87136170024e-22)
(-0.115852194147 -0.00400151007133 -2.3185121541e-23)
(-0.117469531508 -0.00816522767271 -2.28941661694e-25)
(-0.118289939604 -0.0124605410475 -2.18721841819e-22)
(-0.119234740719 -0.0169395020367 -1.25005175319e-22)
(-0.120391598697 -0.021662389047 -3.5331507024e-23)
(-0.121739970669 -0.0266900344316 -3.21265647841e-23)
(-0.123239029509 -0.0320826162604 -1.11440743929e-23)
(-0.124837018433 -0.0378988338018 -1.43699473816e-23)
(-0.126471084793 -0.0441948211364 -3.33166607333e-23)
(-0.128066261805 -0.0510226827022 -3.5034373512e-24)
(-0.129534498825 -0.0584285455591 1.52855511445e-25)
(-0.130773797613 -0.0664500599426 -3.48008853104e-24)
(-0.131667348363 -0.0751132622429 2.93615490477e-24)
(-0.132083478257 -0.0844284251779 5.606886771e-24)
(-0.13186846402 -0.0943864170305 1.05379698205e-22)
)
;

boundaryField
{
    back
    {
        type            calculated;
        value           uniform (0 0 0);
    }
    sides
    {
        type            calculated;
        value           nonuniform List<vector> 0();
    }
    bottom
    {
        type            calculated;
        value           uniform (0 0 0);
    }
    front
    {
        type            calculated;
        value           uniform (0 0 0);
    }
    atmosphere
    {
        type            calculated;
        value           nonuniform List<vector> 0();
    }
    floatingObject
    {
        type            calculated;
        value           nonuniform List<vector> 0();
    }
    procBoundary7to6
    {
        type            processor;
        value           nonuniform List<vector> 
11
(
(-0.227061521661 -0.0463217512109 -4.81236681467e-22)
(-0.213895981459 -0.0571379039493 3.21224507665e-22)
(-0.200799059776 -0.0656714452321 -2.57874661576e-22)
(-0.187993189572 -0.0722228525172 2.3610913694e-22)
(-0.175632064885 -0.0770770580317 -3.1492190401e-23)
(-0.163817077128 -0.0804979065823 1.64710391494e-24)
(-0.159239585415 -0.0875635007119 2.17748002098e-23)
(-0.160782179519 -0.100064421728 5.36210840474e-23)
(-0.15447445709 -0.106520427575 6.38818560724e-22)
(-0.14214724306 -0.106094311764 6.87763110482e-22)
(-0.130836200937 -0.104953277487 2.16822165794e-22)
)
;
    }
    procBoundary7to8
    {
        type            processor;
        value           nonuniform List<vector> 
17
(
(-0.123330554732 0.00239054443168 9.48436265439e-24)
(-0.127238535919 0.0064275122306 -4.64164416242e-23)
(-0.1298899414 0.0107115699672 -3.57119405121e-23)
(-0.133556199933 0.01493189149 3.27144350727e-23)
(-0.138522074724 0.0189189321355 -9.96184563639e-24)
(-0.144893898287 0.0226075139741 -1.2384967889e-23)
(-0.152765358922 0.0258740783844 -3.86501322459e-24)
(-0.16222855933 0.0285477829267 -5.77378130726e-23)
(-0.168894550027 0.0237854356707 -5.13296484107e-23)
(-0.173846643366 0.0189223769032 -8.05720826612e-23)
(-0.18557027065 0.0181111750046 -6.4648765437e-23)
(-0.198839635485 0.0159688170804 -1.71844081818e-23)
(-0.204409018651 0.00666301455736 -5.65552967684e-23)
(-0.208195791616 -0.00241219182297 -2.21131508204e-22)
(-0.222498306985 -0.00952352046864 1.53777452687e-22)
(-0.225430824801 -0.0217146340841 -1.80867856188e-22)
(-0.226764059364 -0.0335177966184 -4.22074246249e-22)
)
;
    }
    procBoundary7to9
    {
        type            processor;
        value           nonuniform List<vector> 
16
(
(-0.11229024026 -0.00261109080023 -3.19015545888e-22)
(-0.114780507331 -0.00606376791761 1.16730708633e-22)
(-0.115534105783 -0.0105563062608 -1.62621207731e-22)
(-0.116286459622 -0.0151175426874 -1.57688245763e-22)
(-0.117225633477 -0.0198149355299 -2.51971138683e-23)
(-0.118345901137 -0.0247730325295 -1.40880548867e-23)
(-0.119612482409 -0.0300485102549 -1.72857982287e-23)
(-0.120979737844 -0.0356949627478 4.6187743528e-24)
(-0.122391908061 -0.0417649633325 -2.60003625035e-23)
(-0.123782302678 -0.048307489029 -1.49353825408e-23)
(-0.125072440307 -0.055366045553 1.93017694081e-23)
(-0.126171396404 -0.0629768031283 -1.05335032089e-23)
(-0.126975272881 -0.0711672522929 1.64676892103e-23)
(-0.127366688719 -0.0799444337888 -5.43487504812e-24)
(-0.127215354438 -0.0892738443293 1.38479077135e-23)
(-0.126366065285 -0.0992459366263 1.95529776531e-22)
)
;
    }
}


// ************************************************************************* //
