/*--------------------------------*- C++ -*----------------------------------*\
| =========                 |                                                 |
| \\      /  F ield         | OpenFOAM: The Open Source CFD Toolbox           |
|  \\    /   O peration     | Version:  v2012                                 |
|   \\  /    A nd           | Website:  www.openfoam.com                      |
|    \\/     M anipulation  |                                                 |
\*---------------------------------------------------------------------------*/
FoamFile
{
    version     2.0;
    format      ascii;
    class       volScalarField;
    location    "4.3";
    object      ddt0(epsilon);
}
// * * * * * * * * * * * * * * * * * * * * * * * * * * * * * * * * * * * * * //

dimensions      [0 2 -4 0 0 0 0];


internalField   nonuniform List<scalar> 
166
(
-0.000601217263066
-0.000601816179054
-0.000602870860743
-0.000605736884936
-0.000613859127072
-0.000635626793454
-0.000691973934005
-0.000856235693461
-0.00144852778354
-0.00365400329438
-0.0102259859253
-0.0270320759829
-0.137931269161
-0.000602099154562
-0.000602628659806
-0.000603038526465
-0.000603518262453
-0.000604435325284
-0.000606916707088
-0.000614122861989
-0.000633725960311
-0.000684796630149
-0.000831129442508
-0.00134387401783
-0.00320090661639
-0.00832702987556
-0.0255568680518
-0.193440804148
-0.00050221755328
-0.000532890190764
-0.000602603530466
-0.000604073318232
-0.00060464808853
-0.00060506775857
-0.000605542994014
-0.00060638082668
-0.000608572319985
-0.000614899450492
-0.000632166085183
-0.000676807961708
-0.000800929817301
-0.00122792922383
-0.00278168608871
-0.00683880146941
-0.0169570808422
0.0505660632081
-0.000503805077307
-0.0005331733017
-0.000582742340573
-0.000599370894508
-0.000604565045952
-0.000606179559549
-0.000606850286407
-0.000607321894349
-0.000607822334117
-0.000608621405108
-0.000610556362121
-0.000616012240716
-0.000630726323933
-0.000667981182526
-0.000766757232632
-0.00110307978662
-0.00239678587926
-0.00518530468429
0.0251490179175
0.817322632063
-0.000505591726718
-0.000533586799774
-0.000583888151268
-0.000601104567073
-0.000606646783184
-0.000608462449303
-0.000609244282714
-0.0006097886224
-0.000610338903809
-0.000611134135635
-0.000612862902271
-0.000617490929066
-0.000629624708612
-0.000658053406287
-0.000716151128167
-0.000890849348934
-0.0016134458115
-1.02849786439e-05
0.078458528199
0.615628910146
-0.000507475863805
-0.000534173978399
-0.000585178313284
-0.000602971028166
-0.00060887605
-0.000610899292402
-0.000611801160571
-0.000612423508573
-0.000613026081082
-0.000613781826564
-0.00061514705631
-0.000618304886449
-0.0006253515093
-0.000636285054313
-0.000635661970335
-0.000601741949154
-0.000558948382859
0.00593544869685
0.0887123095999
0.193268526599
-0.000508655591704
-0.000535068167536
-0.000586789285278
-0.000605109123218
-0.000611298151583
-0.00061347069933
-0.000614475721063
-0.000615196158126
-0.000615877538817
-0.000616628570546
-0.00061768748155
-0.000619611777325
-0.000622373129045
-0.000618755796261
-0.000567131639796
-0.000370560916287
0.0003590157905
0.0113305837452
0.1099182346
0.147685699694
-0.00050904766182
-0.000536399354869
-0.000588759896083
-0.000607453243209
-0.000613847568384
-0.000616148816647
-0.000617263330571
-0.000618093389011
-0.000618885480046
-0.000619693314454
-0.000620584980296
-0.000621484889521
-0.000620678576792
-0.000604658405109
-0.000508761232617
-0.000155865067772
0.00127751733598
0.0165745541679
0.122878796448
0.121153971575
-0.000509528959321
-0.000537787178371
-0.000590766907038
-0.000609840604732
-0.000616439859227
-0.000618875944612
-0.000620107301446
-0.000621070305053
-0.000622000209707
-0.000622922356251
-0.000623750638232
-0.000623919335877
-0.000620187941052
-0.00059378558178
-0.00045827045247
6.93985044942e-05
0.00241806506839
0.0222820189298
0.136810905222
0.135000360082
)
;

boundaryField
{
    back
    {
        type            calculated;
        value           nonuniform List<scalar> 
166
(
-0.000601217263066
-0.000601816179054
-0.000602870860743
-0.000605736884936
-0.000613859127072
-0.000635626793454
-0.000691973934005
-0.000856235693461
-0.00144852778354
-0.00365400329438
-0.0102259859253
-0.0270320759829
-0.137931269161
-0.000602099154562
-0.000602628659806
-0.000603038526465
-0.000603518262453
-0.000604435325284
-0.000606916707088
-0.000614122861989
-0.000633725960311
-0.000684796630149
-0.000831129442508
-0.00134387401783
-0.00320090661639
-0.00832702987556
-0.0255568680518
-0.193440804148
-0.00050221755328
-0.000532890190764
-0.000602603530466
-0.000604073318232
-0.00060464808853
-0.00060506775857
-0.000605542994014
-0.00060638082668
-0.000608572319985
-0.000614899450492
-0.000632166085183
-0.000676807961708
-0.000800929817301
-0.00122792922383
-0.00278168608871
-0.00683880146941
-0.0169570808422
0.0505660632081
-0.000503805077307
-0.0005331733017
-0.000582742340573
-0.000599370894508
-0.000604565045952
-0.000606179559549
-0.000606850286407
-0.000607321894349
-0.000607822334117
-0.000608621405108
-0.000610556362121
-0.000616012240716
-0.000630726323933
-0.000667981182526
-0.000766757232632
-0.00110307978662
-0.00239678587926
-0.00518530468429
0.0251490179175
0.817322632063
-0.000505591726718
-0.000533586799774
-0.000583888151268
-0.000601104567073
-0.000606646783184
-0.000608462449303
-0.000609244282714
-0.0006097886224
-0.000610338903809
-0.000611134135635
-0.000612862902271
-0.000617490929066
-0.000629624708612
-0.000658053406287
-0.000716151128167
-0.000890849348934
-0.0016134458115
-1.02849786439e-05
0.078458528199
0.615628910146
-0.000507475863805
-0.000534173978399
-0.000585178313284
-0.000602971028166
-0.00060887605
-0.000610899292402
-0.000611801160571
-0.000612423508573
-0.000613026081082
-0.000613781826564
-0.00061514705631
-0.000618304886449
-0.0006253515093
-0.000636285054313
-0.000635661970335
-0.000601741949154
-0.000558948382859
0.00593544869685
0.0887123095999
0.193268526599
-0.000508655591704
-0.000535068167536
-0.000586789285278
-0.000605109123218
-0.000611298151583
-0.00061347069933
-0.000614475721063
-0.000615196158126
-0.000615877538817
-0.000616628570546
-0.00061768748155
-0.000619611777325
-0.000622373129045
-0.000618755796261
-0.000567131639796
-0.000370560916287
0.0003590157905
0.0113305837452
0.1099182346
0.147685699694
-0.00050904766182
-0.000536399354869
-0.000588759896083
-0.000607453243209
-0.000613847568384
-0.000616148816647
-0.000617263330571
-0.000618093389011
-0.000618885480046
-0.000619693314454
-0.000620584980296
-0.000621484889521
-0.000620678576792
-0.000604658405109
-0.000508761232617
-0.000155865067772
0.00127751733598
0.0165745541679
0.122878796448
0.121153971575
-0.000509528959321
-0.000537787178371
-0.000590766907038
-0.000609840604732
-0.000616439859227
-0.000618875944612
-0.000620107301446
-0.000621070305053
-0.000622000209707
-0.000622922356251
-0.000623750638232
-0.000623919335877
-0.000620187941052
-0.00059378558178
-0.00045827045247
6.93985044942e-05
0.00241806506839
0.0222820189298
0.136810905222
0.135000360082
)
;
    }
    sides
    {
        type            calculated;
        value           nonuniform List<scalar> 0();
    }
    bottom
    {
        type            calculated;
        value           nonuniform List<scalar> 7(-0.00050221755328 -0.000503805077307 -0.000505591726718 -0.000507475863805 -0.000508655591704 -0.00050904766182 -0.000509528959321);
    }
    front
    {
        type            calculated;
        value           nonuniform List<scalar> 
166
(
-0.000601217263066
-0.000601816179054
-0.000602870860743
-0.000605736884936
-0.000613859127072
-0.000635626793454
-0.000691973934005
-0.000856235693461
-0.00144852778354
-0.00365400329438
-0.0102259859253
-0.0270320759829
-0.137931269161
-0.000602099154562
-0.000602628659806
-0.000603038526465
-0.000603518262453
-0.000604435325284
-0.000606916707088
-0.000614122861989
-0.000633725960311
-0.000684796630149
-0.000831129442508
-0.00134387401783
-0.00320090661639
-0.00832702987556
-0.0255568680518
-0.193440804148
-0.00050221755328
-0.000532890190764
-0.000602603530466
-0.000604073318232
-0.00060464808853
-0.00060506775857
-0.000605542994014
-0.00060638082668
-0.000608572319985
-0.000614899450492
-0.000632166085183
-0.000676807961708
-0.000800929817301
-0.00122792922383
-0.00278168608871
-0.00683880146941
-0.0169570808422
0.0505660632081
-0.000503805077307
-0.0005331733017
-0.000582742340573
-0.000599370894508
-0.000604565045952
-0.000606179559549
-0.000606850286407
-0.000607321894349
-0.000607822334117
-0.000608621405108
-0.000610556362121
-0.000616012240716
-0.000630726323933
-0.000667981182526
-0.000766757232632
-0.00110307978662
-0.00239678587926
-0.00518530468429
0.0251490179175
0.817322632063
-0.000505591726718
-0.000533586799774
-0.000583888151268
-0.000601104567073
-0.000606646783184
-0.000608462449303
-0.000609244282714
-0.0006097886224
-0.000610338903809
-0.000611134135635
-0.000612862902271
-0.000617490929066
-0.000629624708612
-0.000658053406287
-0.000716151128167
-0.000890849348934
-0.0016134458115
-1.02849786439e-05
0.078458528199
0.615628910146
-0.000507475863805
-0.000534173978399
-0.000585178313284
-0.000602971028166
-0.00060887605
-0.000610899292402
-0.000611801160571
-0.000612423508573
-0.000613026081082
-0.000613781826564
-0.00061514705631
-0.000618304886449
-0.0006253515093
-0.000636285054313
-0.000635661970335
-0.000601741949154
-0.000558948382859
0.00593544869685
0.0887123095999
0.193268526599
-0.000508655591704
-0.000535068167536
-0.000586789285278
-0.000605109123218
-0.000611298151583
-0.00061347069933
-0.000614475721063
-0.000615196158126
-0.000615877538817
-0.000616628570546
-0.00061768748155
-0.000619611777325
-0.000622373129045
-0.000618755796261
-0.000567131639796
-0.000370560916287
0.0003590157905
0.0113305837452
0.1099182346
0.147685699694
-0.00050904766182
-0.000536399354869
-0.000588759896083
-0.000607453243209
-0.000613847568384
-0.000616148816647
-0.000617263330571
-0.000618093389011
-0.000618885480046
-0.000619693314454
-0.000620584980296
-0.000621484889521
-0.000620678576792
-0.000604658405109
-0.000508761232617
-0.000155865067772
0.00127751733598
0.0165745541679
0.122878796448
0.121153971575
-0.000509528959321
-0.000537787178371
-0.000590766907038
-0.000609840604732
-0.000616439859227
-0.000618875944612
-0.000620107301446
-0.000621070305053
-0.000622000209707
-0.000622922356251
-0.000623750638232
-0.000623919335877
-0.000620187941052
-0.00059378558178
-0.00045827045247
6.93985044942e-05
0.00241806506839
0.0222820189298
0.136810905222
0.135000360082
)
;
    }
    atmosphere
    {
        type            calculated;
        value           nonuniform List<scalar> 9(1.81537995006 1.29541418058 -0.269659436925 0.265344614527 -0.202941017972 0.0127513405251 -0.0108588137854 -0.00337887352678 -0.00380555062169);
    }
    floatingObject
    {
        type            calculated;
        value           nonuniform List<scalar> 0();
    }
    procBoundary0to1
    {
        type            processor;
        value           nonuniform List<scalar> 10(-0.000604764157664 -0.000613808520429 -0.000637933083184 -0.000700398695356 -0.00088455359405 -0.00155993512673 -0.00413141825147 -0.0128746819702 -0.0460294362379 -0.228634012437);
    }
    procBoundary0to2
    {
        type            processor;
        value           nonuniform List<scalar> 
14
(
-0.000599746196855
-0.000600304638255
-0.000601515062182
-0.000600433459587
-0.000600868068744
-0.000600868068744
-0.000500771177059
-0.000532718854254
-0.000600885620775
-0.000600885620775
-0.00058175666969
-0.00058175666969
-0.000597808019414
-0.000597808019414
)
;
    }
    procBoundary0to4
    {
        type            processor;
        value           nonuniform List<scalar> 8(-0.00051028453885 -0.000539208057514 -0.000592790978651 -0.000612232720096 -0.000619032074164 -0.000621599080425 -0.000622956333364 -0.000624055768359);
    }
    procBoundary0to5
    {
        type            processor;
        value           nonuniform List<scalar> 
12
(
-0.000625136565357
-0.000626227858089
-0.000627100458354
-0.000626834559982
-0.000620987049748
-0.00058649194774
-0.000415854012051
0.000300909653815
0.00372637418078
0.0283498504433
0.146087970339
0.156390447074
)
;
    }
}


// ************************************************************************* //
