/*--------------------------------*- C++ -*----------------------------------*\
| =========                 |                                                 |
| \\      /  F ield         | OpenFOAM: The Open Source CFD Toolbox           |
|  \\    /   O peration     | Version:  v2012                                 |
|   \\  /    A nd           | Website:  www.openfoam.com                      |
|    \\/     M anipulation  |                                                 |
\*---------------------------------------------------------------------------*/
FoamFile
{
    version     2.0;
    format      ascii;
    class       volScalarField;
    location    "4.3";
    object      epsilon;
}
// * * * * * * * * * * * * * * * * * * * * * * * * * * * * * * * * * * * * * //

dimensions      [0 2 -3 0 0 0 0];


internalField   nonuniform List<scalar> 
166
(
0.00105404998677
0.00105861581831
0.00106440822893
0.00107298183508
0.00108824897906
0.00112002880648
0.00119507593684
0.00139872708276
0.0020098727923
0.00378133220685
0.00840741281624
0.0211350169397
0.0642460486223
0.00104966675754
0.00105379936561
0.00105777207525
0.00106228716839
0.00106799576081
0.00107635895512
0.00109114661674
0.0011219761137
0.00119528591447
0.00139542166677
0.00199894495627
0.00375394410175
0.00837691129461
0.0220843467599
0.0692882685926
0.000875876538363
0.000911419354527
0.00104721109412
0.00105325167384
0.00105736986228
0.00106133667605
0.00106583484561
0.00107148160085
0.00107965083358
0.00109392557901
0.00112358528506
0.00119436913427
0.00138884794396
0.00198270444226
0.00373418121613
0.00838865758355
0.0228995062319
0.0941230576075
0.000878828832495
0.00091445548296
0.00100384144303
0.00103757402003
0.00105058665935
0.00105661810278
0.00106074157028
0.00106471817414
0.00106922046286
0.00107482495741
0.00108281363087
0.00109656613484
0.00112493639044
0.00119282613979
0.00138092798198
0.00196448778429
0.00371930255808
0.00844535772465
0.024690695446
0.114587177146
0.000881513004683
0.000917281675177
0.00100688552221
0.00104068878028
0.0010537147544
0.00105975903135
0.0010639014256
0.00106790105964
0.00107242111952
0.00107800601625
0.00108584463441
0.00109911785283
0.00112631582521
0.00119169651906
0.0013755254867
0.00195623559258
0.00373110114951
0.00874129842164
0.0289549623331
0.134248094942
0.00088388953996
0.000919867923608
0.00100967170051
0.00104353968233
0.00105658898208
0.00106265591079
0.00106682954925
0.00107086779968
0.00107542307102
0.00108101000963
0.00108874026735
0.00110162402508
0.00112791071067
0.00119164181381
0.00137358323579
0.00195805942623
0.00378151365897
0.00931810093412
0.0343760584657
0.1534381158
0.000885998151979
0.000922179301575
0.00101217522663
0.00104610952033
0.00105918899213
0.0010652882882
0.0010695048297
0.0010735947774
0.00107820220753
0.00108381416354
0.0010914724547
0.00110405727214
0.00112963206506
0.00119227342017
0.00137366953029
0.00196176560775
0.00382499354418
0.00978259090503
0.0380473898657
0.159341356883
0.000887819772453
0.000924194464713
0.00101437358157
0.00104837608765
0.00106149494283
0.00106763706851
0.00107190754199
0.00107606151267
0.00108073519153
0.00108639395012
0.00109401423204
0.00110635966709
0.00113134741121
0.00119309870741
0.00137388859145
0.0019638218143
0.00386425692287
0.0102837154856
0.0412795317392
0.162140858265
0.000889349718462
0.000925903840889
0.00101624720468
0.0010503211729
0.00106348789446
0.00106968291359
0.00107401819632
0.00107825043377
0.0010830034359
0.00108873049925
0.00109634174025
0.00110848967804
0.00113294959533
0.00119374503902
0.00137296184817
0.00196319286363
0.00392525524012
0.0109427619236
0.0439017787688
0.163137321319
)
;

boundaryField
{
    back
    {
        lowReCorrection 0;
        blending        stepwise;
        n               2;
        type            epsilonWallFunction;
        value           nonuniform List<scalar> 
166
(
0.00105404998677
0.00105861581831
0.00106440822893
0.00107298183508
0.00108824897906
0.00112002880648
0.00119507593684
0.00139872708276
0.0020098727923
0.00378133220685
0.00840741281624
0.0211350169397
0.0642460486223
0.00104966675754
0.00105379936561
0.00105777207525
0.00106228716839
0.00106799576081
0.00107635895512
0.00109114661674
0.0011219761137
0.00119528591447
0.00139542166677
0.00199894495627
0.00375394410175
0.00837691129461
0.0220843467599
0.0692882685926
0.000875876538363
0.000911419354527
0.00104721109412
0.00105325167384
0.00105736986228
0.00106133667605
0.00106583484561
0.00107148160085
0.00107965083358
0.00109392557901
0.00112358528506
0.00119436913427
0.00138884794396
0.00198270444226
0.00373418121613
0.00838865758355
0.0228995062319
0.0941230576075
0.000878828832495
0.00091445548296
0.00100384144303
0.00103757402003
0.00105058665935
0.00105661810278
0.00106074157028
0.00106471817414
0.00106922046286
0.00107482495741
0.00108281363087
0.00109656613484
0.00112493639044
0.00119282613979
0.00138092798198
0.00196448778429
0.00371930255808
0.00844535772465
0.024690695446
0.114587177146
0.000881513004683
0.000917281675177
0.00100688552221
0.00104068878028
0.0010537147544
0.00105975903135
0.0010639014256
0.00106790105964
0.00107242111952
0.00107800601625
0.00108584463441
0.00109911785283
0.00112631582521
0.00119169651906
0.0013755254867
0.00195623559258
0.00373110114951
0.00874129842164
0.0289549623331
0.134248094942
0.00088388953996
0.000919867923608
0.00100967170051
0.00104353968233
0.00105658898208
0.00106265591079
0.00106682954925
0.00107086779968
0.00107542307102
0.00108101000963
0.00108874026735
0.00110162402508
0.00112791071067
0.00119164181381
0.00137358323579
0.00195805942623
0.00378151365897
0.00931810093412
0.0343760584657
0.1534381158
0.000885998151979
0.000922179301575
0.00101217522663
0.00104610952033
0.00105918899213
0.0010652882882
0.0010695048297
0.0010735947774
0.00107820220753
0.00108381416354
0.0010914724547
0.00110405727214
0.00112963206506
0.00119227342017
0.00137366953029
0.00196176560775
0.00382499354418
0.00978259090503
0.0380473898657
0.159341356883
0.000887819772453
0.000924194464713
0.00101437358157
0.00104837608765
0.00106149494283
0.00106763706851
0.00107190754199
0.00107606151267
0.00108073519153
0.00108639395012
0.00109401423204
0.00110635966709
0.00113134741121
0.00119309870741
0.00137388859145
0.0019638218143
0.00386425692287
0.0102837154856
0.0412795317392
0.162140858265
0.000889349718462
0.000925903840889
0.00101624720468
0.0010503211729
0.00106348789446
0.00106968291359
0.00107401819632
0.00107825043377
0.0010830034359
0.00108873049925
0.00109634174025
0.00110848967804
0.00113294959533
0.00119374503902
0.00137296184817
0.00196319286363
0.00392525524012
0.0109427619236
0.0439017787688
0.163137321319
)
;
    }
    sides
    {
        lowReCorrection 0;
        blending        stepwise;
        n               2;
        type            epsilonWallFunction;
        value           nonuniform List<scalar> 0();
    }
    bottom
    {
        lowReCorrection 0;
        blending        stepwise;
        n               2;
        type            epsilonWallFunction;
        value           nonuniform List<scalar> 7(0.000875876538363 0.000878828832495 0.000881513004683 0.00088388953996 0.000885998151979 0.000887819772453 0.000889349718462);
    }
    front
    {
        lowReCorrection 0;
        blending        stepwise;
        n               2;
        type            epsilonWallFunction;
        value           nonuniform List<scalar> 
166
(
0.00105404998677
0.00105861581831
0.00106440822893
0.00107298183508
0.00108824897906
0.00112002880648
0.00119507593684
0.00139872708276
0.0020098727923
0.00378133220685
0.00840741281624
0.0211350169397
0.0642460486223
0.00104966675754
0.00105379936561
0.00105777207525
0.00106228716839
0.00106799576081
0.00107635895512
0.00109114661674
0.0011219761137
0.00119528591447
0.00139542166677
0.00199894495627
0.00375394410175
0.00837691129461
0.0220843467599
0.0692882685926
0.000875876538363
0.000911419354527
0.00104721109412
0.00105325167384
0.00105736986228
0.00106133667605
0.00106583484561
0.00107148160085
0.00107965083358
0.00109392557901
0.00112358528506
0.00119436913427
0.00138884794396
0.00198270444226
0.00373418121613
0.00838865758355
0.0228995062319
0.0941230576075
0.000878828832495
0.00091445548296
0.00100384144303
0.00103757402003
0.00105058665935
0.00105661810278
0.00106074157028
0.00106471817414
0.00106922046286
0.00107482495741
0.00108281363087
0.00109656613484
0.00112493639044
0.00119282613979
0.00138092798198
0.00196448778429
0.00371930255808
0.00844535772465
0.024690695446
0.114587177146
0.000881513004683
0.000917281675177
0.00100688552221
0.00104068878028
0.0010537147544
0.00105975903135
0.0010639014256
0.00106790105964
0.00107242111952
0.00107800601625
0.00108584463441
0.00109911785283
0.00112631582521
0.00119169651906
0.0013755254867
0.00195623559258
0.00373110114951
0.00874129842164
0.0289549623331
0.134248094942
0.00088388953996
0.000919867923608
0.00100967170051
0.00104353968233
0.00105658898208
0.00106265591079
0.00106682954925
0.00107086779968
0.00107542307102
0.00108101000963
0.00108874026735
0.00110162402508
0.00112791071067
0.00119164181381
0.00137358323579
0.00195805942623
0.00378151365897
0.00931810093412
0.0343760584657
0.1534381158
0.000885998151979
0.000922179301575
0.00101217522663
0.00104610952033
0.00105918899213
0.0010652882882
0.0010695048297
0.0010735947774
0.00107820220753
0.00108381416354
0.0010914724547
0.00110405727214
0.00112963206506
0.00119227342017
0.00137366953029
0.00196176560775
0.00382499354418
0.00978259090503
0.0380473898657
0.159341356883
0.000887819772453
0.000924194464713
0.00101437358157
0.00104837608765
0.00106149494283
0.00106763706851
0.00107190754199
0.00107606151267
0.00108073519153
0.00108639395012
0.00109401423204
0.00110635966709
0.00113134741121
0.00119309870741
0.00137388859145
0.0019638218143
0.00386425692287
0.0102837154856
0.0412795317392
0.162140858265
0.000889349718462
0.000925903840889
0.00101624720468
0.0010503211729
0.00106348789446
0.00106968291359
0.00107401819632
0.00107825043377
0.0010830034359
0.00108873049925
0.00109634174025
0.00110848967804
0.00113294959533
0.00119374503902
0.00137296184817
0.00196319286363
0.00392525524012
0.0109427619236
0.0439017787688
0.163137321319
)
;
    }
    atmosphere
    {
        type            inletOutlet;
        inletValue      uniform 0.1;
        value           uniform 0.1;
    }
    floatingObject
    {
        lowReCorrection 0;
        blending        stepwise;
        n               2;
        type            epsilonWallFunction;
        value           nonuniform List<scalar> 0();
    }
    procBoundary0to1
    {
        type            processor;
        value           nonuniform List<scalar> 10(0.00106947127874 0.00108517398456 0.00111779498833 0.00119429376365 0.00140081052658 0.00202084416815 0.00383644054195 0.00870444475116 0.0219857851015 0.0734722911881);
    }
    procBoundary0to2
    {
        type            processor;
        value           nonuniform List<scalar> 
14
(
0.00105020218518
0.00105480078413
0.00106068454285
0.00104591520121
0.00105005977496
0.00105005977496
0.000872659017072
0.000908183398387
0.00104363798458
0.00104363798458
0.00100057205288
0.00100057205288
0.00103422797744
0.00103422797744
)
;
    }
    procBoundary0to4
    {
        type            processor;
        value           nonuniform List<scalar> 8(0.000890549760952 0.000927287957199 0.00101777527193 0.00105192222487 0.00106514616147 0.0010714052698 0.00107582029256 0.00108014178761);
    }
    procBoundary0to5
    {
        type            processor;
        value           nonuniform List<scalar> 
12
(
0.00108498663732
0.00109080439481
0.00109843488157
0.00111042582276
0.00113439378288
0.00119409347331
0.0013707732943
0.00195987939717
0.00401093037023
0.0117735907806
0.0467208047678
0.16384988298
)
;
    }
}


// ************************************************************************* //
