/*--------------------------------*- C++ -*----------------------------------*\
| =========                 |                                                 |
| \\      /  F ield         | OpenFOAM: The Open Source CFD Toolbox           |
|  \\    /   O peration     | Version:  v2012                                 |
|   \\  /    A nd           | Website:  www.openfoam.com                      |
|    \\/     M anipulation  |                                                 |
\*---------------------------------------------------------------------------*/
FoamFile
{
    version     2.0;
    format      ascii;
    class       volScalarField;
    location    "4.3";
    object      p;
}
// * * * * * * * * * * * * * * * * * * * * * * * * * * * * * * * * * * * * * //

dimensions      [1 -1 -2 0 0 0 0];


internalField   nonuniform List<scalar> 
166
(
5007.79808116
4519.98740648
4032.50302823
3545.38783153
3058.69389012
2572.47992596
2086.81394608
1601.76966687
1117.47020979
634.088596367
211.435914519
9.55210087654
-9.62567666921
5983.00185098
5494.66057716
5006.58350679
4518.7987549
4031.34178186
3544.25457564
3057.58689825
2571.3922798
2085.72924688
1600.6506698
1116.24675273
632.634825116
210.995510637
9.40403202751
-9.60601030855
8426.55521732
7937.14015387
6470.07884051
5981.49014199
5493.14235804
5005.05649858
4517.25946001
4029.78398047
3542.66908346
3055.96372857
2569.71675751
2083.97648578
1598.76261174
1114.07780129
629.269981938
209.253786729
8.91914234506
-9.59695401243
8424.8606427
7935.44146938
7446.2080761
6957.17075922
6468.33962269
5979.72681366
5491.34822248
5003.22365228
4515.37750036
4027.83945813
3540.64248606
3053.84048909
2567.47782575
2081.6131552
1596.2846619
1111.85287827
626.446094678
206.557089821
7.7536408263
-9.59376403934
8422.97462467
7933.55117013
7444.29983334
6955.23832341
6466.37511831
5977.72022924
5489.28806299
5001.09664071
4513.1680788
4025.5294831
3538.18813711
3051.23653092
2564.68925734
2078.60359652
1593.02988823
1108.05702865
623.280489221
203.082113004
6.36715651875
-9.59382967801
8420.89941786
7931.4790471
7442.19815607
6953.10337602
6464.19585752
5975.48268405
5486.97580153
4998.6903236
4510.64415217
4022.85876799
3535.35892596
3048.19122927
2561.39056388
2075.00566529
1589.09666128
1103.69205641
618.871660328
199.479231095
4.9850093876
-9.59449560068
8418.66711273
7929.21294244
7439.91344625
6950.77983607
6461.81691339
5973.03128196
5484.43217786
4996.03113381
4507.84231548
4019.88234346
3532.17295727
3044.74310541
2557.62328288
2070.85486132
1584.50590783
1098.55270051
613.371865178
195.346524177
3.6132118039
-9.59810235852
8416.26873531
7926.79234217
7437.46268879
6948.28271731
6459.25550946
5970.38593795
5481.6806857
4993.14784198
4504.7967187
4016.63796847
3528.68453053
3040.95128197
2553.45734338
2066.22541174
1579.3048577
1092.61068515
606.713925534
190.467116895
2.13020706107
-9.59852237394
8413.72265988
7924.22632157
7434.8620681
6945.63028095
6456.53193739
5967.57008415
5478.74877577
4990.0725537
4501.54580388
4013.17231051
3524.95443266
3036.89341606
2548.98932694
2061.23649354
1573.64146573
1086.01867397
598.89809662
184.185203263
0.310620714462
-9.59191172626
)
;

boundaryField
{
    back
    {
        type            calculated;
        value           nonuniform List<scalar> 
166
(
5007.79808116
4519.98740648
4032.50302823
3545.38783153
3058.69389012
2572.47992596
2086.81394608
1601.76966687
1117.47020979
634.088596367
211.435914519
9.55210087654
-9.62567666921
5983.00185098
5494.66057716
5006.58350679
4518.7987549
4031.34178186
3544.25457564
3057.58689825
2571.3922798
2085.72924688
1600.6506698
1116.24675273
632.634825116
210.995510637
9.40403202751
-9.60601030855
8426.55521732
7937.14015387
6470.07884051
5981.49014199
5493.14235804
5005.05649858
4517.25946001
4029.78398047
3542.66908346
3055.96372857
2569.71675751
2083.97648578
1598.76261174
1114.07780129
629.269981938
209.253786729
8.91914234506
-9.59695401243
8424.8606427
7935.44146938
7446.2080761
6957.17075922
6468.33962269
5979.72681366
5491.34822248
5003.22365228
4515.37750036
4027.83945813
3540.64248606
3053.84048909
2567.47782575
2081.6131552
1596.2846619
1111.85287827
626.446094678
206.557089821
7.7536408263
-9.59376403934
8422.97462467
7933.55117013
7444.29983334
6955.23832341
6466.37511831
5977.72022924
5489.28806299
5001.09664071
4513.1680788
4025.5294831
3538.18813711
3051.23653092
2564.68925734
2078.60359652
1593.02988823
1108.05702865
623.280489221
203.082113004
6.36715651875
-9.59382967801
8420.89941786
7931.4790471
7442.19815607
6953.10337602
6464.19585752
5975.48268405
5486.97580153
4998.6903236
4510.64415217
4022.85876799
3535.35892596
3048.19122927
2561.39056388
2075.00566529
1589.09666128
1103.69205641
618.871660328
199.479231095
4.9850093876
-9.59449560068
8418.66711273
7929.21294244
7439.91344625
6950.77983607
6461.81691339
5973.03128196
5484.43217786
4996.03113381
4507.84231548
4019.88234346
3532.17295727
3044.74310541
2557.62328288
2070.85486132
1584.50590783
1098.55270051
613.371865178
195.346524177
3.6132118039
-9.59810235852
8416.26873531
7926.79234217
7437.46268879
6948.28271731
6459.25550946
5970.38593795
5481.6806857
4993.14784198
4504.7967187
4016.63796847
3528.68453053
3040.95128197
2553.45734338
2066.22541174
1579.3048577
1092.61068515
606.713925534
190.467116895
2.13020706107
-9.59852237394
8413.72265988
7924.22632157
7434.8620681
6945.63028095
6456.53193739
5967.57008415
5478.74877577
4990.0725537
4501.54580388
4013.17231051
3524.95443266
3036.89341606
2548.98932694
2061.23649354
1573.64146573
1086.01867397
598.89809662
184.185203263
0.310620714462
-9.59191172626
)
;
    }
    sides
    {
        type            calculated;
        value           nonuniform List<scalar> 0();
    }
    bottom
    {
        type            calculated;
        value           nonuniform List<scalar> 7(8671.36351496 8669.66908092 8667.78306262 8665.70790953 8663.47573054 8661.07752295 8658.53159188);
    }
    front
    {
        type            calculated;
        value           nonuniform List<scalar> 
166
(
5007.79808116
4519.98740648
4032.50302823
3545.38783153
3058.69389012
2572.47992596
2086.81394608
1601.76966687
1117.47020979
634.088596367
211.435914519
9.55210087654
-9.62567666921
5983.00185098
5494.66057716
5006.58350679
4518.7987549
4031.34178186
3544.25457564
3057.58689825
2571.3922798
2085.72924688
1600.6506698
1116.24675273
632.634825116
210.995510637
9.40403202751
-9.60601030855
8426.55521732
7937.14015387
6470.07884051
5981.49014199
5493.14235804
5005.05649858
4517.25946001
4029.78398047
3542.66908346
3055.96372857
2569.71675751
2083.97648578
1598.76261174
1114.07780129
629.269981938
209.253786729
8.91914234506
-9.59695401243
8424.8606427
7935.44146938
7446.2080761
6957.17075922
6468.33962269
5979.72681366
5491.34822248
5003.22365228
4515.37750036
4027.83945813
3540.64248606
3053.84048909
2567.47782575
2081.6131552
1596.2846619
1111.85287827
626.446094678
206.557089821
7.7536408263
-9.59376403934
8422.97462467
7933.55117013
7444.29983334
6955.23832341
6466.37511831
5977.72022924
5489.28806299
5001.09664071
4513.1680788
4025.5294831
3538.18813711
3051.23653092
2564.68925734
2078.60359652
1593.02988823
1108.05702865
623.280489221
203.082113004
6.36715651875
-9.59382967801
8420.89941786
7931.4790471
7442.19815607
6953.10337602
6464.19585752
5975.48268405
5486.97580153
4998.6903236
4510.64415217
4022.85876799
3535.35892596
3048.19122927
2561.39056388
2075.00566529
1589.09666128
1103.69205641
618.871660328
199.479231095
4.9850093876
-9.59449560068
8418.66711273
7929.21294244
7439.91344625
6950.77983607
6461.81691339
5973.03128196
5484.43217786
4996.03113381
4507.84231548
4019.88234346
3532.17295727
3044.74310541
2557.62328288
2070.85486132
1584.50590783
1098.55270051
613.371865178
195.346524177
3.6132118039
-9.59810235852
8416.26873531
7926.79234217
7437.46268879
6948.28271731
6459.25550946
5970.38593795
5481.6806857
4993.14784198
4504.7967187
4016.63796847
3528.68453053
3040.95128197
2553.45734338
2066.22541174
1579.3048577
1092.61068515
606.713925534
190.467116895
2.13020706107
-9.59852237394
8413.72265988
7924.22632157
7434.8620681
6945.63028095
6456.53193739
5967.57008415
5478.74877577
4990.0725537
4501.54580388
4013.17231051
3524.95443266
3036.89341606
2548.98932694
2061.23649354
1573.64146573
1086.01867397
598.89809662
184.185203263
0.310620714462
-9.59191172626
)
;
    }
    atmosphere
    {
        type            calculated;
        value           nonuniform List<scalar> 9(-9.81025161483 -9.81010122466 -9.810270976 -9.81099316313 -9.8115885995 -9.81235809968 -9.81377702112 -9.8153647852 -9.81561198956);
    }
    floatingObject
    {
        type            calculated;
        value           nonuniform List<scalar> 0();
    }
    procBoundary0to1
    {
        type            processor;
        value           nonuniform List<scalar> 10(3546.06861688 3059.28056091 2572.96301864 2087.18560547 1602.02493461 1117.59469412 633.988573185 210.789849864 9.35825153663 -9.57334003404);
    }
    procBoundary0to2
    {
        type            processor;
        value           nonuniform List<scalar> 
14
(
5008.69870507
4520.82527267
4033.26754952
5984.25639764
5495.89653901
5495.89653901
8428.05348094
7938.64005748
6471.58471788
6471.58471788
7447.91526063
7447.91526063
6958.89096432
6958.89096432
)
;
    }
    procBoundary0to4
    {
        type            processor;
        value           nonuniform List<scalar> 8(8411.04632145 7921.52991751 7432.12874529 6942.84160993 6453.6677494 5964.60844539 5475.66521987 4986.83916748);
    }
    procBoundary0to5
    {
        type            processor;
        value           nonuniform List<scalar> 
12
(
4498.13034915
4009.53624786
3521.04874746
3032.65548164
2544.33402839
2056.04754716
1567.7424785
1079.11288492
590.474014957
177.145497103
-1.48370108155
-9.58076649549
)
;
    }
}


// ************************************************************************* //
