/*--------------------------------*- C++ -*----------------------------------*\
| =========                 |                                                 |
| \\      /  F ield         | OpenFOAM: The Open Source CFD Toolbox           |
|  \\    /   O peration     | Version:  v2012                                 |
|   \\  /    A nd           | Website:  www.openfoam.com                      |
|    \\/     M anipulation  |                                                 |
\*---------------------------------------------------------------------------*/
FoamFile
{
    version     2.0;
    format      ascii;
    class       volScalarField;
    location    "3.2";
    object      epsilon_0;
}
// * * * * * * * * * * * * * * * * * * * * * * * * * * * * * * * * * * * * * //

dimensions      [0 2 -3 0 0 0 0];


internalField   nonuniform List<scalar> 
164
(
0.00222954949955
0.00223844955675
0.00224979876579
0.00226730799446
0.00230216487384
0.00238574277635
0.00260262559383
0.00318618368765
0.00493330723068
0.0116870303723
0.0435742067069
0.160745586585
0.0022332624016
0.00224233233959
0.00225372478821
0.00227089305696
0.00230458791958
0.00238594385046
0.00260004099794
0.00316970214208
0.00475431932694
0.0105128076878
0.0402034896417
0.156219399876
0.00225747518697
0.00227450956852
0.00230744677439
0.00238764245152
0.00260389621796
0.00319095546993
0.00480771623971
0.0104581104641
0.039681708521
0.153724281484
0.00226102060705
0.00227812963675
0.00231067200016
0.0023905625145
0.00261334871117
0.00324981459943
0.00510020894029
0.0116700560431
0.0430638004268
0.15675483678
0.00226433352705
0.00228175064289
0.00231441036914
0.00239521954263
0.00262745539986
0.00332415542651
0.00548331833467
0.0134912528862
0.0486424606119
0.163208776169
0.00226739099314
0.00228544199326
0.00231923564462
0.00240425982156
0.0026533331012
0.00340830585533
0.00575409878899
0.0142874378408
0.0489826601218
0.162977738336
0.00227017455226
0.00228934173138
0.0023261913522
0.0024225083572
0.00270679501852
0.00353045286342
0.00589604924929
0.0137955133209
0.0440593978696
0.157237028555
0.00227263532961
0.00229353573829
0.00233608657944
0.00245413485785
0.00280191138293
0.00372369041217
0.00602288582348
0.0129334167586
0.0389239802443
0.123811233348
0.00227484168053
0.00229807559371
0.00234830222967
0.0024953471829
0.00292541677181
0.00397231550285
0.00624034630754
0.0124190632291
0.0350520370711
0.097749635155
0.00227657421114
0.00230242183423
0.00236048037999
0.0025331476681
0.00303287957667
0.00420917835666
0.00658166348991
0.0125646771333
0.0336359724734
0.0864807007354
0.00227752614323
0.00230526109346
0.00236770116415
0.00255213649446
0.00308678779709
0.00436483563289
0.00692750294423
0.0132538208012
0.0392091078395
0.144323928617
0.0022775349335
0.0023059930898
0.00236829349049
0.00255120896859
0.00309013942128
0.00441661586983
0.00708993921896
0.0130834948123
0.034955441719
0.129727323683
0.00227705600954
0.00230675152543
0.00237088979442
0.00255845201011
0.00310885801131
0.00445443524659
0.00713769925602
0.0126273824543
0.0278639687634
0.0844086318947
0.00227630790757
0.00230847747536
0.00237888666756
0.0025829228577
0.00316096085045
0.004524261419
0.00725824156664
0.0129748923628
0.0279231288375
0.0949210755051
0.00227485325694
0.0023087547203
0.00238157759743
0.00258798617154
0.00316281097649
0.00452609020292
0.00740999782748
0.0139541110898
0.0322560298659
0.0792084412247
0.00227221315318
0.00230509991405
0.00236891958709
0.00254399370372
0.00305574678026
0.00439841505243
0.00749543995254
0.0147591656335
0.0353856641549
0.0842338864719
)
;

boundaryField
{
    back
    {
        lowReCorrection 0;
        blending        stepwise;
        n               2;
        type            epsilonWallFunction;
        value           nonuniform List<scalar> 
164
(
0.00222954949955
0.00223844955675
0.00224979876579
0.00226730799446
0.00230216487384
0.00238574277635
0.00260262559383
0.00318618368765
0.00493330723068
0.0116870303723
0.0435742067069
0.160745586585
0.0022332624016
0.00224233233959
0.00225372478821
0.00227089305696
0.00230458791958
0.00238594385046
0.00260004099794
0.00316970214208
0.00475431932694
0.0105128076878
0.0402034896417
0.156219399876
0.00225747518697
0.00227450956852
0.00230744677439
0.00238764245152
0.00260389621796
0.00319095546993
0.00480771623971
0.0104581104641
0.039681708521
0.153724281484
0.00226102060705
0.00227812963675
0.00231067200016
0.0023905625145
0.00261334871117
0.00324981459943
0.00510020894029
0.0116700560431
0.0430638004268
0.15675483678
0.00226433352705
0.00228175064289
0.00231441036914
0.00239521954263
0.00262745539986
0.00332415542651
0.00548331833467
0.0134912528862
0.0486424606119
0.163208776169
0.00226739099314
0.00228544199326
0.00231923564462
0.00240425982156
0.0026533331012
0.00340830585533
0.00575409878899
0.0142874378408
0.0489826601218
0.162977738336
0.00227017455226
0.00228934173138
0.0023261913522
0.0024225083572
0.00270679501852
0.00353045286342
0.00589604924929
0.0137955133209
0.0440593978696
0.157237028555
0.00227263532961
0.00229353573829
0.00233608657944
0.00245413485785
0.00280191138293
0.00372369041217
0.00602288582348
0.0129334167586
0.0389239802443
0.123811233348
0.00227484168053
0.00229807559371
0.00234830222967
0.0024953471829
0.00292541677181
0.00397231550285
0.00624034630754
0.0124190632291
0.0350520370711
0.097749635155
0.00227657421114
0.00230242183423
0.00236048037999
0.0025331476681
0.00303287957667
0.00420917835666
0.00658166348991
0.0125646771333
0.0336359724734
0.0864807007354
0.00227752614323
0.00230526109346
0.00236770116415
0.00255213649446
0.00308678779709
0.00436483563289
0.00692750294423
0.0132538208012
0.0392091078395
0.144323928617
0.0022775349335
0.0023059930898
0.00236829349049
0.00255120896859
0.00309013942128
0.00441661586983
0.00708993921896
0.0130834948123
0.034955441719
0.129727323683
0.00227705600954
0.00230675152543
0.00237088979442
0.00255845201011
0.00310885801131
0.00445443524659
0.00713769925602
0.0126273824543
0.0278639687634
0.0844086318947
0.00227630790757
0.00230847747536
0.00237888666756
0.0025829228577
0.00316096085045
0.004524261419
0.00725824156664
0.0129748923628
0.0279231288375
0.0949210755051
0.00227485325694
0.0023087547203
0.00238157759743
0.00258798617154
0.00316281097649
0.00452609020292
0.00740999782748
0.0139541110898
0.0322560298659
0.0792084412247
0.00227221315318
0.00230509991405
0.00236891958709
0.00254399370372
0.00305574678026
0.00439841505243
0.00749543995254
0.0147591656335
0.0353856641549
0.0842338864719
)
;
    }
    sides
    {
        lowReCorrection 0;
        blending        stepwise;
        n               2;
        type            epsilonWallFunction;
        value           nonuniform List<scalar> 0();
    }
    bottom
    {
        lowReCorrection 0;
        blending        stepwise;
        n               2;
        type            epsilonWallFunction;
        value           nonuniform List<scalar> 0();
    }
    front
    {
        lowReCorrection 0;
        blending        stepwise;
        n               2;
        type            epsilonWallFunction;
        value           nonuniform List<scalar> 
164
(
0.00222954949955
0.00223844955675
0.00224979876579
0.00226730799446
0.00230216487384
0.00238574277635
0.00260262559383
0.00318618368765
0.00493330723068
0.0116870303723
0.0435742067069
0.160745586585
0.0022332624016
0.00224233233959
0.00225372478821
0.00227089305696
0.00230458791958
0.00238594385046
0.00260004099794
0.00316970214208
0.00475431932694
0.0105128076878
0.0402034896417
0.156219399876
0.00225747518697
0.00227450956852
0.00230744677439
0.00238764245152
0.00260389621796
0.00319095546993
0.00480771623971
0.0104581104641
0.039681708521
0.153724281484
0.00226102060705
0.00227812963675
0.00231067200016
0.0023905625145
0.00261334871117
0.00324981459943
0.00510020894029
0.0116700560431
0.0430638004268
0.15675483678
0.00226433352705
0.00228175064289
0.00231441036914
0.00239521954263
0.00262745539986
0.00332415542651
0.00548331833467
0.0134912528862
0.0486424606119
0.163208776169
0.00226739099314
0.00228544199326
0.00231923564462
0.00240425982156
0.0026533331012
0.00340830585533
0.00575409878899
0.0142874378408
0.0489826601218
0.162977738336
0.00227017455226
0.00228934173138
0.0023261913522
0.0024225083572
0.00270679501852
0.00353045286342
0.00589604924929
0.0137955133209
0.0440593978696
0.157237028555
0.00227263532961
0.00229353573829
0.00233608657944
0.00245413485785
0.00280191138293
0.00372369041217
0.00602288582348
0.0129334167586
0.0389239802443
0.123811233348
0.00227484168053
0.00229807559371
0.00234830222967
0.0024953471829
0.00292541677181
0.00397231550285
0.00624034630754
0.0124190632291
0.0350520370711
0.097749635155
0.00227657421114
0.00230242183423
0.00236048037999
0.0025331476681
0.00303287957667
0.00420917835666
0.00658166348991
0.0125646771333
0.0336359724734
0.0864807007354
0.00227752614323
0.00230526109346
0.00236770116415
0.00255213649446
0.00308678779709
0.00436483563289
0.00692750294423
0.0132538208012
0.0392091078395
0.144323928617
0.0022775349335
0.0023059930898
0.00236829349049
0.00255120896859
0.00309013942128
0.00441661586983
0.00708993921896
0.0130834948123
0.034955441719
0.129727323683
0.00227705600954
0.00230675152543
0.00237088979442
0.00255845201011
0.00310885801131
0.00445443524659
0.00713769925602
0.0126273824543
0.0278639687634
0.0844086318947
0.00227630790757
0.00230847747536
0.00237888666756
0.0025829228577
0.00316096085045
0.004524261419
0.00725824156664
0.0129748923628
0.0279231288375
0.0949210755051
0.00227485325694
0.0023087547203
0.00238157759743
0.00258798617154
0.00316281097649
0.00452609020292
0.00740999782748
0.0139541110898
0.0322560298659
0.0792084412247
0.00227221315318
0.00230509991405
0.00236891958709
0.00254399370372
0.00305574678026
0.00439841505243
0.00749543995254
0.0147591656335
0.0353856641549
0.0842338864719
)
;
    }
    atmosphere
    {
        type            inletOutlet;
        inletValue      uniform 0.1;
        value           nonuniform List<scalar> 
16
(
0.1
0.1
0.1
0.1
0.1
0.1
0.157237028555
0.123811233348
0.097749635155
0.0864807007354
0.1
0.1
0.1
0.1
0.0792084412247
0.0842338864719
)
;
    }
    floatingObject
    {
        lowReCorrection 0;
        blending        stepwise;
        n               2;
        type            epsilonWallFunction;
        value           nonuniform List<scalar> 0();
    }
    procBoundary5to0
    {
        type            processor;
        value           nonuniform List<scalar> 
12
(
0.00222546081942
0.0022342649723
0.00224567262375
0.00226368562367
0.00230002996192
0.00238669720432
0.00260894336619
0.00321329868013
0.00512802486361
0.0128537101083
0.0463482088047
0.162844696603
)
;
    }
    procBoundary5to3
    {
        type            processor;
        value           nonuniform List<scalar> 10(0.00226941234274 0.00230150649385 0.00235648368894 0.00249982288801 0.00294577305046 0.004264674536 0.00760008500461 0.0154206469586 0.0362920812751 0.0979969986154);
    }
    procBoundary5to4
    {
        type            processor;
        value           nonuniform List<scalar> 
18
(
0.00222193191785
0.00222545068192
0.00223658388135
0.00224591355573
0.00224591355573
0.00224915803585
0.00225203955287
0.00225451841004
0.00225655483275
0.00225810059641
0.00225915105052
0.00225960154815
0.00225935481551
0.00225835855145
0.00225669317137
0.00225440897194
0.00225141864651
0.00224773452048
)
;
    }
}


// ************************************************************************* //
