/*--------------------------------*- C++ -*----------------------------------*\
| =========                 |                                                 |
| \\      /  F ield         | OpenFOAM: The Open Source CFD Toolbox           |
|  \\    /   O peration     | Version:  v2012                                 |
|   \\  /    A nd           | Website:  www.openfoam.com                      |
|    \\/     M anipulation  |                                                 |
\*---------------------------------------------------------------------------*/
FoamFile
{
    version     2.0;
    format      ascii;
    class       surfaceScalarField;
    location    "3.1";
    object      alphaPhi0.water;
}
// * * * * * * * * * * * * * * * * * * * * * * * * * * * * * * * * * * * * * //

dimensions      [0 3 -1 0 0 0 0];
oriented        oriented;


internalField   nonuniform List<scalar> 
300
(
1.02916756588e-05
-0.000237496644247
2.06782829682e-05
-0.00024847234528
3.11697215278e-05
-0.000258823819733
4.16334854248e-05
-0.000267851046051
5.19818951875e-05
-0.000277023251271
6.20647888997e-05
-0.000287714448474
7.17423105486e-05
-0.00030069386969
-0.000316328283585
8.42576213963e-06
-0.000245923464429
1.68817141904e-05
-0.000256929426298
2.53144537836e-05
-0.000267257832076
3.35897744291e-05
-0.00027612774223
4.15818135694e-05
-0.000285016598867
4.91343642435e-05
-0.000295267930819
5.60903765964e-05
-0.000307650359239
6.21697383503e-05
-0.000322407405291
6.70718326325e-05
-0.000339769271239
7.02105281918e-05
-0.000359837189449
-0.000382899419106
6.62430383958e-06
-0.000252548321603
1.31892137216e-05
-0.000263494939306
1.96209242905e-05
-0.000273690311485
2.58004078869e-05
-0.000282308176556
3.15872816203e-05
-0.00029080450393
3.68431531707e-05
-0.000300524789759
4.13257019965e-05
-0.000312133694369
4.48080212086e-05
-0.000325890140428
4.68763202291e-05
-0.000341837640134
4.71311678492e-05
-0.000360092445293
4.4959810467e-05
-0.000380729009326
3.93322613742e-05
-0.000403533387018
-0.000428844139277
4.896169391e-06
-0.00025744459739
9.65154162536e-06
-0.000268250462059
1.41865431751e-05
-0.000278225630126
1.83979850198e-05
-0.000286520136508
2.21621656821e-05
-0.00029456937869
2.53141855366e-05
-0.000303677641516
2.76148056092e-05
-0.000314435120481
2.88498435338e-05
-0.000327125854071
2.86904536653e-05
-0.000341678775679
2.67867649469e-05
-0.000358189174018
2.2546695556e-05
-0.000376489774364
1.53529834865e-05
-0.000396341966121
4.26362038425e-06
-0.0004177557963
-0.000441890138026
3.23052832743e-06
-0.000260674823337
6.26877011203e-06
-0.00027128842563
9.06727888169e-06
-0.00028102402674
1.14843169559e-05
-0.000288937289202
1.33644361755e-05
-0.000296449844589
1.45971611667e-05
-0.000304910892672
1.50108875992e-05
-0.000314849475061
1.4320627431e-05
-0.000326436263777
1.23272101187e-05
-0.000339686047321
8.577621709e-06
-0.000354440322629
2.78503675449e-06
-0.000370698105131
-5.25443336153e-06
-0.000388304047779
-1.59296038679e-05
-0.000407083211516
-0.000427475108862
1.66700682248e-06
-0.000262341188438
3.09393259136e-06
-0.0002727147304
4.25007849675e-06
-0.000282179704445
4.97923098355e-06
-0.000289666183173
5.18454197344e-06
-0.000296655118474
4.72082120121e-06
-0.000304447315547
3.43249074356e-06
-0.000313561491295
1.02977009968e-06
-0.000324034062251
-2.59112237635e-06
-0.00033606583413
-7.70007467119e-06
-0.000349332178279
-1.4363662234e-05
-0.000364035453713
-2.29086224206e-05
-0.000379760384402
-3.36043234004e-05
-0.000396389238087
-0.000414818942878
2.13284319214e-07
-0.000262553633698
1.65707807004e-07
-0.00027266629852
-2.71975274746e-07
-0.000281741270687
-1.08896794106e-06
-0.000288848608732
-2.38046629622e-06
-0.000295363235239
-4.34701682737e-06
-0.000302480581471
-7.17778948163e-06
-0.000310730780287
-1.08731734318e-05
-0.000320339019103
-1.58532146723e-05
-0.000331086429138
-2.20259120606e-05
-0.000343160426105
-2.97805619417e-05
-0.000356281926729
-3.9180445492e-05
-0.000370361776694
-5.02529426144e-05
-0.000385318671701
-0.000401643891019
-1.1049741611e-06
-0.000261447655487
-2.5458784502e-06
-0.000271224407405
-4.32741613494e-06
-0.000279958830586
-6.47774581407e-06
-0.000286697511971
-9.16970852856e-06
-0.00029267067079
-1.24961613429e-05
-0.000299153734282
-1.6581305979e-05
-0.000306645502592
-2.16327084002e-05
-0.000315287810211
-2.77053027547e-05
-0.000325014397881
-3.50794127995e-05
-0.000335787347689
-4.38837628496e-05
-0.000347479124046
-5.42471220581e-05
-0.000360000816044
-6.63504056155e-05
-0.000373219170483
-0.0003872485737
-2.36624483723e-06
-0.000259080426066
-5.01118191948e-06
-0.000268578505843
-8.0122658377e-06
-0.000276956838113
-1.14522541625e-05
-0.000283256707338
-1.53848209731e-05
-0.000288737421186
-1.99208983754e-05
-0.000294617175525
-2.51852014951e-05
-0.000301380978218
-3.13371426709e-05
-0.000309135987613
-3.8509882278e-05
-0.000317842189473
-4.68753969898e-05
-0.000327422814426
-5.65815995759e-05
-0.00033777431516
-6.78282554202e-05
-0.000348756259549
-8.08797250178e-05
-0.000360169955721
-0.000371697705793
-3.44998638755e-06
-0.000255629727286
-7.24707667709e-06
-0.000264780721617
-1.14169670613e-05
-0.000272786246555
-1.59915131682e-05
-0.000278681414508
-2.10395289264e-05
-0.000283688745576
-2.66590320213e-05
-0.000288997172909
-3.29652328903e-05
-0.000295074514928
-4.00843332533e-05
-0.000302016963503
-4.81620776676e-05
-0.000309764959519
-5.73423559246e-05
-0.000318243552205
-6.77777900609e-05
-0.000327340382735
-7.96975073925e-05
-0.000336838520613
-9.33130134295e-05
-0.000346556699411
-0.00010912326481
-0.000355889655668
-0.000128136823981
-0.000364926814387
-0.000375845118229
-4.48476168302e-06
-0.000251144362896
-9.30032834043e-06
-0.000259964534779
-1.45066200235e-05
-0.000267579350423
-2.01081930867e-05
-0.000273079270681
-2.6154271383e-05
-0.000277642065713
-3.27270136049e-05
-0.000282423913743
-3.99321513645e-05
-0.000287869076964
-4.79095741622e-05
-0.000294039576084
-5.67317184805e-05
-0.000300943316939
-6.65424267413e-05
-0.000308433864474
-7.74616124526e-05
-0.000316422704706
-8.96003351764e-05
-0.000324701594197
-0.000103328011856
-0.000332830915653
-0.000118729079207
-0.000340489982135
-0.000136463257915
-0.000347183892696
-0.000355871651084
-5.43393991816e-06
-1.11960793007e-05
-1.73296722957e-05
-2.38442071851e-05
-3.07735592916e-05
-3.81926126633e-05
-4.61918201389e-05
-5.48462066706e-05
-6.42986261956e-05
-7.45935276112e-05
-8.58726142331e-05
-9.81537285574e-05
-0.000111573956241
-0.000126067380472
-0.000142028247538
)
;

boundaryField
{
    back
    {
        type            calculated;
        value           uniform 0;
    }
    sides
    {
        type            calculated;
        value           nonuniform List<scalar> 0();
    }
    bottom
    {
        type            calculated;
        value           uniform 0;
    }
    front
    {
        type            calculated;
        value           uniform 0;
    }
    atmosphere
    {
        type            calculated;
        value           nonuniform List<scalar> 0();
    }
    floatingObject
    {
        type            calculated;
        value           nonuniform List<scalar> 0();
    }
    procBoundary7to6
    {
        type            processor;
        value           nonuniform List<scalar> 
11
(
-1.22575803166e-05
-3.03483653666e-05
-4.62633201272e-05
-6.34304258872e-05
-8.07503342156e-05
-9.6432591733e-05
0.000383940182904
0.000399707524061
-0.000151998870438
-0.000156437301539
-0.000159652403266
)
;
    }
    procBoundary7to8
    {
        type            processor;
        value           nonuniform List<scalar> 
17
(
0.000227202469127
0.000238083072431
0.000248329587732
0.000257384563639
0.000266672666014
0.000277630742078
0.000291017320245
0.000307267876974
8.08057095376e-05
0.000334869945997
0.000356702757819
0.000382070363816
7.10457500902e-05
0.000409163271684
0.000438958099548
2.92199243832e-05
0.000458412955684
)
;
    }
    procBoundary7to9
    {
        type            processor;
        value           nonuniform List<scalar> 
16
(
-0.000245709806907
-0.000254201733923
-0.000261444991299
-0.000266564068346
-0.000270712146685
-0.000275004408652
-0.000279869600881
-0.000285385246401
-0.000291491417059
-0.000298140004343
-0.000305145129725
-0.000312422208892
-0.000319412291886
-0.000325997778985
-0.000331213183262
-0.000338221496269
)
;
    }
}


// ************************************************************************* //
