/*--------------------------------*- C++ -*----------------------------------*\
| =========                 |                                                 |
| \\      /  F ield         | OpenFOAM: The Open Source CFD Toolbox           |
|  \\    /   O peration     | Version:  v2012                                 |
|   \\  /    A nd           | Website:  www.openfoam.com                      |
|    \\/     M anipulation  |                                                 |
\*---------------------------------------------------------------------------*/
FoamFile
{
    version     2.0;
    format      ascii;
    class       volScalarField;
    location    "3.1";
    object      k;
}
// * * * * * * * * * * * * * * * * * * * * * * * * * * * * * * * * * * * * * //

dimensions      [0 2 -2 0 0 0 0];


internalField   nonuniform List<scalar> 
164
(
0.00319025176033
0.00397134566186
0.00421938480851
0.00431124790018
0.00434875398232
0.00436893494225
0.0043849258534
0.00440116790922
0.00319791636807
0.00398161065176
0.00422937446452
0.00432005979791
0.00435623002801
0.00437516747256
0.00438998548532
0.00440503646852
0.00442174608041
0.00444085815942
0.00446423179204
0.00320420144914
0.00399011512612
0.00423763378112
0.00432725440625
0.00436222725617
0.00438006085069
0.00439383369232
0.00440781461623
0.00442336634469
0.00444120973191
0.00446307060323
0.00449637869549
0.00457162121359
0.00320923493512
0.00399695851534
0.00424422933961
0.00433289784769
0.00436681148969
0.00438367763991
0.00439652684777
0.00440954881237
0.00442404735686
0.00444067419749
0.00446088512999
0.0044907930425
0.00455575584999
0.0047462247411
0.00321309237051
0.0040022695909
0.00424927310251
0.00433708455576
0.00437006814865
0.00438609234139
0.00439813433953
0.00441030548516
0.00442385700334
0.00443937463669
0.00445807832954
0.00448490814307
0.00453941099997
0.00468998551301
0.00321583085816
0.00400612591047
0.00425285638531
0.00433991887657
0.00437209344128
0.00438738410564
0.00439872406906
0.00441014974397
0.00442287563966
0.00443744069987
0.00445492818665
0.00447937297614
0.00452596676833
0.00464661605926
0.00321756116887
0.00400866932203
0.004255063062
0.0043414794612
0.00437296627126
0.00438763439457
0.0043983746107
0.0044091628824
0.00442116240035
0.00443489626745
0.00445139169358
0.00447429773961
0.00451655990726
0.00462112585515
0.00321862938301
0.00400986007599
0.00425593740469
0.00434181030515
0.00437274836676
0.00438690912885
0.0043971425614
0.00440738353927
0.00441876289957
0.00443180320329
0.0044475306624
0.00446953759275
0.00451003551219
0.00460817982273
0.00321901030759
0.00400985207649
0.004255577313
0.00434102738197
0.00437153251263
0.00438528171571
0.00439509618325
0.0044048758358
0.00441574072807
0.00442821333307
0.00444337386922
0.00446491958647
0.00450504811033
0.00460145664454
0.00321854207691
0.00400871258066
0.00425411319648
0.00433922645057
0.00436939421121
0.00438281666498
0.00439229118209
0.00440169475339
0.00441214239804
0.00442417438187
0.00443894737743
0.00446034820202
0.00450083815579
0.00459742472005
0.00485161334547
0.00550478319233
0.00321738489103
0.00400661008963
0.00425165365953
0.00433648683243
0.00436639714741
0.00437956852297
0.00438877611849
0.00439788350079
0.00440800881239
0.00441971998875
0.0044342753011
0.00445580893242
0.00449717658885
0.00459515639098
0.00484686007141
0.00547877818303
0.00321555490899
0.0040037119844
0.00424831197082
0.00433288788147
0.00436260281135
0.00437558752991
0.00438459352831
0.00439347573107
0.00440336313018
0.00441486464929
0.00442936507819
0.00445131219079
0.00449408829481
0.00459477291055
0.00484912360185
0.00548791319544
)
;

boundaryField
{
    back
    {
        type            kqRWallFunction;
        value           nonuniform List<scalar> 
164
(
0.00319025176033
0.00397134566186
0.00421938480851
0.00431124790018
0.00434875398232
0.00436893494225
0.0043849258534
0.00440116790922
0.00319791636807
0.00398161065176
0.00422937446452
0.00432005979791
0.00435623002801
0.00437516747256
0.00438998548532
0.00440503646852
0.00442174608041
0.00444085815942
0.00446423179204
0.00320420144914
0.00399011512612
0.00423763378112
0.00432725440625
0.00436222725617
0.00438006085069
0.00439383369232
0.00440781461623
0.00442336634469
0.00444120973191
0.00446307060323
0.00449637869549
0.00457162121359
0.00320923493512
0.00399695851534
0.00424422933961
0.00433289784769
0.00436681148969
0.00438367763991
0.00439652684777
0.00440954881237
0.00442404735686
0.00444067419749
0.00446088512999
0.0044907930425
0.00455575584999
0.0047462247411
0.00321309237051
0.0040022695909
0.00424927310251
0.00433708455576
0.00437006814865
0.00438609234139
0.00439813433953
0.00441030548516
0.00442385700334
0.00443937463669
0.00445807832954
0.00448490814307
0.00453941099997
0.00468998551301
0.00321583085816
0.00400612591047
0.00425285638531
0.00433991887657
0.00437209344128
0.00438738410564
0.00439872406906
0.00441014974397
0.00442287563966
0.00443744069987
0.00445492818665
0.00447937297614
0.00452596676833
0.00464661605926
0.00321756116887
0.00400866932203
0.004255063062
0.0043414794612
0.00437296627126
0.00438763439457
0.0043983746107
0.0044091628824
0.00442116240035
0.00443489626745
0.00445139169358
0.00447429773961
0.00451655990726
0.00462112585515
0.00321862938301
0.00400986007599
0.00425593740469
0.00434181030515
0.00437274836676
0.00438690912885
0.0043971425614
0.00440738353927
0.00441876289957
0.00443180320329
0.0044475306624
0.00446953759275
0.00451003551219
0.00460817982273
0.00321901030759
0.00400985207649
0.004255577313
0.00434102738197
0.00437153251263
0.00438528171571
0.00439509618325
0.0044048758358
0.00441574072807
0.00442821333307
0.00444337386922
0.00446491958647
0.00450504811033
0.00460145664454
0.00321854207691
0.00400871258066
0.00425411319648
0.00433922645057
0.00436939421121
0.00438281666498
0.00439229118209
0.00440169475339
0.00441214239804
0.00442417438187
0.00443894737743
0.00446034820202
0.00450083815579
0.00459742472005
0.00485161334547
0.00550478319233
0.00321738489103
0.00400661008963
0.00425165365953
0.00433648683243
0.00436639714741
0.00437956852297
0.00438877611849
0.00439788350079
0.00440800881239
0.00441971998875
0.0044342753011
0.00445580893242
0.00449717658885
0.00459515639098
0.00484686007141
0.00547877818303
0.00321555490899
0.0040037119844
0.00424831197082
0.00433288788147
0.00436260281135
0.00437558752991
0.00438459352831
0.00439347573107
0.00440336313018
0.00441486464929
0.00442936507819
0.00445131219079
0.00449408829481
0.00459477291055
0.00484912360185
0.00548791319544
)
;
    }
    sides
    {
        type            kqRWallFunction;
        value           nonuniform List<scalar> 0();
    }
    bottom
    {
        type            kqRWallFunction;
        value           nonuniform List<scalar> 
12
(
0.00319025176033
0.00319791636807
0.00320420144914
0.00320923493512
0.00321309237051
0.00321583085816
0.00321756116887
0.00321862938301
0.00321901030759
0.00321854207691
0.00321738489103
0.00321555490899
)
;
    }
    front
    {
        type            kqRWallFunction;
        value           nonuniform List<scalar> 
164
(
0.00319025176033
0.00397134566186
0.00421938480851
0.00431124790018
0.00434875398232
0.00436893494225
0.0043849258534
0.00440116790922
0.00319791636807
0.00398161065176
0.00422937446452
0.00432005979791
0.00435623002801
0.00437516747256
0.00438998548532
0.00440503646852
0.00442174608041
0.00444085815942
0.00446423179204
0.00320420144914
0.00399011512612
0.00423763378112
0.00432725440625
0.00436222725617
0.00438006085069
0.00439383369232
0.00440781461623
0.00442336634469
0.00444120973191
0.00446307060323
0.00449637869549
0.00457162121359
0.00320923493512
0.00399695851534
0.00424422933961
0.00433289784769
0.00436681148969
0.00438367763991
0.00439652684777
0.00440954881237
0.00442404735686
0.00444067419749
0.00446088512999
0.0044907930425
0.00455575584999
0.0047462247411
0.00321309237051
0.0040022695909
0.00424927310251
0.00433708455576
0.00437006814865
0.00438609234139
0.00439813433953
0.00441030548516
0.00442385700334
0.00443937463669
0.00445807832954
0.00448490814307
0.00453941099997
0.00468998551301
0.00321583085816
0.00400612591047
0.00425285638531
0.00433991887657
0.00437209344128
0.00438738410564
0.00439872406906
0.00441014974397
0.00442287563966
0.00443744069987
0.00445492818665
0.00447937297614
0.00452596676833
0.00464661605926
0.00321756116887
0.00400866932203
0.004255063062
0.0043414794612
0.00437296627126
0.00438763439457
0.0043983746107
0.0044091628824
0.00442116240035
0.00443489626745
0.00445139169358
0.00447429773961
0.00451655990726
0.00462112585515
0.00321862938301
0.00400986007599
0.00425593740469
0.00434181030515
0.00437274836676
0.00438690912885
0.0043971425614
0.00440738353927
0.00441876289957
0.00443180320329
0.0044475306624
0.00446953759275
0.00451003551219
0.00460817982273
0.00321901030759
0.00400985207649
0.004255577313
0.00434102738197
0.00437153251263
0.00438528171571
0.00439509618325
0.0044048758358
0.00441574072807
0.00442821333307
0.00444337386922
0.00446491958647
0.00450504811033
0.00460145664454
0.00321854207691
0.00400871258066
0.00425411319648
0.00433922645057
0.00436939421121
0.00438281666498
0.00439229118209
0.00440169475339
0.00441214239804
0.00442417438187
0.00443894737743
0.00446034820202
0.00450083815579
0.00459742472005
0.00485161334547
0.00550478319233
0.00321738489103
0.00400661008963
0.00425165365953
0.00433648683243
0.00436639714741
0.00437956852297
0.00438877611849
0.00439788350079
0.00440800881239
0.00441971998875
0.0044342753011
0.00445580893242
0.00449717658885
0.00459515639098
0.00484686007141
0.00547877818303
0.00321555490899
0.0040037119844
0.00424831197082
0.00433288788147
0.00436260281135
0.00437558752991
0.00438459352831
0.00439347573107
0.00440336313018
0.00441486464929
0.00442936507819
0.00445131219079
0.00449408829481
0.00459477291055
0.00484912360185
0.00548791319544
)
;
    }
    atmosphere
    {
        type            inletOutlet;
        inletValue      nonuniform List<scalar> 0();
        value           nonuniform List<scalar> 0();
    }
    floatingObject
    {
        type            kqRWallFunction;
        value           nonuniform List<scalar> 0();
    }
    procBoundary7to6
    {
        type            processor;
        value           nonuniform List<scalar> 
11
(
0.0052859901498
0.00512332286336
0.00499418851806
0.00491911940731
0.00488225893939
0.00486328259136
0.00486328259136
0.00556863508066
0.00703647066781
0.00697204103378
0.00709031010416
)
;
    }
    procBoundary7to8
    {
        type            processor;
        value           nonuniform List<scalar> 
17
(
0.00318115603444
0.0039593187453
0.00420758270206
0.00430070145985
0.0043396706957
0.00436123657261
0.00437855593483
0.00439615406477
0.00441914914924
0.00441914914924
0.00443958752434
0.00446421842947
0.00449989434159
0.00449989434159
0.00458051044401
0.00479519466182
0.00479519466182
)
;
    }
    procBoundary7to9
    {
        type            processor;
        value           nonuniform List<scalar> 
16
(
0.00321303079445
0.00400001271253
0.0042441263744
0.00432848483838
0.00435806308991
0.00437091875327
0.00437978157005
0.00438850343808
0.00439822668095
0.00440961238438
0.00442418886124
0.00444676492198
0.00449141657267
0.00459593676521
0.00485558336464
0.00550477476101
)
;
    }
}


// ************************************************************************* //
