/*--------------------------------*- C++ -*----------------------------------*\
| =========                 |                                                 |
| \\      /  F ield         | OpenFOAM: The Open Source CFD Toolbox           |
|  \\    /   O peration     | Version:  v2012                                 |
|   \\  /    A nd           | Website:  www.openfoam.com                      |
|    \\/     M anipulation  |                                                 |
\*---------------------------------------------------------------------------*/
FoamFile
{
    version     2.0;
    format      ascii;
    class       volScalarField;
    location    "3.6";
    object      p_rgh;
}
// * * * * * * * * * * * * * * * * * * * * * * * * * * * * * * * * * * * * * //

dimensions      [1 -1 -2 0 0 0 0];


internalField   nonuniform List<scalar> 
164
(
8614.65463149
8611.02861257
8606.63100486
8601.30292958
8594.84672078
8587.00961534
8577.47084408
8566.00284669
8534.98786398
4013.38624513
0.674579899772
0.00419330641842
8624.00194986
8620.74611035
8616.77992292
8611.95171353
8606.08115334
8598.93745779
8590.24388422
8579.77705854
8566.56742772
4266.04995759
6.56164855322
0.0290161266824
8627.74349832
8623.59696826
8618.53453708
8612.36142721
8604.8461131
8595.79883013
8584.44999532
4590.56545849
23.2941864382
-0.0252788054359
8639.43121081
8636.11903636
8632.05525189
8627.08736733
8621.02780725
8613.73154777
8604.61629565
4951.24665573
55.8995967404
-0.0383778440644
8651.70828755
8649.3584139
8646.44989554
8642.87127632
8638.49200251
8633.18670938
8626.57221243
5334.24733394
110.016370712
-0.0879936390182
8664.42040692
8663.12624856
8661.48373202
8659.42269954
8656.87065005
8653.77003341
8649.93530381
5724.44679681
196.2591966
-0.169829977053
8677.40141439
8677.21852831
8676.90873188
8676.44029339
8675.78749871
8674.97370541
8673.97727048
6099.61800326
340.663526329
-0.115370885298
8690.47210227
8691.43024814
8692.47259121
8693.6092848
8694.86813751
8696.27736592
8697.7207214
6425.77277087
503.069652232
-0.105729703481
8703.45599849
8705.54036481
8707.91732558
8710.65959003
8713.84304392
8717.49121813
8721.459466
6768.81707808
694.90303661
3.0589957629
8716.17884332
8719.33729731
8723.00673482
8727.2938841
8732.40561736
8738.47207706
8745.77345704
7091.85247374
939.448874349
0.21344545879
8728.48252144
8732.64778294
8737.50253289
8743.18392981
8750.22026621
8758.76936452
8769.4572719
7378.57126161
1197.95204429
-0.075360011322
8740.22950382
8745.29974853
8751.22321689
8758.26689972
8766.54430629
8776.67621091
8789.65999773
7619.57233935
1494.46702266
-0.208214854469
8751.29153927
8757.1267384
8763.87535649
8771.80178267
8780.89670214
8791.7221695
8804.96585481
7809.2516087
1712.67190861
-0.200930015624
8761.57429213
8768.05269212
8775.44618679
8783.9032318
8793.45549453
8804.34474884
8816.61158509
7942.10794655
1830.76271653
-0.1206446505
8771.04995421
8778.08022491
8786.05178299
8794.84411809
8804.66270788
8815.51015563
8826.91616968
8022.06041334
1897.75793028
-0.0864539826458
8779.70092276
8787.17144023
8795.60440918
8804.79648056
8814.84037748
8825.68424898
8836.29859858
8072.18396556
1972.01397855
-0.0788835851104
)
;

boundaryField
{
    back
    {
        type            fixedFluxPressure;
        gradient        uniform 0;
        value           nonuniform List<scalar> 
164
(
8614.65463149
8611.02861257
8606.63100486
8601.30292958
8594.84672078
8587.00961534
8577.47084408
8566.00284669
8534.98786398
4013.38624513
0.674579899772
0.00419330641842
8624.00194986
8620.74611035
8616.77992292
8611.95171353
8606.08115334
8598.93745779
8590.24388422
8579.77705854
8566.56742772
4266.04995759
6.56164855322
0.0290161266824
8627.74349832
8623.59696826
8618.53453708
8612.36142721
8604.8461131
8595.79883013
8584.44999532
4590.56545849
23.2941864382
-0.0252788054359
8639.43121081
8636.11903636
8632.05525189
8627.08736733
8621.02780725
8613.73154777
8604.61629565
4951.24665573
55.8995967404
-0.0383778440644
8651.70828755
8649.3584139
8646.44989554
8642.87127632
8638.49200251
8633.18670938
8626.57221243
5334.24733394
110.016370712
-0.0879936390182
8664.42040692
8663.12624856
8661.48373202
8659.42269954
8656.87065005
8653.77003341
8649.93530381
5724.44679681
196.2591966
-0.169829977053
8677.40141439
8677.21852831
8676.90873188
8676.44029339
8675.78749871
8674.97370541
8673.97727048
6099.61800326
340.663526329
-0.115370885298
8690.47210227
8691.43024814
8692.47259121
8693.6092848
8694.86813751
8696.27736592
8697.7207214
6425.77277087
503.069652232
-0.105729703481
8703.45599849
8705.54036481
8707.91732558
8710.65959003
8713.84304392
8717.49121813
8721.459466
6768.81707808
694.90303661
3.0589957629
8716.17884332
8719.33729731
8723.00673482
8727.2938841
8732.40561736
8738.47207706
8745.77345704
7091.85247374
939.448874349
0.21344545879
8728.48252144
8732.64778294
8737.50253289
8743.18392981
8750.22026621
8758.76936452
8769.4572719
7378.57126161
1197.95204429
-0.075360011322
8740.22950382
8745.29974853
8751.22321689
8758.26689972
8766.54430629
8776.67621091
8789.65999773
7619.57233935
1494.46702266
-0.208214854469
8751.29153927
8757.1267384
8763.87535649
8771.80178267
8780.89670214
8791.7221695
8804.96585481
7809.2516087
1712.67190861
-0.200930015624
8761.57429213
8768.05269212
8775.44618679
8783.9032318
8793.45549453
8804.34474884
8816.61158509
7942.10794655
1830.76271653
-0.1206446505
8771.04995421
8778.08022491
8786.05178299
8794.84411809
8804.66270788
8815.51015563
8826.91616968
8022.06041334
1897.75793028
-0.0864539826458
8779.70092276
8787.17144023
8795.60440918
8804.79648056
8814.84037748
8825.68424898
8836.29859858
8072.18396556
1972.01397855
-0.0788835851104
)
;
    }
    sides
    {
        type            fixedFluxPressure;
        gradient        nonuniform List<scalar> 0();
        value           nonuniform List<scalar> 0();
    }
    bottom
    {
        type            fixedFluxPressure;
        gradient        nonuniform List<scalar> 0();
        value           nonuniform List<scalar> 0();
    }
    front
    {
        type            fixedFluxPressure;
        gradient        uniform 0;
        value           nonuniform List<scalar> 
164
(
8614.65463149
8611.02861257
8606.63100486
8601.30292958
8594.84672078
8587.00961534
8577.47084408
8566.00284669
8534.98786398
4013.38624513
0.674579899772
0.00419330641842
8624.00194986
8620.74611035
8616.77992292
8611.95171353
8606.08115334
8598.93745779
8590.24388422
8579.77705854
8566.56742772
4266.04995759
6.56164855322
0.0290161266824
8627.74349832
8623.59696826
8618.53453708
8612.36142721
8604.8461131
8595.79883013
8584.44999532
4590.56545849
23.2941864382
-0.0252788054359
8639.43121081
8636.11903636
8632.05525189
8627.08736733
8621.02780725
8613.73154777
8604.61629565
4951.24665573
55.8995967404
-0.0383778440644
8651.70828755
8649.3584139
8646.44989554
8642.87127632
8638.49200251
8633.18670938
8626.57221243
5334.24733394
110.016370712
-0.0879936390182
8664.42040692
8663.12624856
8661.48373202
8659.42269954
8656.87065005
8653.77003341
8649.93530381
5724.44679681
196.2591966
-0.169829977053
8677.40141439
8677.21852831
8676.90873188
8676.44029339
8675.78749871
8674.97370541
8673.97727048
6099.61800326
340.663526329
-0.115370885298
8690.47210227
8691.43024814
8692.47259121
8693.6092848
8694.86813751
8696.27736592
8697.7207214
6425.77277087
503.069652232
-0.105729703481
8703.45599849
8705.54036481
8707.91732558
8710.65959003
8713.84304392
8717.49121813
8721.459466
6768.81707808
694.90303661
3.0589957629
8716.17884332
8719.33729731
8723.00673482
8727.2938841
8732.40561736
8738.47207706
8745.77345704
7091.85247374
939.448874349
0.21344545879
8728.48252144
8732.64778294
8737.50253289
8743.18392981
8750.22026621
8758.76936452
8769.4572719
7378.57126161
1197.95204429
-0.075360011322
8740.22950382
8745.29974853
8751.22321689
8758.26689972
8766.54430629
8776.67621091
8789.65999773
7619.57233935
1494.46702266
-0.208214854469
8751.29153927
8757.1267384
8763.87535649
8771.80178267
8780.89670214
8791.7221695
8804.96585481
7809.2516087
1712.67190861
-0.200930015624
8761.57429213
8768.05269212
8775.44618679
8783.9032318
8793.45549453
8804.34474884
8816.61158509
7942.10794655
1830.76271653
-0.1206446505
8771.04995421
8778.08022491
8786.05178299
8794.84411809
8804.66270788
8815.51015563
8826.91616968
8022.06041334
1897.75793028
-0.0864539826458
8779.70092276
8787.17144023
8795.60440918
8804.79648056
8814.84037748
8825.68424898
8836.29859858
8072.18396556
1972.01397855
-0.0788835851104
)
;
    }
    atmosphere
    {
        type            totalPressure;
        rho             rho;
        psi             none;
        gamma           1;
        p0              uniform 0;
        value           nonuniform List<scalar> 
16
(
0
0
0
-0.000504062978254
-1.58704170604e-06
-0.00291561833431
-1.7935257746e-06
0
0
0
-0.000466537084101
-0.00779701152828
-0.00274146270678
-0.00211452067073
-0.00126354266483
-0.000887639755342
)
;
    }
    floatingObject
    {
        type            fixedFluxPressure;
        gradient        nonuniform List<scalar> 0();
        value           nonuniform List<scalar> 0();
    }
    procBoundary5to0
    {
        type            processor;
        value           nonuniform List<scalar> 
12
(
8605.93365583
8602.05521788
8597.37862647
8591.74468408
8584.95380618
8576.74242425
8566.78562762
8554.84610914
8491.32295598
3850.77489518
0.0791070675265
0.00206469077732
)
;
    }
    procBoundary5to3
    {
        type            processor;
        value           nonuniform List<scalar> 10(8787.55763161 8795.62615792 8804.37675043 8813.91080768 8824.24800308 8835.41619949 8845.65187791 8183.2591126 2048.43671035 -0.0863173718856);
    }
    procBoundary5to4
    {
        type            processor;
        value           nonuniform List<scalar> 
18
(
8617.63077471
8626.65988417
8633.91983422
8631.14182599
8631.14182599
8642.1398788
8653.62167087
8665.46021823
8677.51385697
8689.63599043
8701.67521563
8713.4850068
8724.92897736
8735.8882382
8746.25173171
8755.93473316
8764.88120405
8773.05313704
)
;
    }
}


// ************************************************************************* //
