/*--------------------------------*- C++ -*----------------------------------*\
| =========                 |                                                 |
| \\      /  F ield         | OpenFOAM: The Open Source CFD Toolbox           |
|  \\    /   O peration     | Version:  v2012                                 |
|   \\  /    A nd           | Website:  www.openfoam.com                      |
|    \\/     M anipulation  |                                                 |
\*---------------------------------------------------------------------------*/
FoamFile
{
    version     2.0;
    format      ascii;
    class       volScalarField;
    location    "3.6";
    object      rAU;
}
// * * * * * * * * * * * * * * * * * * * * * * * * * * * * * * * * * * * * * //

dimensions      [-1 3 1 0 0 0 0];


internalField   nonuniform List<scalar> 
164
(
1.63958413516e-05
1.63946043458e-05
1.63929367642e-05
1.63906771868e-05
1.63869758682e-05
1.63790196367e-05
1.63493810999e-05
1.62591712324e-05
1.62657397756e-05
3.55533277786e-05
0.0049908382966
0.0155038247543
1.63958821187e-05
1.63944668648e-05
1.63926127446e-05
1.63902004459e-05
1.63860286365e-05
1.63791811945e-05
1.63472217005e-05
1.6266861173e-05
1.62301423124e-05
3.36529721816e-05
0.00406977962174
0.0152379104236
1.63923678086e-05
1.63897303098e-05
1.63855817655e-05
1.63798184936e-05
1.63482188924e-05
1.62832408201e-05
1.62472733974e-05
3.12820336531e-05
0.00275501044844
0.0150770928716
1.63922820705e-05
1.63893443741e-05
1.63849807637e-05
1.63794212478e-05
1.6350172515e-05
1.63052907799e-05
1.62501371847e-05
2.89657203342e-05
0.00169637595455
0.012538181835
1.63923515687e-05
1.63891124744e-05
1.63844336978e-05
1.63791945468e-05
1.63515944683e-05
1.63216200259e-05
1.62481446607e-05
2.68231898001e-05
0.00105097935086
0.0117733867269
1.6392685834e-05
1.63892664927e-05
1.63845122445e-05
1.6379715852e-05
1.63523349431e-05
1.63270532201e-05
1.62419878639e-05
2.49558418403e-05
0.000656398339511
0.0110942232456
1.63932484773e-05
1.63898805868e-05
1.63852381136e-05
1.63809403408e-05
1.63507574832e-05
1.63191644033e-05
1.62322244127e-05
2.34341161418e-05
0.000405574397564
0.010301268795
1.63937601277e-05
1.63906936481e-05
1.63866772826e-05
1.63838437104e-05
1.63473778141e-05
1.63065108827e-05
1.61706931703e-05
2.21845843547e-05
0.000281205651904
0.00749314890033
1.63943609337e-05
1.63916150834e-05
1.63886104786e-05
1.63881319964e-05
1.6346097199e-05
1.62964053789e-05
1.61615168773e-05
2.10864973034e-05
0.000202656692375
0.00472838053528
1.63953136483e-05
1.63926660238e-05
1.63894985169e-05
1.6389931545e-05
1.63506989437e-05
1.62927335087e-05
1.62518730939e-05
2.02878510858e-05
0.000154117315738
0.00468510594033
1.6396239997e-05
1.63936238457e-05
1.63895720462e-05
1.63851981125e-05
1.63567694284e-05
1.62943213583e-05
1.62477704269e-05
1.95225450902e-05
0.00012302262154
0.00636525607767
1.63969413e-05
1.63946023277e-05
1.6390323455e-05
1.63817033239e-05
1.63585321028e-05
1.63028135132e-05
1.62410135627e-05
1.89141125915e-05
9.82331267991e-05
0.00767609542036
1.63970723416e-05
1.63945592723e-05
1.63903225379e-05
1.63805414684e-05
1.63594251237e-05
1.63184965785e-05
1.62501268066e-05
1.84698955313e-05
8.58672268689e-05
0.00707307960901
1.63971033797e-05
1.63935267731e-05
1.63869973242e-05
1.6373687611e-05
1.63498516518e-05
1.63102970868e-05
1.62628620003e-05
1.81884843745e-05
8.00907588552e-05
0.00735059692736
1.63983798097e-05
1.63953181882e-05
1.63862353162e-05
1.63667877211e-05
1.63478466814e-05
1.63198876842e-05
1.6281232424e-05
1.80134381638e-05
7.66499345554e-05
0.00690444358003
1.63995693107e-05
1.6399522515e-05
1.63939155808e-05
1.63596600935e-05
1.63585883832e-05
1.63465521266e-05
1.6295698441e-05
1.79071900728e-05
7.39348424866e-05
0.00679340307378
)
;

boundaryField
{
    back
    {
        type            calculated;
        value           nonuniform List<scalar> 
164
(
1.63958413516e-05
1.63946043458e-05
1.63929367642e-05
1.63906771868e-05
1.63869758682e-05
1.63790196367e-05
1.63493810999e-05
1.62591712324e-05
1.62657397756e-05
3.55533277786e-05
0.0049908382966
0.0155038247543
1.63958821187e-05
1.63944668648e-05
1.63926127446e-05
1.63902004459e-05
1.63860286365e-05
1.63791811945e-05
1.63472217005e-05
1.6266861173e-05
1.62301423124e-05
3.36529721816e-05
0.00406977962174
0.0152379104236
1.63923678086e-05
1.63897303098e-05
1.63855817655e-05
1.63798184936e-05
1.63482188924e-05
1.62832408201e-05
1.62472733974e-05
3.12820336531e-05
0.00275501044844
0.0150770928716
1.63922820705e-05
1.63893443741e-05
1.63849807637e-05
1.63794212478e-05
1.6350172515e-05
1.63052907799e-05
1.62501371847e-05
2.89657203342e-05
0.00169637595455
0.012538181835
1.63923515687e-05
1.63891124744e-05
1.63844336978e-05
1.63791945468e-05
1.63515944683e-05
1.63216200259e-05
1.62481446607e-05
2.68231898001e-05
0.00105097935086
0.0117733867269
1.6392685834e-05
1.63892664927e-05
1.63845122445e-05
1.6379715852e-05
1.63523349431e-05
1.63270532201e-05
1.62419878639e-05
2.49558418403e-05
0.000656398339511
0.0110942232456
1.63932484773e-05
1.63898805868e-05
1.63852381136e-05
1.63809403408e-05
1.63507574832e-05
1.63191644033e-05
1.62322244127e-05
2.34341161418e-05
0.000405574397564
0.010301268795
1.63937601277e-05
1.63906936481e-05
1.63866772826e-05
1.63838437104e-05
1.63473778141e-05
1.63065108827e-05
1.61706931703e-05
2.21845843547e-05
0.000281205651904
0.00749314890033
1.63943609337e-05
1.63916150834e-05
1.63886104786e-05
1.63881319964e-05
1.6346097199e-05
1.62964053789e-05
1.61615168773e-05
2.10864973034e-05
0.000202656692375
0.00472838053528
1.63953136483e-05
1.63926660238e-05
1.63894985169e-05
1.6389931545e-05
1.63506989437e-05
1.62927335087e-05
1.62518730939e-05
2.02878510858e-05
0.000154117315738
0.00468510594033
1.6396239997e-05
1.63936238457e-05
1.63895720462e-05
1.63851981125e-05
1.63567694284e-05
1.62943213583e-05
1.62477704269e-05
1.95225450902e-05
0.00012302262154
0.00636525607767
1.63969413e-05
1.63946023277e-05
1.6390323455e-05
1.63817033239e-05
1.63585321028e-05
1.63028135132e-05
1.62410135627e-05
1.89141125915e-05
9.82331267991e-05
0.00767609542036
1.63970723416e-05
1.63945592723e-05
1.63903225379e-05
1.63805414684e-05
1.63594251237e-05
1.63184965785e-05
1.62501268066e-05
1.84698955313e-05
8.58672268689e-05
0.00707307960901
1.63971033797e-05
1.63935267731e-05
1.63869973242e-05
1.6373687611e-05
1.63498516518e-05
1.63102970868e-05
1.62628620003e-05
1.81884843745e-05
8.00907588552e-05
0.00735059692736
1.63983798097e-05
1.63953181882e-05
1.63862353162e-05
1.63667877211e-05
1.63478466814e-05
1.63198876842e-05
1.6281232424e-05
1.80134381638e-05
7.66499345554e-05
0.00690444358003
1.63995693107e-05
1.6399522515e-05
1.63939155808e-05
1.63596600935e-05
1.63585883832e-05
1.63465521266e-05
1.6295698441e-05
1.79071900728e-05
7.39348424866e-05
0.00679340307378
)
;
    }
    sides
    {
        type            calculated;
        value           nonuniform List<scalar> 0();
    }
    bottom
    {
        type            calculated;
        value           nonuniform List<scalar> 0();
    }
    front
    {
        type            calculated;
        value           nonuniform List<scalar> 
164
(
1.63958413516e-05
1.63946043458e-05
1.63929367642e-05
1.63906771868e-05
1.63869758682e-05
1.63790196367e-05
1.63493810999e-05
1.62591712324e-05
1.62657397756e-05
3.55533277786e-05
0.0049908382966
0.0155038247543
1.63958821187e-05
1.63944668648e-05
1.63926127446e-05
1.63902004459e-05
1.63860286365e-05
1.63791811945e-05
1.63472217005e-05
1.6266861173e-05
1.62301423124e-05
3.36529721816e-05
0.00406977962174
0.0152379104236
1.63923678086e-05
1.63897303098e-05
1.63855817655e-05
1.63798184936e-05
1.63482188924e-05
1.62832408201e-05
1.62472733974e-05
3.12820336531e-05
0.00275501044844
0.0150770928716
1.63922820705e-05
1.63893443741e-05
1.63849807637e-05
1.63794212478e-05
1.6350172515e-05
1.63052907799e-05
1.62501371847e-05
2.89657203342e-05
0.00169637595455
0.012538181835
1.63923515687e-05
1.63891124744e-05
1.63844336978e-05
1.63791945468e-05
1.63515944683e-05
1.63216200259e-05
1.62481446607e-05
2.68231898001e-05
0.00105097935086
0.0117733867269
1.6392685834e-05
1.63892664927e-05
1.63845122445e-05
1.6379715852e-05
1.63523349431e-05
1.63270532201e-05
1.62419878639e-05
2.49558418403e-05
0.000656398339511
0.0110942232456
1.63932484773e-05
1.63898805868e-05
1.63852381136e-05
1.63809403408e-05
1.63507574832e-05
1.63191644033e-05
1.62322244127e-05
2.34341161418e-05
0.000405574397564
0.010301268795
1.63937601277e-05
1.63906936481e-05
1.63866772826e-05
1.63838437104e-05
1.63473778141e-05
1.63065108827e-05
1.61706931703e-05
2.21845843547e-05
0.000281205651904
0.00749314890033
1.63943609337e-05
1.63916150834e-05
1.63886104786e-05
1.63881319964e-05
1.6346097199e-05
1.62964053789e-05
1.61615168773e-05
2.10864973034e-05
0.000202656692375
0.00472838053528
1.63953136483e-05
1.63926660238e-05
1.63894985169e-05
1.6389931545e-05
1.63506989437e-05
1.62927335087e-05
1.62518730939e-05
2.02878510858e-05
0.000154117315738
0.00468510594033
1.6396239997e-05
1.63936238457e-05
1.63895720462e-05
1.63851981125e-05
1.63567694284e-05
1.62943213583e-05
1.62477704269e-05
1.95225450902e-05
0.00012302262154
0.00636525607767
1.63969413e-05
1.63946023277e-05
1.6390323455e-05
1.63817033239e-05
1.63585321028e-05
1.63028135132e-05
1.62410135627e-05
1.89141125915e-05
9.82331267991e-05
0.00767609542036
1.63970723416e-05
1.63945592723e-05
1.63903225379e-05
1.63805414684e-05
1.63594251237e-05
1.63184965785e-05
1.62501268066e-05
1.84698955313e-05
8.58672268689e-05
0.00707307960901
1.63971033797e-05
1.63935267731e-05
1.63869973242e-05
1.6373687611e-05
1.63498516518e-05
1.63102970868e-05
1.62628620003e-05
1.81884843745e-05
8.00907588552e-05
0.00735059692736
1.63983798097e-05
1.63953181882e-05
1.63862353162e-05
1.63667877211e-05
1.63478466814e-05
1.63198876842e-05
1.6281232424e-05
1.80134381638e-05
7.66499345554e-05
0.00690444358003
1.63995693107e-05
1.6399522515e-05
1.63939155808e-05
1.63596600935e-05
1.63585883832e-05
1.63465521266e-05
1.6295698441e-05
1.79071900728e-05
7.39348424866e-05
0.00679340307378
)
;
    }
    atmosphere
    {
        type            calculated;
        value           nonuniform List<scalar> 
16
(
0.0155038247543
0.0152379104236
0.0150770928716
0.012538181835
0.0117733867269
0.0110942232456
0.010301268795
0.00749314890033
0.00472838053528
0.00468510594033
0.00636525607767
0.00767609542036
0.00707307960901
0.00735059692736
0.00690444358003
0.00679340307378
)
;
    }
    floatingObject
    {
        type            calculated;
        value           nonuniform List<scalar> 0();
    }
    procBoundary5to0
    {
        type            processor;
        value           nonuniform List<scalar> 
12
(
1.63958444848e-05
1.63948047639e-05
1.63934123221e-05
1.6391494127e-05
1.63883800852e-05
1.63813885181e-05
1.63530920194e-05
1.62626322573e-05
1.63252477823e-05
3.69202562743e-05
0.005217557323
0.0156685995751
)
;
    }
    procBoundary5to3
    {
        type            processor;
        value           nonuniform List<scalar> 10(1.64000555273e-05 1.64017613816e-05 1.64064678151e-05 1.63819261976e-05 1.63602994969e-05 1.63453360914e-05 1.62841125668e-05 1.76516429292e-05 7.08585861508e-05 0.0065753038364);
    }
    procBoundary5to4
    {
        type            processor;
        value           nonuniform List<scalar> 
18
(
1.63968139943e-05
1.63970274201e-05
1.63960579483e-05
1.63944440985e-05
1.63944440985e-05
1.63945416889e-05
1.63947690062e-05
1.63951518415e-05
1.63956418932e-05
1.63961560911e-05
1.63968234507e-05
1.63975785035e-05
1.63982738763e-05
1.63988230651e-05
1.63991298471e-05
1.63994636759e-05
1.64001550878e-05
1.64007516882e-05
)
;
    }
}


// ************************************************************************* //
