/*--------------------------------*- C++ -*----------------------------------*\
| =========                 |                                                 |
| \\      /  F ield         | OpenFOAM: The Open Source CFD Toolbox           |
|  \\    /   O peration     | Version:  v2012                                 |
|   \\  /    A nd           | Website:  www.openfoam.com                      |
|    \\/     M anipulation  |                                                 |
\*---------------------------------------------------------------------------*/
FoamFile
{
    version     2.0;
    format      ascii;
    class       surfaceScalarField;
    location    "1.1";
    object      alphaPhi0.water;
}
// * * * * * * * * * * * * * * * * * * * * * * * * * * * * * * * * * * * * * //

dimensions      [0 3 -1 0 0 0 0];
oriented        oriented;


internalField   nonuniform List<scalar> 
304
(
-9.19960028083e-05
-0.000570815738872
-0.000115972948815
-0.00057878216456
-0.000140389427769
-0.000588759973959
-0.000165339917667
-0.000600819995589
-0.000190924534417
-0.000615016585915
-0.000217250534494
-0.000631412301536
-0.00024443568925
-0.000650081250087
-0.000671115948747
-4.89586238528e-05
-0.0005334111689
-7.42839041592e-05
-0.000539251406139
-9.99187135649e-05
-0.000545181111875
-0.000125937265396
-0.000552763801492
-0.000152436751991
-0.00056226067619
-0.000179521832301
-0.000573735092094
-0.000207303556681
-0.000587235019848
-0.000235901189753
-0.000602814801594
-0.000265444494363
-0.000620537975459
-0.000296077234074
-0.000640482952201
-0.000662731992448
-5.26988226858e-05
-0.000506553004328
-7.99166406492e-05
-0.000512033774298
-0.000107463868834
-0.000517634068526
-0.000135423359125
-0.000524804497008
-0.000163900899886
-0.000533783316202
-0.000193009664659
-0.000544626496625
-0.000222869553297
-0.000557375293833
-0.000253608910059
-0.000572075605996
-0.000285366281132
-0.000588780563756
-0.000318294515665
-0.000607554569075
-5.62394394388e-05
-0.000477914025498
-8.52468062484e-05
-0.000483026591615
-0.000114601140495
-0.000488279916894
-0.000144392994893
-0.000495012823219
-0.000174735182621
-0.000503441303227
-0.000205747810153
-0.000513614038341
-0.000237557636542
-0.000525565648926
-0.000270299394953
-0.000539334010471
-0.000304118263186
-0.000554961720209
-0.000572500730112
-2.92549214158e-05
-0.000434238003938
-5.95670443967e-05
-0.000447602078547
-9.02550963101e-05
-0.000452338713203
-0.000121304948915
-0.000457230236566
-0.000152813884423
-0.000463504058114
-0.000184900549307
-0.000471354806152
-0.000217690497509
-0.000480824268085
-0.000251315392474
-0.000491940968516
-0.000285914403317
-0.000504735188325
-0.000321635480631
-0.00051924063484
-0.000535497123152
-3.07993213466e-05
-0.000403438837427
-6.26718060758e-05
-0.000415729749655
-9.49254955583e-05
-0.00042008517884
-0.000127553489043
-0.000424602398044
-0.000160658610881
-0.000430399091368
-0.0001943642149
-0.000437649363088
-0.0002287999477
-0.000446388725974
-0.000264101050182
-0.000456640102377
-0.000300408255318
-0.000468428079491
-0.00033787195798
-0.000481777084262
-3.22294717013e-05
-0.000371209496107
-6.55443999668e-05
-0.000382414952902
-9.92443457826e-05
-0.000386385364679
-0.000133328463567
-0.000390518413475
-0.000167904352439
-0.000395823339663
-0.000203099150765
-0.000402454716984
-0.000239045606071
-0.000410442463859
-0.000275880444875
-0.000419805430665
-0.00031374683472
-0.000430561899219
-3.35416011836e-05
-0.000337667999285
-6.81778243814e-05
-0.000347778835013
-0.000103200738282
-0.000351362557574
-0.000138615029448
-0.000355104232888
-0.000174532603487
-0.000359905883746
-0.000211083739374
-0.000365903719123
-0.000248403205605
-0.000373123160165
-0.000286629472236
-0.00038157933041
-0.000391286074079
-3.47343363728e-05
-0.000302933742265
-7.05676688928e-05
-0.000311945583441
-0.000106786632549
-0.000315143678013
-0.000143401601904
-0.000318489353537
-0.000180528776174
-0.000322778808977
-0.000218301160979
-0.000328131452991
-0.000256855075197
-0.00033456937518
-0.000296329890203
-0.00034210468789
-0.000350748548435
-3.58092225817e-05
-0.000267124578193
-7.27126937927e-05
-0.000275042173392
-0.00010999681954
-0.000277859618102
-0.000147679386786
-0.000280806859553
-0.000185881474956
-0.000284576804063
-0.000224738537334
-0.000289274490466
-0.000264388138159
-0.000294919894762
-0.00030496939639
-0.00030152355882
-0.00034662406339
-0.000309094026627
-0.000317638585726
-3.67727462355e-05
-0.000230351875246
-7.46155770006e-05
-0.000237199389523
-0.00011282832187
-0.000239646925764
-0.000151441116661
-0.000242194125592
-0.000190580933584
-0.000245437057691
-0.000230384932195
-0.000249470576582
-0.000270990636876
-0.000254314296941
-0.000312536545247
-0.000259977762191
-0.000355163036419
-0.000266467648179
-0.000273788811511
-3.76396502844e-05
-0.000192712258453
-7.62839332906e-05
-0.000198555144178
-0.000115279062152
-0.000200651840597
-0.000154678972071
-0.00020279426785
-0.000194616992102
-0.000205499099594
-0.000235229797969
-0.000208857845863
-0.000276653091846
-0.000212891103573
-0.000319023655823
-0.000217607317971
-0.000362480505277
-0.000223010916166
-0.000229104544587
-3.84447916409e-05
-0.000154267494892
-7.77345072686e-05
-0.000159265460923
-0.000117345718279
-0.000161040668013
-0.000157381240513
-0.000162758792363
-0.000197976222761
-0.000164904174143
-0.000239260174645
-0.000167573966212
-0.00028136328901
-0.000170788095537
-0.000324419095994
-0.00017455164764
-0.000368563993115
-0.000178866104654
-0.000183729592815
-3.92595884163e-05
-0.000115007932733
-7.89817970265e-05
-0.000119543282214
-0.000119001699477
-0.00012102080127
-0.000159511143831
-0.000122249391917
-0.00020062156948
-0.000123793803311
-0.000242439295791
-0.00012575631511
-0.000285083469916
-0.000128144039572
-0.000328682017811
-0.000130953209584
-0.000373369757485
-0.000134178519502
-4.0038599165e-05
-7.4969358702e-05
-7.98723632581e-05
-7.97095468194e-05
-0.000120070040642
-8.08231586125e-05
-0.000160893206946
-8.14262687282e-05
-0.00020236932046
-8.23177450375e-05
-0.000244565694635
-8.35600203288e-05
-0.000287589204861
-8.51206452772e-05
-0.000331564864585
-8.69777060461e-05
-8.91188295561e-05
-3.97824899398e-05
-3.51868914458e-05
-7.95341042986e-05
-3.9957958581e-05
-0.000119859783969
-4.04975113281e-05
-0.000160837601873
-4.04484919658e-05
-0.000202439562502
-4.07158382825e-05
-0.000244738066653
-4.12615966227e-05
-0.000287849867698
-4.20089623813e-05
-0.000331905309445
-4.29223902606e-05
-4.39855809584e-05
-3.51869056862e-05
-7.51448810357e-05
-0.000115642412826
-0.000156090930169
-0.000196806802506
-0.00023806845492
-0.000280077479624
-0.000322999959811
)
;

boundaryField
{
    back
    {
        type            calculated;
        value           uniform 0;
    }
    sides
    {
        type            calculated;
        value           uniform 0;
    }
    bottom
    {
        type            calculated;
        value           uniform 0;
    }
    front
    {
        type            calculated;
        value           uniform 0;
    }
    atmosphere
    {
        type            calculated;
        value           nonuniform List<scalar> 0();
    }
    floatingObject
    {
        type            calculated;
        value           nonuniform List<scalar> 0();
    }
    procBoundary10to9
    {
        type            processor;
        value           nonuniform List<scalar> 
15
(
0.000594440985964
0.000602758848891
0.000613176174957
0.00062577021291
0.000640600972298
0.000657738176707
0.000677266363346
0.000699290045473
0.000558387317102
6.83704733862e-05
0.000564576456824
2.39821275616e-05
2.5840332257e-05
2.76002554885e-05
0.000463492726482
)
;
    }
    procBoundary10to11
    {
        type            processor;
        value           nonuniform List<scalar> 
23
(
-0.000272609449415
0.000694616301804
-0.000327960936704
-0.000352564643872
-0.000628461483604
-0.00033917191875
-0.000358639055203
-0.000376652082005
-0.000496716911503
-0.000352794221715
-0.000442729759923
-0.000325905477177
-0.000336867528229
0.000360509950997
-0.000389495435323
-0.000399012893018
-0.000407164849792
-0.000413939071368
-0.000419286124425
-0.000137813320933
-0.00037662470601
-0.00037703872079
-0.000366985630386
)
;
    }
}


// ************************************************************************* //
