/*--------------------------------*- C++ -*----------------------------------*\
| =========                 |                                                 |
| \\      /  F ield         | OpenFOAM: The Open Source CFD Toolbox           |
|  \\    /   O peration     | Version:  v2012                                 |
|   \\  /    A nd           | Website:  www.openfoam.com                      |
|    \\/     M anipulation  |                                                 |
\*---------------------------------------------------------------------------*/
FoamFile
{
    version     2.0;
    format      ascii;
    class       volVectorField;
    location    "1.1";
    object      U;
}
// * * * * * * * * * * * * * * * * * * * * * * * * * * * * * * * * * * * * * //

dimensions      [0 1 -1 0 0 0 0];


internalField   nonuniform List<vector> 
167
(
(-0.1165867707 -0.0160258677803 -2.25164439345e-22)
(-0.118213634428 -0.0207807204327 -4.30422662412e-23)
(-0.120251175782 -0.0256124588943 -9.0664512365e-24)
(-0.122714185977 -0.0305444954109 3.36337696002e-24)
(-0.125614101913 -0.0355935989646 1.13335139249e-24)
(-0.128964106622 -0.0407801773728 -2.81240770621e-23)
(-0.13278005336 -0.0461255965134 1.11350053553e-23)
(-0.137081580622 -0.0516543827683 2.95779354011e-23)
(-0.109237217401 -0.00691629239975 9.80596091873e-22)
(-0.110439137553 -0.0122442404423 -4.93756951966e-22)
(-0.111654929389 -0.0174099982432 -2.1399535217e-22)
(-0.113208288757 -0.022570683701 -3.82545246476e-23)
(-0.115153818993 -0.027815228869 -1.31322809321e-23)
(-0.117504920269 -0.0331693457378 5.86208075715e-24)
(-0.120271796321 -0.0386519820515 2.34562836053e-23)
(-0.123466106983 -0.0442858447765 -2.6084698556e-23)
(-0.127101570316 -0.0500945827333 7.61070117997e-24)
(-0.131195359488 -0.0561053315014 3.38332338979e-23)
(-0.135765568411 -0.0623627436148 -4.16153079556e-23)
(-0.104048197425 -0.00747243832395 -2.58118742258e-22)
(-0.105179322867 -0.0131766427909 -2.71773776471e-22)
(-0.106331194755 -0.0187282455936 -2.47333110125e-22)
(-0.107805011258 -0.0242750147265 -3.07784765875e-23)
(-0.109650705838 -0.0299118023651 1.30618383502e-24)
(-0.111880196032 -0.0356664117494 -1.12770129694e-24)
(-0.114502377412 -0.0415595966281 -5.56801025524e-24)
(-0.117527240693 -0.0476158689666 -1.46031473673e-23)
(-0.120966414205 -0.0538605277647 -2.72100788738e-26)
(-0.124834209025 -0.0603225260712 4.88655568895e-24)
(-0.129145268585 -0.0670502846943 -1.06999699651e-23)
(-0.0984931723627 -0.00799968291556 1.21675782541e-21)
(-0.0995515996357 -0.0140593823348 1.57275376555e-22)
(-0.100635890583 -0.0199754537933 -1.62124072317e-22)
(-0.102024794716 -0.0258868641288 -2.76964289483e-23)
(-0.10376373266 -0.031893689005 -2.04898168138e-23)
(-0.10586314858 -0.0380254605138 -2.70343951407e-24)
(-0.108330599379 -0.044304377167 -1.09527240932e-24)
(-0.111174427601 -0.0507563240923 -2.31230457273e-23)
(-0.114404219178 -0.0574077016941 -6.04927815914e-24)
(-0.118031603686 -0.0642886563425 -1.16909083114e-23)
(-0.0898278811337 -0.00381523593895 9.73941995833e-22)
(-0.0925931073417 -0.00849579585283 1.16585319417e-21)
(-0.0935772093703 -0.0148891694183 6.30415104474e-23)
(-0.0945906898025 -0.0211471381293 -6.30173971586e-23)
(-0.0958900155804 -0.0274004456395 -1.6715531023e-23)
(-0.0975162453598 -0.0337537478516 -1.07775359954e-23)
(-0.0994784020537 -0.0402379969117 -1.07332613764e-23)
(-0.101782759426 -0.0468765051649 -2.438518464e-23)
(-0.10443612941 -0.053696094213 3.26919972896e-24)
(-0.107446189427 -0.0607237559931 -1.50732563058e-23)
(-0.110822006262 -0.0679901960013 2.7155096002e-24)
(-0.083816511716 -0.00398958245054 3.05827025647e-22)
(-0.086370065177 -0.00895919529465 1.27502656099e-21)
(-0.0872785355722 -0.0156633769118 -1.76995040543e-22)
(-0.0882184689597 -0.0222395148842 -2.24063364327e-22)
(-0.0894242624914 -0.0288108303399 -3.94734343714e-23)
(-0.0909327832261 -0.0354859488356 -1.10585745166e-23)
(-0.0927517299389 -0.0422969575191 -1.79574019081e-23)
(-0.0948862209028 -0.0492679670249 -9.5834911058e-24)
(-0.0973417752689 -0.0564264296786 -3.38165511251e-23)
(-0.100124146875 -0.0637995120513 -1.1460165553e-23)
(-0.103240313489 -0.0714180848642 1.45001751352e-23)
(-0.0775081140904 -0.00415038296358 -1.00145340299e-21)
(-0.079847077215 -0.00938845570503 1.54462006694e-21)
(-0.0806789828144 -0.016379657875 -1.84276524838e-22)
(-0.0815431331691 -0.0232493811219 -8.75597196693e-23)
(-0.0826521335884 -0.0301139014501 -2.52221071438e-23)
(-0.0840388426927 -0.0370853010565 -2.2515308307e-23)
(-0.0857097722649 -0.0441965428822 -1.63391916603e-23)
(-0.0876690938168 -0.0514723290064 2.34091340207e-23)
(-0.0899210988058 -0.0589404708038 -2.3650563671e-23)
(-0.0924699388947 -0.0666281058887 -1.19936515214e-23)
(-0.0709259198821 -0.00429740941777 -2.95001384986e-23)
(-0.0730480381431 -0.00978241046773 1.15076512267e-21)
(-0.0738028129326 -0.0170361941162 3.77606713136e-22)
(-0.0745894728134 -0.0241741551732 1.70513070215e-23)
(-0.0755990766368 -0.0313063136724 -6.77699146424e-24)
(-0.0768606869037 -0.0385477662541 -6.34525561875e-24)
(-0.0783798118212 -0.0459321899005 -4.88771940736e-24)
(-0.0801598434176 -0.0534847103044 -6.09876164406e-24)
(-0.0822039504571 -0.0612332648448 -1.15785557679e-23)
(-0.0640936887936 -0.00443078093731 9.11895876889e-22)
(-0.0659974887482 -0.0101404551435 1.8947800861e-21)
(-0.0666750420274 -0.017631709931 1.35572240247e-22)
(-0.0673830327152 -0.0250118595276 -6.64414249088e-23)
(-0.0682912147739 -0.0323854297195 -3.25581774297e-23)
(-0.0694251176577 -0.0398701962977 3.76483998271e-25)
(-0.0707894588413 -0.0475004200203 -2.42318379343e-23)
(-0.0723869478476 -0.0553014728463 -1.99884501707e-23)
(-0.0742200653422 -0.0633013619291 -1.38806026626e-23)
(-0.0570349408069 -0.00455103170355 -6.98909664056e-23)
(-0.0587202262692 -0.0104626946766 2.88210390894e-21)
(-0.0593210817179 -0.0181655260324 5.70308942411e-22)
(-0.0599497022025 -0.0257610625649 4.0907104723e-23)
(-0.0607548635032 -0.0333491999721 -1.46543148497e-24)
(-0.0617589309937 -0.041050140752 -3.43403019025e-24)
(-0.062966069999 -0.0488985966965 -4.98325411561e-24)
(-0.064378529747 -0.0569200978593 -1.5852748581e-23)
(-0.0659982963235 -0.065142571039 9.10103090456e-24)
(-0.0678269559142 -0.0735920888526 -1.03684708259e-23)
(-0.0497721181348 -0.00465949473076 -1.62581595761e-23)
(-0.0512413310099 -0.0107503056927 5.68800894709e-22)
(-0.0517669006847 -0.0186375412128 1.93670796351e-22)
(-0.0523157998877 -0.0264206714247 -5.57878533722e-23)
(-0.053016523369 -0.0341958743903 -2.33795258326e-23)
(-0.0538888826454 -0.0420854965008 1.02697631612e-23)
(-0.0549368008143 -0.0501244572209 -1.53388534511e-23)
(-0.0561622885185 -0.0583382242302 1.12228676495e-23)
(-0.0575668917073 -0.0667545518396 -9.95142906487e-24)
(-0.0591518605815 -0.0753992039423 -1.51757559145e-23)
(-0.0423279501425 -0.00475892738314 -4.35635491908e-22)
(-0.0435898873458 -0.011006189702 1.70123777833e-21)
(-0.0440432563538 -0.0190480776127 5.32096696888e-22)
(-0.0445121494336 -0.0269895347843 6.65013964911e-23)
(-0.0451067986637 -0.0349235821954 3.19891067906e-23)
(-0.0458455881165 -0.0429741671204 1.46153512843e-24)
(-0.0467325673981 -0.051175980863 1.33890157103e-23)
(-0.0477695849579 -0.0595541582525 6.69572312362e-24)
(-0.0489578050892 -0.0681361387183 -1.36933914471e-23)
(-0.0502980509808 -0.0769473239419 6.62409897711e-25)
(-0.0347250691971 -0.00485527331438 -8.4245515682e-22)
(-0.0358025481729 -0.0112372858893 1.25492009872e-21)
(-0.036189383862 -0.0193978111378 4.45718269917e-22)
(-0.0365766182682 -0.0274657921806 7.66764876746e-23)
(-0.0370622334322 -0.0355297228945 8.39937861802e-23)
(-0.037665048815 -0.0437135325135 4.9384541286e-23)
(-0.0383893728319 -0.0520507036291 6.24979530163e-23)
(-0.0392367094114 -0.0605655526236 4.20000632155e-23)
(-0.0402077394265 -0.06928498625 6.30204093118e-24)
(-0.0413025616398 -0.0782340806755 3.79068306042e-23)
(-0.0269529312724 -0.00495946170454 2.44154938636e-22)
(-0.0278910591717 -0.0114557938494 1.49645862397e-21)
(-0.0282156707083 -0.019684522311 1.78136866443e-22)
(-0.0285124458084 -0.0278426927632 1.00139494211e-22)
(-0.0288816775469 -0.0360068793869 3.44166824258e-22)
(-0.0293438693742 -0.0442962623854 2.33604085745e-22)
(-0.0299024907367 -0.0527411885631 2.65805170412e-22)
(-0.0305579878645 -0.0613645779574 2.07190774783e-22)
(-0.0313100649417 -0.0701926577367 -5.41797167567e-23)
(-0.0321578645095 -0.0792501934749 1.75036025878e-22)
(-0.0189031535876 -0.00506059776213 2.64754951769e-22)
(-0.0197817618658 -0.0116413862375 3.22204511739e-21)
(-0.0200336705138 -0.0198764782493 4.11350320921e-22)
(-0.0202148558577 -0.028085907746 -2.18988154565e-23)
(-0.0204545595887 -0.0363196668014 1.78085125293e-22)
(-0.0207700827166 -0.0446840863789 4.34166857161e-22)
(-0.0211596711356 -0.053204979461 -1.33594335635e-22)
(-0.0216210053796 -0.061904073711 5.87864189508e-22)
(-0.022152336465 -0.0708071030294 2.5917802905e-22)
(-0.0106568765942 -0.00497541514687 8.73836116552e-23)
(-0.0116769957137 -0.0115833066084 4.18906699624e-22)
(-0.0118443289203 -0.0198291899705 4.2002136219e-23)
(-0.0118888023944 -0.0280624908681 -5.37296037867e-22)
(-0.0120046615786 -0.0363240205451 3.79148888936e-22)
(-0.0121903485083 -0.0447110583635 1.71201738535e-21)
(-0.0124305554158 -0.0532509670667 -1.77750963303e-21)
(-0.01271771967 -0.0619670703926 1.27744758781e-21)
(-0.0130483794632 -0.0708857065341 7.99583581982e-22)
(-0.00409234730775 -0.00406821796132 4.74353859537e-23)
(-0.00499161280484 -0.0106311393236 1.26754560267e-22)
(-0.00507844000488 -0.0190340618586 4.56732577528e-22)
(-0.00504201169313 -0.0271869094467 4.58182641543e-22)
(-0.00504603251566 -0.0353030967806 2.23974303025e-22)
(-0.00508677590097 -0.0434995064643 7.81724928972e-22)
(-0.00515289462289 -0.0518276411648 1.83591922596e-22)
(-0.00523903762834 -0.0603226894748 1.60227529415e-21)
(-0.00534252357509 -0.0690157455782 7.81695570523e-22)
)
;

boundaryField
{
    back
    {
        type            noSlip;
    }
    sides
    {
        type            noSlip;
    }
    bottom
    {
        type            noSlip;
    }
    front
    {
        type            noSlip;
    }
    atmosphere
    {
        type            pressureInletOutletVelocity;
        value           nonuniform List<vector> 0();
    }
    floatingObject
    {
        type            movingWallVelocity;
        value           nonuniform List<vector> 0();
    }
    procBoundary10to9
    {
        type            processor;
        value           nonuniform List<vector> 
15
(
(-0.121108267262 -0.0145813010342 -1.61423591347e-22)
(-0.122801975113 -0.0189121415289 -4.77215437705e-23)
(-0.124922854539 -0.023312454173 -1.35686807807e-23)
(-0.127486942792 -0.0278028323946 -1.80902759106e-23)
(-0.130506657199 -0.0323975426223 -4.35394532781e-23)
(-0.133996507978 -0.0371142157909 -6.06698600041e-23)
(-0.137974160913 -0.0419713479196 -1.23724200864e-23)
(-0.14246165503 -0.0469899310948 -1.01702070309e-23)
(-0.114040868226 -0.0063333224686 1.00361334291e-21)
(-0.115311337393 -0.0112656616414 -1.17875508556e-22)
(-0.115311337393 -0.0112656616414 -1.17875508556e-22)
(-0.105860467111 -0.0032132783986 -5.57113211196e-22)
(-0.100870770399 -0.00342665655696 2.79327101454e-22)
(-0.0955197830489 -0.00362750780699 -6.39068888752e-22)
(-0.0955197830489 -0.00362750780699 -6.39068888752e-22)
)
;
    }
    procBoundary10to11
    {
        type            processor;
        value           nonuniform List<vector> 
23
(
(-0.141890621681 -0.0574064500559 -2.19040177777e-23)
(-0.141890621681 -0.0574064500559 -2.19040177777e-23)
(-0.140820520201 -0.0688955131833 5.39722708717e-23)
(-0.13390209485 -0.0740718684446 3.15463237769e-23)
(-0.12206774114 -0.0714503283665 -5.47503560588e-23)
(-0.12206774114 -0.0714503283665 -5.47503560588e-23)
(-0.114571817886 -0.0755488126294 8.60208124518e-25)
(-0.10669605725 -0.0793370714002 3.75934667651e-23)
(-0.0953210207442 -0.0745657676856 3.20120459151e-23)
(-0.0953210207442 -0.0745657676856 3.20120459151e-23)
(-0.0845152898205 -0.0692047115552 5.82928745646e-24)
(-0.0845152898205 -0.0692047115552 5.82928745646e-24)
(-0.0762910362099 -0.0715265948318 -2.09456807238e-23)
(-0.0762910362099 -0.0715265948318 -2.09456807238e-23)
(-0.0698664912231 -0.0822975961006 -1.72406414256e-23)
(-0.060918716244 -0.0843008778058 -2.86478253846e-24)
(-0.0517914777433 -0.0860162947597 8.87801315345e-25)
(-0.0425217208217 -0.0874415285701 2.34545261586e-23)
(-0.0331008845294 -0.0885657524765 1.3372875046e-22)
(-0.022751846221 -0.0799383259734 -2.19346229245e-22)
(-0.022751846221 -0.0799383259734 -2.19346229245e-22)
(-0.0134203576622 -0.0800311741682 -1.17131921357e-21)
(-0.00546156501109 -0.0779332449849 5.43392166751e-22)
)
;
    }
}


// ************************************************************************* //
