/*--------------------------------*- C++ -*----------------------------------*\
| =========                 |                                                 |
| \\      /  F ield         | OpenFOAM: The Open Source CFD Toolbox           |
|  \\    /   O peration     | Version:  v2012                                 |
|   \\  /    A nd           | Website:  www.openfoam.com                      |
|    \\/     M anipulation  |                                                 |
\*---------------------------------------------------------------------------*/
FoamFile
{
    version     2.0;
    format      ascii;
    class       surfaceVectorField;
    location    "3.4";
    object      ddtCorrDdt0(Uf);
}
// * * * * * * * * * * * * * * * * * * * * * * * * * * * * * * * * * * * * * //

dimensions      [0 1 -2 0 0 0 0];


internalField   nonuniform List<vector> 
300
(
(-0.0873240026037 0.00614456410745 -2.03741048285e-23)
(-0.0905786258373 0.00299984452428 1.3016800144e-23)
(-0.0874113396376 0.012386571952 -8.46971024984e-24)
(-0.0903734723035 0.00912796018897 -6.56010930258e-23)
(-0.0878448919495 0.0188498010486 1.11333322673e-23)
(-0.0909495669776 0.0154082707891 1.58606661964e-23)
(-0.0882721506873 0.0256414838981 -1.1172817475e-23)
(-0.0915287957151 0.0219474067917 -2.45459383419e-24)
(-0.0887361363107 0.032881419476 4.51009577842e-24)
(-0.0921991846323 0.0289147953322 3.28592451718e-24)
(-0.0892010355007 0.0406973552394 8.18418164787e-24)
(-0.092970338581 0.0364275338931 7.1701047123e-25)
(-0.089576028402 0.0492221135259 3.82970785799e-24)
(-0.0937676067768 0.0446269503478 -1.37308969441e-23)
(-0.0944878011414 0.0536663416997 -4.1728325701e-24)
(-0.0934559378633 0.00595640829536 -3.22101880534e-23)
(-0.0965829643168 0.0029308288341 1.71927711523e-23)
(-0.0937280163398 0.0119953066973 -4.12707165796e-23)
(-0.0964688723265 0.00875136261884 -7.51959508814e-23)
(-0.0944613898451 0.018285629041 2.2727400949e-24)
(-0.0973009107279 0.0147756830406 -4.17011629514e-23)
(-0.095301337406 0.0249401127183 1.2004148158e-23)
(-0.0982464468597 0.021098658473 -1.61820516774e-24)
(-0.096305608444 0.032095904484 -5.07160790006e-25)
(-0.0994174797679 0.0278853278277 2.7221364376e-25)
(-0.097445231208 0.0398976302108 -2.11980681208e-23)
(-0.100831967917 0.0352764538015 -1.81285112527e-23)
(-0.0986417436718 0.048499786164 -2.17334373722e-23)
(-0.102420983824 0.0434272871033 -2.54769016636e-23)
(-0.104114113749 0.0525165865972 -7.56463334814e-24)
(-0.0993599945339 0.00560497614111 -2.57929916756e-23)
(-0.102245837047 0.00275045325185 2.18671794966e-23)
(-0.0998049411905 0.0113652280779 -7.56263972532e-23)
(-0.102295795398 0.00816827297846 -1.02912308128e-22)
(-0.10085178343 0.0173579316372 -4.5592108214e-23)
(-0.103364000958 0.0138202519821 -6.90736996329e-23)
(-0.102142493096 0.0237424500607 -1.33501396819e-23)
(-0.104701890106 0.0197935131459 -3.84622836708e-23)
(-0.103744616666 0.0306708596563 -1.73491368189e-23)
(-0.106413977271 0.0262552999572 -1.96376958118e-23)
(-0.105632510496 0.0383140649139 -2.24073447955e-23)
(-0.108536651605 0.0333762309658 -1.98790381204e-23)
(-0.107751124562 0.0468219210608 -1.13080976395e-23)
(-0.110979808505 0.04130583183 -8.75293868311e-24)
(-0.110022753911 0.0564256871313 -3.55096313144e-23)
(-0.113750989153 0.0502456272971 -9.23477599863e-25)
(-0.112318131617 0.0673422013793 -4.12541990731e-23)
(-0.116722487934 0.0604521529733 -5.86079197372e-23)
(-0.11978085245 0.0721736700901 7.74759134862e-25)
(-0.104867152718 0.00515969127955 -5.52521369562e-23)
(-0.107473750263 0.00247018023773 -6.61798619712e-23)
(-0.105535715036 0.0104620692439 -9.63596105081e-23)
(-0.107674522154 0.00736210898416 -1.90587416954e-22)
(-0.10690162225 0.0160264598689 -6.19438750897e-23)
(-0.10900730963 0.0125179996081 -6.62157995083e-23)
(-0.108663014974 0.0219966091352 -4.47498398007e-23)
(-0.110749663355 0.0179995879765 -5.28630166827e-23)
(-0.110894972491 0.0285242274866 -2.21675971133e-23)
(-0.113013966173 0.0239865380637 -2.78084465167e-23)
(-0.113599770593 0.0357841431762 -6.22463200794e-24)
(-0.115859034549 0.0306559622945 -1.10396951855e-23)
(-0.116731646305 0.0440463349429 1.63168135656e-24)
(-0.119290061487 0.0381700414704 5.16692009711e-24)
(-0.120224783917 0.0534714266545 -2.40217660226e-23)
(-0.123202248375 0.0467531203931 1.10387320829e-23)
(-0.123997344454 0.064308338786 -1.65789615293e-23)
(-0.127557992312 0.0566821968713 -2.719851988e-23)
(-0.132308392327 0.0682187101337 5.90718771315e-24)
(-0.109888573191 0.0045696975162 -2.01515141969e-22)
(-0.112119162936 0.00217716645754 -8.03751374803e-23)
(-0.110754021657 0.00928514643409 -1.60443605954e-22)
(-0.11247215168 0.0063676853132 -1.66533380411e-22)
(-0.112462951233 0.014283457331 -5.71349411013e-23)
(-0.11408876734 0.0108719591322 -4.86731722246e-23)
(-0.114710976397 0.019689136671 -3.59216233986e-23)
(-0.116235117477 0.0157090138105 -1.78501037539e-23)
(-0.117598801303 0.0256886073166 -1.66805445888e-23)
(-0.119085398002 0.0210545401471 -1.98516199148e-23)
(-0.121156248271 0.0324680486269 3.51856919595e-25)
(-0.122697629171 0.0270790076324 -7.65182784549e-24)
(-0.12535218907 0.0402068296179 1.45739708234e-23)
(-0.127070445008 0.0339686502339 -1.77739652417e-24)
(-0.130140905953 0.0491661517224 7.86197822547e-24)
(-0.132179472011 0.0419635051933 1.72364837712e-23)
(-0.135489274863 0.0596204127961 -4.71237063761e-24)
(-0.138004527433 0.0513354986514 -9.55277085701e-24)
(-0.144526632101 0.0623686326436 -1.12354132421e-23)
(-0.114247537917 0.0038589517066 -4.53933759227e-23)
(-0.11605622301 0.00181961338557 1.87335619458e-23)
(-0.115329200155 0.00784574753465 -5.47629466818e-23)
(-0.116541054795 0.00518296723542 -1.13743601873e-22)
(-0.117382940252 0.0121196179754 -9.38833487722e-24)
(-0.118443590353 0.00888688139073 -1.25423166936e-23)
(-0.120121365003 0.0168080706787 -1.78010027002e-24)
(-0.120998749246 0.0129234106013 8.40227603672e-24)
(-0.123678082335 0.022074237752 -1.08229031714e-23)
(-0.124416235513 0.0174489053205 -1.21594172911e-23)
(-0.128094197546 0.0281135535199 -9.78108128925e-24)
(-0.128786240415 0.0226410389416 1.43917211768e-24)
(-0.133364904581 0.0351407993813 8.85116423612e-25)
(-0.134127551434 0.0286910784164 -1.22477311455e-23)
(-0.139494792351 0.0433854128051 -1.78265311281e-25)
(-0.140431034322 0.0358328795059 1.72916057362e-23)
(-0.146484238771 0.0531601542709 -1.60758134615e-23)
(-0.147766806599 0.0443470013484 -3.23158106748e-25)
(-0.15611994795 0.054533320717 -1.2486076055e-23)
(-0.117833445336 0.00300201281333 -4.96166640044e-23)
(-0.119132304573 0.00138269691539 8.66293406019e-23)
(-0.119102295046 0.00613399837888 -7.15229718846e-23)
(-0.119747885947 0.00379619551971 -1.05262195221e-22)
(-0.121488954014 0.00951673805354 5.2482942203e-24)
(-0.121897355759 0.00656383812713 2.2838830845e-23)
(-0.124709847273 0.0133078439366 -1.97704098439e-24)
(-0.124852315855 0.00965138837376 4.67521274977e-23)
(-0.128917626635 0.0176634805436 1.02657997943e-25)
(-0.128821036277 0.013187624514 1.05943914895e-23)
(-0.134181762965 0.0227687916053 -1.02747773862e-24)
(-0.133923311265 0.0173527619605 -4.2847896881e-24)
(-0.140528269162 0.0288294624568 4.158758167e-24)
(-0.140200355926 0.022337113011 2.50050267802e-24)
(-0.148001456828 0.0361098659671 1.71467129407e-23)
(-0.147705631984 0.0283595150561 -1.24353279908e-23)
(-0.156658650381 0.0448708174422 3.26657929977e-24)
(-0.156516746505 0.0356913126538 1.6178017036e-23)
(-0.166729211756 0.0446411748711 2.97290629657e-23)
(-0.120471201595 0.0020080707059 3.09838093853e-23)
(-0.121203289881 0.000875722888352 1.09487794108e-22)
(-0.121928519855 0.00415094032629 -1.09003924914e-23)
(-0.121950450037 0.00222060874307 -1.79009485405e-22)
(-0.124620530686 0.00652298861191 6.43426641224e-23)
(-0.124322007183 0.00392348417979 2.75523069433e-23)
(-0.128295345589 0.00926506619061 5.93235599716e-23)
(-0.127635186441 0.00591823503592 8.22421797447e-23)
(-0.133119558461 0.0125326046355 6.20694380349e-24)
(-0.132113250766 0.00830646489994 2.36084012136e-23)
(-0.139184909939 0.0164900075906 -7.56809271458e-25)
(-0.13788681061 0.0112611720985 4.84267642284e-23)
(-0.146558909274 0.0213312359215 -1.40935834798e-23)
(-0.145030181038 0.0149548846112 6.79729098435e-24)
(-0.155331260749 0.0272939642955 -1.34040238956e-23)
(-0.153650338644 0.0195858516538 -7.8558396996e-24)
(-0.165632570833 0.0346516395635 4.26405007019e-23)
(-0.163877419832 0.0253945375227 3.86129852794e-23)
(-0.175906467714 0.0326831267196 7.68596537681e-23)
(-0.122046062628 0.000905509431716 -1.00505500683e-22)
(-0.122153231637 0.000320293025572 8.50022071505e-24)
(-0.123671837217 0.00193602253168 -1.4055678597e-22)
(-0.123017524603 0.000483602373889 -2.0915792157e-22)
(-0.126634176049 0.00317137359691 4.54518225656e-23)
(-0.125582901728 0.00100421370339 1.60448955811e-23)
(-0.130709664576 0.00472615402864 4.65270209867e-23)
(-0.129199934596 0.00177712524509 5.9753583107e-23)
(-0.13608260592 0.00673201528345 6.58282216385e-23)
(-0.134110175349 0.002872540475 5.76942212005e-24)
(-0.142871547464 0.00933933233862 5.59808644842e-23)
(-0.140466606631 0.00444536976346 1.02494444801e-22)
(-0.151182384583 0.0127301593636 1.30350347646e-23)
(-0.148381072049 0.00663680109964 4.43590886244e-23)
(-0.161155677032 0.0170969685823 4.41611694754e-23)
(-0.157990539858 0.00961229068527 -1.70814860143e-23)
(-0.172994400697 0.0226741492326 7.28321383457e-23)
(-0.16949069012 0.0135611570675 7.63278779071e-23)
(-0.183165040088 0.0187548300264 1.25075399711e-22)
(-0.12244212641 -0.000288097684781 -1.00152200172e-22)
(-0.121884259295 -0.000279443888515 -5.29584564757e-24)
(-0.124205926286 -0.000473428838072 -5.25562400186e-23)
(-0.122838432686 -0.00138580373279 3.93988854537e-23)
(-0.127389874817 -0.000494673014229 3.03466561224e-23)
(-0.125552352433 -0.00214407273246 4.82376909749e-23)
(-0.13179487397 -0.000258192137424 1.89959842403e-23)
(-0.129407227567 -0.00269970220412 7.62038448293e-23)
(-0.137625594658 0.000343853550867 4.24356452821e-23)
(-0.134661437822 -0.00302156033272 -4.88189002348e-24)
(-0.145027285043 0.00142919280896 9.08726689408e-23)
(-0.141483979556 -0.00298314122694 3.28415431105e-23)
(-0.154140917315 0.00314086830824 1.42425678455e-23)
(-0.150020865747 -0.002483067977 6.41004952043e-23)
(-0.165158155163 0.00561749916442 1.50852224174e-23)
(-0.160438778621 -0.00140336770142 -2.50697536338e-23)
(-0.178350406369 0.00904501299045 1.28571139272e-22)
(-0.173010399984 0.000373295575207 6.81440781212e-23)
(-0.188082924869 0.0030523446371 1.92901707137e-22)
(-0.121560302307 -0.0015624284073 1.34255239979e-22)
(-0.120310422603 -0.000915706452972 1.44700451818e-22)
(-0.123426381636 -0.00304002304242 1.40192816447e-22)
(-0.121331656894 -0.00335308392921 1.11348651019e-22)
(-0.126770879603 -0.00440682012497 9.40948796818e-23)
(-0.124135851148 -0.00546043818343 1.4404890721e-22)
(-0.131418849326 -0.0055908911951 5.23259705655e-23)
(-0.12814883549 -0.0074247535706 9.10817572869e-23)
(-0.137593736385 -0.00651689330594 -1.44759921951e-23)
(-0.133637107463 -0.00926356614771 -1.99002120885e-23)
(-0.145461519659 -0.00710343859479 6.06936937411e-24)
(-0.140785004249 -0.0108803107239 2.09180038935e-23)
(-0.155187665058 -0.00726486572162 2.4788173725e-23)
(-0.149755100224 -0.0122184451475 2.28521735436e-23)
(-0.167015043362 -0.00692850744396 2.798910207e-23)
(-0.160754322147 -0.0132328120957 1.0696886473e-22)
(-0.181286546948 -0.00601996307723 1.32474645987e-22)
(-0.174088411307 -0.0138981132765 3.39376516967e-24)
(-0.190201437293 -0.0141049622582 -2.07782249571e-23)
(-0.119339072189 -0.00289042865973 1.21793862859e-22)
(-0.117375864375 -0.00157028347767 1.51688239032e-22)
(-0.121263301575 -0.00571253240156 1.15204741782e-22)
(-0.118443464131 -0.00537540069781 1.60983801559e-22)
(-0.124694084878 -0.00848235262498 1.41035784815e-22)
(-0.121274326557 -0.00887317188996 2.29179188876e-22)
(-0.129483586021 -0.0111574379894 1.88555746329e-23)
(-0.125352633689 -0.0122972540406 1.20415190249e-22)
(-0.135866359825 -0.0137033739979 1.54937840001e-23)
(-0.130944293604 -0.0157171461674 -4.24256736764e-23)
(-0.144021476735 -0.0160787568745 3.7700808063e-23)
(-0.138253537328 -0.0190681226697 2.41368202779e-23)
(-0.15413493773 -0.018254863245 1.05032864549e-22)
(-0.14744611204 -0.0223433416902 6.45859085615e-24)
(-0.16647837116 -0.0202579232481 8.23735278298e-23)
(-0.158748474657 -0.0255805334154 3.77057412172e-23)
(-0.181436439323 -0.0221149550458 -1.49859105774e-22)
(-0.172490193152 -0.0288605625897 2.40563218103e-23)
(-0.189125215899 -0.0321885841911 -5.57918420526e-23)
(-0.115740834624 -0.00423092915116 1.90878177732e-22)
(-0.113070354069 -0.00222833897661 1.80552692618e-22)
(-0.117675446392 -0.00842832441968 2.74958248653e-22)
(-0.114146640523 -0.00740362453147 1.59163645643e-22)
(-0.121110925328 -0.0126349710371 2.0855859431e-22)
(-0.116937892728 -0.0122994445848 2.32160418536e-22)
(-0.125927640994 -0.01684327025 5.91339419396e-23)
(-0.120980705012 -0.0172028651825 7.43193391551e-23)
(-0.132362983285 -0.0210548611133 -3.37826373986e-23)
(-0.126542268937 -0.0222278544128 -5.22603887822e-23)
(-0.140606062338 -0.0252879523688 -7.10539692897e-24)
(-0.133827425762 -0.0273478236123 -4.85131597769e-24)
(-0.150855791342 -0.0295588541992 -6.08685324755e-23)
(-0.143021868171 -0.0326075369162 -1.24864886445e-23)
(-0.16338195699 -0.0340001959066 -2.06114648024e-23)
(-0.154330958141 -0.0381155417412 -6.71893412003e-23)
(-0.178561129014 -0.038755417028 1.18123585532e-22)
(-0.168079386389 -0.0440550314934 9.04569563655e-23)
(-0.184699917781 -0.0505518846656 -5.16533666374e-23)
(-0.110759020584 -0.00555485718265 1.48838160529e-22)
(-0.107417908488 -0.0028763085204 1.48764710602e-22)
(-0.112652655156 -0.0111163495622 1.16365815526e-22)
(-0.108461474572 -0.00938618955971 -9.64146520834e-23)
(-0.116005176639 -0.0167562529146 9.79211633809e-23)
(-0.111139549493 -0.0156526307652 1.43645688889e-22)
(-0.12072588493 -0.0225008570533 -3.70749915667e-23)
(-0.115039333436 -0.0220172433253 -3.09613965617e-23)
(-0.127054057061 -0.0283966190403 -2.33290673613e-23)
(-0.120421461169 -0.0286344308395 -4.38752315255e-23)
(-0.135184969173 -0.0344954619337 -1.02324076933e-23)
(-0.127506261415 -0.0355183413268 -6.04588316318e-24)
(-0.145308101438 -0.0408891354401 -1.88072973694e-23)
(-0.136463665336 -0.042748489533 1.87849137251e-23)
(-0.157678649685 -0.0477605859733 4.38790799675e-23)
(-0.147478659424 -0.0504982297252 3.91766830543e-24)
(-0.172648218507 -0.0553708304989 -7.93199958037e-23)
(-0.160862304859 -0.059039420015 4.43969601176e-23)
(-0.176973294177 -0.0685770243828 -1.24818059581e-22)
(-0.10442759043 -0.00684158152406 -9.64881020109e-23)
(-0.100461140167 -0.00349220591695 -1.76152269593e-23)
(-0.106226766658 -0.0137300379781 -6.91347787197e-23)
(-0.101430157171 -0.0112710653303 -1.41440075168e-22)
(-0.10940760025 -0.020747489133 1.47631289466e-23)
(-0.103936818494 -0.0188454515053 -7.98973578715e-24)
(-0.113901923771 -0.0279878720794 -3.77616365205e-23)
(-0.107572334411 -0.0266100167595 -8.87141755625e-23)
(-0.119951672476 -0.0355369554888 -2.65920473274e-23)
(-0.112628188521 -0.0347660681873 -7.45910590849e-23)
(-0.127741904975 -0.04348798372 2.29714382552e-23)
(-0.119299790373 -0.0433524609217 -9.58773369799e-24)
(-0.137474574005 -0.0519283074209 4.15098793999e-23)
(-0.127732602345 -0.0525032651968 2.33786106638e-23)
(-0.149396264729 -0.0611643419632 4.43554845546e-24)
(-0.138231279712 -0.0624358813735 -2.13017757095e-23)
(-0.163754808093 -0.071524682111 -1.10110365954e-24)
(-0.150976753473 -0.0734153426275 -5.76399747584e-23)
(-0.166099746707 -0.08575010798 -7.9609581172e-23)
(-0.0968275767086 -0.00803534490682 -6.25672001166e-23)
(-0.0923005825033 -0.00404716867897 -1.81427223885e-22)
(-0.0984670020789 -0.0161571415293 -8.02950322356e-23)
(-0.0931442739076 -0.0129922367903 -9.38007220792e-23)
(-0.101370696413 -0.0245028010116 -1.11467040296e-22)
(-0.0953854526699 -0.0217707018535 -5.25991472817e-23)
(-0.10548715044 -0.0331484455307 -1.25543598127e-22)
(-0.0986225613739 -0.0308285887424 -6.20986769856e-23)
(-0.111051709751 -0.04227555544 -5.75867454555e-23)
(-0.103159317758 -0.0404165525601 -5.65973056863e-23)
(-0.118266637554 -0.0519597905286 -9.18056128934e-24)
(-0.109143992117 -0.050616300646 -8.41614921645e-24)
(-0.1273845968 -0.0624551837544 -3.94330444456e-23)
(-0.116907944412 -0.0616488377935 -1.06759619019e-22)
(-0.138579605352 -0.0739582683279 -8.33772989234e-23)
(-0.152021466065 -0.0867196182189 -1.36148452271e-22)
(-0.0880699061852 -0.0091104580736 -2.12660745848e-22)
(-0.0894626460835 -0.0183369823281 -6.61048371253e-23)
(-0.091959909849 -0.0278140715771 -3.23078397102e-24)
(-0.0955194599132 -0.0377994868035 6.84761545495e-24)
(-0.100397706378 -0.0483275616583 -7.42670944728e-24)
(-0.0920312151452 -0.0453836283189 -3.18154817346e-23)
(-0.106822839525 -0.0597598365963 -1.05995206946e-22)
)
;

boundaryField
{
    back
    {
        type            calculated;
        value           uniform (0 0 0);
    }
    sides
    {
        type            calculated;
        value           nonuniform List<vector> 0();
    }
    bottom
    {
        type            calculated;
        value           uniform (0 0 0);
    }
    front
    {
        type            calculated;
        value           uniform (0 0 0);
    }
    atmosphere
    {
        type            calculated;
        value           nonuniform List<vector> 0();
    }
    floatingObject
    {
        type            calculated;
        value           nonuniform List<vector> 0();
    }
    procBoundary4to0
    {
        type            processor;
        value           nonuniform List<vector> 8((-0.0843690937289 0.00305779641018 -2.41561036531e-23) (-0.084056569533 0.00934930415662 -4.42547884131e-23) (-0.0844045791291 0.0157516401091 3.58340878725e-23) (-0.0846501520176 0.022386251931 -1.95434386371e-23) (-0.084870266572 0.029405407914 -2.94578554623e-23) (-0.0850682812095 0.0369056611406 8.51955258467e-24) (-0.0851672719944 0.0450063616893 -1.87749879795e-24) (-0.0850578860779 0.0538348218707 2.6230122594e-23));
    }
    procBoundary4to3
    {
        type            processor;
        value           nonuniform List<vector> 
13
(
(-0.126663766072 -0.073653209751 -2.57840013671e-22)
(-0.138386370396 -0.086878107684 -4.03706501781e-22)
(-0.152457835909 -0.10167105524 -5.28879929714e-22)
(-0.0830659221774 -0.00452100164401 -2.57424010203e-22)
(-0.0837562680173 -0.0144598590646 -3.6430780186e-23)
(-0.0855607101136 -0.0242958555122 4.87210892934e-23)
(-0.0882760908676 -0.0344914071505 -8.04222708112e-25)
(-0.0972624186732 -0.0570971044422 -7.12015341028e-23)
(-0.115044565609 -0.0722626482292 -3.25166588245e-22)
(-0.103974059695 -0.0699064492095 -5.05455935965e-22)
(-0.0840806220713 -0.0416565471099 -3.94673198977e-23)
(-0.0880134025964 -0.05363157599 -9.55903063901e-23)
(-0.0794425576586 -0.049398248036 2.1366730324e-23)
)
;
    }
    procBoundary4to5
    {
        type            processor;
        value           nonuniform List<vector> 
18
(
(-0.0897437993538 0.0585962402724 -2.44836098689e-23)
(-0.0997913839247 0.0580895684234 -2.60726230115e-23)
(-0.105788257012 0.0627456990947 -5.40176209778e-23)
(-0.107294138531 0.0743490937013 -1.80673818072e-23)
(-0.114496749236 0.0798503246233 -6.17375872763e-24)
(-0.127956906137 0.0768588760545 3.32056915081e-23)
(-0.14134264079 0.0718640408323 2.05555173026e-24)
(-0.154321712394 0.0647753675193 -1.22767280361e-23)
(-0.166555708157 0.0554850995082 2.82632513417e-23)
(-0.177599713078 0.0437942618436 5.45608444274e-23)
(-0.186934612097 0.0298272199747 2.12023627162e-22)
(-0.194063546634 0.0137524260952 9.34106304093e-23)
(-0.198437719962 -0.00424365156302 3.61599293681e-23)
(-0.199510797747 -0.0236746631959 -1.64267699992e-22)
(-0.196900232536 -0.0437957522587 1.37922794062e-22)
(-0.190657804989 -0.0638344087087 2.93234167565e-23)
(-0.180909438789 -0.0831303868082 6.46004680463e-23)
(-0.167928237592 -0.101275125489 -1.07423045249e-22)
)
;
    }
}


// ************************************************************************* //
