/*--------------------------------*- C++ -*----------------------------------*\
| =========                 |                                                 |
| \\      /  F ield         | OpenFOAM: The Open Source CFD Toolbox           |
|  \\    /   O peration     | Version:  v2012                                 |
|   \\  /    A nd           | Website:  www.openfoam.com                      |
|    \\/     M anipulation  |                                                 |
\*---------------------------------------------------------------------------*/
FoamFile
{
    version     2.0;
    format      ascii;
    class       volVectorField;
    location    "2.3";
    object      ddt0(rho,U);
}
// * * * * * * * * * * * * * * * * * * * * * * * * * * * * * * * * * * * * * //

dimensions      [1 -2 -2 0 0 0 0];


internalField   nonuniform List<vector> 
1984
(
(5.05912308959 -5.05235242753 1.30574786554e-19)
(4.63492108201 -15.7738016321 -8.08712136473e-19)
(4.85005029634 -25.5896527222 -8.59402032796e-20)
(5.20168056248 -36.3914795911 7.79920323072e-20)
(5.6103242864 -47.7840961955 6.02538979255e-20)
(6.11802926341 -59.9923525316 -2.3293829893e-19)
(6.76019840217 -73.2140654556 7.3370709317e-20)
(7.55356909499 -87.6965588196 -8.67969693523e-19)
(8.52424966057 -103.732115107 -1.35238805396e-18)
(9.72092381934 -121.593869414 -2.34397156138e-18)
(11.1991349046 -141.623653599 6.36431663732e-20)
(13.0698875401 -164.358112287 -4.38495565106e-19)
(15.5342216557 -190.606262813 -5.57550587778e-20)
(18.8649635551 -221.634739804 -1.02768541952e-18)
(23.6372340517 -257.685881513 -8.66869397078e-19)
(28.2951911778 -311.865708409 2.67473534717e-19)
(39.4477263874 -379.398315307 1.62554072126e-17)
(64.7199593957 -310.344823434 1.31409262982e-17)
(30.9517269029 -56.7949403719 -2.04039200349e-17)
(-45.1190129561 75.4732012755 1.23310580838e-17)
(15.4900987875 -4.47064474278 4.20080977199e-19)
(15.1251866034 -14.9472974922 -2.51599463555e-21)
(15.6334584549 -24.6511445688 4.68948588741e-19)
(16.4861105013 -35.2279115098 5.45392539818e-19)
(17.5939305344 -46.3096760301 2.31085381234e-18)
(19.007787417 -58.1454292671 8.45251244783e-19)
(20.7941387728 -70.9570783749 1.75958839268e-18)
(23.0111240119 -84.9896065779 1.53730148593e-19)
(25.755545926 -100.505039329 -1.03939349855e-18)
(29.1033075041 -117.755149668 1.93867323413e-18)
(33.2362315387 -137.039476753 5.63771589927e-19)
(38.3728595555 -158.81744697 1.22804576875e-18)
(44.8714936319 -183.749869701 1.08379553945e-18)
(53.187026981 -212.91595651 -8.61925133389e-19)
(64.3951397787 -245.438160734 6.19376447377e-20)
(77.5735102343 -293.248730235 9.61702127733e-18)
(98.3493405473 -355.286365474 2.34655962824e-18)
(121.953423508 -277.725084462 -9.03671758015e-18)
(45.818135395 -41.1653004257 -1.01821762611e-17)
(-34.0963354582 -3.11143984519 -7.780569973e-19)
(24.4673030135 -4.29627015512 9.23772682067e-19)
(24.3400613308 -14.4591328557 -2.64849187334e-18)
(25.1302123953 -23.7767182124 1.55734476947e-19)
(26.4047757628 -33.9587866165 3.30701131179e-19)
(28.1346520771 -44.5928585411 3.81674688231e-19)
(30.3814954513 -55.9401237067 -3.21214145994e-19)
(33.2317707409 -68.2006612569 -2.78145087407e-21)
(36.7901242593 -81.5730688577 -5.32953781279e-19)
(41.1781566272 -96.3288645702 -3.54869946405e-19)
(46.5825948366 -112.66192036 5.71183281604e-19)
(53.170419308 -130.781344141 5.38092895385e-20)
(61.2774327592 -151.076965553 -4.91351393637e-19)
(71.3571062994 -174.039619902 -3.5554411384e-19)
(83.9056790459 -200.696204864 2.70097749813e-19)
(100.444248328 -229.618166772 3.7608037064e-19)
(119.852602669 -272.75318801 1.4876934153e-17)
(143.895768447 -326.578891682 7.89076264243e-17)
(142.058390632 -256.56701261 -5.13818880564e-18)
(41.8981205379 -41.1464485152 -3.05195531137e-17)
(-7.14025485968 -5.37549623944 1.43346326568e-18)
(33.6146714321 -4.10783871629 -1.03234443497e-20)
(33.6411438612 -13.8331823371 -6.56736151211e-19)
(34.6995304639 -22.606672479 3.42613713038e-19)
(36.3895703302 -32.2542377821 2.54636082031e-19)
(38.6876136188 -42.2952554605 7.44931662536e-20)
(41.6849732161 -52.9689918226 -3.72123727414e-19)
(45.493843667 -64.4501126071 -1.62954447547e-19)
(50.2538772661 -76.9287926284 2.36400333156e-19)
(56.1236332506 -90.5785528722 1.62548098737e-19)
(63.339941093 -105.61447793 -2.02572880408e-19)
(72.1345393986 -122.192898292 -1.30198752706e-19)
(82.8362698302 -140.497601728 -1.7724883739e-19)
(95.9956923725 -160.878805729 2.09018071641e-19)
(112.097666789 -184.223593346 -9.15479806679e-19)
(132.774997323 -208.504960288 1.75869588464e-19)
(157.066883301 -244.963223208 -6.54874478614e-18)
(186.232919799 -285.300157641 -4.39737074924e-18)
(174.008959038 -213.532553225 -8.68235217374e-18)
(58.8026373014 -32.4341152964 -4.91438828254e-18)
(3.18474809537 -2.0818283035 -1.29662074748e-19)
(42.2350812846 -3.84352410359 1.29123259097e-18)
(42.3351644906 -12.9674726551 -2.32085105153e-18)
(43.6113223028 -21.1077579447 -2.14815962355e-19)
(45.6608876219 -30.0781947814 2.81820838186e-19)
(48.4570901169 -39.3653066517 1.14814437236e-19)
(52.0903560685 -49.186960793 -1.09471742989e-19)
(56.7064413927 -59.6897191272 -5.97615746312e-20)
(62.4637785258 -71.0120481043 2.27563216251e-20)
(69.5808738964 -83.3186656513 1.06210044108e-19)
(78.2626883251 -96.7286209696 -1.50035869292e-19)
(88.8540956947 -111.374589009 9.33895467231e-21)
(101.63811926 -127.359899844 -3.98022790441e-19)
(117.197672708 -144.819221715 -3.02039302876e-19)
(135.933575194 -164.589955639 -1.18860629321e-18)
(159.362184761 -184.317749884 -5.83093648595e-19)
(186.524717985 -214.931709122 -3.38563614104e-18)
(216.346805523 -249.787903766 4.82798843843e-17)
(192.411890664 -191.289678356 -3.76849840409e-18)
(50.6966900404 -32.8751741127 -1.36773406881e-17)
(2.66583615883 -1.16065206193 2.70486527795e-20)
(50.3039150646 -3.49136895403 5.60102652982e-19)
(50.4229818221 -11.9381956214 -1.08182466784e-18)
(51.8731053564 -19.3358379131 -1.06603482398e-19)
(54.2123414515 -27.5085991366 2.15509038649e-19)
(57.4029739686 -35.917480416 1.10979190341e-19)
(61.5406669311 -44.7496879751 2.65255878762e-20)
(66.7823708121 -54.1071429015 2.1195844012e-21)
(73.3159644302 -64.091874485 1.13274455132e-20)
(81.360289601 -74.8296343032 -5.02495271125e-20)
(91.1885202483 -86.3947673227 4.02934232934e-20)
(103.109845523 -98.869118139 1.39833722622e-20)
(117.477702298 -112.257252975 -1.94557196885e-20)
(134.833283288 -126.583963501 -3.02931217624e-19)
(155.487096401 -142.721957863 -5.83063652813e-19)
(180.939461399 -157.988906804 -1.59229493571e-18)
(209.814856631 -183.359497432 1.00453292428e-18)
(239.40575519 -208.318492619 1.9975305066e-17)
(211.980469526 -152.977496369 -9.14446605461e-18)
(52.0045708145 -21.9135842579 -8.69952918018e-18)
(1.63755533808 -0.306914545092 -1.35007259763e-19)
(57.6945748979 -3.08623578384 4.29052760041e-19)
(57.7824334824 -10.7800447617 -1.57863813925e-19)
(59.367923888 -17.3684605115 4.91844337398e-19)
(61.9177343479 -24.6560981027 2.75937288342e-19)
(65.3874623791 -32.0837351845 3.80777758294e-20)
(69.8810802624 -39.8250997472 3.82756628019e-20)
(75.5605538671 -47.9281775652 -4.39987804123e-20)
(82.6245086787 -56.4508529417 -3.50094246239e-20)
(91.2993029744 -65.4716960069 9.01384380609e-20)
(101.881030508 -75.0140254711 -2.14818372358e-19)
(114.710737725 -85.1212462079 5.31039505645e-20)
(130.165752843 -95.7244268151 -2.05642853418e-19)
(148.7548517 -106.785164228 -5.70395402727e-19)
(170.756277984 -119.227870702 -5.13253568934e-19)
(197.807251909 -130.347248531 -3.08071826092e-18)
(228.228374548 -151.629440065 2.15827118054e-17)
(258.176155581 -170.914870122 3.6513442157e-17)
(230.08096709 -115.985814013 -9.86391079594e-19)
(52.537055596 -10.421663469 -7.0555802124e-18)
(0.912704198166 0.096858604245 9.95740183244e-20)
(64.3271078972 -2.65398170813 7.39744347091e-19)
(64.34612639 -9.53364997509 -2.17335503825e-18)
(66.0220664099 -15.2598300982 -1.14379114803e-19)
(68.7084572955 -21.6136473566 2.84600064066e-19)
(72.3494389749 -28.0047774925 1.23020074704e-19)
(77.0474011668 -34.5921342376 4.98085596544e-21)
(82.9805548879 -41.3738380454 1.18829678638e-20)
(90.3276341036 -48.3652872994 -5.85519186523e-20)
(99.3340646952 -55.5880697363 1.70973204319e-20)
(110.309342133 -63.0023325587 -2.32516053288e-20)
(123.601899669 -70.6089216193 -9.10291415779e-20)
(139.630073049 -78.2953017805 -3.62932578463e-19)
(158.878295117 -85.9629158042 -2.75411904017e-19)
(181.690978524 -94.4993578056 -3.13628283902e-18)
(209.935646547 -101.256429856 -2.43944475705e-18)
(242.082433548 -117.14727294 1.140982508e-17)
(275.885988447 -127.751483439 4.69664324804e-17)
(246.796590574 -79.5974963927 -6.58589688542e-18)
(51.1311454659 -3.89782751579 -1.54902613189e-17)
(0.362804441242 0.247185479484 -7.93194469143e-20)
(70.1487162041 -2.20471568075 1.72627689697e-19)
(70.0760364443 -8.23949260392 -8.42307952298e-19)
(71.7852036844 -13.0777867984 1.46225548806e-19)
(74.5422562015 -18.4731668427 4.50676467501e-19)
(78.2494438972 -23.803808407 1.32459302346e-19)
(83.0159233866 -29.2115174384 7.81100859974e-20)
(89.0139649349 -34.6585623594 -3.28775993441e-20)
(96.4161100112 -40.1090616465 2.02157210507e-20)
(105.470032426 -45.5041064509 -1.2271798475e-20)
(116.481668887 -50.7640252469 -5.31633210048e-20)
(129.78889783 -55.823823623 8.14561102244e-20)
(145.841737194 -60.5283258647 -2.90941787942e-19)
(165.111333505 -64.6996593061 -4.68448796576e-21)
(188.039369971 -69.0465004392 -6.3122486375e-19)
(216.620241632 -70.7875826807 -1.16671249455e-19)
(249.628021295 -79.3490878953 -5.86836926252e-18)
(286.986662564 -77.0526675813 -5.72774479417e-19)
(250.443642364 -33.6937502914 -7.43974538123e-18)
(45.7717454362 5.28274457814 -5.39306773493e-18)
(-0.375666688801 0.563898435225 -9.85030717984e-20)
(75.1265976498 -1.74994946986 9.55884367221e-20)
(74.9384346893 -6.93715407303 -2.53085398799e-18)
(76.6383680285 -10.8787474857 -4.81407769456e-19)
(79.3946121458 -15.3136139587 1.64133407099e-19)
(83.0740597943 -19.5975984015 8.37793332073e-20)
(87.7820200165 -23.8467677246 6.79396286119e-21)
(93.6754604507 -27.985074459 7.89957350498e-21)
(100.92642134 -31.9215036404 5.69939975724e-22)
(109.761293952 -35.5351157267 4.11084809863e-20)
(120.453264324 -38.7001049332 -1.57435725597e-20)
(133.334334284 -41.2709671906 4.55194347245e-21)
(148.839173044 -43.0520933641 -5.5216123223e-20)
(167.426284363 -43.7603843439 -1.97738923697e-19)
(189.579421224 -43.8555406039 -3.56165935587e-19)
(217.147288658 -40.3744097646 1.06584664268e-19)
(248.976218779 -40.5645831357 8.53866365958e-19)
(285.115996392 -25.7061611199 1.01357433624e-17)
(235.546425041 12.9183775327 -4.44245627714e-18)
(32.7525330844 14.3493571604 -1.2475576737e-17)
(-2.72207566239 1.33734065909 -4.885232042e-20)
(79.2523796841 -1.30171721058 4.36525807937e-19)
(78.9251383263 -5.65206592749 5.57894259929e-19)
(80.5829561709 -8.71996152626 4.9280073961e-19)
(83.2735931431 -12.2208856052 1.33077425401e-19)
(86.8417566927 -15.4904470537 8.83696136535e-20)
(91.3781307055 -18.6316675691 6.87323559823e-21)
(97.0260026021 -21.5246272183 -3.95701547637e-21)
(103.937715537 -24.0316326847 -6.38566706396e-21)
(112.304764888 -25.9870479399 -1.86620814955e-20)
(122.355315941 -27.2064315528 -1.24558344471e-20)
(134.380660809 -27.4611305555 1.31161407319e-20)
(148.779501224 -26.5135073907 -2.00537475891e-20)
(165.980240548 -23.9914391257 -2.30717758367e-19)
(186.463764734 -20.117019199 4.14574874234e-19)
(211.796069297 -12.0691629888 5.36065882642e-19)
(240.740180251 -5.65722826073 -6.00706128523e-18)
(272.972051684 14.8097536961 2.50320126353e-18)
(215.330342536 44.0790951606 2.15132969326e-18)
(29.3524542804 19.1621522891 -1.08096479471e-17)
(-10.2053042301 4.98937379834 -1.66562785246e-19)
(82.5370367139 -0.871970844933 1.01201908585e-18)
(82.0515277613 -4.4135036665 -8.17817914266e-19)
(83.6398274007 -6.64275357371 2.95468731346e-19)
(86.2146942359 -9.25768141743 2.69238880955e-19)
(89.6024125072 -11.5738291069 9.43546221098e-20)
(93.8753417111 -13.6854392356 1.16787700601e-20)
(99.1585273973 -15.4358080341 3.38097246288e-20)
(105.571683735 -16.6524118823 1.29430200559e-20)
(113.245684177 -17.1295939969 4.75365006456e-21)
(122.372020325 -16.6365687713 3.29614068975e-20)
(133.174117064 -14.8698368415 -2.65934856444e-20)
(145.964903936 -11.5304029056 1.56079145884e-20)
(161.113139292 -6.16683419965 -2.53472310376e-19)
(179.104272868 1.29132452225 -1.04047511221e-19)
(201.302000876 13.3419276152 -2.31035344269e-19)
(226.892505558 25.4295032396 3.19888449039e-18)
(257.519497984 51.7255814603 7.65692627495e-18)
(196.114000377 74.6888725387 -9.79418279308e-18)
(33.653768279 18.3184929973 5.62873170518e-18)
(-7.43547663714 -14.067446515 2.54113885281e-19)
(85.0157301467 -0.467762077922 7.38631455455e-19)
(84.3625785454 -3.23880654835 -2.30441682627e-18)
(85.8597124678 -4.68544257233 -2.56218842536e-19)
(88.274497222 -6.47923004534 1.75356935823e-19)
(91.4261480518 -7.9181299765 1.19913455052e-19)
(95.3635682129 -9.10221982997 2.7514600566e-20)
(100.18443807 -9.83952467644 2.23752358174e-21)
(105.966174738 -9.95396559335 3.31670917551e-20)
(112.78472872 -9.19715802221 1.22252469645e-19)
(120.766992442 -7.28731232576 1.00729682497e-20)
(130.051423017 -3.88971506323 7.75110005457e-21)
(140.82735341 1.35383208274 1.75115819448e-19)
(153.354393129 8.99558827342 -1.29572313032e-19)
(168.030361076 19.5402525106 2.14658281873e-19)
(185.94230833 35.3888579422 2.01905941353e-18)
(206.75537775 54.3797513846 1.16117842869e-17)
(233.698436842 92.9792085801 -3.23437668244e-17)
(157.563753349 111.368043663 -1.08624123477e-17)
(13.8471013837 22.3922427762 1.85149436812e-17)
(9.19813433675 -9.4612802345 3.48504380982e-19)
(86.735466108 -0.0998097883146 1.05418612611e-18)
(85.917925099 -2.14198926311 -8.83052232114e-19)
(87.2848868021 -2.87441353603 -2.80102622067e-19)
(89.5266637993 -3.92948961227 1.83336940835e-19)
(92.4073244343 -4.58001738578 4.78824863646e-20)
(95.9599919185 -4.95530590746 5.37143660307e-20)
(100.255294291 -4.84348750393 6.93678360888e-20)
(105.323158244 -4.05889253387 -7.10719586972e-21)
(111.193837579 -2.33555705698 9.20946642752e-20)
(117.901325687 0.624395229973 3.47288095702e-20)
(125.464798269 5.17153790271 -7.72547704395e-20)
(133.964025611 11.7103052815 5.34724307367e-20)
(143.466092746 20.8564793206 -1.70493276455e-19)
(154.138883269 33.465009064 6.74981626087e-20)
(166.488847225 51.8298602338 2.50391184045e-19)
(179.99704126 76.1936492864 2.02209167396e-18)
(198.024125952 122.269585652 7.33300822255e-18)
(110.764405511 140.258192954 8.48378511219e-19)
(9.40986969826 25.0223641028 -1.76560579365e-18)
(9.91605829046 5.32254232025 1.13204562533e-19)
(87.7424958995 0.248910162534 -1.17515171841e-19)
(86.7483765714 -1.14540521327 -1.39000179878e-18)
(87.9862118847 -1.23504396774 -2.01460607031e-21)
(90.0469952852 -1.61274468679 5.48540281934e-20)
(92.646083101 -1.58647549303 -7.23387700164e-20)
(95.8027717984 -1.2842846831 2.14654560221e-21)
(99.5570045023 -0.486630081992 8.0669412204e-20)
(103.89525106 0.980564505368 1.04977621081e-20)
(108.799708046 3.37637033035 8.52910233956e-21)
(114.186594737 6.97699079373 7.0662954979e-20)
(119.997992355 12.1602233623 -1.08534577737e-19)
(126.141289001 19.3079758766 2.34043481069e-19)
(132.48066715 28.9984765543 -1.47824173033e-19)
(138.856561294 42.2347696657 -1.43644829371e-20)
(145.066111677 60.8631109817 -2.79985555425e-19)
(149.614766662 86.8961673963 9.26617280394e-18)
(155.48680143 137.307908316 -3.42371260793e-17)
(57.9306255809 160.63601936 -6.17568112413e-18)
(2.9814699797 24.6454278202 -4.93610697938e-18)
(2.61780145933 1.86171633813 1.6769349199e-20)
(88.1033747976 0.547850575171 5.36646921118e-19)
(86.9290993452 -0.239108237851 3.14225490661e-19)
(88.050411536 0.249523817438 6.2405958635e-20)
(89.9295186116 0.458479604637 1.21254800892e-20)
(92.2583747462 1.06657463242 3.63547794152e-21)
(95.0358309595 1.92355683369 -1.11688994749e-20)
(98.2690210423 3.23768226184 1.14052968451e-19)
(101.909961222 5.17710062641 7.8120127157e-21)
(105.880650002 7.9498627001 1.3885555098e-19)
(110.038497221 11.8175045765 2.59556210595e-19)
(114.218217137 17.118137204 -2.28067645345e-19)
(118.140890962 24.1482000996 -9.79891976138e-20)
(121.508744987 33.4151376908 -7.02529542136e-19)
(123.897218556 45.7691936209 -1.86463210945e-20)
(124.594960379 62.1279202118 -1.07239585886e-18)
(121.342810233 83.7828686295 4.93252425679e-18)
(113.761449705 129.563502304 8.3419484675e-18)
(3.47349956154 161.356820138 1.8149604603e-18)
(-7.95549900373 24.7551930969 1.73269337979e-18)
(-0.716955363547 1.45621212685 2.17399501766e-19)
(87.9011770635 0.81680063327 1.20850297653e-18)
(86.5577443283 0.574315059264 4.58782107078e-19)
(87.5608473129 1.57663677055 2.38259469524e-19)
(89.2836331521 2.3062455549 -3.00337824061e-21)
(91.3553666744 3.40245829786 -5.06445408339e-20)
(93.7838588275 4.69150964425 6.80087614705e-20)
(96.5588430769 6.37812570025 1.45130775294e-19)
(99.6032858302 8.58718343038 1.29664270596e-20)
(102.773104883 11.5005236512 8.45454177155e-21)
(105.895889629 15.3072135162 4.65378787535e-20)
(108.672006491 20.2460078608 7.65359410013e-22)
(110.72592219 26.5393362146 5.86225631592e-19)
(111.603623017 34.5583931892 -9.7044724542e-20)
(110.68393755 44.8972132479 4.19124318141e-19)
(107.102566611 57.9214153004 -3.46113619583e-18)
(99.0478997957 74.5925514976 2.95792338406e-18)
(81.6972424989 112.248003347 -5.56405014111e-19)
(-31.6764461119 158.216171083 -7.03852826384e-18)
(-10.6962858105 25.527217861 4.22154980994e-18)
(-5.14500326614 3.15135459206 3.64971809303e-19)
(87.2166437247 1.05519817283 1.02343583045e-18)
(85.6995825953 1.30690022902 3.31523262317e-19)
(86.6213999881 2.7732935271 3.19206541622e-19)
(88.1899032798 3.94808596078 1.70662644867e-19)
(90.036858 5.44284859781 7.45857471025e-20)
(92.1751452119 7.09131643596 3.49941929231e-20)
(94.5730954208 9.04954898006 4.16122559779e-20)
(97.1365982913 11.3910924081 1.73708804647e-19)
(99.6971230839 14.2432167359 6.12290524139e-20)
(102.01679603 17.7163243939 8.26513756975e-20)
(103.765907272 21.9349504448 3.03872512128e-20)
(104.474083445 27.0184915604 4.48325997432e-19)
(103.603944103 33.1435178771 -1.08861525254e-19)
(100.373515794 40.6389419115 4.04350700604e-19)
(93.8591795353 49.5907683485 2.77144126623e-18)
(83.5386004822 60.4012792168 4.48127592149e-18)
(64.8989863827 94.9186026078 -2.06638757392e-17)
(-61.0682875984 147.355479253 -2.52994757269e-17)
(-15.4097710326 25.6285623808 -3.19204715451e-18)
(-5.59260926651 -10.2495438441 -6.1471908046e-20)
(86.0529144365 1.24537763623 4.10717007979e-19)
(84.3972868482 1.97926203197 -5.59547635565e-19)
(85.2325900175 3.85193720011 1.27152492116e-19)
(86.6847209561 5.40922779565 2.12441077712e-19)
(88.3800986821 7.2645383548 7.73346965689e-20)
(90.3058743351 9.19297876226 1.12993224279e-20)
(92.4189557203 11.3304690409 1.91894592802e-20)
(94.6360626289 13.7091613116 -1.45686054084e-20)
(96.7827464267 16.3823207656 1.80451239729e-19)
(98.6075154761 19.3788650822 3.17498980276e-20)
(99.7703005718 22.6965178785 3.65537517662e-20)
(99.7894138975 26.3338231564 2.68884058735e-20)
(98.0738617313 30.2500429593 -3.08574156147e-19)
(93.821764756 34.4470227629 3.31010068913e-19)
(85.9964011768 38.7171596056 -3.87557893156e-18)
(75.0655728139 42.4048124749 1.48077476632e-17)
(57.5042514227 69.8071214372 -2.48772453077e-17)
(-80.5344055587 122.530986129 -3.78188497532e-17)
(-25.8118391779 24.5726819884 1.59448432712e-17)
(5.56383191425 -9.50530271718 -1.98949757975e-18)
(84.4328455885 1.43199490127 -1.41584521229e-19)
(82.6643632841 2.59593572323 -1.84516846509e-18)
(83.4267267668 4.84148601877 -4.98973544142e-20)
(84.8170274183 6.77427478179 1.47605009979e-19)
(86.4114919026 8.93452930397 3.51674238789e-20)
(88.2044244583 11.0934011061 2.22981416956e-20)
(90.1674320206 13.3710383798 8.50799640002e-20)
(92.2136392417 15.7503324947 -7.29261619627e-20)
(94.1809980472 18.2111334694 1.24227443111e-19)
(95.8528256985 20.7018327832 2.48644707798e-19)
(96.8973954191 23.1123896072 -2.27179166441e-19)
(96.8941330802 25.2985400939 4.12391017989e-19)
(95.2533522725 27.0135998853 -7.46885535819e-19)
(91.2833689596 27.9932120285 5.74815356202e-19)
(83.8577361963 27.7802984377 -3.26968293188e-19)
(74.0162126618 24.6144463757 2.10447758269e-17)
(58.7996497141 44.2011319533 -8.36915249967e-18)
(-82.4460325229 101.021549606 -1.01506591694e-17)
(-18.4274456061 18.5404397334 -8.87455924393e-18)
(5.23635220869 1.56872089184 -3.94336525891e-19)
(82.4284771392 1.60183125344 -1.8088770572e-20)
(80.5414520908 3.18842099225 -3.16958701159e-19)
(81.2908762276 5.78454186034 1.2186451301e-19)
(82.6465192877 8.05979432269 1.54466481031e-19)
(84.1689567146 10.5102289449 2.88831847386e-20)
(85.9024926934 12.9075441996 -2.19215447097e-20)
(87.8280219755 15.3316942101 6.75770843026e-20)
(89.8755955891 17.724835844 1.47989005916e-20)
(91.9129413011 20.0213074584 9.85625482862e-20)
(93.7318914333 22.0927119434 4.44405534249e-20)
(95.0930002859 23.734213121 4.13319575635e-21)
(95.657193152 24.6767777176 1.21225770743e-19)
(94.9443181902 24.4984489659 -5.21364382127e-19)
(92.4048342679 22.660135788 2.04194074919e-19)
(87.0179213259 18.4754277146 6.386215187e-19)
(79.8574970205 8.90643732651 4.42785132431e-18)
(68.9052946387 17.7232600261 2.48790153026e-17)
(-71.2400783286 69.6451772827 4.53885219195e-18)
(-15.6920042432 13.349203638 -1.94956027631e-18)
(1.43393289343 0.287511140225 -4.98837657295e-19)
(80.0330058976 1.75413170738 4.26573691507e-19)
(78.0381868463 3.77032714846 1.08307711142e-19)
(78.7746798904 6.71642197663 2.91051858146e-19)
(80.1201959497 9.31240532375 3.43777985661e-19)
(81.6432331741 12.0539382132 9.20080857775e-20)
(83.3989973155 14.7180667409 3.48926385205e-20)
(85.3942224038 17.3369451235 2.01633559403e-20)
(87.5573900336 19.8301339256 -1.75815333724e-20)
(89.8313453856 22.0642190425 3.15328830828e-20)
(92.0568362717 23.8825180193 3.89032705522e-20)
(94.0991872624 25.0420043156 5.72912525872e-21)
(95.71168446 25.1493804386 1.46341843752e-19)
(96.6617192241 23.6569722809 -1.90598815346e-19)
(96.4931825158 19.7895837709 -3.18626179589e-19)
(94.6874633302 12.7209690743 -1.05857620709e-18)
(92.1369416252 -1.58516442613 -1.18942654199e-19)
(88.9759962945 -4.10336415459 1.34592783935e-17)
(-39.505898242 38.330075968 4.18770545802e-18)
(-10.3614720411 7.39295975839 -5.26071791197e-19)
(0.252937920227 0.0504005048973 5.09222624551e-20)
(77.2506599348 1.89504136603 6.48911420543e-19)
(75.1669125476 4.33576851848 -1.17197769404e-19)
(75.888635866 7.63185322666 -1.77784162439e-19)
(77.2449751213 10.5820886165 1.50661516622e-19)
(78.8112357884 13.6481258075 8.03304025081e-20)
(80.6363796252 16.6178982194 1.13130659717e-20)
(82.7523812187 19.4784563833 1.94873654644e-20)
(85.1231394427 22.1575358326 -2.24352416318e-20)
(87.7572905288 24.5228528193 3.63322949473e-20)
(90.587337813 26.3641342476 5.01428438864e-20)
(93.5318318278 27.3956678145 2.1026463258e-20)
(96.5193139615 27.2403660539 -3.91871648465e-20)
(99.5119839108 25.2178285923 1.17072790999e-19)
(102.350505777 20.4288375679 6.89395585776e-19)
(105.128319689 12.2563504143 2.34760138253e-18)
(108.406193021 -3.79810203175 2.75836184784e-18)
(115.238542833 -14.2545443679 -4.00712025834e-18)
(7.14383255284 13.9002379456 -4.10663137064e-18)
(-2.86541264088 3.27701358191 -6.4404856072e-19)
(0.330068066762 -0.225220773819 -2.12948393485e-22)
(74.1140823492 2.03495235223 5.26653998712e-19)
(71.9703963974 4.91312150868 1.06698841562e-19)
(72.6655015434 8.56755157872 -8.02543940055e-20)
(74.0430581198 11.8849859589 7.78281151749e-20)
(75.6474883004 15.2980036738 2.87500549312e-20)
(77.5543438743 18.6187941113 8.0177514858e-21)
(79.8137567293 21.8207900851 -2.19996786224e-21)
(82.4724408959 24.8389234717 -1.65487565195e-20)
(85.512309119 27.5263815208 -3.14163584086e-20)
(88.9868218758 29.6572892063 -9.96891387331e-22)
(92.9111608398 30.9805039615 -7.50106964957e-20)
(97.4060123993 31.1392049524 -1.95629109383e-19)
(102.523977254 29.4580832009 1.45612738078e-19)
(108.58745793 25.1065769504 -2.61130253737e-19)
(116.026501701 17.4486783609 2.41987084819e-20)
(125.427815833 2.60346937936 2.00403849291e-18)
(141.715721104 -12.3664992621 -1.29800254454e-18)
(55.7840621461 0.80854799506 -1.81278938336e-18)
(3.2669015628 0.962283118906 -2.18633352165e-19)
(0.139491192654 -0.152954217503 1.37528347871e-19)
(70.5824272562 2.19562178763 4.96403029134e-19)
(68.3834854759 5.49242395469 -3.63117313706e-19)
(69.0709510618 9.49555535635 -1.41400083274e-20)
(70.4577146308 13.2223437632 -1.01540579254e-19)
(72.1069447789 17.0217985238 -4.69714753436e-21)
(74.095728592 20.7538098669 7.22151590825e-21)
(76.5051418377 24.3937297439 -2.0422756757e-21)
(79.3981191605 27.8557524225 3.9988726711e-20)
(82.8358826596 31.0408371484 7.85695511304e-21)
(86.8947077774 33.7706467932 -3.88722217251e-20)
(91.7688423478 35.8277480716 1.11236318345e-19)
(97.6230316608 36.880352542 -1.54409339266e-19)
(104.761142477 36.3968601736 -2.29026758465e-21)
(113.809035245 33.5864004255 -1.28569837642e-18)
(125.52958715 27.9618895296 6.43766902131e-19)
(140.76203468 16.485414653 4.52089289333e-19)
(165.097250358 -1.8702877277 6.08087575447e-18)
(98.9468841155 -3.75964825142 -1.39488528997e-17)
(5.22411899137 0.0629668442385 -3.99380342107e-19)
(0.156485611748 -0.0478762243694 2.48653840494e-20)
(66.6363405887 2.34378416787 1.61582722866e-19)
(64.4132633093 6.08450380659 2.38719851466e-20)
(65.1107893744 10.4457521262 -6.90357032155e-20)
(66.4833140286 14.5775496529 -3.12561766132e-20)
(68.1515924082 18.7969231444 -9.34017747099e-22)
(70.1896972767 22.9852860476 2.09843475543e-20)
(72.6965999849 27.1204800805 6.02173851642e-21)
(75.777466568 31.1744266129 1.85953864605e-20)
(79.5181539218 35.0311228158 3.40594530037e-22)
(84.0467474717 38.5954441815 2.73057626278e-20)
(89.6225744124 41.7246049341 6.95078063842e-20)
(96.5129971203 44.1736746924 -2.87060578164e-20)
(105.246289872 45.6744023022 7.97479545466e-19)
(116.676183354 45.5684542279 3.01844431794e-19)
(132.189338805 43.1305999987 8.04702893954e-19)
(153.222822254 36.941073223 1.62869070588e-18)
(188.646651539 14.6870370686 -2.67616460885e-18)
(130.051651244 -3.51335194874 -4.38433606894e-19)
(3.27791110617 -0.0596540689918 2.77717622752e-19)
(0.204168824762 0.313674311477 6.17147921089e-20)
(62.3085029012 2.47885054512 1.62405204469e-19)
(60.1406384832 6.67215781527 -3.25873526662e-20)
(60.7357253553 11.3649492911 2.83723161551e-19)
(62.0850523808 15.9201324577 3.51535956669e-20)
(63.7454069809 20.5941179135 1.45698833748e-20)
(65.7929145462 25.272586118 -2.96915812057e-20)
(68.346695741 29.9836172715 -5.01583124426e-20)
(71.5113410275 34.6836906334 6.69020398837e-21)
(75.3817482359 39.3162616452 -2.28157245839e-22)
(80.1748053871 43.885822492 -6.51343575345e-20)
(86.0916477823 48.3144205959 1.45310283447e-19)
(93.5440776029 52.5520449184 -3.76462924494e-21)
(103.125598121 56.6282472882 2.80722946903e-19)
(115.805884596 60.295985356 -6.10178992802e-19)
(133.802478333 63.0585102097 -3.87602238952e-19)
(160.147806828 66.7087571895 -8.54911655806e-19)
(206.775151464 48.1839326625 7.76322498084e-21)
(147.298988039 12.5229825345 -2.54446012253e-17)
(0.347979949856 0.055358052777 -6.38948341021e-20)
(0.0347940929264 0.510120649289 -4.40720976546e-19)
(57.444449948 2.67105510789 -3.52745641453e-20)
(55.7179427993 7.28617125886 -2.39371653603e-19)
(55.8609307531 12.2022174796 3.45769064504e-20)
(57.2353403617 17.2448142012 1.06272700835e-19)
(58.8544746954 22.3705598186 4.91121647982e-20)
(60.8495162902 27.5578306942 -7.63615460494e-21)
(63.3563583309 32.8392029188 -5.28931220025e-21)
(66.4696662335 38.215618298 -1.69042106302e-21)
(70.3333259686 43.6997116436 1.29046031511e-21)
(75.1106331547 49.3146043111 -1.77762533789e-20)
(81.0018235092 55.1178980184 2.19681998729e-20)
(88.3620063528 61.2725315962 2.00071439985e-20)
(97.6751228891 68.0187623562 1.16473541175e-19)
(109.92181521 76.115610074 -1.7586490033e-19)
(126.935792921 85.8842778425 4.88867100008e-19)
(153.392833891 106.439145729 -1.59906905689e-18)
(200.469697056 106.795506292 -1.56947311289e-18)
(145.657037187 51.3874079365 -4.55367418362e-19)
(0.157701269204 0.181900663804 3.13033939057e-20)
(-0.040170077945 0.160778776421 8.67275950922e-21)
(52.7682485838 3.48481971267 3.12446197187e-19)
(50.3522705252 7.98458659075 2.543986071e-19)
(50.7803733279 12.7484580165 1.30019807403e-19)
(52.0060379491 18.5806239967 2.04450042349e-19)
(53.4969995799 24.06186705 5.90267567545e-20)
(55.3574815859 29.7338174297 2.8359666315e-20)
(57.7139039758 35.5895965373 -6.0882294812e-22)
(60.6758716311 41.6522241347 -5.28477683931e-21)
(64.3619393194 47.9554775068 -6.0389552294e-20)
(68.8992699587 54.557019178 -2.97047381421e-20)
(74.4327310826 61.5809419189 1.10847115532e-19)
(81.1481235838 69.2759835229 -9.18040611704e-20)
(89.2521499809 78.262699087 1.92570995646e-19)
(99.2114970223 89.4670582787 -3.78301376395e-19)
(111.811074985 104.829399871 -2.09797440466e-18)
(129.309728268 138.574513059 -1.29954245015e-18)
(159.771409347 157.579407684 -1.05857129383e-17)
(123.920039305 85.8520309236 1.10833822888e-17)
(0.155294764662 0.272016254569 2.3867166736e-20)
(0.146049484718 0.282571506386 6.5266275575e-22)
(47.5820106359 3.09197344088 4.71200373394e-19)
(44.5642864157 8.35713366192 5.00090657462e-19)
(45.3867907963 13.731768561 5.297217856e-20)
(46.3926347202 19.6210322338 6.61515353149e-20)
(47.6955822715 25.5673703045 6.57796801261e-20)
(49.3475690634 31.7212431642 1.74938740166e-20)
(51.4696415101 38.1358617009 2.10402946471e-20)
(54.1667438212 44.8519542067 6.11665632297e-20)
(57.5370216025 51.9106209196 -4.36302116097e-20)
(61.6770335499 59.3695110498 -7.38748196353e-20)
(66.6488595848 67.3514985684 9.93100247455e-20)
(72.4733157815 76.0830998209 5.06521219292e-20)
(79.0028757703 86.0513886826 -1.36355555361e-19)
(85.9281095685 98.2098670974 -1.50997092343e-18)
(93.5777348427 113.671839552 -5.87855577085e-18)
(100.207585621 148.996430031 1.25698550036e-17)
(101.043061892 183.109960844 -1.21205297955e-17)