/*--------------------------------*- C++ -*----------------------------------*\
| =========                 |                                                 |
| \\      /  F ield         | OpenFOAM: The Open Source CFD Toolbox           |
|  \\    /   O peration     | Version:  v2012                                 |
|   \\  /    A nd           | Website:  www.openfoam.com                      |
|    \\/     M anipulation  |                                                 |
\*---------------------------------------------------------------------------*/
FoamFile
{
    version     2.0;
    format      ascii;
    class       volVectorField;
    location    "2.1";
    object      ddt0(rho,U);
}
// * * * * * * * * * * * * * * * * * * * * * * * * * * * * * * * * * * * * * //

dimensions      [1 -2 -2 0 0 0 0];


internalField   nonuniform List<vector> 
164
(
(-116.907124212 -46.6034339554 3.08219488875e-19)
(-134.179838089 -51.2687682674 3.38310876239e-19)
(-156.026125303 -53.9054994896 4.95667655375e-19)
(-183.442854247 -53.688015198 4.5578972773e-20)
(-217.856842929 -50.405725868 -6.74221980346e-19)
(-260.862647891 -42.6165474547 -2.67513785369e-19)
(-315.187632914 -44.7698197635 4.3835503463e-20)
(-394.243586073 -51.3938597131 -5.61945141443e-18)
(-548.020429684 -67.8073257048 4.26562185722e-17)
(-679.288158327 -90.6947572318 -7.27053542482e-18)
(-591.081053535 -105.470285119 -2.94639005391e-17)
(25.4834877727 69.3491011836 4.6305008579e-17)
(-0.643937366021 -1.17791692977 8.16781279423e-20)
(-63.5934559892 -4.4303275282 -4.76804127505e-19)
(-66.8225516949 -10.2502774561 1.01123578343e-18)
(-69.2504406124 -18.2512349303 2.95921044183e-19)
(-72.8087349688 -25.9567021121 1.65774463723e-20)
(-85.4238367587 -43.3753595456 1.15021095113e-19)
(-95.6671756707 -52.8430302427 9.47393498316e-19)
(-109.523890732 -62.4895070643 2.40525147842e-18)
(-127.948081188 -71.7825284164 4.05978721185e-18)
(-151.689097974 -80.0577129307 4.52455449436e-18)
(-181.939015237 -86.4290102198 3.32746337067e-18)
(-220.061152712 -89.8116512102 2.49388309543e-18)
(-265.551879451 -87.5461969318 9.29161536809e-19)
(-315.471203587 -82.2150584229 -7.15833421612e-19)
(-363.998281738 -79.7364852251 -2.55564556501e-18)
(-423.016808436 -100.587122235 5.95740005345e-18)
(-483.874413861 -170.264859081 -2.71149610025e-17)
(-390.051384262 -149.497934596 -2.29762777245e-17)
(-29.968810246 21.7255068891 9.10033781244e-17)
(-2.44346716291 0.295812426434 4.07642353493e-19)
(-56.1356451357 -4.94266075197 -1.82130070727e-18)
(-58.9158279776 -11.769059032 1.56842014541e-18)
(-60.9421336343 -20.9989806039 2.37334113132e-19)
(-63.8789156327 -30.1204554886 3.20783819785e-19)
(-68.3159476148 -40.4321273305 4.04755667695e-19)
(-74.743582741 -51.9025750295 1.95538818725e-18)
(-84.0890533554 -64.7409119031 8.19245915941e-18)
(-97.1845230795 -78.9084050136 2.34735858468e-17)
(-115.714345295 -93.6645351389 4.09816653507e-17)
(-140.45545782 -108.310290479 5.19986227643e-17)
(-172.683129324 -122.66054811 3.83570795598e-17)
(-215.291649785 -133.534824551 2.79595698596e-17)
(-266.163123405 -139.37294112 1.06403144012e-17)
(-321.630333127 -142.856196597 7.9076704738e-18)
(-391.490361689 -147.11181054 8.56686973518e-18)
(-477.960283449 -150.055075162 -2.32418409794e-18)
(-514.91278482 -158.738286803 -3.66642460634e-17)
(-331.574624562 -84.5325180352 -2.63081081404e-17)
(-68.685949283 10.1635823756 9.3877887497e-17)
(-8.22589937013 3.5412259964 -6.78965560567e-20)
(-47.7870137776 -5.33285493344 -3.13662137085e-18)
(-50.0201148654 -12.938706196 1.74014985071e-18)
(-51.4453490063 -23.096194981 -3.45211006028e-19)
(-53.4360859044 -33.3613645155 -8.83094112407e-20)
(-56.5740841558 -45.2810715415 2.17775313236e-18)
(-61.231831592 -59.0970651189 1.46357135975e-17)
(-68.6918092342 -75.3924859834 5.72144669388e-17)
(-79.9452720131 -94.8361101976 1.54969085638e-16)
(-98.7084303527 -116.043767025 2.77603354981e-16)
(-122.619748181 -138.344661558 3.65535836148e-16)
(-155.413869919 -162.923981672 2.93310175883e-16)
(-202.404179039 -181.758636327 2.56797626992e-16)
(-258.775491841 -195.383692613 1.69009994275e-16)
(-312.296636324 -207.448976388 4.84528243043e-17)
(-368.425606052 -231.893813231 -2.94521144573e-17)
(-409.251417696 -231.291298983 -3.08546110832e-17)
(-452.552898349 -187.741759154 1.20368330645e-18)
(-308.897328452 -86.916516285 -7.9185756041e-17)
(-146.614958551 8.83833994624 1.37722822288e-16)
(-11.6324404897 10.1344167912 -4.93550263727e-19)
(-38.8174187833 -5.55144452551 -2.34025806453e-18)
(-40.4448195908 -13.5977041087 1.03893395699e-18)
(-41.1036095458 -24.2810037907 6.48878301945e-20)
(-41.8527740832 -35.2658361435 2.95704841773e-18)
(-43.0499731725 -48.2369661254 1.46201274967e-17)
(-44.6115470973 -64.0181781925 7.39669463763e-17)
(-48.2450740045 -84.3211535701 2.98887611262e-16)
(-54.2349571104 -111.451837539 8.58872759868e-16)
(-71.3579287389 -139.485269878 1.85262158953e-15)
(-93.6580416602 -168.286491382 1.92840596371e-15)
(-125.536651584 -205.013021408 1.36696521241e-15)
(-180.058149286 -236.205262246 1.43908164417e-15)
(-249.402732496 -253.258751636 1.54176923552e-15)
(-304.114807382 -255.811763075 8.01257500533e-16)
(-386.286431011 -242.793724757 5.10134903571e-16)
(-469.403359576 -270.141723626 2.57321380772e-16)
(-693.977116373 -322.955424644 1.08707225024e-16)
(-824.301635839 -341.334185098 7.75533736489e-16)
(-685.843979999 7.19811268592 -9.6938171213e-18)
(-74.0028048571 38.4545804196 -3.2614884295e-18)
(-29.6077492093 -5.57112465296 -1.11856136644e-18)
(-30.6770981565 -13.6713220519 5.28099816686e-19)
(-30.5448872925 -24.3484057065 2.10301971625e-18)
(-29.9962935384 -35.3171228014 1.31717760537e-17)
(-29.1821903907 -48.0309173919 6.25190253739e-17)
(-27.8622155487 -64.4768241341 3.23138244693e-16)
(-26.330279928 -88.5193677796 1.35462126797e-15)
(-27.1584370002 -124.726739813 3.92976395407e-15)
(-46.8889773804 -159.227057235 7.23469051714e-15)
(-59.5752074855 -195.610854407 5.86659298632e-15)
(-79.0375306515 -249.204499129 2.83504505867e-15)
(-123.559996508 -300.042711345 4.74755596951e-15)
(-247.694371915 -327.263394107 8.37719240049e-15)
(-274.728817746 -353.408379945 4.20935516579e-15)
(-316.866016081 -407.762695137 6.22741688345e-16)
(-371.591670207 -617.700025613 -6.41808873343e-17)
(-389.983722979 -839.914285413 6.09754938085e-16)
(-380.786261336 -1082.3491454 1.76798642913e-15)
(-1239.72530556 757.137455991 -1.00135009687e-14)
(-11.9123485373 124.212609268 -2.64040113708e-17)
(-20.5043250162 -5.41388342554 -1.53137393928e-18)
(-21.0012482102 -13.2299478248 1.81193812291e-18)
(-20.0187427374 -23.4666460509 6.52450715901e-18)
(-17.4997606679 -34.1394938631 4.0178188002e-17)
(-12.5609246814 -46.8361948027 1.84482858975e-16)
(-0.978087392793 -62.7136762891 9.04674936809e-16)
(14.2351477211 -85.7837374164 4.24393233572e-15)
(28.4137162388 -126.210603289 1.31901997215e-14)
(-4.52300965335 -159.266422824 1.21324255855e-14)
(-15.9316012784 -187.925712664 5.14639594457e-16)
(-31.8477899737 -233.834696341 1.44713789404e-15)
(-124.875210776 -338.712037823 -3.12484450045e-15)
(-305.734737529 -338.115625388 -9.38033693027e-15)
(-233.993552713 -343.996729304 -5.04029464482e-15)
(-194.331370327 -367.024128261 -1.80166570209e-15)
(-147.419594048 -452.576815695 -1.09700316545e-15)
(25.9193586702 -464.191994863 -9.67612990308e-16)
(148.28129135 -399.132265404 6.99037493698e-16)
(960.678386144 -41.6156362437 1.0881091731e-15)
(52.3685281992 19.305160793 1.39389003874e-17)
(-11.9687209947 -5.00603580819 8.69242831185e-19)
(-12.1345939649 -12.0934093828 3.81025443735e-18)
(-11.0831379858 -20.7025933039 1.76077417273e-17)
(-8.53045355174 -28.1248387609 9.62287498157e-17)
(-3.44929849585 -32.5860606195 3.40215876754e-16)
(7.97630807841 -37.5658484687 1.28161430483e-15)
(24.0959906873 -26.570500543 2.79579070015e-15)
(41.8888059137 -31.1126112009 8.91527777543e-16)
(-3.99188660754 -4.82341192918 -6.85767372322e-19)
(-4.07014131674 -11.5975264292 4.04400534208e-18)
(-3.75087892597 -19.7943005527 2.77673913647e-17)
(-3.18560472271 -26.8086992792 1.68802436759e-16)
(-2.2260584649 -31.3082982762 6.85474927509e-16)
(-1.4784837031 -32.3575650118 2.13441812586e-15)
(3.02828453567 -22.3145033186 5.06469946553e-15)
(-2.26567904585 -11.4331939666 1.42128615716e-15)
(3.87779423753 -4.8221784279 -6.54349210715e-19)
(3.96287906552 -11.5943768956 4.23235544991e-18)
(3.65084285118 -19.790457911 2.78156121439e-17)
(3.09179712834 -26.805246443 1.69706741158e-16)
(2.1341276205 -31.3056750205 6.8550076816e-16)
(1.38067188623 -32.3592697989 2.13442813489e-15)
(-3.13249363234 -22.3203634682 5.06353535642e-15)
(2.14248842647 -11.436175223 1.41520203264e-15)
(11.8568836085 -5.00263069918 -3.10819797351e-19)
(12.0281694114 -12.0849736128 -6.86251844916e-20)
(10.9816064764 -20.6927679541 1.65900796349e-17)
(8.43335645946 -28.1181333241 9.47690648641e-17)
(3.35403240233 -32.5885928641 3.4347399319e-16)
(-8.07397520439 -37.5702849949 1.28133708306e-15)
(-24.2034546999 -26.5808725676 2.80063531896e-15)
(-42.0252957656 -31.1222519595 9.01372351297e-16)
)
;

boundaryField
{
    back
    {
        type            calculated;
        value           uniform (0 0 0);
    }
    sides
    {
        type            calculated;
        value           nonuniform List<vector> 0();
    }
    bottom
    {
        type            calculated;
        value           uniform (0 0 0);
    }
    front
    {
        type            calculated;
        value           uniform (0 0 0);
    }
    atmosphere
    {
        type            calculated;
        value           nonuniform List<vector> 7((0 -1.17791692977 0) (2.22474454217e-38 0.295812426434 -2.55379308123e-59) (-6.26917296315e-28 3.54122588712 -1.56490294308e-48) (8.39303951669e-23 10.1344167912 -7.89460500909e-44) (-4.236431629e-16 38.4545804196 3.20793126844e-35) (-60.3778912919 124.212609268 -1.91331000981e-16) (-1.07380009428e-30 19.305160793 3.33967480217e-49));
    }
    floatingObject
    {
        type            calculated;
        value           nonuniform List<vector> 8((0 1.77976359674e-17 -2.22470449593e-18) (0 0 -3.311007743e-18) (0 0 0) (0 1.55651300655e-16 -9.72820629093e-18) (-2.39997648633e-18 0 0) (0 0 -1.00094555488e-18) (0 0 -9.74399736973e-19) (0 0 0));
    }
    procBoundary3to4
    {
        type            processor;
        value           nonuniform List<vector> 
13
(
(-120.562065644 -31.8150399212 5.53436921628e-20)
(-135.989091592 -32.6524398234 -6.97214043958e-21)
(-154.91943034 -30.6961399236 -5.37583059963e-20)
(-69.9729268801 -3.83340690275 -2.85732369925e-18)
(-73.5468793176 -8.51011374675 1.16991314397e-18)
(-76.1921680281 -15.1297543152 -6.53330598732e-20)
(-80.000403792 -21.307688064 -1.34814370935e-19)
(-93.2521500566 -34.3250458008 -2.27669057492e-20)
(-103.481803998 -40.7306423163 3.54300890493e-19)
(-103.481803998 -40.7306423163 3.54300890493e-19)
(-78.0315559575 -34.4153125091 2.19707944438e-20)
(-78.0315559575 -34.4153125091 2.19707944438e-20)
(-78.0315559575 -34.4153125091 2.19707944438e-20)
)
;
    }
    procBoundary3to5
    {
        type            processor;
        value           nonuniform List<vector> 10((-177.985919508 -24.4854538404 6.23981271644e-19) (-206.455902317 -12.2324964299 5.87961254404e-19) (-243.035322606 11.5543447489 2.27795030817e-18) (-294.416011695 45.3664257115 -8.54277066273e-18) (-389.731697894 120.792962576 2.61417972746e-17) (-616.024599944 146.797556239 1.32164625632e-17) (-971.416672636 93.1306771431 2.89558752625e-18) (-920.765741893 142.998819556 -2.34685358368e-16) (117.377035884 110.854415284 -7.48896085e-17) (-0.669937815001 5.03363781923 -5.1518514535e-19));
    }
    procBoundary3to6
    {
        type            processor;
        value           nonuniform List<vector> 8((-245.439405792 -131.430421204 -4.09428718941e-15) (-174.226750515 -240.554270981 -4.17266924291e-15) (-182.702961031 -314.635069061 -1.75077593658e-15) (-197.95805724 -357.837873013 -2.00604058159e-15) (-154.151636974 -464.265154721 -1.29844069462e-15) (-165.410595648 -224.895479227 1.43914575104e-16) (55.5394946932 -66.2154434488 -8.46537645166e-17) (2.72173494121 10.6894222552 8.24957131649e-18));
    }
    procBoundary3to8
    {
        type            processor;
        value           nonuniform List<vector> 8((20.3946556829 -5.41022205678 -3.48060680923e-19) (20.8938360448 -13.2202432416 1.88320492757e-18) (19.9116703792 -23.4545725883 7.06265463389e-18) (17.3928126339 -34.1288553248 3.99877898914e-17) (12.4545970615 -46.8308835972 1.91888811047e-16) (0.87387461766 -62.7237753423 9.12156810762e-16) (-14.3486767728 -85.8218209434 4.23036470366e-15) (-28.5371886931 -126.295755071 1.31967634439e-14));
    }
}


// ************************************************************************* //
