/*--------------------------------*- C++ -*----------------------------------*\
| =========                 |                                                 |
| \\      /  F ield         | OpenFOAM: The Open Source CFD Toolbox           |
|  \\    /   O peration     | Version:  v2012                                 |
|   \\  /    A nd           | Website:  www.openfoam.com                      |
|    \\/     M anipulation  |                                                 |
\*---------------------------------------------------------------------------*/
FoamFile
{
    version     2.0;
    format      ascii;
    class       volScalarField;
    location    "2.1";
    object      k;
}
// * * * * * * * * * * * * * * * * * * * * * * * * * * * * * * * * * * * * * //

dimensions      [0 2 -2 0 0 0 0];


internalField   nonuniform List<scalar> 
164
(
0.00787892978732
0.00792118048022
0.00796779909526
0.00801861617475
0.00807360180229
0.00813535870206
0.00822190878315
0.00845966906029
0.00950302636163
0.0139068369717
0.0271981258593
0.0526379661026
0.0820268755888
0.00568232834161
0.00704364322334
0.0074762630968
0.00764749950414
0.00777446881053
0.00781543308849
0.00785747909583
0.00790346876138
0.00795409626138
0.00800897750616
0.00806747068083
0.00813049587202
0.00820823210358
0.0083777905235
0.00910646699725
0.012690143836
0.0255045404877
0.0525446863339
0.0829219693769
0.00564779314163
0.00700369491418
0.00743690548493
0.00761067829952
0.00769222902697
0.00774337894747
0.00778744249209
0.0078328860279
0.00788293082601
0.00793828295873
0.00799818757637
0.00806136542437
0.00812725709806
0.0082034522982
0.00834006739572
0.00888362108173
0.0119102951553
0.0244423409015
0.0537169019963
0.0844292964791
0.00561238896759
0.00696383354356
0.00739727946206
0.00757270087396
0.00765612822652
0.00770911995362
0.00775479124264
0.00780143486882
0.007853661982
0.00791375224811
0.00797976391526
0.00804930109171
0.00811906636217
0.00819868483511
0.00831897920729
0.00872216772516
0.011221047831
0.0231359146107
0.0555712142979
0.0866572795373
0.00557753018694
0.00692604845311
0.00735931430521
0.00753503294717
0.00761844880284
0.00766978141853
0.00770946864619
0.0077435669784
0.00778291810714
0.00784444793317
0.00791816884008
0.00799783917137
0.00807314747905
0.00817361732662
0.00829681234562
0.0085894585712
0.0103151378561
0.0207305379691
0.053970746235
0.0878200224381
0.00554488301246
0.00689254014997
0.00732516276276
0.00749944378552
0.0075791394132
0.00761862042419
0.00762487711866
0.00758372435116
0.00751708608179
0.00756643898643
0.00765761985853
0.00776097899286
0.00785273242499
0.00806071747523
0.00824681796479
0.00875634417298
0.0124119595398
0.0276335047124
0.0552133857491
0.0874854855162
0.00551599572976
0.00686527184502
0.0072968453735
0.00746736816586
0.00753682711917
0.0075422611583
0.00743268465495
0.00707198102946
0.00643094010459
0.00636095627155
0.00646341796877
0.00672103146009
0.00723265150601
0.00776237281336
0.00809011392218
0.00865330061981
0.0118620075286
0.0250690134033
0.0555844358093
0.0919941488421
0.00549330563868
0.00684616016029
0.00727649880654
0.00744102246367
0.0074942914963
0.00744982828487
0.00718959528805
0.00614556798404
0.00547810535559
0.00683520449059
0.00726582831105
0.00742766725974
0.00747156313669
0.00739702837079
0.00704584188373
0.00579320459369
0.00547810879718
0.00683520858894
0.00726583204344
0.00742767024156
0.00747156494336
0.00739702928949
0.00704584362388
0.00579321559938
0.00549331422126
0.006846171364
0.00727650917746
0.00744103092072
0.00749429738155
0.00744983268608
0.00718960409379
0.00614558615946
)
;

boundaryField
{
    back
    {
        type            kqRWallFunction;
        value           nonuniform List<scalar> 
164
(
0.00787892978732
0.00792118048022
0.00796779909526
0.00801861617475
0.00807360180229
0.00813535870206
0.00822190878315
0.00845966906029
0.00950302636163
0.0139068369717
0.0271981258593
0.0526379661026
0.0820268755888
0.00568232834161
0.00704364322334
0.0074762630968
0.00764749950414
0.00777446881053
0.00781543308849
0.00785747909583
0.00790346876138
0.00795409626138
0.00800897750616
0.00806747068083
0.00813049587202
0.00820823210358
0.0083777905235
0.00910646699725
0.012690143836
0.0255045404877
0.0525446863339
0.0829219693769
0.00564779314163
0.00700369491418
0.00743690548493
0.00761067829952
0.00769222902697
0.00774337894747
0.00778744249209
0.0078328860279
0.00788293082601
0.00793828295873
0.00799818757637
0.00806136542437
0.00812725709806
0.0082034522982
0.00834006739572
0.00888362108173
0.0119102951553
0.0244423409015
0.0537169019963
0.0844292964791
0.00561238896759
0.00696383354356
0.00739727946206
0.00757270087396
0.00765612822652
0.00770911995362
0.00775479124264
0.00780143486882
0.007853661982
0.00791375224811
0.00797976391526
0.00804930109171
0.00811906636217
0.00819868483511
0.00831897920729
0.00872216772516
0.011221047831
0.0231359146107
0.0555712142979
0.0866572795373
0.00557753018694
0.00692604845311
0.00735931430521
0.00753503294717
0.00761844880284
0.00766978141853
0.00770946864619
0.0077435669784
0.00778291810714
0.00784444793317
0.00791816884008
0.00799783917137
0.00807314747905
0.00817361732662
0.00829681234562
0.0085894585712
0.0103151378561
0.0207305379691
0.053970746235
0.0878200224381
0.00554488301246
0.00689254014997
0.00732516276276
0.00749944378552
0.0075791394132
0.00761862042419
0.00762487711866
0.00758372435116
0.00751708608179
0.00756643898643
0.00765761985853
0.00776097899286
0.00785273242499
0.00806071747523
0.00824681796479
0.00875634417298
0.0124119595398
0.0276335047124
0.0552133857491
0.0874854855162
0.00551599572976
0.00686527184502
0.0072968453735
0.00746736816586
0.00753682711917
0.0075422611583
0.00743268465495
0.00707198102946
0.00643094010459
0.00636095627155
0.00646341796877
0.00672103146009
0.00723265150601
0.00776237281336
0.00809011392218
0.00865330061981
0.0118620075286
0.0250690134033
0.0555844358093
0.0919941488421
0.00549330563868
0.00684616016029
0.00727649880654
0.00744102246367
0.0074942914963
0.00744982828487
0.00718959528805
0.00614556798404
0.00547810535559
0.00683520449059
0.00726582831105
0.00742766725974
0.00747156313669
0.00739702837079
0.00704584188373
0.00579320459369
0.00547810879718
0.00683520858894
0.00726583204344
0.00742767024156
0.00747156494336
0.00739702928949
0.00704584362388
0.00579321559938
0.00549331422126
0.006846171364
0.00727650917746
0.00744103092072
0.00749429738155
0.00744983268608
0.00718960409379
0.00614558615946
)
;
    }
    sides
    {
        type            kqRWallFunction;
        value           nonuniform List<scalar> 0();
    }
    bottom
    {
        type            kqRWallFunction;
        value           nonuniform List<scalar> 10(0.00568232834161 0.00564779314163 0.00561238896759 0.00557753018694 0.00554488301246 0.00551599572976 0.00549330563868 0.00547810535559 0.00547810879718 0.00549331422126);
    }
    front
    {
        type            kqRWallFunction;
        value           nonuniform List<scalar> 
164
(
0.00787892978732
0.00792118048022
0.00796779909526
0.00801861617475
0.00807360180229
0.00813535870206
0.00822190878315
0.00845966906029
0.00950302636163
0.0139068369717
0.0271981258593
0.0526379661026
0.0820268755888
0.00568232834161
0.00704364322334
0.0074762630968
0.00764749950414
0.00777446881053
0.00781543308849
0.00785747909583
0.00790346876138
0.00795409626138
0.00800897750616
0.00806747068083
0.00813049587202
0.00820823210358
0.0083777905235
0.00910646699725
0.012690143836
0.0255045404877
0.0525446863339
0.0829219693769
0.00564779314163
0.00700369491418
0.00743690548493
0.00761067829952
0.00769222902697
0.00774337894747
0.00778744249209
0.0078328860279
0.00788293082601
0.00793828295873
0.00799818757637
0.00806136542437
0.00812725709806
0.0082034522982
0.00834006739572
0.00888362108173
0.0119102951553
0.0244423409015
0.0537169019963
0.0844292964791
0.00561238896759
0.00696383354356
0.00739727946206
0.00757270087396
0.00765612822652
0.00770911995362
0.00775479124264
0.00780143486882
0.007853661982
0.00791375224811
0.00797976391526
0.00804930109171
0.00811906636217
0.00819868483511
0.00831897920729
0.00872216772516
0.011221047831
0.0231359146107
0.0555712142979
0.0866572795373
0.00557753018694
0.00692604845311
0.00735931430521
0.00753503294717
0.00761844880284
0.00766978141853
0.00770946864619
0.0077435669784
0.00778291810714
0.00784444793317
0.00791816884008
0.00799783917137
0.00807314747905
0.00817361732662
0.00829681234562
0.0085894585712
0.0103151378561
0.0207305379691
0.053970746235
0.0878200224381
0.00554488301246
0.00689254014997
0.00732516276276
0.00749944378552
0.0075791394132
0.00761862042419
0.00762487711866
0.00758372435116
0.00751708608179
0.00756643898643
0.00765761985853
0.00776097899286
0.00785273242499
0.00806071747523
0.00824681796479
0.00875634417298
0.0124119595398
0.0276335047124
0.0552133857491
0.0874854855162
0.00551599572976
0.00686527184502
0.0072968453735
0.00746736816586
0.00753682711917
0.0075422611583
0.00743268465495
0.00707198102946
0.00643094010459
0.00636095627155
0.00646341796877
0.00672103146009
0.00723265150601
0.00776237281336
0.00809011392218
0.00865330061981
0.0118620075286
0.0250690134033
0.0555844358093
0.0919941488421
0.00549330563868
0.00684616016029
0.00727649880654
0.00744102246367
0.0074942914963
0.00744982828487
0.00718959528805
0.00614556798404
0.00547810535559
0.00683520449059
0.00726582831105
0.00742766725974
0.00747156313669
0.00739702837079
0.00704584188373
0.00579320459369
0.00547810879718
0.00683520858894
0.00726583204344
0.00742767024156
0.00747156494336
0.00739702928949
0.00704584362388
0.00579321559938
0.00549331422126
0.006846171364
0.00727650917746
0.00744103092072
0.00749429738155
0.00744983268608
0.00718960409379
0.00614558615946
)
;
    }
    atmosphere
    {
        type            inletOutlet;
        inletValue      uniform 0.1;
        value           uniform 0.1;
    }
    floatingObject
    {
        type            kqRWallFunction;
        value           nonuniform List<scalar> 8(0.00643094010459 0.00636095627155 0.00646341796877 0.00672103146009 0.00614556798404 0.00579320459369 0.00579321559938 0.00614558615946);
    }
    procBoundary3to4
    {
        type            processor;
        value           nonuniform List<scalar> 
13
(
0.00789775493872
0.00793678363451
0.00798002850343
0.00571505457244
0.0070822464515
0.0075139508051
0.0076820874154
0.0078025291606
0.00784029769247
0.00784029769247
0.0077262069247
0.0077262069247
0.0077262069247
)
;
    }
    procBoundary3to5
    {
        type            processor;
        value           nonuniform List<scalar> 10(0.00802767514795 0.00808038081197 0.00814386890207 0.00825836578116 0.00867676708274 0.0104687183312 0.016459771197 0.0305176191176 0.0528924453283 0.0813932404078);
    }
    procBoundary3to6
    {
        type            processor;
        value           nonuniform List<scalar> 8(0.0065008196376 0.00748165174361 0.00792007679405 0.00834207106386 0.0102302853862 0.0212307921321 0.0560631218151 0.0963862215089);
    }
    procBoundary3to8
    {
        type            processor;
        value           nonuniform List<scalar> 8(0.00551601362478 0.00686529336639 0.00729686624853 0.00746738683621 0.00753684232616 0.00754227307642 0.00743269638044 0.00707199249521);
    }
}


// ************************************************************************* //
