/*--------------------------------*- C++ -*----------------------------------*\
| =========                 |                                                 |
| \\      /  F ield         | OpenFOAM: The Open Source CFD Toolbox           |
|  \\    /   O peration     | Version:  v2012                                 |
|   \\  /    A nd           | Website:  www.openfoam.com                      |
|    \\/     M anipulation  |                                                 |
\*---------------------------------------------------------------------------*/
FoamFile
{
    version     2.0;
    format      ascii;
    class       volScalarField;
    location    "2.1";
    object      k_0;
}
// * * * * * * * * * * * * * * * * * * * * * * * * * * * * * * * * * * * * * //

dimensions      [0 2 -2 0 0 0 0];


internalField   nonuniform List<scalar> 
164
(
0.00795695716048
0.00799951909605
0.00804649669876
0.00809771727204
0.00815310852278
0.00821500172116
0.0082993653226
0.00852132806912
0.00949068373936
0.0136586061826
0.0265900598076
0.0519619909019
0.0818913553532
0.00573921613979
0.00711358199104
0.00755052213416
0.00772352277782
0.00785168142901
0.00789296027908
0.00793532267888
0.00798168171326
0.00803274427348
0.00808812136674
0.0081471616005
0.00821067979198
0.00828783256317
0.00844910738794
0.00913160781084
0.0125461479468
0.0251091526403
0.0521421259567
0.0830232369431
0.00570435464872
0.00707317877486
0.00751072271689
0.00768629951442
0.00776866508717
0.00782026855057
0.00786468899448
0.00791050165397
0.00796099569805
0.00801686988226
0.00807735400566
0.00814118569796
0.00820779410924
0.00828419651701
0.00841599884544
0.0089279210012
0.01183725632
0.024224749083
0.053639461558
0.0849602890693
0.00566860573591
0.00703286390559
0.0074706442924
0.00764789197416
0.00773216389288
0.00778565189974
0.00783174808741
0.00787885613398
0.00793168269657
0.0079923919989
0.00805903920254
0.00812931139712
0.00820000584825
0.00828026446907
0.00839769040148
0.00877398689403
0.0111495000462
0.0229168207726
0.0561145079206
0.0876822710082
0.00563339951692
0.00699466143536
0.0074322505135
0.00760979625788
0.00769407938783
0.00774597841176
0.00778620240144
0.00782086873881
0.00786115828764
0.00792330875093
0.00799757946593
0.00807823343467
0.00815531964543
0.00825621872777
0.00837812733016
0.00865300339478
0.0102569173563
0.0203781025841
0.0551582661665
0.0902195451821
0.00560042471183
0.00696081070531
0.00739773286446
0.00757382368244
0.00765441341361
0.00769457606775
0.00770147133572
0.00766057453431
0.00759497419792
0.00764471004733
0.007735764181
0.00784091854149
0.00793669691014
0.00814303826458
0.00832295748986
0.0087545261983
0.0119184508939
0.0263273060005
0.0528005424571
0.087685762354
0.00557125606127
0.00693330535882
0.00736914480851
0.00754144789174
0.00761183517465
0.00761820171246
0.00751000444612
0.00714951334926
0.00649965678704
0.00642620430331
0.00652705235632
0.00678153108738
0.00730870277493
0.0078386908901
0.00816358065907
0.00868023620278
0.0116682323691
0.0247381238347
0.056226379063
0.0930611434603
0.00554836361253
0.00691408599849
0.00734866311284
0.00751493264098
0.00756911127883
0.00752533098021
0.00726405256238
0.00620583620847
0.00553305447687
0.00690305871443
0.00733790884736
0.00750147321393
0.00754625672296
0.00747233042104
0.00711974735214
0.00585283895292
0.00553305788874
0.00690306280525
0.0073379125404
0.00750147612186
0.0075462584159
0.00747233118973
0.00711974893578
0.00585284990069
0.00554837221377
0.00691409724333
0.00734867344197
0.00751494096043
0.00756911692565
0.00752533498801
0.00726406093771
0.00620585432754
)
;

boundaryField
{
    back
    {
        type            kqRWallFunction;
        value           nonuniform List<scalar> 
164
(
0.00795695716048
0.00799951909605
0.00804649669876
0.00809771727204
0.00815310852278
0.00821500172116
0.0082993653226
0.00852132806912
0.00949068373936
0.0136586061826
0.0265900598076
0.0519619909019
0.0818913553532
0.00573921613979
0.00711358199104
0.00755052213416
0.00772352277782
0.00785168142901
0.00789296027908
0.00793532267888
0.00798168171326
0.00803274427348
0.00808812136674
0.0081471616005
0.00821067979198
0.00828783256317
0.00844910738794
0.00913160781084
0.0125461479468
0.0251091526403
0.0521421259567
0.0830232369431
0.00570435464872
0.00707317877486
0.00751072271689
0.00768629951442
0.00776866508717
0.00782026855057
0.00786468899448
0.00791050165397
0.00796099569805
0.00801686988226
0.00807735400566
0.00814118569796
0.00820779410924
0.00828419651701
0.00841599884544
0.0089279210012
0.01183725632
0.024224749083
0.053639461558
0.0849602890693
0.00566860573591
0.00703286390559
0.0074706442924
0.00764789197416
0.00773216389288
0.00778565189974
0.00783174808741
0.00787885613398
0.00793168269657
0.0079923919989
0.00805903920254
0.00812931139712
0.00820000584825
0.00828026446907
0.00839769040148
0.00877398689403
0.0111495000462
0.0229168207726
0.0561145079206
0.0876822710082
0.00563339951692
0.00699466143536
0.0074322505135
0.00760979625788
0.00769407938783
0.00774597841176
0.00778620240144
0.00782086873881
0.00786115828764
0.00792330875093
0.00799757946593
0.00807823343467
0.00815531964543
0.00825621872777
0.00837812733016
0.00865300339478
0.0102569173563
0.0203781025841
0.0551582661665
0.0902195451821
0.00560042471183
0.00696081070531
0.00739773286446
0.00757382368244
0.00765441341361
0.00769457606775
0.00770147133572
0.00766057453431
0.00759497419792
0.00764471004733
0.007735764181
0.00784091854149
0.00793669691014
0.00814303826458
0.00832295748986
0.0087545261983
0.0119184508939
0.0263273060005
0.0528005424571
0.087685762354
0.00557125606127
0.00693330535882
0.00736914480851
0.00754144789174
0.00761183517465
0.00761820171246
0.00751000444612
0.00714951334926
0.00649965678704
0.00642620430331
0.00652705235632
0.00678153108738
0.00730870277493
0.0078386908901
0.00816358065907
0.00868023620278
0.0116682323691
0.0247381238347
0.056226379063
0.0930611434603
0.00554836361253
0.00691408599849
0.00734866311284
0.00751493264098
0.00756911127883
0.00752533098021
0.00726405256238
0.00620583620847
0.00553305447687
0.00690305871443
0.00733790884736
0.00750147321393
0.00754625672296
0.00747233042104
0.00711974735214
0.00585283895292
0.00553305788874
0.00690306280525
0.0073379125404
0.00750147612186
0.0075462584159
0.00747233118973
0.00711974893578
0.00585284990069
0.00554837221377
0.00691409724333
0.00734867344197
0.00751494096043
0.00756911692565
0.00752533498801
0.00726406093771
0.00620585432754
)
;
    }
    sides
    {
        type            kqRWallFunction;
        value           nonuniform List<scalar> 0();
    }
    bottom
    {
        type            kqRWallFunction;
        value           nonuniform List<scalar> 10(0.00573921613979 0.00570435464872 0.00566860573591 0.00563339951692 0.00560042471183 0.00557125606127 0.00554836361253 0.00553305447687 0.00553305788874 0.00554837221377);
    }
    front
    {
        type            kqRWallFunction;
        value           nonuniform List<scalar> 
164
(
0.00795695716048
0.00799951909605
0.00804649669876
0.00809771727204
0.00815310852278
0.00821500172116
0.0082993653226
0.00852132806912
0.00949068373936
0.0136586061826
0.0265900598076
0.0519619909019
0.0818913553532
0.00573921613979
0.00711358199104
0.00755052213416
0.00772352277782
0.00785168142901
0.00789296027908
0.00793532267888
0.00798168171326
0.00803274427348
0.00808812136674
0.0081471616005
0.00821067979198
0.00828783256317
0.00844910738794
0.00913160781084
0.0125461479468
0.0251091526403
0.0521421259567
0.0830232369431
0.00570435464872
0.00707317877486
0.00751072271689
0.00768629951442
0.00776866508717
0.00782026855057
0.00786468899448
0.00791050165397
0.00796099569805
0.00801686988226
0.00807735400566
0.00814118569796
0.00820779410924
0.00828419651701
0.00841599884544
0.0089279210012
0.01183725632
0.024224749083
0.053639461558
0.0849602890693
0.00566860573591
0.00703286390559
0.0074706442924
0.00764789197416
0.00773216389288
0.00778565189974
0.00783174808741
0.00787885613398
0.00793168269657
0.0079923919989
0.00805903920254
0.00812931139712
0.00820000584825
0.00828026446907
0.00839769040148
0.00877398689403
0.0111495000462
0.0229168207726
0.0561145079206
0.0876822710082
0.00563339951692
0.00699466143536
0.0074322505135
0.00760979625788
0.00769407938783
0.00774597841176
0.00778620240144
0.00782086873881
0.00786115828764
0.00792330875093
0.00799757946593
0.00807823343467
0.00815531964543
0.00825621872777
0.00837812733016
0.00865300339478
0.0102569173563
0.0203781025841
0.0551582661665
0.0902195451821
0.00560042471183
0.00696081070531
0.00739773286446
0.00757382368244
0.00765441341361
0.00769457606775
0.00770147133572
0.00766057453431
0.00759497419792
0.00764471004733
0.007735764181
0.00784091854149
0.00793669691014
0.00814303826458
0.00832295748986
0.0087545261983
0.0119184508939
0.0263273060005
0.0528005424571
0.087685762354
0.00557125606127
0.00693330535882
0.00736914480851
0.00754144789174
0.00761183517465
0.00761820171246
0.00751000444612
0.00714951334926
0.00649965678704
0.00642620430331
0.00652705235632
0.00678153108738
0.00730870277493
0.0078386908901
0.00816358065907
0.00868023620278
0.0116682323691
0.0247381238347
0.056226379063
0.0930611434603
0.00554836361253
0.00691408599849
0.00734866311284
0.00751493264098
0.00756911127883
0.00752533098021
0.00726405256238
0.00620583620847
0.00553305447687
0.00690305871443
0.00733790884736
0.00750147321393
0.00754625672296
0.00747233042104
0.00711974735214
0.00585283895292
0.00553305788874
0.00690306280525
0.0073379125404
0.00750147612186
0.0075462584159
0.00747233118973
0.00711974893578
0.00585284990069
0.00554837221377
0.00691409724333
0.00734867344197
0.00751494096043
0.00756911692565
0.00752533498801
0.00726406093771
0.00620585432754
)
;
    }
    atmosphere
    {
        type            inletOutlet;
        inletValue      uniform 0.1;
        value           uniform 0.1;
    }
    floatingObject
    {
        type            kqRWallFunction;
        value           nonuniform List<scalar> 8(0.00649965678704 0.00642620430331 0.00652705235632 0.00678153108738 0.00620583620847 0.00585283895292 0.00585284990069 0.00620585432754);
    }
    procBoundary3to4
    {
        type            processor;
        value           nonuniform List<scalar> 
13
(
0.00797590624385
0.00801519414648
0.0080587291661
0.00577223986441
0.00715261838917
0.00758861877953
0.0077584650379
0.00788000542858
0.00791805095663
0.00791805095663
0.00780300348594
0.00780300348594
0.00780300348594
)
;
    }
    procBoundary3to5
    {
        type            processor;
        value           nonuniform List<scalar> 10(0.00810668635803 0.00815963848171 0.00822268208458 0.00833167594458 0.00871963965527 0.0104018647374 0.0161578751124 0.0299600973108 0.0530639821033 0.0816181563514);
    }
    procBoundary3to6
    {
        type            processor;
        value           nonuniform List<scalar> 8(0.00655929241197 0.00754923864512 0.00799329368987 0.0084035778736 0.0102355392321 0.0211423427218 0.0567714313532 0.0970295295352);
    }
    procBoundary3to8
    {
        type            processor;
        value           nonuniform List<scalar> 8(0.00557127378174 0.00693332682272 0.00736916553477 0.00754146629902 0.00761185000362 0.00761821316837 0.00751001564588 0.00714952451038);
    }
}


// ************************************************************************* //
