/*--------------------------------*- C++ -*----------------------------------*\
| =========                 |                                                 |
| \\      /  F ield         | OpenFOAM: The Open Source CFD Toolbox           |
|  \\    /   O peration     | Version:  v2012                                 |
|   \\  /    A nd           | Website:  www.openfoam.com                      |
|    \\/     M anipulation  |                                                 |
\*---------------------------------------------------------------------------*/
FoamFile
{
    version     2.0;
    format      ascii;
    class       surfaceVectorField;
    location    "2.1";
    object      Uf_0;
}
// * * * * * * * * * * * * * * * * * * * * * * * * * * * * * * * * * * * * * //

dimensions      [0 1 -1 0 0 0 0];


internalField   nonuniform List<vector> 
296
(
(-0.0266220075408 -0.0289871478179 1.67528110843e-22)
(-0.024834410791 -0.0270212054457 3.0073919956e-22)
(-0.0264504120213 -0.0329735261066 1.55228533303e-22)
(-0.02483201993 -0.0307731061734 4.3658180981e-22)
(-0.0258820840584 -0.0371915652836 1.65117857829e-22)
(-0.024379633199 -0.0346388684333 5.06581940384e-22)
(-0.0247689719083 -0.0416026132112 7.03142427339e-23)
(-0.0235579700877 -0.0386456767307 3.98943349529e-22)
(-0.0228175031294 -0.0461611325028 7.07050085731e-23)
(-0.0221073077866 -0.0426680600812 2.01379032484e-22)
(-0.0192415703829 -0.0510608763268 2.46474050783e-22)
(-0.0196702001324 -0.0467230870475 1.24219388644e-22)
(-0.0138271571657 -0.0566229003104 3.36504038999e-22)
(-0.0144445354697 -0.0497945002499 1.78073829049e-22)
(-0.00785571993177 -0.0620311858883 1.01642965267e-21)
(-0.0074488855136 -0.0549285967281 -4.1057778014e-22)
(-0.00755777689213 -0.0690250785397 1.17233769739e-20)
(0.00193651598523 -0.0564234422147 -1.13793052821e-21)
(-0.0120034353576 -0.0842692048052 1.42176053686e-20)
(0.0020055145573 -0.0679060467207 9.51487440507e-21)
(-0.0645721489191 -0.116633333627 -2.52331916234e-20)
(0.00230016118842 -0.0576349026506 -1.06315102986e-20)
(-0.056556905681 -0.201962500399 -4.85735412288e-20)
(-0.0846902662631 -0.107800181362 -9.99819211022e-20)
(0.0231869563833 -0.257913329405 -7.11066213419e-20)
(-0.0252808315173 -0.00365541186711 6.47601294927e-22)
(-0.0246327620504 -0.00171401635922 2.87978850215e-21)
(-0.0235847241145 -0.00713127649207 -5.35572497017e-22)
(-0.0224865119332 -0.00563504522315 -6.70994743134e-22)
(-0.022807423929 -0.0105780791049 -6.39530673938e-23)
(-0.0213440951506 -0.00871684345066 -5.57667084555e-23)
(-0.0209388330941 -0.0123557221468 1.90477553149e-22)
(-0.022598321403 -0.0213472304987 3.19424354915e-22)
(-0.0208173251446 -0.0195123228982 2.51293944731e-22)
(-0.0227207435854 -0.0251287818099 4.47200274938e-22)
(-0.0208621373731 -0.023278425461 1.10585537904e-21)
(-0.0227990839632 -0.0288502607847 5.69792898527e-22)
(-0.0211127064002 -0.0269702299117 2.37342726807e-21)
(-0.0225504004791 -0.0324801345966 7.87935216891e-22)
(-0.0212016327015 -0.0304439816784 4.1139932502e-21)
(-0.0218623312176 -0.0361820337487 7.40407432084e-22)
(-0.0206769564591 -0.03392383173 4.94909739412e-21)
(-0.0207348056429 -0.0399109524888 5.30008139279e-22)
(-0.0198280324258 -0.0375189435718 3.51458525163e-21)
(-0.0189439601437 -0.0433128102401 2.54893412555e-22)
(-0.0187042979821 -0.0408582478276 2.81705328716e-21)
(-0.0153262870728 -0.0459506272987 5.58191669105e-23)
(-0.0170311948131 -0.0431869121464 7.50644852836e-22)
(-0.00925254769761 -0.0480616955846 -5.69007990091e-22)
(-0.0123323904821 -0.0439638753185 -3.93673143109e-22)
(-0.00123763954963 -0.0494026436196 -2.56493796102e-21)
(-0.00610704746657 -0.0459707512882 -1.05265796157e-21)
(0.0049875791506 -0.0491615468586 -3.34643309706e-21)
(0.00169604012684 -0.0430615645191 -2.69491294699e-21)
(0.00933528978971 -0.0545460304927 -1.53342412621e-20)
(0.00739027467993 -0.0452394556587 -1.1478194108e-21)
(-0.0182266011261 -0.0733818699103 -8.53802397774e-20)
(0.0211360388121 -0.0354128451104 -3.28119606493e-20)
(-0.00233604355594 -0.163056058705 -1.22515001215e-19)
(0.00498398724798 -0.0734208969052 -1.68808484999e-19)
(0.104456759114 -0.257202231407 -1.12389553299e-19)
(-0.0217305367307 -0.00365132461054 1.56119246409e-21)
(-0.0209815359516 -0.00168719412878 4.1424138513e-21)
(-0.0201421647744 -0.00711489335175 -1.91188954572e-22)
(-0.0190230825381 -0.00561355533033 -3.23786065113e-22)
(-0.0193559042557 -0.0105432923932 1.98663912088e-22)
(-0.0179158712342 -0.00865594633528 4.54443237607e-22)
(-0.0190394208417 -0.0140187444716 2.91609572096e-22)
(-0.0174636402932 -0.0122811455068 3.77984380193e-22)
(-0.0189238225181 -0.0175989035363 3.18823401752e-22)
(-0.0172245012226 -0.015774317245 6.56956955614e-22)
(-0.0189057311756 -0.0212759018626 1.03772496886e-21)
(-0.0171403912436 -0.0194232220966 1.41928120622e-21)
(-0.0190875131233 -0.0250795243425 3.03208237218e-21)
(-0.017058382496 -0.0232889289165 7.53403169968e-21)
(-0.0193321850958 -0.028632432607 5.91762761975e-21)
(-0.0175594120642 -0.0270453406684 2.33336176239e-20)
(-0.0191185207586 -0.031950337889 8.27515542743e-21)
(-0.0178830378561 -0.0302880722326 4.12273158539e-20)
(-0.0184004323221 -0.0353258307341 7.72327521366e-21)
(-0.0173004710584 -0.0334120377366 5.66164053649e-20)
(-0.0175295342442 -0.0387032160126 5.80163039951e-21)
(-0.0164494020555 -0.0368637080447 4.15298239633e-20)
(-0.016669196618 -0.0413085956842 3.31280472744e-21)
(-0.0160975211084 -0.0400799261477 2.99827034618e-20)
(-0.0140144732715 -0.0417368994044 3.01152542816e-22)
(-0.0166014676624 -0.0406006259883 1.34624017104e-20)
(-0.00902094293928 -0.0419508433791 -8.77323114585e-22)
(-0.012117128557 -0.0391883431732 7.58792108676e-21)
(-0.00328190856213 -0.041241694757 -1.18263294753e-21)
(-0.00681509717717 -0.0402238639281 5.15162304022e-21)
(0.00304778704216 -0.0366737613555 -4.96299260728e-22)
(-0.00287110541095 -0.0357142485463 -3.48813017918e-21)
(0.0162398270135 -0.0342626118901 -1.86255387981e-20)
(0.00497948149495 -0.0378263559787 -1.05562446179e-20)
(0.0422084125743 -0.0429568802179 -1.16240205871e-19)
(0.0298303561642 -0.0238520722721 -5.12769699272e-20)
(0.138479386601 -0.143192395218 -1.58683037083e-19)
(0.10522074676 -0.0490134706921 -3.11539865398e-19)
(0.211635263545 -0.272963833171 -9.6335612386e-20)
(-0.0182151577135 -0.00361085947755 2.2574353221e-21)
(-0.0173708657731 -0.00164955548071 4.23893900571e-21)
(-0.0167412458009 -0.00703500004363 3.21846127066e-22)
(-0.0155991753658 -0.00554824068799 -5.45885463861e-23)
(-0.0159432600467 -0.010406272923 6.33763705712e-22)
(-0.01454484093 -0.00852668110576 8.73301252418e-22)
(-0.0155245350646 -0.0138565450237 7.43331763712e-22)
(-0.0140136039154 -0.0120835182195 9.7427843666e-22)
(-0.0152624920946 -0.0174417458567 1.75741476009e-21)
(-0.0136394573781 -0.0155228330805 2.92715421449e-21)
(-0.0150530357246 -0.0211771712437 7.91558793705e-21)
(-0.0134049686596 -0.0191346485818 1.16832387973e-20)
(-0.0152090739093 -0.0251596781195 2.78355669514e-20)
(-0.0130756439828 -0.023223034263 5.37024829654e-20)
(-0.0157278122376 -0.0288381783104 5.8643305858e-20)
(-0.0138803829637 -0.0276409956037 1.86962609981e-19)
(-0.0156481940794 -0.0317260804467 8.95685657913e-20)
(-0.0149942596913 -0.0312299789147 3.84787846088e-19)
(-0.0149282342397 -0.034975893871 9.04229541145e-20)
(-0.0140494390989 -0.0342879116918 5.37236538782e-19)
(-0.0146707883622 -0.0383123606846 6.57108970256e-20)
(-0.0131114305919 -0.0380195225999 4.22440139015e-19)
(-0.0159330573823 -0.0405714237793 4.01323004448e-20)
(-0.0138367881315 -0.0419696502578 3.67399289008e-19)
(-0.0146697040591 -0.0380931121246 2.07491702544e-20)
(-0.0190780713584 -0.0397032193326 2.00124989824e-19)
(-0.00940822745325 -0.0369560388098 1.36168672416e-20)
(-0.0132526132646 -0.034267182568 6.72469951707e-20)
(-0.00487271501381 -0.0373302995376 2.84612580857e-21)
(-0.00643950182119 -0.0359977584297 5.55520720859e-21)
(0.00231653740887 -0.0344026418679 -1.35480755363e-20)
(-0.00579780279109 -0.0297410542574 -3.3591653044e-21)
(0.0223806945149 -0.0345038441237 -4.3207675747e-20)
(0.00508111890774 -0.0375089621661 2.61735612597e-21)
(0.0923331511387 -0.0326409780377 -2.46576629455e-19)
(0.0279675735748 -0.0118486652463 -1.77036280893e-20)
(0.13408372471 -0.122044566139 -2.49192440702e-19)
(0.194624685129 -0.0308250674109 7.62267762763e-21)
(0.423831358002 -0.124820735841 7.69507446122e-20)
(-0.0147631748833 -0.00355170492012 1.92691513722e-21)
(-0.0138194268633 -0.00161903199457 3.23699756179e-21)
(-0.0134153240156 -0.0069103475609 4.96866578966e-22)
(-0.0122408345907 -0.00546179401041 1.1376297095e-22)
(-0.0126261126757 -0.0102031362202 1.21381598337e-21)
(-0.0112523499372 -0.00835250728809 7.72924446415e-22)
(-0.0121323326187 -0.013542759921 3.15810088743e-21)
(-0.0106742350155 -0.0117948487648 2.64174963613e-21)
(-0.011742389112 -0.0170339863121 1.28529782517e-20)
(-0.0101483802754 -0.0151575782326 1.36590692565e-20)
(-0.011202574183 -0.0208064515518 5.74701338256e-20)
(-0.0096324704701 -0.0186202361044 6.56418038713e-20)
(-0.0112631452752 -0.0253603021689 2.12829525995e-19)
(-0.00852149721935 -0.0234629265038 3.04627940904e-19)
(-0.0128070546783 -0.03035221305 5.13107150211e-19)
(-0.00888784250434 -0.0308450397164 1.09850505377e-18)
(-0.0132310909246 -0.0336440113647 8.32455819079e-19)
(-0.0117014139453 -0.0361753838335 2.58575647284e-18)
(-0.0118224914914 -0.0373171420714 8.69253723682e-19)
(-0.01037486303 -0.0387840400116 3.49542785745e-18)
(-0.0117499795195 -0.0412526737346 7.24128530997e-19)
(-0.00917414266998 -0.0432046768841 2.60498600858e-18)
(-0.0166359377177 -0.0432888495804 5.27391978387e-19)
(-0.0117986739029 -0.0496718662419 2.714529469e-18)
(-0.0175021134737 -0.0353468899015 2.4662281474e-19)
(-0.0270178070292 -0.0433211358564 1.93524381822e-18)
(-0.0107750184555 -0.0319057126285 5.91853351377e-20)
(-0.0166915962993 -0.0301235612585 9.41698951882e-19)
(-0.00901952434956 -0.0309232547836 -6.50083904387e-22)
(-0.00742008459099 -0.0364022242883 4.70244260221e-19)
(-0.0091597278509 -0.0289852438582 1.28062663579e-20)
(-0.00773444941309 -0.0342376160774 2.17139317253e-19)
(-0.0044359952105 -0.0229919401652 2.81214037836e-20)
(-0.000911445325437 -0.0662424685601 1.7425881769e-19)
(0.0503569729039 -0.0215343341768 2.36495678993e-19)
(0.026510039027 -0.0663017501217 4.14398320232e-19)
(0.455540535852 0.0778941104959 3.33765862941e-19)
(0.09519540025 -0.152323981155 1.35736638697e-18)
(0.596069940527 -0.14807587128 8.97349402836e-19)
(-0.0113531846019 -0.00349941533194 1.42384539552e-21)
(-0.0103203302459 -0.00160389511449 2.32232767243e-21)
(-0.0101326666626 -0.00677399883723 3.89820838398e-22)
(-0.00896659288846 -0.00535702558664 -5.58777085128e-23)
(-0.00935536051325 -0.00995803250031 2.20085809918e-21)
(-0.00806864358402 -0.00813112170462 1.48197120955e-21)
(-0.0087769725281 -0.0131905598606 1.31427180052e-20)
(-0.00744197750065 -0.0114157848413 9.9124684095e-21)
(-0.00828455180906 -0.0166435551575 6.64478948762e-20)
(-0.00669553651618 -0.0148080011683 5.45659593431e-20)
(-0.00750768850766 -0.0207324500049 3.1279961095e-19)
(-0.00554353434636 -0.0183938570533 2.67914892898e-19)
(-0.00696465776312 -0.0278324530506 1.19030346868e-18)
(-0.00142117927138 -0.024475243535 1.20687737772e-18)
(-0.00814534782108 -0.0379702705381 3.1711543764e-18)
(0.00125071893792 -0.0360243689305 4.5326349694e-18)
(-0.00863706447851 -0.0406447853201 5.24872851121e-18)
(-0.00902569870914 -0.0465301188749 1.24661875198e-17)
(-0.00737071318932 -0.0444337718548 5.23116014235e-18)
(-0.00658426532526 -0.0514973244521 1.51718360226e-17)
(-0.00813880390687 -0.0500422464347 4.59538694659e-18)
(-0.00356374677196 -0.0558467578788 9.25910338761e-18)
(-0.0208918324273 -0.0541413825821 4.12238130883e-18)
(-0.00769687559643 -0.0664560515657 1.29053239799e-17)
(-0.0250412582222 -0.036657887484 2.63031995536e-18)
(-0.0444982211722 -0.05136417555 7.67233030936e-18)
(-0.0113917202055 -0.0326790699031 1.35275787697e-18)
(-0.0206673847668 -0.0286975414101 4.66397703869e-18)
(-0.00309446048127 -0.0408603543395 6.88033661378e-19)
(0.00076375687133 -0.0382787211668 2.26101408648e-18)
(0.00651997964889 -0.0666986095854 3.78591868585e-19)
(0.0181057234711 -0.03830798701 9.93262676217e-19)
(0.0501387300216 -0.116685491593 5.60535734139e-19)
(0.0490764382327 -0.0802673372186 5.82913947052e-19)
(0.16970852246 -0.203686008746 1.53526902821e-18)
(0.113510854703 -0.0818938048438 7.04121205705e-19)
(0.357481067985 -0.308946239078 1.92094992686e-18)
(0.200458061823 -0.180100899145 1.9414482605e-18)
(0.604773417048 -0.381507228982 1.54386545155e-18)
(-0.00803578336938 -0.00343970552523 8.42604568397e-22)
(-0.00688096207668 -0.0016359794465 9.95267918861e-22)
(-0.00698477715459 -0.00658720352775 1.03627266264e-21)
(-0.00581944465736 -0.00524863141973 -3.05950061269e-22)
(-0.00617668322274 -0.00960928392569 9.19358151986e-21)
(-0.00504689471175 -0.00780819896319 4.26122288061e-21)
(-0.00511572197114 -0.0127658581529 5.13357097474e-20)
(-0.00428567766446 -0.0105860451462 3.0870207185e-20)
(-0.00321080622885 -0.0165189227231 2.56032957365e-19)
(-0.00294263458702 -0.0133519124706 1.63796548717e-19)
(0.00149572837198 -0.0214944376481 1.16199265967e-18)
(-0.000568000187394 -0.0152007725254 7.6921500915e-19)
(0.007869214084 -0.0306413699469 4.54920887844e-18)
(0.00772609728947 -0.0186299670217 2.85109263544e-18)
(0.000968250985042 -0.04721427187 1.38276681128e-17)
(0.0178242659964 -0.0214601291073 8.42754809994e-18)
(-0.00684261406709 -0.0562392358659 2.23892950312e-17)
(-0.00270356333442 -0.0628225796348 1.91997792679e-17)
(-0.00402295219149 -0.0663849597122 1.75690404209e-17)
(-0.0359583970478 -0.0740801330544 1.64552729804e-17)
(-0.0452184297867 -0.0390627309959 9.70598739269e-18)
(-0.0111412610792 -0.0320388039251 5.57223324821e-18)
(0.0158334593244 -0.0373954241745 2.56624310132e-18)
(0.0453361292827 -0.0463980791696 1.19758475468e-18)
(0.0854675126733 -0.0581650279603 7.26499418618e-19)
(0.125352971998 -0.0444378350255 1.11030043799e-18)
(0.414566299699 -0.0699043569648 1.56436378518e-18)
(-0.00478285523392 -0.00344318934866 -1.53286710805e-22)
(-0.00343809411881 -0.00168692516383 1.41136279758e-21)
(-0.00407167646088 -0.00638358715477 2.91900015671e-21)
(-0.00287937497217 -0.00518095923522 7.97208187428e-22)
(-0.00349918248705 -0.00893680861456 2.59378485457e-20)
(-0.00249398809995 -0.00756282349476 8.89062154529e-21)
(-0.00269879579846 -0.0110324415139 1.43331046154e-19)
(-0.00219031672767 -0.00992728800013 6.41028075393e-20)
(-0.000964874108561 -0.0122505564212 6.76978600502e-19)
(-0.00172470295777 -0.0120778222549 3.48139602974e-19)
(0.00393945680043 -0.0125173295354 2.45831498493e-18)
(-0.000301246607001 -0.0123050124349 1.71702009785e-18)
(0.0129634246791 -0.0083454728975 6.72943185694e-18)
(0.00355436158444 -0.0125497824603 6.15878743319e-18)
(0.00947882711106 -0.00474456227371 1.98042338955e-17)
(-0.00156938932346 -0.00343893769697 2.36185769581e-21)
(5.4961900254e-07 -0.00170178167087 3.34617689875e-21)
(-0.00132497975559 -0.00631983992467 6.76882957601e-21)
(1.2229831416e-06 -0.00516219520319 2.33126642115e-21)
(-0.0011502696496 -0.00881550066538 4.70555805389e-20)
(1.36079034499e-06 -0.00750985571507 1.18463088144e-20)
(-0.00101691333855 -0.0110072997366 2.68911364359e-19)
(1.18281142474e-06 -0.00987116579336 8.24620972769e-20)
(-0.000754715886203 -0.0127330572553 1.38818110032e-18)
(8.04814805111e-07 -0.0120978322031 4.55057859861e-19)
(8.36288308419e-05 -0.0130347663426 5.41749254611e-18)
(3.18643475839e-07 -0.0126689121337 2.32043316401e-18)
(0.00243862340397 -0.00948007803548 1.92335894718e-17)
(-3.57773935831e-07 -0.0130047683573 8.5135600811e-18)
(-1.22173572e-06 -0.00505285433434 2.99524529945e-17)
(0.00157116584762 -0.00343901500539 3.31558562409e-21)
(0.00343929604155 -0.00168702310202 3.79285070998e-21)
(0.00132754082099 -0.00631986503768 7.40874565954e-21)
(0.00288176718999 -0.00518106599186 3.28263146613e-21)
(0.00115276059192 -0.00881540329553 4.72528255524e-20)
(0.00249655305691 -0.0075627609614 9.78488830104e-21)
(0.001018818908 -0.0110070560487 2.68608592779e-19)
(0.0021924714834 -0.00992694937501 6.39704513795e-20)
(0.000755715047536 -0.0127327121258 1.38730992355e-18)
(0.0017261297479 -0.0120772929377 3.46434118657e-19)
(-8.375169438e-05 -0.0130344184323 5.416500699e-18)
(0.000301807387363 -0.0123044189003 1.71490019768e-18)
(-0.00244027129877 -0.00947979521268 1.92324236038e-17)
(-0.0035550004063 -0.0125492507547 6.15695444442e-18)
(-0.00948100011983 -0.0047443346101 1.98033040782e-17)
(0.00478465924188 -0.00344332375474 3.75989655201e-21)
(0.00407408062545 -0.00638360759353 5.65877410762e-21)
(0.00350143713278 -0.00893650615454 2.65025141281e-20)
(0.00270052247539 -0.0110318384019 1.41795977258e-19)
(0.00096580339773 -0.0122497967926 6.74024392783e-19)
(-0.00393952283199 -0.0125164334673 2.45535394309e-18)
(-0.0129647865032 -0.00834502066948 6.72783491885e-18)
)
;

boundaryField
{
    back
    {
        type            calculated;
        value           uniform (0 0 0);
    }
    sides
    {
        type            calculated;
        value           nonuniform List<vector> 0();
    }
    bottom
    {
        type            calculated;
        value           uniform (0 0 0);
    }
    front
    {
        type            calculated;
        value           uniform (0 0 0);
    }
    atmosphere
    {
        type            calculated;
        value           nonuniform List<vector> 7((0 -0.232539526302 0) (0 -0.244325989256 0) (0 -0.250371865844 0) (0 -0.334240239303 0) (0 -0.0943410506402 0) (0 -0.317648405496 0) (0 -0.802184607736 0));
    }
    floatingObject
    {
        type            calculated;
        value           nonuniform List<vector> 8((0 -3.88578058619e-15 4.85722573274e-16) (0 0 4.85722573274e-16) (0 0 0) (0 -7.77156117238e-15 4.85722573274e-16) (9.71445146547e-16 0 0) (0 0 4.85722573274e-16) (0 0 4.85722573274e-16) (0 0 0));
    }
    procBoundary3to4
    {
        type            processor;
        value           nonuniform List<vector> 
13
(
(-0.0286922193173 -0.027003528053 1.29556652389e-22)
(-0.02881899655 -0.0310134808543 1.64876007397e-22)
(-0.0285985292145 -0.0352670697808 1.29754931532e-22)
(-0.0282881936059 -0.00172183858611 2.9079749779e-21)
(-0.025962331767 -0.00560339948464 -6.51401981623e-22)
(-0.0247906246332 -0.00870983269355 -1.24668525835e-22)
(-0.0244337931393 -0.0123333067041 1.38825576363e-22)
(-0.0245087370685 -0.0195063497331 1.83995510181e-22)
(-0.0265293078697 -0.0251293409401 1.65992675704e-22)
(-0.0246436357281 -0.0232566845865 3.12453751082e-22)
(-0.0225681240424 -0.0140731192823 1.71166101424e-22)
(-0.022545203409 -0.0176555921742 2.0476866335e-22)
(-0.0208044762657 -0.0158656696141 2.72298120371e-22)
)
;
    }
    procBoundary3to5
    {
        type            processor;
        value           nonuniform List<vector> 10((-0.0279703532931 -0.0398132431851 2.03728996163e-22) (-0.0266672836763 -0.0447258812786 6.78697772665e-23) (-0.0245715006133 -0.0501776393116 6.95741646562e-22) (-0.0200079130874 -0.0549941564848 4.98085111417e-22) (-0.0128583088514 -0.0630943155149 1.57652053463e-21) (-0.00505809100198 -0.0695970125962 1.14076470941e-20) (-0.0132389269352 -0.0893330167421 3.39456121436e-20) (-0.03006395037 -0.0868018800478 4.46255373012e-20) (-0.170018262514 -0.143739100701 1.87991244106e-20) (-0.00738892174882 -0.234064088153 -6.3850995067e-22));
    }
    procBoundary3to6
    {
        type            processor;
        value           nonuniform List<vector> 8((-0.0795120502293 -0.0340789667169 1.05242656709e-17) (-0.0276878738645 -0.0281342583705 7.58146748529e-18) (0.00612328431449 -0.0385113165489 4.26334609241e-18) (0.0271104795903 -0.0275664457217 2.32242475025e-18) (0.0608444869159 -0.0420991333428 1.39879190743e-18) (0.0997839471926 0.0105830867445 8.55528878735e-19) (0.225930752655 -0.0033884554209 1.42602516229e-18) (1.33705708769 -0.732394325656 1.45432316803e-18));
    }
    procBoundary3to8
    {
        type            processor;
        value           nonuniform List<vector> 8((0.00688237862053 -0.00163628005962 3.02147584067e-21) (0.00582174890971 -0.00524906679509 2.0965919161e-21) (0.00504908937613 -0.00780834677334 4.80342705422e-21) (0.00428741081407 -0.0105856537161 3.0161220675e-20) (0.00294373528587 -0.013351059592 1.60895272131e-19) (0.000568233291281 -0.0151996768613 7.66517176982e-19) (-0.00772645678258 -0.0186289103648 2.84795492919e-18) (-0.0178259439113 -0.0214600263746 8.42524316105e-18));
    }
}


// ************************************************************************* //
