/*--------------------------------*- C++ -*----------------------------------*\
| =========                 |                                                 |
| \\      /  F ield         | OpenFOAM: The Open Source CFD Toolbox           |
|  \\    /   O peration     | Version:  v2012                                 |
|   \\  /    A nd           | Website:  www.openfoam.com                      |
|    \\/     M anipulation  |                                                 |
\*---------------------------------------------------------------------------*/
FoamFile
{
    version     2.0;
    format      ascii;
    class       surfaceScalarField;
    location    "2.7";
    object      alphaPhi0.water;
}
// * * * * * * * * * * * * * * * * * * * * * * * * * * * * * * * * * * * * * //

dimensions      [0 3 -1 0 0 0 0];
oriented        oriented;


internalField   nonuniform List<scalar> 
300
(
4.7103497257e-06
-1.06978378516e-05
9.23381204114e-06
-3.3858545436e-06
1.37571011281e-05
3.1265146786e-06
1.84722436112e-05
6.00547144713e-06
2.35379527359e-05
7.13327905703e-06
2.90809629144e-05
7.84537573784e-06
3.52269173526e-05
8.64076958144e-06
9.66613032679e-06
4.80731406089e-06
-1.55058956826e-05
9.42728274328e-06
-8.00635598442e-06
1.40462857795e-05
-1.49264747922e-06
1.8896849014e-05
1.15524137773e-06
2.41348731105e-05
1.89610427536e-06
2.9910668681e-05
2.071073724e-06
3.63644833765e-05
2.18885979632e-06
2.4320212778e-06
4.7336142191e-06
-2.02399429957e-05
9.35070808598e-06
-1.26236746908e-05
1.39860887592e-05
-6.12790260221e-06
1.88698807892e-05
-3.72797383497e-06
2.41641956582e-05
-3.39716936865e-06
3.00232402793e-05
-3.78649018197e-06
3.66088887788e-05
-4.39492272803e-06
4.41156864935e-05
-5.07260883473e-06
5.27256512667e-05
-5.75230676488e-06
-6.33313977898e-06
4.5732020134e-06
-2.48133377423e-05
9.04987636232e-06
-1.71003290599e-05
1.35919954916e-05
-1.06696597693e-05
1.83959577787e-05
-8.5311429874e-06
2.3615103134e-05
-8.61508280616e-06
2.9415083299e-05
-9.58486744951e-06
3.59671744432e-05
-1.09451385442e-05
4.34804837473e-05
-1.25837847921e-05
5.22064789108e-05
-1.44758659139e-05
-1.65731284903e-05
4.36946764426e-06
-2.91828146225e-05
8.56378984483e-06
-2.12944466473e-05
1.28861564328e-05
-1.49914896773e-05
1.74655021437e-05
-1.31095386129e-05
2.24536947447e-05
-1.36019053255e-05
2.80327830287e-05
-1.51622389337e-05
3.43541209725e-05
-1.72645457446e-05
4.16388321459e-05
-1.9866275976e-05
5.01920963087e-05
-2.30265842952e-05
-2.67797961919e-05
3.98549341862e-06
-3.31681821138e-05
7.92243727666e-06
-2.52310546854e-05
1.18988828381e-05
-1.89672855936e-05
1.61507431647e-05
-1.73603635302e-05
2.08090092494e-05
-1.82587442979e-05
2.59324509201e-05
-2.02839336239e-05
3.1762028699e-05
-2.30922004517e-05
3.8506805913e-05
-2.66088743017e-05
4.64457573872e-05
-3.09631072564e-05
-3.63283197036e-05
3.56921746683e-06
-3.67371753443e-05
6.98571150531e-06
-2.86471213153e-05
1.05447100791e-05
-2.25255704619e-05
1.43289333307e-05
-2.11435298987e-05
1.8460293053e-05
-2.2388704695e-05
2.30509320888e-05
-2.48729051124e-05
2.82453037792e-05
-2.82847906093e-05
3.42177354525e-05
-3.25793819831e-05
4.11102072646e-05
-3.78536559389e-05
-4.46373627612e-05
3.01914325054e-06
-3.97560120805e-05
5.9901690563e-06
-3.16176440993e-05
9.0773575892e-06
-2.56120056021e-05
1.23247997112e-05
-2.43899326321e-05
1.57720929181e-05
-2.58346865644e-05
1.96044932045e-05
-2.87038111528e-05
2.39331196435e-05
-3.26119058816e-05
2.88627007648e-05
-3.75075129059e-05
3.45650075812e-05
-4.35548853962e-05
-5.10951556137e-05
2.41549518502e-06
-4.2171108198e-05
4.81219689328e-06
-3.40137561523e-05
7.26583454524e-06
-2.80648431064e-05
9.86745247185e-06
-2.69905304904e-05
1.26811907836e-05
-2.86472212472e-05
1.57527562745e-05
-3.17740964097e-05
1.90609841927e-05
-3.59189480793e-05
2.2673284362e-05
-4.11189421327e-05
2.67453489251e-05
-4.76268156989e-05
-5.56864885283e-05
1.71988257825e-06
-4.38904631116e-05
3.50409746497e-06
-3.57972603964e-05
5.35635956167e-06
-2.99162246451e-05
7.30886877746e-06
-2.89420075766e-05
9.36095524158e-06
-3.06981806198e-05
1.15503745284e-05
-3.39624089583e-05
1.38265652886e-05
-3.81942264385e-05
1.622631243e-05
-4.35183164107e-05
1.86017674136e-05
-5.00028496868e-05
-5.80735291929e-05
9.78838037338e-07
-4.4868602292e-05
2.12466452827e-06
-3.6942212604e-05
3.36076355419e-06
-3.1151319658e-05
4.63995324673e-06
-3.02200961622e-05
5.93005340049e-06
-3.19871521732e-05
7.21318953597e-06
-3.52445109353e-05
8.50798811733e-06
-3.9488252982e-05
9.70503872092e-06
-4.47152455796e-05
1.08057721804e-05
-5.11044127929e-05
-5.86310995839e-05
3.29825509252e-07
-4.51975405251e-05
7.30851965561e-07
-3.73421800871e-05
1.3067748404e-06
-3.17260773438e-05
1.89001894739e-06
-3.08021145389e-05
2.4663048797e-06
-3.25622304851e-05
2.93039583026e-06
-3.57075330393e-05
3.27163737634e-06
-3.98287236322e-05
3.42956329833e-06
-4.48730650913e-05
3.23809839788e-06
-5.09135609842e-05
-5.80444308289e-05
-3.77997814274e-07
-4.48184668485e-05
-6.15160645853e-07
-3.71037761579e-05
-6.87884727145e-07
-3.16520146096e-05
-7.43750260106e-07
-3.07448699358e-05
-9.01412329304e-07
-3.24032316164e-05
-1.16649778458e-06
-3.54412876188e-05
-1.7095304617e-06
-3.9284852433e-05
-2.51505721655e-06
-4.40672738698e-05
-3.79979688664e-06
-4.9628993264e-05
-5.60395837979e-05
-1.10698365794e-06
-4.37102489832e-05
-1.96931024882e-06
-3.62400491012e-05
-2.62784434563e-06
-3.09919796329e-05
-3.29747801828e-06
-3.00736917398e-05
-4.06518982531e-06
-3.16340226467e-05
-5.06540395273e-06
-3.44397837385e-05
-6.26973082122e-06
-3.807964262e-05
-7.91942493383e-06
-4.24170094015e-05
-1.01788951187e-05
-4.73691560079e-05
-5.29342878984e-05
-1.79718736539e-06
-4.19114466503e-05
-3.24605714579e-06
-3.47894638388e-05
-4.47382851097e-06
-2.97624191803e-05
-5.67626579889e-06
-2.88695390901e-05
-7.03111771909e-06
-3.0277612219e-05
-8.56702110989e-06
-3.29026373307e-05
-1.04026089286e-05
-3.62426740871e-05
-1.2618566713e-05
-4.0200536693e-05
-1.53866229298e-05
-4.46001407363e-05
-4.93594931031e-05
-2.39193112461e-06
-3.95175079603e-05
-4.41599419013e-06
-3.27632804296e-05
-6.13942286806e-06
-2.80370318195e-05
-7.89641880911e-06
-2.71100262989e-05
-9.72165642153e-06
-2.84509461801e-05
-1.17525857906e-05
-3.08694038871e-05
-1.4063597504e-05
-3.39309950326e-05
-1.66384677988e-05
-1.95952110661e-05
-2.98104814845e-06
-5.51064298675e-06
-7.73193368941e-06
-9.87637814044e-06
-1.21971919572e-05
-2.61260115554e-05
-1.4664131114e-05
)
;

boundaryField
{
    back
    {
        type            calculated;
        value           uniform 0;
    }
    sides
    {
        type            calculated;
        value           nonuniform List<scalar> 0();
    }
    bottom
    {
        type            calculated;
        value           uniform 0;
    }
    front
    {
        type            calculated;
        value           uniform 0;
    }
    atmosphere
    {
        type            calculated;
        value           nonuniform List<scalar> 0();
    }
    floatingObject
    {
        type            calculated;
        value           nonuniform List<scalar> 0();
    }
    procBoundary4to0
    {
        type            processor;
        value           nonuniform List<scalar> 8(5.98554657689e-06 -1.13923213168e-06 -7.65080285349e-06 -1.07207595212e-05 -1.21982022256e-05 -1.33866679198e-05 -1.47842239048e-05 -1.65836015239e-05);
    }
    procBoundary4to3
    {
        type            processor;
        value           nonuniform List<scalar> 
13
(
-3.76246411721e-05
-4.16438683697e-05
-4.58853868559e-05
-3.6534258877e-05
-3.02314524486e-05
-2.58121558317e-05
-2.49638352245e-05
-2.84013660077e-05
-1.73304367758e-05
-3.12635088149e-05
1.17232578714e-05
-1.43822971757e-05
-2.34642974112e-05
)
;
    }
    procBoundary4to5
    {
        type            processor;
        value           nonuniform List<scalar> 
18
(
4.21472446227e-05
4.36007322185e-05
-2.85429925652e-06
-3.6093290257e-06
6.26711745561e-05
6.24490419105e-05
6.04014063874e-05
5.59967257249e-05
4.94209065703e-05
4.10233722279e-05
3.13361722379e-05
2.09875576628e-05
1.13619257066e-05
2.65037465063e-06
-5.80509234018e-06
-1.32838900639e-05
-1.89620777839e-05
-2.3068191829e-05
)
;
    }
}


// ************************************************************************* //
