/*--------------------------------*- C++ -*----------------------------------*\
| =========                 |                                                 |
| \\      /  F ield         | OpenFOAM: The Open Source CFD Toolbox           |
|  \\    /   O peration     | Version:  v2012                                 |
|   \\  /    A nd           | Website:  www.openfoam.com                      |
|    \\/     M anipulation  |                                                 |
\*---------------------------------------------------------------------------*/
FoamFile
{
    version     2.0;
    format      ascii;
    class       volVectorField;
    location    "2.7";
    object      ddtCorrDdt0(U);
}
// * * * * * * * * * * * * * * * * * * * * * * * * * * * * * * * * * * * * * //

dimensions      [0 1 -2 0 0 0 0];


internalField   nonuniform List<vector> 
164
(
(0.177693279194 -0.00179955742657 9.23001719626e-23)
(0.177689999044 -0.00605225761705 5.97287864089e-23)
(0.178654726638 -0.00992980008227 8.15772441847e-23)
(0.180617242873 -0.0139492705318 -3.41951390545e-25)
(0.183148645465 -0.0179632369413 5.15601670357e-23)
(0.186225163444 -0.0219888416655 -1.47525436121e-23)
(0.189883272313 -0.0259798465878 2.96302059142e-24)
(0.194149930068 -0.0298785293331 -6.04435507702e-25)
(0.181329453703 -0.00148584682028 1.70216735554e-22)
(0.181287607244 -0.00512213993369 -2.57582959959e-22)
(0.182273221591 -0.00839878027524 9.39399244116e-23)
(0.184266873606 -0.0118082064119 1.26707503599e-22)
(0.186820721641 -0.0152231170453 3.96558576767e-23)
(0.189898081935 -0.0186581575711 2.96309030154e-23)
(0.193517895014 -0.0220623526437 6.61836693395e-23)
(0.197676549571 -0.0253850294721 2.45051517618e-24)
(0.184360763536 -0.00116046001356 2.17918723511e-22)
(0.18428594528 -0.0041693755951 -1.17356361305e-22)
(0.185297882934 -0.00683746691142 -2.55144799704e-23)
(0.187334187623 -0.00963800275661 4.10710673339e-23)
(0.189925054776 -0.0124684916521 2.74932909373e-23)
(0.193020425139 -0.015341618459 6.65621606221e-23)
(0.196617394294 -0.0182187530389 4.4237907113e-24)
(0.200683591263 -0.0210401252642 3.79680340102e-24)
(0.205193389057 -0.0236994378292 1.17422342914e-22)
(0.210116498941 -0.0260550400433 2.10446450255e-23)
(0.186753665011 -0.000834086547541 2.72985849602e-22)
(0.186656745007 -0.00319088411737 -1.25531589945e-23)
(0.187713706197 -0.00523605788654 7.35673911492e-23)
(0.189811171462 -0.00742033475105 5.76402984086e-23)
(0.192468380932 -0.00967630488795 6.92799864984e-23)
(0.195620640976 -0.0120157474308 2.40581201177e-23)
(0.199238900746 -0.0144129691195 9.68433016074e-24)
(0.20327127652 -0.0168125550626 7.35880924505e-24)
(0.20764285728 -0.019107789782 7.43753958697e-23)
(0.212263244377 -0.0211505868101 4.77977836866e-23)
(0.188466058505 -0.000511350393433 1.64467825978e-22)
(0.188369802559 -0.00217488807627 -3.08854631957e-22)
(0.189498898533 -0.00356720436775 6.58548959192e-23)
(0.191691860049 -0.00512121130588 9.62846463459e-23)
(0.194463119767 -0.00679829552217 8.79153240203e-23)
(0.197739201621 -0.0086202076994 4.32377649573e-23)
(0.20145823984 -0.0105817991708 1.9200240779e-23)
(0.205542225008 -0.0126421531785 -4.19522563323e-23)
(0.209866490171 -0.0147140604118 1.68682423614e-22)
(0.214268205949 -0.0166568779687 9.48798149633e-23)
(0.189470937079 -0.000154321100395 8.52919949936e-23)
(0.189404916641 -0.00108529132791 7.43695777936e-23)
(0.19062500147 -0.00179834183217 1.08167372533e-23)
(0.192961807263 -0.00269305406668 9.25312783766e-23)
(0.195911759971 -0.00376942248139 5.97879391091e-23)
(0.19938139525 -0.00507081266519 3.03087249736e-23)
(0.203306065708 -0.00662475660465 2.42677907163e-23)
(0.207571873004 -0.00840928113295 1.04781776225e-23)
(0.212012608512 -0.0103825864783 -2.69256719918e-23)
(0.216392588248 -0.012466643448 7.20276241683e-23)
(0.189735393264 0.000225801077655 5.7037845831e-23)
(0.189705819542 9.07384888648e-05 -8.46709851536e-23)
(0.191055015839 0.000106169497259 5.07000952608e-23)
(0.193582529603 -7.05467373317e-05 2.52666094702e-23)
(0.196788365456 -0.000518715501276 4.47324016886e-23)
(0.200549845473 -0.00127429183102 1.13152943927e-22)
(0.204813860951 -0.00240490260893 6.43475005595e-23)
(0.209437661478 -0.00394119069995 6.23572265824e-23)
(0.214205765477 -0.0058966229224 4.76225317963e-23)
(0.218865694623 -0.008303820407 2.60146799396e-23)
(0.18917567193 0.000639820485654 -3.8864002165e-24)
(0.189218789582 0.00137835451157 2.90813751401e-22)
(0.190739629191 0.00219925478358 4.44242154358e-23)
(0.193499787379 0.00280770664235 4.59265094287e-23)
(0.197025228345 0.00305876670179 1.30392865744e-22)
(0.201194458585 0.00290801601286 6.5643971165e-23)
(0.205957061297 0.00225227195189 6.988669593e-23)
(0.211158357292 0.000980918917639 4.15267047835e-23)
(0.216563761133 -0.000959820962326 6.99802401404e-23)
(0.221842324034 -0.00375791378197 4.08082750529e-22)
(0.18768320509 0.00111533461793 6.87500175795e-23)
(0.187908277514 0.00282661186623 2.79828534254e-22)
(0.189583833115 0.00451364088265 9.48123815879e-23)
(0.192623736477 0.00598497948188 3.28779263485e-23)
(0.196558510864 0.00703927803282 1.85011639615e-23)
(0.201238962628 0.00761419377685 9.69774877214e-24)
(0.206649665687 0.00755078430198 5.32775783225e-23)
(0.212636520765 0.00666453207461 -2.18882121582e-23)
(0.219000109169 0.00478841748465 8.37872550536e-23)
(0.225368798743 0.00170583486848 1.57375471455e-22)
(0.185059366533 0.00171649976169 -1.37257468571e-22)
(0.185768493394 0.00447228776759 6.96899977134e-23)
(0.187484746849 0.00705280900864 -2.21771994401e-22)
(0.190838481226 0.0095611628254 -3.31304290887e-23)
(0.195318842896 0.0115381130139 -1.48805599814e-23)
(0.20053909072 0.0129540972823 3.32766479861e-23)
(0.206751105017 0.013641000303 3.12818970458e-23)
(0.213742947239 0.0133344368465 7.39845879003e-23)
(0.221308348432 0.0117848423212 6.62517619591e-24)
(0.22923537289 0.00869670312517 -4.9828219966e-23)
(0.181668619898 0.00270031594575 -3.26354768811e-22)
(0.182191461644 0.00647482969024 1.20557365286e-22)
(0.184293509473 0.00973253614253 -2.23587199164e-22)
(0.188032801862 0.0136027641309 -1.17840384961e-22)
(0.192978371401 0.0166130334269 -1.08124742275e-23)
(0.199025361178 0.0190080124033 4.8007874178e-23)
(0.206157173038 0.0207457615315 4.92626232321e-23)
(0.214304682937 0.0212243603761 3.13711053157e-23)
(0.223302729153 0.020294982711 -1.49805934544e-23)
(0.232996761894 0.0176028775065 8.24832239922e-23)
(0.177153739006 0.00310680712612 -2.80936748108e-22)
(0.177315564653 0.00834121919013 9.87558907186e-22)
(0.179876405004 0.0130558451657 7.62910850837e-23)
(0.184042675075 0.0180431916017 -1.22046672031e-22)
(0.189467276918 0.0224063790766 -7.3294152013e-23)
(0.196404874193 0.0260919543931 -3.65386724175e-23)
(0.204554201114 0.0289096232034 1.96967658794e-23)
(0.21398556333 0.0304763435802 -5.92546416223e-23)
(0.224623946632 0.0304700357366 7.09118912413e-24)
(0.236293737692 0.0285387441039 1.54100017112e-22)
(0.171041903195 0.00368967566413 -5.67954366375e-22)
(0.171464819875 0.0104056050532 6.10438408383e-22)
(0.174145093442 0.0166113108206 5.4095268646e-23)
(0.17867772825 0.0230015408182 -3.55622745143e-22)
(0.184712449972 0.0288580506891 -1.20135174751e-22)
(0.192352447959 0.0340509892232 5.07604276326e-23)
(0.201593343079 0.0383156915419 6.66645388111e-24)
(0.212449256607 0.0412946046379 2.4455742853e-22)
(0.224894190214 0.0426025326256 -7.03744578405e-23)
(0.238801020255 0.0418363964785 -1.6649510441e-22)
(0.163523591279 0.00437458108551 -9.3299008588e-22)
(0.164116853703 0.0126499027817 1.25088310525e-21)
(0.166948722159 0.0204325370057 3.4268040934e-22)
(0.171783257401 0.0284288876217 -1.62156108473e-22)
(0.178324703009 0.0359714050741 -1.03786633338e-22)
(0.186691289158 0.0429349336081 -3.17261486909e-23)
(0.196998118697 0.0490000531982 -1.40806804983e-22)
(0.209336799539 0.0537840940038 -1.19305858857e-22)
(0.223715085784 0.0568359161255 -1.75935163454e-22)
(0.240024834625 0.0576414213843 2.00572860138e-22)
(0.154517356758 0.00511799526716 -6.013673926e-22)
(0.155204851507 0.0150215144938 1.27015998086e-21)
(0.158140133315 0.0244561982162 2.71290629664e-22)
(0.163164372011 0.0342179658422 -1.08268317288e-22)
(0.170078929389 0.0436690656887 -1.12350030698e-22)
(0.179068140526 0.0526908909861 2.77160022663e-23)
(0.19037302801 0.0609585080669 -1.58122422059e-23)
(0.204187362898 0.0680245605789 1.86617419925e-22)
(0.220608749371 0.0733228293408 2.34218080276e-23)
(0.239535435442 0.0761749770174 1.34664227045e-23)
(0.143938690627 0.00587341422372 -1.5301946323e-21)
(0.14466178135 0.0174296200491 1.37334961321e-21)
(0.147592359522 0.0285713115485 6.93803703852e-23)
(0.152658809822 0.0402271374408 -7.68016507597e-23)
(0.159719430273 0.0517910040911 -4.3218030218e-23)
(0.169131237159 0.0632001336578 2.63490606289e-23)
(0.181252644124 0.0741216419102 2.7863122523e-22)
(0.196451587383 0.0840360150566 3.53689799341e-22)
(0.21497069491 0.0922117990638 7.35215910517e-22)
(0.236845976015 0.0977524624171 1.07680935693e-21)
(0.131802309507 0.00661770113702 -1.70139465963e-21)
(0.132488764278 0.0197804556692 3.68436225934e-22)
(0.135269830119 0.0326355754052 3.94016937561e-23)
(0.14010933586 0.0462277149346 6.39951857382e-23)
(0.147030070317 0.0600744254107 1.64231597073e-23)
(0.156462251 0.0742097156473 1.44224217456e-22)
(0.169029680038 0.0882871375826 1.16684004321e-21)
(0.131811925792 0.0680891777836 5.15019188285e-22)
)
;

boundaryField
{
    back
    {
        type            calculated;
        value           uniform (0 0 0);
    }
    sides
    {
        type            calculated;
        value           nonuniform List<vector> 0();
    }
    bottom
    {
        type            calculated;
        value           uniform (0 0 0);
    }
    front
    {
        type            calculated;
        value           uniform (0 0 0);
    }
    atmosphere
    {
        type            calculated;
        value           nonuniform List<vector> 0();
    }
    floatingObject
    {
        type            calculated;
        value           nonuniform List<vector> 0();
    }
    procBoundary4to0
    {
        type            processor;
        value           nonuniform List<vector> 8((0.173461770299 -0.00211104366032 4.98323695728e-22) (0.173498621583 -0.00696457205814 -3.66721775332e-22) (0.174434017874 -0.0114374500996 5.04005665412e-23) (0.176368596567 -0.016068726831 -3.90253211199e-23) (0.178879521955 -0.0206968409642 3.88747749417e-23) (0.181957880617 -0.0253436207448 1.06782025284e-23) (0.185654865989 -0.0299715777857 -4.0736904207e-24) (0.190018785185 -0.0345298715856 -5.90682489221e-24));
    }
    procBoundary4to3
    {
        type            processor;
        value           nonuniform List<vector> 
13
(
(0.185381632294 0.10175157452 2.77316747882e-21)
(0.205988728337 0.113725666013 4.6089826001e-21)
(0.231093344372 0.123018183336 6.26205982966e-21)
(0.118237205875 0.00728935942366 -4.04422129911e-22)
(0.118793279252 0.0219324111329 1.52737117058e-21)
(0.121214955387 0.0363727046984 2.34721696124e-22)
(0.125512136818 0.051891848737 8.19767600725e-23)
(0.140703956314 0.0851955101667 2.24910264388e-21)
(0.185381632294 0.10175157452 2.77316747882e-21)
(0.153068837424 0.103045398825 6.8422659651e-21)
(0.125512136818 0.051891848737 8.19767600725e-23)
(0.140703956314 0.0851955101667 2.24910264388e-21)
(0.113958307596 0.075225395459 2.93044790148e-21)
)
;
    }
    procBoundary4to5
    {
        type            processor;
        value           nonuniform List<vector> 
18
(
(0.19903452131 -0.0336275309427 3.94287199371e-23)
(0.202363991552 -0.0285377620019 -6.23032949353e-24)
(0.202363991552 -0.0285377620019 -6.23032949353e-24)
(0.207607139468 -0.0313848045744 4.9731733848e-23)
(0.21542954407 -0.027926369307 1.33152499187e-23)
(0.217049130643 -0.0227081965343 -7.03158871448e-23)
(0.218549725891 -0.0182292370334 -7.85461619571e-23)
(0.22037003983 -0.0144593871036 -3.39445467946e-24)
(0.22292315481 -0.0110790369777 1.15424639123e-23)
(0.226569488519 -0.00751158241672 -9.00544027849e-23)
(0.23143951298 -0.00288528298247 4.01348340901e-22)
(0.237167278275 0.00373137211715 2.11603842072e-22)
(0.243178596397 0.0128001214722 1.61243528455e-22)
(0.248862607062 0.0242802266031 -5.98848350338e-22)
(0.253981980059 0.0386021497518 3.10855578202e-22)
(0.257987219135 0.0557509709984 -4.81550868178e-22)
(0.260683616133 0.0759358515743 2.85877857646e-22)
(0.261816928092 0.0995804247839 6.18491320481e-22)
)
;
    }
}


// ************************************************************************* //
