/*--------------------------------*- C++ -*----------------------------------*\
| =========                 |                                                 |
| \\      /  F ield         | OpenFOAM: The Open Source CFD Toolbox           |
|  \\    /   O peration     | Version:  v2012                                 |
|   \\  /    A nd           | Website:  www.openfoam.com                      |
|    \\/     M anipulation  |                                                 |
\*---------------------------------------------------------------------------*/
FoamFile
{
    version     2.0;
    format      ascii;
    class       surfaceVectorField;
    location    "2.7";
    object      ddtCorrDdt0(Uf);
}
// * * * * * * * * * * * * * * * * * * * * * * * * * * * * * * * * * * * * * //

dimensions      [0 1 -2 0 0 0 0];


internalField   nonuniform List<vector> 
300
(
(0.177691639119 -0.00399110555618 7.60144791857e-23)
(0.179657816765 -0.00164270212342 1.31258453758e-22)
(0.178172362841 -0.00794882338957 7.06530152968e-23)
(0.179606037235 -0.00558719877537 -9.89270867752e-23)
(0.179635984756 -0.0119291122661 4.06176463971e-23)
(0.180578619313 -0.00916429017876 8.77585842982e-23)
(0.181882944169 -0.0159348840481 2.56091078226e-23)
(0.182549270558 -0.0128787384719 6.3182776104e-23)
(0.184686904455 -0.0199568373592 1.84038117118e-23)
(0.185085458899 -0.0165931769933 4.56080123562e-23)
(0.188054217879 -0.0239705003435 -5.89476151034e-24)
(0.188153876293 -0.0203234996183 7.43917970164e-24)
(0.19201660119 -0.0279305393435 1.17929254186e-24)
(0.191782159846 -0.0240210996157 3.45733449655e-23)
(0.195995388171 -0.0276317794026 9.23039834238e-25)
(0.181308530474 -0.00337635621431 -4.36831122025e-23)
(0.183006396667 -0.00132315341692 1.94067729533e-22)
(0.181780414418 -0.00672132284854 -8.18215177738e-23)
(0.182921519717 -0.0046457577644 -1.87469660632e-22)
(0.183270047599 -0.010086793988 1.10323714005e-22)
(0.183913964804 -0.00761812359333 3.42127222206e-23)
(0.185543797623 -0.0134883440808 8.31816806376e-23)
(0.185921045487 -0.0107231045843 8.38892854662e-23)
(0.188359401788 -0.0169145479381 3.4643380346e-23)
(0.188483704101 -0.0138458043487 3.3574574307e-23)
(0.191707988474 -0.0203428267742 4.79072861775e-23)
(0.191558781647 -0.016999888015 4.80965318187e-23)
(0.195597222292 -0.0237257816293 3.43170922579e-23)
(0.195151317116 -0.0201405528413 3.53037300254e-23)
(0.199244503781 -0.0232125773682 3.1236592886e-24)
(0.184323354408 -0.00273932001353 5.0281181103e-23)
(0.185722199356 -0.000997273280553 2.45452286556e-22)
(0.184791914107 -0.00546122663989 -7.14354206377e-23)
(0.185618512892 -0.00368012985624 -6.49547601497e-23)
(0.186316035278 -0.00821341648552 7.77829368172e-24)
(0.186641192451 -0.00603676239898 2.40264555894e-23)
(0.1886296212 -0.0110166407025 3.42821791356e-23)
(0.188700792145 -0.00852916875383 4.93556828712e-23)
(0.191472739958 -0.0138664669445 4.70277257797e-23)
(0.191313657829 -0.01107239827 4.83866387179e-23)
(0.194818909717 -0.0167428346763 3.54929756667e-23)
(0.194422234407 -0.0136786829449 4.53101403699e-23)
(0.198650492779 -0.0196029993357 4.11029705616e-24)
(0.198010234779 -0.0163158610792 7.05406043602e-24)
(0.20293849016 -0.0223679911993 6.06095731574e-23)
(0.202038737322 -0.0189263401634 5.57780632304e-24)
(0.207654943999 -0.0249011234656 6.92334939697e-23)
(0.206458691709 -0.0214036138056 9.58988693917e-23)
(0.211212137392 -0.0236028134267 3.4421214356e-23)
(0.186705205009 -0.00208086113087 1.30216345304e-22)
(0.187782123417 -0.000672718470487 2.1872683779e-22)
(0.187185225602 -0.00415856750244 3.05071160774e-23)
(0.187674543514 -0.00268288609682 -1.60703895476e-22)
(0.188762438829 -0.00629151213663 6.56038447789e-23)
(0.188753301115 -0.00440163112715 6.97111435342e-23)
(0.191139776197 -0.00850051738637 6.34601424535e-23)
(0.190891880736 -0.00627077302846 7.69624723773e-23)
(0.194044510954 -0.0107913987838 4.66690533081e-23)
(0.193592438906 -0.00823730020506 7.85976552594e-23)
(0.197429770861 -0.0131573626443 1.68712251392e-23)
(0.196785850354 -0.0103179775651 3.36479425375e-23)
(0.201255088633 -0.0155638268705 8.5215697029e-24)
(0.200429048257 -0.0124973841452 1.44422854699e-23)
(0.2054570669 -0.0179295684066 4.08671025574e-23)
(0.204456107002 -0.0147273541206 -1.72967235436e-23)
(0.209953050828 -0.0201236132192 6.10865897781e-23)
(0.20876821119 -0.0169109250969 1.21528909742e-22)
(0.213236226543 -0.0189037323894 7.13387993249e-23)
(0.188417930532 -0.00140552548695 -7.21934029894e-23)
(0.18916922021 -0.000332835746914 1.24879910486e-22)
(0.188934350546 -0.00280400207715 -1.21499868019e-22)
(0.189054749258 -0.00163008970209 -1.17242527082e-22)
(0.190595379291 -0.00429577659929 8.10697711325e-23)
(0.190228586756 -0.00268277309996 3.83358165862e-23)
(0.193077489908 -0.00589670361821 9.20999851831e-23)
(0.192480526996 -0.00390713268628 9.44079623612e-23)
(0.196101160694 -0.00763187894722 6.55765444888e-23)
(0.195322978749 -0.00528385900178 7.38516315647e-23)
(0.199598720731 -0.00951831710402 3.12190028681e-23)
(0.198679698187 -0.00684551018229 3.67732449654e-23)
(0.203500232424 -0.0115334684952 -1.13760077766e-23)
(0.202468764716 -0.0086032778877 2.17340157476e-23)
(0.207704357589 -0.013611446163 6.33650836408e-23)
(0.206602438849 -0.0105257171557 -1.57370393549e-23)
(0.21206734806 -0.0156474892023 1.31781119289e-22)
(0.210939065354 -0.012548323445 7.0878375811e-23)
(0.215264608459 -0.0145617607083 8.34537195658e-23)
(0.18943792686 -0.000671194261459 7.98307863936e-23)
(0.18982524168 3.57399886303e-05 7.11649204123e-23)
(0.190014959056 -0.00139186093677 4.25931575234e-23)
(0.18976141955 -0.000497276419525 -5.15070367998e-24)
(0.191793404366 -0.00219768039985 5.16740078149e-23)
(0.19102292596 -0.000846086167457 3.0758416257e-23)
(0.194436783617 -0.00317228897934 7.61596087428e-23)
(0.193448578915 -0.001381800402 5.88989439234e-23)
(0.19764657761 -0.00435699900188 4.50483320414e-23)
(0.196509597552 -0.00214406899133 5.22601703989e-23)
(0.201343730479 -0.00575482088741 2.72882578449e-23)
(0.200092173139 -0.0031725522481 7.17308344504e-23)
(0.205438969356 -0.00740513710313 1.73729841694e-23)
(0.204151160359 -0.00451482960679 4.43076456379e-23)
(0.209792240758 -0.00927782242675 -8.22374718467e-24)
(0.208550250445 -0.00617523591645 3.64177021024e-23)
(0.21420259838 -0.0113050255045 2.25509760882e-23)
(0.213101284743 -0.00813960470035 1.03484299023e-23)
(0.217529700206 -0.0103852319275 4.90211520539e-23)
(0.189720606403 0.000104379256823 -1.38165696613e-23)
(0.189710193732 0.000432810781655 2.65757228073e-23)
(0.19038041769 0.000181577744359 -1.69854449464e-23)
(0.189675755298 0.000734546500216 1.03071383123e-22)
(0.192318772721 9.46725203186e-05 3.79833523655e-23)
(0.191104213559 0.00115271214042 4.75621553483e-23)
(0.195185447529 -0.000198814444458 3.49995055794e-23)
(0.19374124137 0.00136857995251 3.55965594494e-23)
(0.198669105464 -0.000776198366843 7.89426728079e-23)
(0.197094029415 0.00127002560026 8.75626337165e-23)
(0.202681853212 -0.00169547651579 8.87502222433e-23)
(0.201029870849 0.00081686209092 8.93984575461e-23)
(0.207125761214 -0.00301686139601 6.33523635709e-23)
(0.205505861602 -7.6315328521e-05 6.71170982448e-23)
(0.211821713478 -0.00476344123396 5.49898791893e-23)
(0.210366379136 -0.00148013589116 5.1941965683e-23)
(0.21653573005 -0.00690869005964 3.68186058679e-23)
(0.215360484625 -0.00342822194236 5.88013859684e-23)
(0.220258881609 -0.00603086709449 2.17048715234e-22)
(0.189197230756 0.000983618478635 1.43463675592e-22)
(0.188722112847 0.00087757755179 3.24318086815e-23)
(0.189979209386 0.00185456561185 1.67618983418e-22)
(0.188803545164 0.0021024831889 2.85321142827e-22)
(0.192119708285 0.00255490804012 4.51753624322e-23)
(0.190405315336 0.00335644783311 6.96182985118e-23)
(0.195262507862 0.00300390240906 8.81596875865e-23)
(0.193297465843 0.00439634306211 3.94022178886e-23)
(0.199109843465 0.00311051232699 9.80184184547e-23)
(0.196998542349 0.00504902236731 7.44470148529e-23)
(0.203575759941 0.0027573739925 6.77653335475e-23)
(0.201402220588 0.00526110489485 3.76708599686e-23)
(0.208557709294 0.001826839388 5.57067003568e-23)
(0.206465543524 0.00490152812693 6.15821371263e-23)
(0.213861059212 0.000230961066661 5.5753472462e-23)
(0.212015609931 0.00382272549613 9.81924631266e-24)
(0.219203042584 -0.00214007075298 2.39031495335e-22)
(0.217808442724 0.00191429826116 7.6883747597e-23)
(0.223521046243 -0.00102603945675 2.82729110992e-22)
(0.187795741302 0.00198319500079 1.74289275917e-22)
(0.186742826585 0.00141591718981 -3.42537254957e-23)
(0.188746055315 0.00372292973699 1.87320457921e-22)
(0.187071859583 0.00364944981691 1.74759265984e-22)
(0.191103784796 0.00533409858418 6.38451539682e-23)
(0.188804378146 0.00578322494565 -6.34798064064e-23)
(0.194591123671 0.00663858866646 2.5689545155e-23)
(0.192005306703 0.00777307115364 -1.26251370092e-25)
(0.198898736746 0.00747481096322 1.40994563668e-23)
(0.196177639715 0.00928869552335 1.81030199004e-24)
(0.203944314157 0.00776098635209 3.14876635473e-23)
(0.201135020173 0.0102841455296 2.14871983791e-23)
(0.209643093226 0.00733865805899 1.56946830822e-23)
(0.206910592513 0.0105958923025 4.22797376842e-23)
(0.215818314967 0.00603526318835 3.09495214477e-23)
(0.213351512965 0.00999948446055 2.6048187871e-23)
(0.222184453956 0.00361508843259 1.20581363254e-22)
(0.220264492273 0.0082866299029 4.52062156248e-23)
(0.227339923972 0.00520126899683 5.37736257444e-23)
(0.185413929963 0.00326352135079 -3.37837354288e-23)
(0.183494075841 0.00220840785372 -2.31806118691e-22)
(0.186626620121 0.00581743978632 -7.60409983437e-23)
(0.184537585941 0.00547355872891 9.51236814995e-23)
(0.189161614037 0.00841992650594 -1.27451211745e-22)
(0.186223005487 0.00839267257559 -2.22679596782e-22)
(0.193078662061 0.0107106756106 -2.4005494535e-23)
(0.189735860864 0.0115819634781 -7.54854070249e-23)
(0.197928966808 0.0123815102195 9.19804400234e-24)
(0.19452792208 0.0140755732204 -1.28465171045e-23)
(0.203645097869 0.0135191234471 3.2279272516e-23)
(0.20001764957 0.0159810548428 4.0642261082e-23)
(0.210247026128 0.0137701263129 5.26332424731e-23)
(0.206677673598 0.0171933809172 4.0272260139e-23)
(0.217525647835 0.0128904053217 4.03048820481e-23)
(0.214246180202 0.0172793986113 5.2677846608e-23)
(0.225271860661 0.0106685748128 -2.16015218851e-23)
(0.222490896188 0.0160399125161 -4.17770862927e-24)
(0.231281614815 0.0131497903158 1.63275020131e-23)
(0.181930040771 0.00359583672068 -1.02898701763e-22)
(0.179925919872 0.00290356153594 -3.0364575846e-22)
(0.183242485558 0.008251309676 -5.15149169391e-23)
(0.179915149029 0.00740802444018 5.54058136236e-22)
(0.186163155667 0.0120781536082 -1.70713792062e-22)
(0.182429983362 0.0113941906541 -7.364805704e-23)
(0.190505586632 0.0154393750818 -6.43264295943e-23)
(0.186406932774 0.0158229778663 -1.19943528496e-22)
(0.19600186629 0.018515703972 1.85976999752e-23)
(0.19148090379 0.0195097062518 -4.20533131202e-23)
(0.202591267108 0.0204325107296 4.8635248705e-23)
(0.198125496784 0.0225499833982 5.73460088023e-24)
(0.210230927987 0.0213879904408 4.03168642739e-23)
(0.205740159097 0.0248276923674 3.44796945557e-23)
(0.218803706045 0.0211674788464 8.19525593065e-24)
(0.214473236857 0.0258503519781 -1.39417681533e-23)
(0.228149745523 0.0193788185474 3.37513152689e-23)
(0.224271391341 0.0253825092238 -3.94470216516e-24)
(0.234896815992 0.0230708108052 1.18291620552e-22)
(0.177234651829 0.00547439340276 3.53311079539e-22)
(0.174492864045 0.00339824139512 -4.24445557242e-22)
(0.178595984828 0.0106505131372 5.31924996135e-22)
(0.174785968395 0.00937341212166 7.98998657784e-22)
(0.181959540039 0.015729135583 -2.28777934735e-23)
(0.17739855082 0.0148335779932 6.51931768648e-23)
(0.186754975997 0.0204219294635 -9.76704120218e-23)
(0.181758516876 0.02052236621 -2.38834708587e-22)
(0.192936075556 0.0244247171609 -5.49164122152e-23)
(0.187517378144 0.0256322148828 -9.67146633821e-23)
(0.200479537654 0.0277981433321 -8.42095326906e-24)
(0.194783771472 0.0300714718081 7.11087760754e-24)
(0.209269882222 0.0300746983296 -1.97789378715e-23)
(0.203485525467 0.0336126573727 1.31816098802e-23)
(0.219304754981 0.0309284926078 -2.60817262491e-23)
(0.213627027465 0.0358854741091 9.2651393454e-23)
(0.230458842162 0.030047710226 8.05956031181e-23)
(0.225148711056 0.0365362841811 -3.16416343582e-23)
(0.237914656442 0.0351875702912 -6.19754364904e-24)
(0.171253361535 0.00684552446043 2.12420210037e-23)
(0.167701368492 0.00403212837482 -7.50472226128e-22)
(0.172804956659 0.0134733539738 3.32266838514e-22)
(0.168217708022 0.0115277539175 9.30660756816e-22)
(0.176411410846 0.0199556564488 -1.50763738248e-22)
(0.170975713663 0.0185219239132 1.98387838993e-22)
(0.181695089111 0.026086267378 -2.37878959947e-22)
(0.175683722953 0.02571521422 -2.58889426808e-22)
(0.188532448965 0.0316607846095 -3.46873735593e-23)
(0.181992036503 0.0324147278816 -1.11960904045e-22)
(0.196972895519 0.0364635919479 2.87134407568e-23)
(0.190020094733 0.0384929614156 9.51713947082e-24)
(0.207021299843 0.040188552383 1.25611941206e-22)
(0.199787457221 0.0436578723701 -6.7070175551e-23)
(0.218671723411 0.0424169737887 8.70914853449e-23)
(0.211411255777 0.0475393493209 6.26257848364e-23)
(0.231847605235 0.0427710618494 -1.18434781125e-22)
(0.224804119626 0.0497192243756 -1.23154810647e-22)
(0.23984709688 0.0497389089314 1.70388778641e-23)
(0.163820222491 0.00831906596454 1.58946509685e-22)
(0.159446407299 0.00474628817633 -7.6717873924e-22)
(0.165532787931 0.016506515777 7.96781757295e-22)
(0.160099631342 0.0138357086378 1.26052154305e-21)
(0.16936598978 0.0245461693185 9.02621504334e-23)
(0.163005363072 0.0224443676109 3.06985519502e-22)
(0.175053980205 0.0323259394756 -1.32971370906e-22)
(0.16796946286 0.0313234267319 -1.35212212881e-22)
(0.182507996084 0.039635620975 -6.77563910144e-23)
(0.174740731563 0.0398202353814 -1.08068332018e-22)
(0.191844703928 0.0462453539152 -8.6266476837e-23)
(0.183456770609 0.0478129122971 -2.00507321233e-24)
(0.203167459118 0.0517626881213 -1.3005633192e-22)
(0.194299415789 0.0549792806325 -7.83095235945e-23)
(0.216525942661 0.0557980516107 -1.47620511156e-22)
(0.207400049803 0.0609043272913 3.36557805336e-23)
(0.231869960205 0.0578541652702 1.23188483423e-23)
(0.222779044365 0.0650793727331 -7.62566777131e-23)
(0.24034382228 0.0669081992008 1.07019641421e-22)
(0.154861104132 0.00987875180823 3.34396294128e-22)
(0.149649769131 0.00549570474544 -1.06578101245e-21)
(0.156672492411 0.0196808854845 7.7072530526e-22)
(0.150380999315 0.0162255672714 1.32175479703e-21)
(0.160652252663 0.0294251468743 8.1511156188e-23)
(0.153342237276 0.0265137548823 1.70335500025e-22)
(0.1666216507 0.0390249757656 -1.10309173993e-22)
(0.158440479425 0.0372225516415 -9.25349840241e-23)
(0.174573534957 0.0483277295608 -4.23170142158e-23)
(0.16549841546 0.0477300348899 -7.7784030458e-23)
(0.184720584268 0.0570596385029 5.95188003019e-24)
(0.174766651334 0.0579455123219 2.70325314476e-23)
(0.197280195454 0.0648560669778 8.54025888594e-23)
(0.186552058641 0.0675400749885 1.31409491512e-22)
(0.212398056135 0.0711836959205 1.05019613976e-22)
(0.201097509851 0.0760302878178 2.70153609633e-22)
(0.230072092406 0.0754475848595 1.8444115366e-23)
(0.21858660252 0.0827673142023 3.79318859272e-22)
(0.238891171993 0.0869637197173 5.45137889818e-22)
(0.144300235988 0.0114522790903 -7.8422509547e-23)
(0.138295578963 0.00624555768037 -1.61579464596e-21)
(0.146127070436 0.0229115470671 7.21364991796e-22)
(0.139019582248 0.0186050378591 8.7089291957e-22)
(0.150125584672 0.0344245955539 -3.71064018722e-24)
(0.141911707451 0.0306034434769 5.43910320707e-23)
(0.156189120047 0.0460348869553 -6.00098404889e-23)
(0.146932339167 0.0432274261877 -6.40323251074e-24)
(0.164425333716 0.0575599147005 -8.43448479455e-24)
(0.154013317337 0.0559327147509 -1.33974352554e-23)
(0.175191940641 0.0688342516466 1.5249014293e-22)
(0.163574629746 0.0687049246526 8.52866390424e-23)
(0.188852115754 0.0793930266678 3.16160512286e-22)
(0.176011154922 0.0812043897464 7.22735634218e-22)
(0.205711141147 0.08865856493 5.44452854929e-22)
(0.225908335463 0.0957366005118 9.06012633725e-22)
(0.132145536892 0.0129912264971 -6.66479216846e-22)
(0.133879297198 0.0260618448385 2.03918959845e-22)
(0.137689582989 0.0394119252171 5.16984397471e-23)
(0.143569703088 0.0530491985046 4.02091727227e-23)
(0.151746160659 0.0671135407779 8.03236885815e-23)
(0.140104387192 0.0640818015972 2.65721173996e-22)
(0.162745965519 0.0812956352995 6.55532130331e-22)
)
;

boundaryField
{
    back
    {
        type            calculated;
        value           uniform (0 0 0);
    }
    sides
    {
        type            calculated;
        value           nonuniform List<vector> 0();
    }
    bottom
    {
        type            calculated;
        value           uniform (0 0 0);
    }
    front
    {
        type            calculated;
        value           uniform (0 0 0);
    }
    atmosphere
    {
        type            calculated;
        value           nonuniform List<vector> 0();
    }
    floatingObject
    {
        type            calculated;
        value           nonuniform List<vector> 0();
    }
    procBoundary4to0
    {
        type            processor;
        value           nonuniform List<vector> 8((0.175727397632 -0.00195530054344 2.95311933846e-22) (0.175710960528 -0.00650841483759 -1.53496494462e-22) (0.176661794612 -0.0106836250909 6.5988905363e-23) (0.178607272496 -0.0150089986814 -1.96836362552e-23) (0.181126323639 -0.0193300389527 4.52174709887e-23) (0.184200815908 -0.0236662312052 -2.03717054185e-24) (0.187874163333 -0.0279757121867 -5.55334914637e-25) (0.19217645862 -0.0322042004593 -3.25563019996e-24));
    }
    procBoundary4to3
    {
        type            processor;
        value           nonuniform List<vector> 
13
(
(0.191885876404 0.0928937947882 1.56342863908e-21)
(0.21150595862 0.102968732539 2.67209925531e-21)
(0.234994556992 0.110385322876 3.6694345933e-21)
(0.12540761158 0.00695353028034 -1.05290839477e-21)
(0.126045872534 0.020856433401 9.47903698258e-22)
(0.128708560677 0.0345041400518 1.3706169494e-22)
(0.133340640264 0.0490597818358 7.29859729053e-23)
(0.14941250464 0.079702612907 1.19666343067e-21)
(0.177205656166 0.0952491401205 1.97000376101e-21)
(0.162093493887 0.0956662682038 4.00455300415e-21)
(0.128662031305 0.059800221629 2.98497974179e-22)
(0.136257941053 0.0764036637893 1.38206091608e-21)
(0.123560549414 0.0716572866213 1.72273354488e-21)
)
;
    }
    procBoundary4to5
    {
        type            processor;
        value           nonuniform List<vector> 
18
(
(0.196592225689 -0.0317843421276 1.94121422147e-23)
(0.200020270561 -0.0269708806693 -1.88990715868e-24)
(0.203836667689 -0.0261185999156 5.55960067101e-23)
(0.208908833405 -0.0287199223088 3.53881894367e-23)
(0.212773021505 -0.0270465928405 1.71799474721e-23)
(0.21465618751 -0.0219803033917 -1.12590517291e-23)
(0.21640896592 -0.0174919918241 8.16682650311e-24)
(0.218381314039 -0.0133951923576 3.43165847444e-23)
(0.220894424717 -0.00949722698881 1.8778571926e-23)
(0.224205906277 -0.00531239106182 1.59014173872e-22)
(0.228404155861 -0.000165811378677 2.79361906178e-22)
(0.233201325582 0.00672783370691 8.08878110529e-23)
(0.238087679146 0.0157511766114 1.21863376224e-22)
(0.242578172377 0.0270250356557 -2.22374166613e-22)
(0.246391500157 0.0408507164788 7.21802368959e-23)
(0.24900602688 0.057400033888 -1.4048900402e-22)
(0.250109525787 0.0769007996719 1.49672140175e-22)
(0.249331452053 0.0997403994546 8.47650338707e-22)
)
;
    }
}


// ************************************************************************* //
