/*--------------------------------*- C++ -*----------------------------------*\
| =========                 |                                                 |
| \\      /  F ield         | OpenFOAM: The Open Source CFD Toolbox           |
|  \\    /   O peration     | Version:  v2012                                 |
|   \\  /    A nd           | Website:  www.openfoam.com                      |
|    \\/     M anipulation  |                                                 |
\*---------------------------------------------------------------------------*/
FoamFile
{
    version     2.0;
    format      ascii;
    class       surfaceScalarField;
    location    "2.7";
    object      phi;
}
// * * * * * * * * * * * * * * * * * * * * * * * * * * * * * * * * * * * * * //

dimensions      [0 3 -1 0 0 0 0];
oriented        oriented;


internalField   nonuniform List<scalar> 
300
(
4.71290778022e-06
-1.06149480956e-05
9.23976126143e-06
-3.29684039997e-06
1.3767703939e-05
3.21918337975e-06
1.84893073376e-05
6.10045648793e-06
2.35636165561e-05
7.23076861287e-06
2.91175226695e-05
7.94538815098e-06
3.52759058919e-05
8.74288361489e-06
9.76958605184e-06
4.81068228397e-06
-1.54214892796e-05
9.43466343574e-06
-7.91600236289e-06
1.4058850997e-05
-1.3992750466e-06
1.89162229915e-05
1.24980261681e-06
2.41629227961e-05
1.9914668035e-06
2.99492250621e-05
2.16655810218e-06
3.64146991e-05
2.2833719761e-06
2.5244512752e-06
4.73745888192e-06
-2.01553198258e-05
9.35882806444e-06
-1.25333168621e-05
1.3999463222e-05
-6.03521006187e-06
1.88898467179e-05
-3.63524745298e-06
2.41922321603e-05
-3.30534135921e-06
3.0060727333e-05
-3.69687977362e-06
3.66569179866e-05
-4.30932316639e-06
4.41726183725e-05
-4.99327591054e-06
5.27857709881e-05
-5.68243524197e-06
-6.27552543027e-06
4.57717322557e-06
-2.47297250571e-05
9.05800432878e-06
-1.70112043229e-05
1.36049965078e-05
-1.05788584413e-05
1.84148019696e-05
-8.44138161792e-06
2.36407915334e-05
-8.52776773951e-06
2.94484695334e-05
-9.50184993562e-06
3.60088373679e-05
-1.08687680287e-05
4.35278181038e-05
-1.25169515488e-05
5.22541158519e-05
-1.44214412247e-05
-1.65324409687e-05
4.37321780627e-06
-2.91014333264e-05
8.57122717857e-06
-2.12077589787e-05
1.28976822503e-05
-1.49036688546e-05
1.74816618992e-05
-1.30236057654e-05
2.24749635212e-05
-1.35196000079e-05
2.80594404986e-05
-1.50857544917e-05
3.43861597e-05
-1.71965277556e-05
4.16736085213e-05
-1.98098409991e-05
5.02258341098e-05
-2.2984312097e-05
-2.67522966474e-05
3.98872653834e-06
-3.30901513502e-05
7.92860269319e-06
-2.51478656771e-05
1.19080541391e-05
-1.88833107752e-05
1.61630228939e-05
-1.72787578996e-05
2.08243465569e-05
-1.81813790089e-05
2.59505712542e-05
-2.02130794829e-05
3.17824027451e-05
-2.30304749357e-05
3.85272944134e-05
-2.65592647691e-05
4.64645559987e-05
-3.09278242205e-05
-3.63076766015e-05
3.57175220678e-06
-3.66634210454e-05
6.99023812262e-06
-2.85682267365e-05
1.05510168563e-05
-2.24459986806e-05
1.43367127882e-05
-2.10663463877e-05
1.846902483e-05
-2.23156737029e-05
2.30598665438e-05
-2.48060855125e-05
2.8253488498e-05
-2.82264254295e-05
3.42237683354e-05
-3.25319720685e-05
4.11142070741e-05
-3.78189186149e-05
-4.46156863393e-05
3.0209017947e-06
-3.96872093934e-05
5.99296324242e-06
-3.15435800998e-05
9.08075787517e-06
-2.55371220868e-05
1.23281701321e-05
-2.43169760799e-05
1.57745459255e-05
-2.57650812076e-05
1.96049297748e-05
-2.8639145752e-05
2.39302772495e-05
-3.25537460631e-05
2.88559340817e-05
-3.74575642692e-05
3.45557871941e-05
-4.35142711024e-05
-5.10646035277e-05
2.41654353236e-06
-4.21077319815e-05
4.81349004858e-06
-3.39448970352e-05
7.26678408144e-06
-2.79947797048e-05
9.86721250155e-06
-2.69215284262e-05
1.26786713159e-05
-2.85802035569e-05
1.57466523199e-05
-3.17099809002e-05
1.90498543384e-05
-3.58584522889e-05
2.26570519584e-05
-4.10627947843e-05
2.67258748498e-05
-4.75755383914e-05
-5.56412860577e-05
1.72033657953e-06
-4.38327930025e-05
3.50441294343e-06
-3.57340307823e-05
5.35576176922e-06
-2.98511222113e-05
7.30642363816e-06
-2.88768390138e-05
9.35552554019e-06
-3.06333092948e-05
1.15406238028e-05
-3.38980284137e-05
1.38110091534e-05
-3.81301769673e-05
1.62050616703e-05
-4.34543541405e-05
1.85759703648e-05
-4.99389988743e-05
-5.8011431842e-05
9.79121144337e-07
-4.48169966867e-05
2.12470622819e-06
-3.68849446801e-05
3.35974497572e-06
-3.10913813749e-05
4.63700556859e-06
-3.01589303858e-05
5.92413835903e-06
-3.19245847548e-05
7.20307736958e-06
-3.5180073354e-05
8.49227635942e-06
-3.94210406155e-05
9.68354834058e-06
-4.46442358045e-05
1.07780067517e-05
-5.10292878026e-05
-5.85537573419e-05
3.30296706913e-07
-4.51523271488e-05
7.31262860104e-07
-3.72910880483e-05
1.30643751656e-06
-3.16716021052e-05
1.88823745088e-06
-3.07454111368e-05
2.46224866541e-06
-3.25026845384e-05
2.92300530995e-06
-3.56441217608e-05
3.25966782601e-06
-3.97600545556e-05
3.41210782725e-06
-4.47976072246e-05
3.21245878389e-06
-5.08308415903e-05
-5.79563500856e-05
-3.77132736756e-07
-4.47797779779e-05
-6.13809207911e-07
-3.70590381054e-05
-6.86535594583e-07
-3.16033737221e-05
-7.42914497959e-07
-3.06932452842e-05
-9.01686144573e-07
-3.2347728151e-05
-1.16872228767e-06
-3.53804620483e-05
-1.71480242986e-06
-3.92170420434e-05
-2.52535098242e-06
-4.39906487686e-05
-3.8201891257e-06
-4.95430325487e-05
-5.59460579655e-05
-1.10558988297e-06
-4.36779889237e-05
-1.96656004725e-06
-3.62018367992e-05
-2.62401495759e-06
-3.09495912064e-05
-3.29290352095e-06
-3.00278782118e-05
-4.06027703646e-06
-3.15837530175e-05
-5.06076308487e-06
-3.43833069448e-05
-6.26632383311e-06
-3.80149329541e-05
-7.92053865595e-06
-4.23430363167e-05
-1.01919824065e-05
-4.72850481933e-05
-5.28425708311e-05
-1.7950330493e-06
-4.18856376523e-05
-3.24155420486e-06
-3.47578812189e-05
-4.46702663422e-06
-2.97265453739e-05
-5.66733796024e-06
-2.88297253612e-05
-7.02014181798e-06
-3.0233463776e-05
-8.55426935603e-06
-3.28514920472e-05
-1.03900908295e-05
-3.6184843787e-05
-1.26097093465e-05
-4.01328623955e-05
-1.53924399548e-05
-4.45250388672e-05
-4.92710319657e-05
-2.3887979542e-06
-3.94981473756e-05
-4.40941347764e-06
-3.27383764909e-05
-6.12907628099e-06
-2.80073457538e-05
-7.88326422539e-06
-2.70777560085e-05
-9.70381848878e-06
-2.84122095483e-05
-1.17332640449e-05
-3.08266867851e-05
-1.40413632589e-05
-3.3880135102e-05
-1.6622274328e-05
-1.95878042025e-05
-2.97677326561e-06
-5.50125086445e-06
-7.71934893648e-06
-9.85686301792e-06
-1.2175521136e-05
-2.60976792876e-05
-1.46367893048e-05
)
;

boundaryField
{
    back
    {
        type            calculated;
        value           uniform 0;
    }
    sides
    {
        type            calculated;
        value           nonuniform List<scalar> 0();
    }
    bottom
    {
        type            calculated;
        value           uniform 0;
    }
    front
    {
        type            calculated;
        value           uniform 0;
    }
    atmosphere
    {
        type            calculated;
        value           nonuniform List<scalar> 0();
    }
    floatingObject
    {
        type            calculated;
        value           nonuniform List<scalar> 0();
    }
    procBoundary4to0
    {
        type            processor;
        value           nonuniform List<scalar> 8(5.90877455315e-06 -1.22198262592e-06 -7.73737134908e-06 -1.08102168224e-05 -1.22913559271e-05 -1.34843894736e-05 -1.48874805144e-05 -1.66929574872e-05);
    }
    procBoundary4to3
    {
        type            processor;
        value           nonuniform List<scalar> 
13
(
-3.75657169059e-05
-4.15723526608e-05
-4.58069662408e-05
-3.65217585045e-05
-3.02137077028e-05
-2.57913391744e-05
-2.49371409896e-05
-2.83641881116e-05
-1.73002492142e-05
-3.12207115472e-05
1.17022089384e-05
-1.43518997401e-05
-2.3442807949e-05
)
;
    }
    procBoundary4to5
    {
        type            processor;
        value           nonuniform List<scalar> 
18
(
4.22087423728e-05
4.36618810915e-05
-2.94261233201e-06
-3.69026773389e-06
6.27246568702e-05
6.24913908777e-05
6.04309049283e-05
5.60125791833e-05
4.94231216931e-05
4.10125297638e-05
3.13139974812e-05
2.09568091698e-05
1.13262041861e-05
2.61355471502e-06
-5.83982620306e-06
-1.331400832e-05
-1.89827495195e-05
-2.30847801524e-05
)
;
    }
}


// ************************************************************************* //
