/*--------------------------------*- C++ -*----------------------------------*\
| =========                 |                                                 |
| \\      /  F ield         | OpenFOAM: The Open Source CFD Toolbox           |
|  \\    /   O peration     | Version:  v2012                                 |
|   \\  /    A nd           | Website:  www.openfoam.com                      |
|    \\/     M anipulation  |                                                 |
\*---------------------------------------------------------------------------*/
FoamFile
{
    version     2.0;
    format      ascii;
    class       volScalarField;
    location    "6";
    object      epsilon_0;
}
// * * * * * * * * * * * * * * * * * * * * * * * * * * * * * * * * * * * * * //

dimensions      [0 2 -3 0 0 0 0];


internalField   nonuniform List<scalar> 
166
(
0.000458114996246
0.000460843443908
0.000464434773534
0.000469966213426
0.000480411280582
0.000504588854411
0.000571075469905
0.000783853701784
0.00156818947149
0.00455349856341
0.0144232737656
0.0443501523333
0.1435902714
0.000454913539694
0.000457212588657
0.000459492415241
0.000462143075294
0.000465594654986
0.000470843306127
0.000480636060776
0.000503163513384
0.000565034019418
0.000762883525057
0.00149180006536
0.00426125253124
0.0133451465857
0.0415027245219
0.142136157637
0.000376529724832
0.000392640175894
0.000453132947623
0.000456262125852
0.000458522311679
0.000460751676424
0.000463328491011
0.000466651646556
0.000471641085476
0.000480858773199
0.000502030148148
0.000560557433871
0.000748672678181
0.00143960519698
0.00404085111749
0.0123070155154
0.0371904055589
0.133457880946
0.000377475353356
0.000393721924799
0.000432802349029
0.000448115896459
0.000454364807436
0.000457472449128
0.000459700345817
0.000461887551576
0.00046440257007
0.000467619382326
0.000472393245747
0.000481144380511
0.000501323273833
0.000557771914459
0.000740893831671
0.00141127588946
0.00393339535126
0.0119268963476
0.0336978907609
0.100668071176
0.00037834242126
0.00039464643046
0.00043383392187
0.00044918581517
0.00045543867828
0.000458531767082
0.00046073655077
0.00046289196478
0.000465358492216
0.000468490885452
0.000473094037569
0.00048149263277
0.000501004412763
0.000556530323856
0.00073862490411
0.00140151975053
0.00391939022671
0.0124431966292
0.0367133139083
0.130159333749
0.00037910554569
0.000395395697891
0.000434678786408
0.000450077216353
0.000456345310582
0.000459435411742
0.000461627186366
0.000463760948594
0.000466192100099
0.00046925767387
0.000473727300847
0.000481867370806
0.000500993755682
0.000556426379423
0.000739917347581
0.00140032379721
0.0039216312497
0.0131180217011
0.040945652163
0.137955878002
0.000379735533248
0.000395970219244
0.000435340844559
0.000450792827643
0.000457085287999
0.000460182220041
0.000462369703145
0.00046449068413
0.00046689660997
0.000469909915583
0.000474272753181
0.00048221663943
0.000501108313226
0.000556727722254
0.000741518850979
0.00139499506698
0.00387375458923
0.0133815347866
0.0427924289105
0.134845351124
0.000380211543056
0.000396373741029
0.00043582561311
0.000451336347409
0.000457660860537
0.000460770714316
0.000462959737101
0.000465074343537
0.000467463509732
0.00047043755419
0.000474714401184
0.000482499444503
0.000501193515131
0.000556878591049
0.000741840981458
0.00138253300703
0.00376438584536
0.0132230843441
0.0430593683786
0.111772225713
0.000380511848742
0.000396609877029
0.000436137293592
0.000451708621821
0.000458069812456
0.000461197220802
0.000463392650156
0.000465506841364
0.000467887303913
0.000470833836958
0.000475041549189
0.000482683308956
0.000501147156377
0.000556573987136
0.000740285237341
0.00136363229085
0.00361840912267
0.0128631475417
0.0448156963178
0.127396633444
)
;

boundaryField
{
    back
    {
        lowReCorrection 0;
        blending        stepwise;
        n               2;
        type            epsilonWallFunction;
        value           nonuniform List<scalar> 
166
(
0.000458114996246
0.000460843443908
0.000464434773534
0.000469966213426
0.000480411280582
0.000504588854411
0.000571075469905
0.000783853701784
0.00156818947149
0.00455349856341
0.0144232737656
0.0443501523333
0.1435902714
0.000454913539694
0.000457212588657
0.000459492415241
0.000462143075294
0.000465594654986
0.000470843306127
0.000480636060776
0.000503163513384
0.000565034019418
0.000762883525057
0.00149180006536
0.00426125253124
0.0133451465857
0.0415027245219
0.142136157637
0.000376529724832
0.000392640175894
0.000453132947623
0.000456262125852
0.000458522311679
0.000460751676424
0.000463328491011
0.000466651646556
0.000471641085476
0.000480858773199
0.000502030148148
0.000560557433871
0.000748672678181
0.00143960519698
0.00404085111749
0.0123070155154
0.0371904055589
0.133457880946
0.000377475353356
0.000393721924799
0.000432802349029
0.000448115896459
0.000454364807436
0.000457472449128
0.000459700345817
0.000461887551576
0.00046440257007
0.000467619382326
0.000472393245747
0.000481144380511
0.000501323273833
0.000557771914459
0.000740893831671
0.00141127588946
0.00393339535126
0.0119268963476
0.0336978907609
0.100668071176
0.00037834242126
0.00039464643046
0.00043383392187
0.00044918581517
0.00045543867828
0.000458531767082
0.00046073655077
0.00046289196478
0.000465358492216
0.000468490885452
0.000473094037569
0.00048149263277
0.000501004412763
0.000556530323856
0.00073862490411
0.00140151975053
0.00391939022671
0.0124431966292
0.0367133139083
0.130159333749
0.00037910554569
0.000395395697891
0.000434678786408
0.000450077216353
0.000456345310582
0.000459435411742
0.000461627186366
0.000463760948594
0.000466192100099
0.00046925767387
0.000473727300847
0.000481867370806
0.000500993755682
0.000556426379423
0.000739917347581
0.00140032379721
0.0039216312497
0.0131180217011
0.040945652163
0.137955878002
0.000379735533248
0.000395970219244
0.000435340844559
0.000450792827643
0.000457085287999
0.000460182220041
0.000462369703145
0.00046449068413
0.00046689660997
0.000469909915583
0.000474272753181
0.00048221663943
0.000501108313226
0.000556727722254
0.000741518850979
0.00139499506698
0.00387375458923
0.0133815347866
0.0427924289105
0.134845351124
0.000380211543056
0.000396373741029
0.00043582561311
0.000451336347409
0.000457660860537
0.000460770714316
0.000462959737101
0.000465074343537
0.000467463509732
0.00047043755419
0.000474714401184
0.000482499444503
0.000501193515131
0.000556878591049
0.000741840981458
0.00138253300703
0.00376438584536
0.0132230843441
0.0430593683786
0.111772225713
0.000380511848742
0.000396609877029
0.000436137293592
0.000451708621821
0.000458069812456
0.000461197220802
0.000463392650156
0.000465506841364
0.000467887303913
0.000470833836958
0.000475041549189
0.000482683308956
0.000501147156377
0.000556573987136
0.000740285237341
0.00136363229085
0.00361840912267
0.0128631475417
0.0448156963178
0.127396633444
)
;
    }
    sides
    {
        lowReCorrection 0;
        blending        stepwise;
        n               2;
        type            epsilonWallFunction;
        value           nonuniform List<scalar> 0();
    }
    bottom
    {
        lowReCorrection 0;
        blending        stepwise;
        n               2;
        type            epsilonWallFunction;
        value           nonuniform List<scalar> 7(0.000376529724832 0.000377475353356 0.00037834242126 0.00037910554569 0.000379735533248 0.000380211543056 0.000380511848742);
    }
    front
    {
        lowReCorrection 0;
        blending        stepwise;
        n               2;
        type            epsilonWallFunction;
        value           nonuniform List<scalar> 
166
(
0.000458114996246
0.000460843443908
0.000464434773534
0.000469966213426
0.000480411280582
0.000504588854411
0.000571075469905
0.000783853701784
0.00156818947149
0.00455349856341
0.0144232737656
0.0443501523333
0.1435902714
0.000454913539694
0.000457212588657
0.000459492415241
0.000462143075294
0.000465594654986
0.000470843306127
0.000480636060776
0.000503163513384
0.000565034019418
0.000762883525057
0.00149180006536
0.00426125253124
0.0133451465857
0.0415027245219
0.142136157637
0.000376529724832
0.000392640175894
0.000453132947623
0.000456262125852
0.000458522311679
0.000460751676424
0.000463328491011
0.000466651646556
0.000471641085476
0.000480858773199
0.000502030148148
0.000560557433871
0.000748672678181
0.00143960519698
0.00404085111749
0.0123070155154
0.0371904055589
0.133457880946
0.000377475353356
0.000393721924799
0.000432802349029
0.000448115896459
0.000454364807436
0.000457472449128
0.000459700345817
0.000461887551576
0.00046440257007
0.000467619382326
0.000472393245747
0.000481144380511
0.000501323273833
0.000557771914459
0.000740893831671
0.00141127588946
0.00393339535126
0.0119268963476
0.0336978907609
0.100668071176
0.00037834242126
0.00039464643046
0.00043383392187
0.00044918581517
0.00045543867828
0.000458531767082
0.00046073655077
0.00046289196478
0.000465358492216
0.000468490885452
0.000473094037569
0.00048149263277
0.000501004412763
0.000556530323856
0.00073862490411
0.00140151975053
0.00391939022671
0.0124431966292
0.0367133139083
0.130159333749
0.00037910554569
0.000395395697891
0.000434678786408
0.000450077216353
0.000456345310582
0.000459435411742
0.000461627186366
0.000463760948594
0.000466192100099
0.00046925767387
0.000473727300847
0.000481867370806
0.000500993755682
0.000556426379423
0.000739917347581
0.00140032379721
0.0039216312497
0.0131180217011
0.040945652163
0.137955878002
0.000379735533248
0.000395970219244
0.000435340844559
0.000450792827643
0.000457085287999
0.000460182220041
0.000462369703145
0.00046449068413
0.00046689660997
0.000469909915583
0.000474272753181
0.00048221663943
0.000501108313226
0.000556727722254
0.000741518850979
0.00139499506698
0.00387375458923
0.0133815347866
0.0427924289105
0.134845351124
0.000380211543056
0.000396373741029
0.00043582561311
0.000451336347409
0.000457660860537
0.000460770714316
0.000462959737101
0.000465074343537
0.000467463509732
0.00047043755419
0.000474714401184
0.000482499444503
0.000501193515131
0.000556878591049
0.000741840981458
0.00138253300703
0.00376438584536
0.0132230843441
0.0430593683786
0.111772225713
0.000380511848742
0.000396609877029
0.000436137293592
0.000451708621821
0.000458069812456
0.000461197220802
0.000463392650156
0.000465506841364
0.000467887303913
0.000470833836958
0.000475041549189
0.000482683308956
0.000501147156377
0.000556573987136
0.000740285237341
0.00136363229085
0.00361840912267
0.0128631475417
0.0448156963178
0.127396633444
)
;
    }
    atmosphere
    {
        type            inletOutlet;
        inletValue      uniform 0.1;
        value           nonuniform List<scalar> 9(0.1435902714 0.142136157637 0.133457880946 0.100668071176 0.1 0.1 0.1 0.1 0.1);
    }
    floatingObject
    {
        lowReCorrection 0;
        blending        stepwise;
        n               2;
        type            epsilonWallFunction;
        value           nonuniform List<scalar> 0();
    }
    procBoundary0to1
    {
        type            processor;
        value           nonuniform List<scalar> 10(0.000469000322288 0.000480145299576 0.000506171305654 0.000578119763607 0.000809147244527 0.001658029694 0.00483550769854 0.0151091377049 0.0447791027725 0.126520731438);
    }
    procBoundary0to2
    {
        type            processor;
        value           nonuniform List<scalar> 
14
(
0.000456614638521
0.000459433707578
0.000463169171738
0.00045342946473
0.000455776078028
0.000455776078028
0.000375483350429
0.000391414522035
0.000451751757358
0.000451751757358
0.000431595861912
0.000431595861912
0.000446876538259
0.000446876538259
)
;
    }
    procBoundary0to4
    {
        type            processor;
        value           nonuniform List<scalar> 8(0.000380625629657 0.000396679078787 0.000436275622955 0.000451907815436 0.000458309799984 0.000461461286718 0.000463670362055 0.000465791148985);
    }
    procBoundary0to5
    {
        type            processor;
        value           nonuniform List<scalar> 
12
(
0.000468170000151
0.000471097766752
0.000475244981517
0.000482740479569
0.000500906974589
0.000555731537139
0.000736856485399
0.00133753878634
0.0034373273005
0.0122854081692
0.0452835838651
0.13023227384
)
;
    }
}


// ************************************************************************* //
