/*--------------------------------*- C++ -*----------------------------------*\
| =========                 |                                                 |
| \\      /  F ield         | OpenFOAM: The Open Source CFD Toolbox           |
|  \\    /   O peration     | Version:  v2012                                 |
|   \\  /    A nd           | Website:  www.openfoam.com                      |
|    \\/     M anipulation  |                                                 |
\*---------------------------------------------------------------------------*/
FoamFile
{
    version     2.0;
    format      ascii;
    class       surfaceVectorField;
    location    "6";
    object      Uf;
}
// * * * * * * * * * * * * * * * * * * * * * * * * * * * * * * * * * * * * * //

dimensions      [0 1 -1 0 0 0 0];


internalField   nonuniform List<vector> 
302
(
(-0.0365793290147 0.0100627057407 1.74614254883e-23)
(-0.0365814485989 0.00882088148614 5.54901721935e-25)
(-0.0380250000277 0.011421630335 1.05628000126e-23)
(-0.0379265129576 0.0100422182715 6.68959224865e-24)
(-0.0397417330609 0.0128594724512 -1.46138541471e-23)
(-0.0395315701058 0.0113160518325 4.71967201316e-24)
(-0.0417849526807 0.014383066035 -6.76613512076e-23)
(-0.0414337486258 0.0126492595291 -2.71958755846e-23)
(-0.0442744196482 0.0160212320519 -2.03946331395e-22)
(-0.0437122619482 0.0140479774084 -1.08402677954e-22)
(-0.0474071004322 0.0177995561649 -6.1410502686e-22)
(-0.0465294927362 0.0155314838885 -3.61730293764e-22)
(-0.0514780999941 0.0198143810253 -1.4462762942e-21)
(-0.0501628198076 0.0171166967469 -1.1092030157e-21)
(-0.0567562848366 0.022097619756 -1.2553637033e-21)
(-0.0549137884297 0.0187433231885 -1.93051150858e-21)
(-0.0624806066211 0.0245556642298 -2.35474338644e-21)
(-0.0609311290724 0.0219470250818 -2.07367520635e-21)
(-0.0679711112235 0.0269600884859 -5.04712316825e-21)
(-0.066439824981 0.0190135313217 -5.03556018869e-21)
(-0.0637119328926 0.0277423504578 -5.86352455128e-21)
(-0.0711685722323 0.0178353724455 -7.10707815004e-21)
(-0.0399228255968 0.0298244635358 -4.4715501523e-21)
(-0.0576452039903 0.0274267507312 -7.00014692524e-21)
(-0.0158728300381 0.0212631594425 -2.07213035434e-21)
(-0.035504780713 0.00659049769784 4.31422868441e-24)
(-0.0355788058646 0.00562489930122 4.26978255721e-24)
(-0.0365439043005 0.00766693324335 -6.06417800087e-24)
(-0.036515435565 0.00660803741413 2.06887181849e-24)
(-0.0377978275156 0.00875286464684 -1.02169315177e-23)
(-0.0376666224989 0.00759487298159 -1.1654822843e-23)
(-0.0392940598982 0.00987623324164 8.46464249248e-25)
(-0.0390482874024 0.00859500428513 -2.2371216953e-23)
(-0.0410670604782 0.0110432307297 -7.86234942428e-24)
(-0.0406963225019 0.00962327084095 3.06956589151e-25)
(-0.0431727882415 0.0122399575841 -6.79372023306e-23)
(-0.042627636497 0.0106689290797 -2.73568636082e-23)
(-0.0457360936612 0.0134734555066 -2.66186640323e-22)
(-0.0449427556631 0.0117115677069 -1.52429116631e-22)
(-0.04898065262 0.0147321170402 -8.56828282605e-22)
(-0.047785191598 0.0127505054454 -5.6363182231e-22)
(-0.0532165846821 0.0160398726677 -1.59343823008e-21)
(-0.0514681059574 0.0137854687756 -1.6351475663e-21)
(-0.0586279661892 0.0174648417795 -2.74882301163e-21)
(-0.0563368639536 0.0146305622698 -2.61717187391e-21)
(-0.0642181315882 0.0188112109829 -4.7544920086e-21)
(-0.0622763590634 0.0166744632233 -3.70772712632e-21)
(-0.0686437429658 0.0195846329993 -7.09551517047e-21)
(-0.0672128961143 0.0133207065544 -5.50633742952e-21)
(-0.0643627516668 0.0188241038235 -8.24370052399e-21)
(-0.0704114027647 0.010903890406 -8.39792683236e-21)
(-0.0351935849796 0.0202218977909 -4.60072712728e-21)
(-0.0590512365898 0.0184339378075 -8.2684811994e-21)
(-0.0114542254547 0.0169403556755 3.89385527352e-21)
(-0.0354273116953 0.00100579788408 2.54752374184e-24)
(-0.0362115103293 0.000461823784154 -3.57015260354e-23)
(-0.0356255892728 0.00137787522799 5.85143553388e-23)
(-0.0356677746616 0.00473249850303 1.30823201003e-23)
(-0.0357720278979 0.00391230632841 2.59989579055e-23)
(-0.0364847781889 0.00562280830258 2.0244256913e-24)
(-0.036468815129 0.00472131502745 2.95084178128e-24)
(-0.0375303900498 0.00651046649634 -3.52177302365e-24)
(-0.0374025130267 0.00552373755121 -1.60854932183e-24)
(-0.0388053489188 0.00740954529044 -2.38091082783e-23)
(-0.0385646719805 0.00632614997602 -8.4168967814e-24)
(-0.0403193823042 0.00830864118077 -2.29107246131e-23)
(-0.0399457133008 0.0071257462152 -4.08678433366e-23)
(-0.0421023783953 0.00921080687512 -1.91875575948e-23)
(-0.0415961896801 0.00792186023394 -2.9857740383e-23)
(-0.0442106815274 0.0101149209803 -1.11848777908e-22)
(-0.0435289377909 0.00869461247115 -5.09594965475e-23)
(-0.0467535392271 0.010970993921 -4.49874298618e-22)
(-0.0457957691302 0.0094180887461 -2.28064943549e-22)
(-0.049966141942 0.0117587426684 -1.341951106e-21)
(-0.0485699158549 0.0100605249614 -7.81076525321e-22)
(-0.0541690770711 0.0124089642068 -2.65888121013e-21)
(-0.052115621418 0.0106071106015 -2.04992917408e-21)
(-0.0594301515278 0.0128717330251 -3.5760759886e-21)
(-0.0567974658645 0.0107357802366 -2.94021446969e-21)
(-0.0644904315572 0.012868299124 -4.45957254723e-21)
(-0.0622715441391 0.0116674838559 -1.89832021987e-21)
(-0.0680882635481 0.0118768125831 -6.8087490914e-21)
(-0.0662209492577 0.00778641490094 -4.90629053707e-21)
(-0.0645400345602 0.010685183976 -8.42270750777e-21)
(-0.0692206594241 0.00466130482578 -1.0663231615e-20)
(-0.0347967600828 0.0123552199705 2.2610120139e-22)
(-0.0607248757128 0.0103526951578 -1.03489658925e-20)
(-0.0124658392345 0.0122690623981 6.3879114583e-21)
(-0.0363303898424 0.000844776010173 2.02653055616e-23)
(-0.0370559189886 0.000380341523254 -1.29431335304e-22)
(-0.0358554257682 0.00164882530518 7.28883399971e-23)
(-0.0364292534038 0.00113120512952 -1.10773912638e-23)
(-0.0357017570819 0.0024241076518 7.26418046294e-23)
(-0.0360709469754 0.00183946311216 3.6587944945e-23)
(-0.0359236303191 0.00316648401615 4.7074843059e-23)
(-0.0360922930866 0.00250599455239 4.72725385325e-23)
(-0.0364732188761 0.00389083582747 1.58674795865e-23)
(-0.0364960416678 0.00315601129945 2.45862907139e-23)
(-0.0372860932415 0.00461002595396 -6.82133231852e-25)
(-0.03718750765 0.00379452490761 4.09999307349e-24)
(-0.0383313309399 0.00532640902723 -6.50367307958e-24)
(-0.0381180437813 0.00443184037723 -1.03793922732e-24)
(-0.0396052199237 0.00603058347962 -2.54756318396e-23)
(-0.0392675029848 0.00505722486952 -8.24019341502e-24)
(-0.0411085341079 0.00673364903299 -4.78148591065e-23)
(-0.0406467894794 0.00566026515158 -3.07275164307e-23)
(-0.0428654715888 0.00739913145924 -6.16296793358e-23)
(-0.0422590590439 0.0062326962675 -4.75513062997e-23)
(-0.0449284615279 0.00800215661451 -1.67175662188e-22)
(-0.0441288078488 0.00675021555133 -5.81422571841e-23)
(-0.0473870389005 0.00852963504203 -5.59267170253e-22)
(-0.046319821894 0.00719303069644 -2.34102329404e-22)
(-0.0504477525837 0.00891048087489 -1.4890545934e-21)
(-0.0489473219055 0.0075080317079 -7.71329158259e-22)
(-0.0543935973125 0.00903828823031 -2.33126243364e-21)
(-0.0522402839483 0.00766299803321 -1.79677953322e-21)
(-0.0591206040076 0.00868810135981 -1.26245870096e-21)
(-0.0564446993239 0.00726826139845 -2.43490100705e-21)
(-0.0633956608305 0.00735488334386 -2.3450382097e-21)
(-0.0609366598425 0.00727507768968 -6.90489050882e-22)
(-0.0669021874232 0.005293501012 -8.76077306067e-21)
(-0.0641589830351 0.00296727781164 -5.61826589502e-21)
(-0.0651062742792 0.00432513673441 -1.25894899997e-20)
(-0.0682557277014 -0.000363611250925 -1.13605057409e-20)
(-0.0391800284235 0.00606200046401 -4.18715563559e-21)
(-0.0624607551589 0.00443244874059 -1.11324535331e-20)
(-0.0173803347956 0.00691662829059 4.06586235617e-22)
(-0.0370691241438 0.000676255105638 -1.60774032129e-22)
(-0.0377318738281 0.000300450833255 -3.13624860557e-22)
(-0.0365579928659 0.00131468624201 -4.7377786316e-23)
(-0.0370673866843 0.000885787973538 -1.46114224221e-22)
(-0.0363718936557 0.00191726756581 1.12186788481e-23)
(-0.0366732361361 0.00142832714394 -3.47801709629e-23)
(-0.03656917534 0.00249070388203 2.47839861874e-23)
(-0.0366654223967 0.00193195371044 2.26302650608e-23)
(-0.03711034022 0.00305288895586 1.28188042009e-23)
(-0.0370578221419 0.002418390287 1.66760864196e-23)
(-0.037918916527 0.00360765335901 3.74418707802e-24)
(-0.0377416323597 0.00289401156864 8.35541819165e-24)
(-0.0389519662267 0.00414810966783 -2.77445956276e-24)
(-0.0386574525103 0.00336317881522 4.11771247832e-24)
(-0.040203532947 0.00467492954732 -1.34920780061e-23)
(-0.039792715289 0.00380833075741 2.6051448556e-24)
(-0.0416747992881 0.00516687932462 -3.04639636239e-23)
(-0.0411364560778 0.00421946624034 -6.67261029148e-24)
(-0.0433814411504 0.00560244660297 -4.4063884148e-23)
(-0.0426916653977 0.00458358307954 -2.41918461547e-23)
(-0.0453625297551 0.00596927480459 -1.250689244e-22)
(-0.0444921060622 0.00487307569409 -4.15642862426e-23)
(-0.0476952385382 0.00621297041045 -4.4616431741e-22)
(-0.0465596580634 0.00507018787085 -2.05435793426e-22)
(-0.0505347858099 0.0062759166784 -1.07905409809e-21)
(-0.0490063770738 0.00512540382098 -6.30443577071e-22)
(-0.0540711625408 0.00602851919922 -1.90041810664e-21)
(-0.0519892883554 0.00499365893057 -1.42706798744e-21)
(-0.0580137745401 0.00520231054768 -1.86293135698e-21)
(-0.0556155232453 0.00430122024423 -2.17194593856e-21)
(-0.0614777977916 0.00330888004181 -3.9637167362e-21)
(-0.0590413225416 0.00355823983523 -1.28986832452e-21)
(-0.0654572899158 0.000919787818132 -8.21799857524e-21)
(-0.0617692645814 -0.00104905831484 -5.73723419299e-21)
(-0.0654621777861 9.09610622379e-05 -9.90346927427e-21)
(-0.0674297797309 -0.00426358215761 -8.93590377731e-21)
(-0.0413107235417 0.000695747767613 -6.53871166191e-21)
(-0.0630634321091 0.000816792058182 -9.02020490401e-21)
(-0.0205292057807 0.000638286876373 -2.25762642882e-21)
(-0.037644071121 0.000511510599351 -2.98965052649e-22)
(-0.0382431627054 0.000222982876693 -3.96014027585e-22)
(-0.0370979740821 0.000994381539108 -1.33516608868e-22)
(-0.0375500427453 0.000648435118926 -2.13859168305e-22)
(-0.036879598518 0.00143964766619 -2.33685847502e-23)
(-0.0371182849245 0.00103604169993 -6.18281684359e-23)
(-0.0370558088594 0.00185733728168 1.4522365293e-23)
(-0.0370828500619 0.00138781225616 1.97491031336e-23)
(-0.0375857702891 0.00225680115842 1.22127004103e-23)
(-0.0374568902865 0.00171766652628 1.02203822475e-23)
(-0.0383819727366 0.00264427749657 8.72894359195e-24)
(-0.0381284410742 0.0020284622765 9.20762659751e-24)
(-0.0393943205377 0.003016144061 9.49731689668e-24)
(-0.0390282132301 0.00232042943398 4.44366011637e-24)
(-0.0406116207392 0.0033528888977 9.4246125702e-24)
(-0.0401277559063 0.00258528442701 6.95915802221e-24)
(-0.0420353136997 0.00363801251859 -4.00492822274e-25)
(-0.0414191654645 0.00281760589704 1.08366320374e-23)
(-0.0436760248042 0.00387322571305 -2.16922482493e-23)
(-0.042923738128 0.00299591736297 -1.22684286445e-24)
(-0.0455562505792 0.0040171145777 -1.21931155269e-22)
(-0.0446322406664 0.00309020088308 -3.21989467087e-23)
(-0.0477363328946 0.00404159295854 -3.89715053087e-22)
(-0.0465799981225 0.00307980891821 -1.78234427515e-22)
(-0.0503248916207 0.00387111141386 -9.78457466421e-22)
(-0.0488316905044 0.0029266646985 -4.48257831088e-22)
(-0.0534240864343 0.00336738964666 -1.69859581936e-21)
(-0.0514816548464 0.00257412844284 -1.12943624548e-21)
(-0.056668061113 0.00233316288205 -1.5988829061e-21)
(-0.0545780729341 0.00169964005991 -1.47508113073e-21)
(-0.0594808192914 0.000696596758067 -3.06338578132e-21)
(-0.057402713546 0.000381244122164 -7.77923429876e-22)
(-0.063686117437 -0.00130220770797 -6.45513939506e-21)
(-0.0597697908141 -0.00432637545418 -2.91186212256e-21)
(-0.0646124071135 -0.00298307046087 -8.05263940706e-21)
(-0.065747772613 -0.007247752964 -6.18219272833e-21)
(-0.0413950193319 -0.00425439516117 -4.73911967093e-21)
(-0.0617931048205 -0.00226278818109 -6.00861744084e-21)
(-0.0220869775186 -0.00365460131673 -3.10029023108e-21)
(-0.0380631433991 0.000362534324804 -3.1090814324e-22)
(-0.0386055535062 0.000145789416189 -3.5843793217e-22)
(-0.0374828253898 0.000686764067294 -1.42170727873e-22)
(-0.0378741485359 0.000416384222784 -1.89722078105e-22)
(-0.0372345706544 0.000980349116567 -1.87104805521e-23)
(-0.0374117654466 0.00065536286843 -4.0919009091e-23)
(-0.0373886587998 0.00124868134676 1.54471200881e-23)
(-0.037351058237 0.000857997537991 3.40213169724e-23)
(-0.0378976698356 0.00149051586532 7.21530843466e-24)
(-0.0376984914996 0.00103531862177 1.61089468013e-23)
(-0.0386720988408 0.00170603476949 4.92234312193e-24)
(-0.0383434715317 0.00118870766475 1.01649369246e-23)
(-0.0396580384244 0.00189678890919 1.9055012419e-24)
(-0.0392180376194 0.00131615226342 2.4160257507e-24)
(-0.0408356177269 0.00205910756173 8.37117748946e-24)
(-0.0402885064564 0.00141295723705 3.28434370211e-24)
(-0.0422050933612 0.00218236790128 1.00102819953e-23)
(-0.0415400625588 0.00147489572398 9.96270195596e-24)
(-0.0437700410117 0.00223415179751 -1.17335413239e-23)
(-0.0429722721505 0.00148415432197 5.26209389493e-24)
(-0.0455447665602 0.00219166123065 -8.85022189544e-23)
(-0.0445856807858 0.00140929169226 -2.86174625378e-23)
(-0.047565752267 0.00202969773837 -2.36777205516e-22)
(-0.0464133788391 0.00122836093375 -1.04836810324e-22)
(-0.0498902295922 0.00166650575055 -5.99236610152e-22)
(-0.0484636278311 0.000911005345048 -2.87249269449e-22)
(-0.0525536975405 0.000982363993489 -9.05921556857e-22)
(-0.0507928932179 0.00038769762509 -8.15966401736e-22)
(-0.0552425756391 -0.00024993230844 -6.54121654499e-22)
(-0.0533419176687 -0.000601629927316 -6.48748558205e-22)
(-0.057602151428 -0.00203868355747 -6.26399771117e-22)
(-0.055611444819 -0.0022529138517 -1.86945788154e-24)
(-0.0616907347549 -0.00416002254301 -2.63891545583e-21)
(-0.0576475374303 -0.00681010570021 -1.33221448868e-21)
(-0.0629191121427 -0.00624207995279 -4.13817076211e-21)
(-0.0636660055838 -0.00933139324088 -3.32966738041e-21)
(-0.042031923049 -0.00765936713175 -4.36978800099e-21)
(-0.0603753963185 -0.00526534304772 -3.19092403744e-21)
(-0.0258526986342 -0.005369948592 -8.72549990905e-21)
(-0.0383304894319 0.000209344013844 -2.37251867034e-22)
(-0.0388148422506 7.06086111243e-05 -2.63635637182e-22)
(-0.037716963078 0.000385833469104 -8.84703593233e-23)
(-0.03805064371 0.000189251511638 -1.3849423553e-22)
(-0.0374400885307 0.000530189793479 1.18127884335e-23)
(-0.037556205169 0.000281277842265 -1.12689093625e-23)
(-0.0375687097364 0.000644496879841 3.46831436856e-23)
(-0.0374654997969 0.00033757881884 4.72488318716e-23)
(-0.0380513157187 0.000738406386063 1.90585752912e-23)
(-0.037792485336 0.000369316516275 2.90954550204e-23)
(-0.0387975511482 0.000803939280358 7.65861955332e-24)
(-0.038408865439 0.000380800202932 1.11043242969e-23)
(-0.0397533349306 0.000838556420842 3.7948682109e-24)
(-0.0392520476179 0.000367321746505 4.19603719154e-25)
(-0.0408939326902 0.000837151165599 4.87586816861e-24)
(-0.0402857059278 0.00031545839224 1.83887135326e-24)
(-0.0422088448387 0.000794064457223 5.21451385562e-24)
(-0.0414945787367 0.000216968918019 2.07101046221e-24)
(-0.0436944533482 0.000689824106524 -1.16218273189e-23)
(-0.0428644433677 6.44424303572e-05 -3.34464957404e-24)
(-0.0453599399007 0.00049997855779 -4.49520539072e-23)
(-0.0443910991262 -0.000166039639674 1.82080251736e-24)
(-0.0472212129597 0.000173901699569 -1.55308874257e-22)
(-0.046081722179 -0.000489129765366 -3.25832711863e-23)
(-0.0492902873805 -0.000329440391767 -5.03979061033e-22)
(-0.0479543694102 -0.000933520242871 -2.01334235139e-22)
(-0.0515266776983 -0.00113495469822 -5.58793403084e-22)
(-0.0499817566778 -0.00156644775348 -6.55378342389e-22)
(-0.0536866059415 -0.00244055067204 3.50363841238e-24)
(-0.0520316568791 -0.00257138179694 -3.53766950784e-22)
(-0.0556814864215 -0.0042514281364 -7.07684175449e-22)
(-0.0537975382282 -0.00430376286883 4.77538038642e-22)
(-0.0596919367685 -0.00623998416005 -2.02296641326e-21)
(-0.0556579397178 -0.00860578964757 -1.03671348248e-21)
(-0.0610949603214 -0.00827675345629 -2.38242065573e-21)
(-0.0616303074004 -0.0107206335052 -5.70734145366e-21)
(-0.0441178143448 -0.0100891231074 -7.5466359455e-21)
(-0.0585624757939 -0.00740967370899 -5.6811346568e-21)
(-0.0320618538305 -0.00653073293405 -9.05920641796e-21)
(-0.0384483522105 6.01460624335e-05 -1.64878005677e-22)
(-0.0378037641922 8.98526038157e-05 -6.12927855693e-23)
(-0.0374975922998 8.8241786856e-05 2.41671340756e-23)
(-0.037601261449 6.21800404416e-05 4.16611432064e-23)
(-0.0380616923748 1.42379397133e-05 2.11412040261e-23)
(-0.0387809144389 -4.90770442909e-05 3.86530846275e-24)
(-0.039697855414 -0.000143799142729 -1.53639313849e-24)
(-0.0407910305425 -0.000292109857504 -9.65986353143e-25)
(-0.0420515913168 -0.000497677033376 -6.48815296746e-24)
(-0.0434667589267 -0.000759542117628 1.00979802622e-23)
(-0.045028942897 -0.00109362522957 1.41895852383e-23)
(-0.0467432677846 -0.00154085658412 -7.86086320684e-23)
(-0.0485902533792 -0.00214181395557 -3.52733516495e-22)
(-0.0504541523288 -0.00299170272865 -4.50351890088e-22)
(-0.0521428974949 -0.00426299516576 1.20267449446e-22)
(-0.0538810232102 -0.00595611505865 1.4850873161e-22)
(-0.0578951166437 -0.00763396018424 -4.72108852288e-21)
(-0.0589175565204 -0.0092446247093 -9.00605545474e-21)
(-0.0457838740859 -0.0124848476955 -7.19370512927e-21)
)
;

boundaryField
{
    back
    {
        type            calculated;
        value           uniform (0 0 0);
    }
    sides
    {
        type            calculated;
        value           nonuniform List<vector> 0();
    }
    bottom
    {
        type            calculated;
        value           uniform (0 0 0);
    }
    front
    {
        type            calculated;
        value           uniform (0 0 0);
    }
    atmosphere
    {
        type            calculated;
        value           nonuniform List<vector> 9((-0.0231231389384 0.0139498903898 -3.14156291213e-21) (-0.0121443587786 0.0157991044934 -1.00269779655e-21) (-0.0100101473366 0.0133650996883 8.79040834359e-21) (-0.0167781824531 0.0109755869403 3.98541457302e-21) (-0.0196480758534 0.00384435258856 -3.17224210179e-21) (0 -0.00269671356365 0) (0 -0.00389415088546 0) (0 -0.00388054117353 0) (0 -0.00386287164493 0));
    }
    floatingObject
    {
        type            calculated;
        value           nonuniform List<vector> 0();
    }
    procBoundary0to1
    {
        type            processor;
        value           nonuniform List<vector> 10((-0.0399168983297 0.0146256970342 -4.36168408934e-23) (-0.0420805632089 0.0163970812769 -1.00015008682e-22) (-0.0447576231295 0.0183368857702 -2.37850433943e-22) (-0.0481529502491 0.0204926030504 -5.76545717604e-22) (-0.052634465452 0.0228608233489 -1.08785134262e-21) (-0.0584751061715 0.0271442163153 1.16768589631e-21) (-0.0640360315255 0.0243940249888 -2.84741830726e-21) (-0.0703780245309 0.024736837663 -8.26691692224e-21) (-0.0555383056394 0.0352611021762 -7.71914512928e-21) (-0.0317226151549 0.0228615588522 -2.68837947789e-22));
    }
    procBoundary0to2
    {
        type            processor;
        value           nonuniform List<vector> 
14
(
(-0.0352690449333 0.00999480190342 1.30947044516e-23)
(-0.036571307469 0.0114533619635 2.75385553893e-23)
(-0.0380984491598 0.0129892950309 1.54172068053e-23)
(-0.0345006793138 0.00646713422646 -6.74113943599e-25)
(-0.0353630252837 0.00874928867984 1.90101493464e-23)
(-0.035439229816 0.0076349824132 1.23910696236e-23)
(-0.0352062616922 0.000536192533327 -1.97865477333e-22)
(-0.0346618981211 0.00160706920661 -5.99762376668e-23)
(-0.0346814131676 0.0055124668936 -3.1991600084e-24)
(-0.0348659582651 0.00463481546335 5.61337753474e-24)
(-0.0349863941882 0.00197003546972 5.84075618186e-23)
(-0.0352962920977 0.00225190377295 7.27815464769e-23)
(-0.0351047407107 0.00382626544173 3.6106644009e-23)
(-0.0353503217143 0.00308911228126 5.71825291625e-23)
)
;
    }
    procBoundary0to4
    {
        type            processor;
        value           nonuniform List<vector> 8((-0.0388750092791 -3.17524980085e-06 -1.91236848438e-22) (-0.0380804569509 -3.26677496786e-05 -9.7931912509e-23) (-0.0375548315892 -8.4137798457e-05 -6.70740326522e-24) (-0.0374397824216 -0.000170477110417 4.1474292707e-23) (-0.0377449009601 -0.000280476213458 2.64393097772e-23) (-0.0383457229264 -0.000406724335961 7.50175982533e-24) (-0.0391569405992 -0.000552511857453 -3.11785354654e-24) (-0.040136265752 -0.000736392742641 -2.45705601921e-24));
    }
    procBoundary0to5
    {
        type            processor;
        value           nonuniform List<vector> 
12
(
(-0.0412867378155 -0.000974880405354 -2.56398053637e-24)
(-0.0425988626829 -0.00127073470022 -2.49154817377e-24)
(-0.0440521462541 -0.00163298325465 3.25578190034e-23)
(-0.0456287091688 -0.0020728303888 1.20003422847e-23)
(-0.047347252548 -0.00261721211944 -1.00992807975e-22)
(-0.0491260281248 -0.00331586132658 -4.09369649846e-22)
(-0.0507554659292 -0.00427834692069 -3.4545173929e-22)
(-0.0521012644336 -0.00592402230014 4.56929776336e-22)
(-0.0539790239178 -0.00992323967806 -2.14141406622e-21)
(-0.0600203268947 -0.0118290514179 -8.3848578692e-21)
(-0.0553222065572 -0.00914577375104 -8.34054719375e-21)
(-0.0406845323176 0.0012872783596 -1.55232304864e-20)
)
;
    }
}


// ************************************************************************* //
