/*--------------------------------*- C++ -*----------------------------------*\
| =========                 |                                                 |
| \\      /  F ield         | OpenFOAM: The Open Source CFD Toolbox           |
|  \\    /   O peration     | Version:  v2012                                 |
|   \\  /    A nd           | Website:  www.openfoam.com                      |
|    \\/     M anipulation  |                                                 |
\*---------------------------------------------------------------------------*/
FoamFile
{
    version     2.0;
    format      ascii;
    class       volScalarField;
    location    "4.7";
    object      nut;
}
// * * * * * * * * * * * * * * * * * * * * * * * * * * * * * * * * * * * * * //

dimensions      [0 2 -1 0 0 0 0];


internalField   nonuniform List<scalar> 
164
(
0.000322695290417
0.000481894639612
0.000497623589616
0.000503600647299
0.000505395626773
0.000503814775052
0.000497222210672
0.00048352858462
0.000346986636311
0.000348074045836
0.00035285618453
0.000371990767921
0.000545653591398
0.000599820225605
0.000323608033885
0.000482966007299
0.000498719151548
0.000504938485976
0.000507512991401
0.000508165376122
0.000507205426496
0.000505049192754
0.00050425466875
0.000507189308862
0.000511274135764
0.000519077676934
0.000542382689629
0.000581728510813
0.000324584393346
0.000484153711214
0.000499906748339
0.000506249041413
0.000509223407922
0.000510880240835
0.000511930866219
0.000512866635993
0.0005145952786
0.000517524272596
0.000521210583663
0.000526942480176
0.000540802712848
0.000572637403175
0.000325587777183
0.000485417678358
0.000501149294491
0.000507515194853
0.000510612836927
0.000512587364144
0.000514222798632
0.000515885598705
0.000517958590832
0.000520634229034
0.000523964918407
0.000528990158104
0.000539860229742
0.000567430600089
0.00032659725114
0.000486711964474
0.000502412096508
0.000508748057851
0.000511835297777
0.000513846579166
0.000515586547644
0.000517364703933
0.000519364299977
0.0005217332083
0.000524684009136
0.000529209497765
0.000538859530033
0.000564297724895
0.000327580554048
0.000487998815922
0.000503665138987
0.000509943916702
0.000512967431676
0.00051491430558
0.000516591317952
0.000518297373374
0.0005201633222
0.000522305027193
0.000524983489378
0.000529195817861
0.000538353615534
0.000562772174265
0.000328511190967
0.000489245688511
0.000504880592755
0.00051109238985
0.000514029799647
0.000515882373015
0.000517453866383
0.000519042112027
0.000520769204613
0.000522750108399
0.000525299606421
0.000529505746149
0.00053884465844
0.000563321353357
0.000329373061474
0.000490426783786
0.000506035206373
0.000512178524856
0.000515025840446
0.000516777293906
0.000518241265583
0.000519713499189
0.000521318764315
0.000523189350756
0.000525709606508
0.000530135954126
0.000540171203163
0.000565715024012
0.000330173399852
0.000491529269675
0.000507116475882
0.000513193020303
0.000515953090971
0.000517608324711
0.000518971772129
0.000520341619532
0.000521846063048
0.000523636277099
0.000526161227546
0.000530836617226
0.0005415638752
0.000567994333157
0.000330892301903
0.000492542942328
0.00050811486273
0.000514128446775
0.000516806666094
0.000518374062247
0.000519647530963
0.000520927766298
0.000522344958119
0.00052405777154
0.00052654880609
0.000531313794698
0.00054232370804
0.000568864194157
0.000331543090254
0.000493463331076
0.000509024450658
0.000514979784337
0.000517582265923
0.000519070091323
0.000520263732335
0.000521464548729
0.000522803828007
0.000524437877096
0.000526852632285
0.000531560017366
0.000542550593677
0.000568935720719
0.00052321346896
0.00052477535196
0.000527108463506
0.000531728522755
0.00054267983989
0.000569155490143
0.00053177232982
0.000542497486075
0.000568714910373
0.000566416576044
)
;

boundaryField
{
    back
    {
        type            nutkWallFunction;
        blending        stepwise;
        Cmu             0.09;
        kappa           0.41;
        E               9.8;
        value           nonuniform List<scalar> 
164
(
4.61587673451e-05
5.117074987e-05
5.26883429152e-05
5.32647654327e-05
5.34386436642e-05
5.32853719522e-05
5.26432719812e-05
5.13205991504e-05
4.93396076886e-05
4.9466482476e-05
5.01122665159e-05
5.26820398761e-05
5.72946351765e-05
6.24821732665e-05
4.62798434103e-05
5.12756356457e-05
5.27954414351e-05
5.33952178584e-05
5.36445491925e-05
5.37093320981e-05
5.36194216326e-05
5.34187988005e-05
5.33431610669e-05
5.36245960644e-05
5.40237941392e-05
5.47826539605e-05
5.69621194078e-05
6.07497728236e-05
4.64093303959e-05
5.13919363417e-05
5.29114204723e-05
5.3522848955e-05
5.38105437299e-05
5.39720380301e-05
5.40757390183e-05
5.41690614499e-05
5.43370877069e-05
5.46183446732e-05
5.49729734537e-05
5.55222472102e-05
5.6832013192e-05
5.9878286591e-05
4.65422178767e-05
5.15157479486e-05
5.30328757442e-05
5.36464334366e-05
5.39458655603e-05
5.41378344119e-05
5.42976396516e-05
5.4460060669e-05
5.46609621646e-05
5.49187414955e-05
5.52402946934e-05
5.57243168435e-05
5.67546633929e-05
5.93819415184e-05
4.66757900222e-05
5.16425171852e-05
5.31563199148e-05
5.37668071139e-05
5.40650122028e-05
5.42602606533e-05
5.44296917147e-05
5.46028808405e-05
5.47972409065e-05
5.50268111741e-05
5.53126170372e-05
5.57473032772e-05
5.66643874241e-05
5.90812880262e-05
4.68057847121e-05
5.1768518442e-05
5.32787747113e-05
5.388352133e-05
5.41753253306e-05
5.43640530449e-05
5.45271464188e-05
5.46932069395e-05
5.4874608797e-05
5.50824077363e-05
5.53415908059e-05
5.57461221687e-05
5.66173048492e-05
5.89335415245e-05
4.69287043054e-05
5.18905653472e-05
5.33975129216e-05
5.39955646386e-05
5.42788138837e-05
5.44582245717e-05
5.46109148024e-05
5.47654232067e-05
5.49332868009e-05
5.51253800461e-05
5.53715974534e-05
5.57749692498e-05
5.66644478134e-05
5.89859933768e-05
4.70424570981e-05
5.20061511185e-05
5.35102728709e-05
5.41014973671e-05
5.43758406976e-05
5.45452896818e-05
5.46874397863e-05
5.48305633576e-05
5.49864929905e-05
5.51676897561e-05
5.54105794545e-05
5.58345873873e-05
5.67919812688e-05
5.92173220893e-05
4.71480726678e-05
5.2114010121e-05
5.36158299254e-05
5.42004160264e-05
5.44661598085e-05
5.46261542604e-05
5.47584292511e-05
5.48915069321e-05
5.50375290287e-05
5.52107237022e-05
5.54536113102e-05
5.59009752583e-05
5.69240407215e-05
5.9430987404e-05
4.72428443428e-05
5.22131443054e-05
5.37132534757e-05
5.429160134e-05
5.45492925714e-05
5.47006707097e-05
5.48241145818e-05
5.49483837576e-05
5.50858062156e-05
5.52512610396e-05
5.54902770096e-05
5.59447974247e-05
5.69916687967e-05
5.95016890759e-05
4.73286190595e-05
5.23031149556e-05
5.38019686738e-05
5.43745708348e-05
5.46248264302e-05
5.47684096793e-05
5.48840329727e-05
5.50005072511e-05
5.51302650024e-05
5.5287891819e-05
5.5519029676e-05
5.5966599142e-05
5.70081436915e-05
5.94954873477e-05
5.51700177763e-05
5.53205373141e-05
5.55434247947e-05
5.59814188506e-05
5.70156666795e-05
5.95025976899e-05
5.59852318101e-05
5.69954428143e-05
5.94503936668e-05
5.92306341712e-05
)
;
    }
    sides
    {
        type            nutkWallFunction;
        blending        stepwise;
        Cmu             0.09;
        kappa           0.41;
        E               9.8;
        value           nonuniform List<scalar> 0();
    }
    bottom
    {
        type            nutkWallFunction;
        blending        stepwise;
        Cmu             0.09;
        kappa           0.41;
        E               9.8;
        value           nonuniform List<scalar> 
11
(
2.44888983351e-05
2.45536961098e-05
2.46229939391e-05
2.46941102096e-05
2.47655914529e-05
2.48351568425e-05
2.49009348194e-05
2.49618062914e-05
2.50183224456e-05
2.50690351488e-05
2.51149329308e-05
)
;
    }
    front
    {
        type            nutkWallFunction;
        blending        stepwise;
        Cmu             0.09;
        kappa           0.41;
        E               9.8;
        value           nonuniform List<scalar> 
164
(
4.61587673451e-05
5.117074987e-05
5.26883429152e-05
5.32647654327e-05
5.34386436642e-05
5.32853719522e-05
5.26432719812e-05
5.13205991504e-05
4.93396076886e-05
4.9466482476e-05
5.01122665159e-05
5.26820398761e-05
5.72946351765e-05
6.24821732665e-05
4.62798434103e-05
5.12756356457e-05
5.27954414351e-05
5.33952178584e-05
5.36445491925e-05
5.37093320981e-05
5.36194216326e-05
5.34187988005e-05
5.33431610669e-05
5.36245960644e-05
5.40237941392e-05
5.47826539605e-05
5.69621194078e-05
6.07497728236e-05
4.64093303959e-05
5.13919363417e-05
5.29114204723e-05
5.3522848955e-05
5.38105437299e-05
5.39720380301e-05
5.40757390183e-05
5.41690614499e-05
5.43370877069e-05
5.46183446732e-05
5.49729734537e-05
5.55222472102e-05
5.6832013192e-05
5.9878286591e-05
4.65422178767e-05
5.15157479486e-05
5.30328757442e-05
5.36464334366e-05
5.39458655603e-05
5.41378344119e-05
5.42976396516e-05
5.4460060669e-05
5.46609621646e-05
5.49187414955e-05
5.52402946934e-05
5.57243168435e-05
5.67546633929e-05
5.93819415184e-05
4.66757900222e-05
5.16425171852e-05
5.31563199148e-05
5.37668071139e-05
5.40650122028e-05
5.42602606533e-05
5.44296917147e-05
5.46028808405e-05
5.47972409065e-05
5.50268111741e-05
5.53126170372e-05
5.57473032772e-05
5.66643874241e-05
5.90812880262e-05
4.68057847121e-05
5.1768518442e-05
5.32787747113e-05
5.388352133e-05
5.41753253306e-05
5.43640530449e-05
5.45271464188e-05
5.46932069395e-05
5.4874608797e-05
5.50824077363e-05
5.53415908059e-05
5.57461221687e-05
5.66173048492e-05
5.89335415245e-05
4.69287043054e-05
5.18905653472e-05
5.33975129216e-05
5.39955646386e-05
5.42788138837e-05
5.44582245717e-05
5.46109148024e-05
5.47654232067e-05
5.49332868009e-05
5.51253800461e-05
5.53715974534e-05
5.57749692498e-05
5.66644478134e-05
5.89859933768e-05
4.70424570981e-05
5.20061511185e-05
5.35102728709e-05
5.41014973671e-05
5.43758406976e-05
5.45452896818e-05
5.46874397863e-05
5.48305633576e-05
5.49864929905e-05
5.51676897561e-05
5.54105794545e-05
5.58345873873e-05
5.67919812688e-05
5.92173220893e-05
4.71480726678e-05
5.2114010121e-05
5.36158299254e-05
5.42004160264e-05
5.44661598085e-05
5.46261542604e-05
5.47584292511e-05
5.48915069321e-05
5.50375290287e-05
5.52107237022e-05
5.54536113102e-05
5.59009752583e-05
5.69240407215e-05
5.9430987404e-05
4.72428443428e-05
5.22131443054e-05
5.37132534757e-05
5.429160134e-05
5.45492925714e-05
5.47006707097e-05
5.48241145818e-05
5.49483837576e-05
5.50858062156e-05
5.52512610396e-05
5.54902770096e-05
5.59447974247e-05
5.69916687967e-05
5.95016890759e-05
4.73286190595e-05
5.23031149556e-05
5.38019686738e-05
5.43745708348e-05
5.46248264302e-05
5.47684096793e-05
5.48840329727e-05
5.50005072511e-05
5.51302650024e-05
5.5287891819e-05
5.5519029676e-05
5.5966599142e-05
5.70081436915e-05
5.94954873477e-05
5.51700177763e-05
5.53205373141e-05
5.55434247947e-05
5.59814188506e-05
5.70156666795e-05
5.95025976899e-05
5.59852318101e-05
5.69954428143e-05
5.94503936668e-05
5.92306341712e-05
)
;
    }
    atmosphere
    {
        type            calculated;
        value           nonuniform List<scalar> 0();
    }
    floatingObject
    {
        type            nutkWallFunction;
        blending        stepwise;
        Cmu             0.09;
        kappa           0.41;
        E               9.8;
        value           nonuniform List<scalar> 4(2.61908428003e-05 2.6258712416e-05 2.66041455329e-05 2.79784299483e-05);
    }
    procBoundary8to3
    {
        type            processor;
        value           nonuniform List<scalar> 8(0.000321880693711 0.000480985904388 0.00049667580212 0.000502371835502 0.000503492539587 0.000500511740367 0.00048976059144 0.000338334513841);
    }
    procBoundary8to6
    {
        type            processor;
        value           nonuniform List<scalar> 
16
(
0.000410727722683
0.000629348978284
0.000682093930851
0.000659997032638
0.000647169714999
0.000639176845829
0.000633855093723
0.000629977771234
0.000629006493618
0.000631286384943
0.000632861833299
0.00063219135299
0.000631237010411
0.000631367540041
0.000630472224746
0.000626129895334
)
;
    }
    procBoundary8to7
    {
        type            processor;
        value           nonuniform List<scalar> 
17
(
0.000332117348726
0.000494287283979
0.000509842273516
0.000515744672332
0.00051827768966
0.000519693661862
0.000520816153076
0.000521945744031
0.000521945744031
0.000523571317892
0.000525062313094
0.00052730255401
0.00052730255401
0.000531564422881
0.000541572211697
0.000541572211697
0.000562249670396
)
;
    }
}


// ************************************************************************* //
