/*--------------------------------*- C++ -*----------------------------------*\
| =========                 |                                                 |
| \\      /  F ield         | OpenFOAM: The Open Source CFD Toolbox           |
|  \\    /   O peration     | Version:  v2012                                 |
|   \\  /    A nd           | Website:  www.openfoam.com                      |
|    \\/     M anipulation  |                                                 |
\*---------------------------------------------------------------------------*/
FoamFile
{
    version     2.0;
    format      ascii;
    class       surfaceVectorField;
    location    "4.7";
    object      Uf_0;
}
// * * * * * * * * * * * * * * * * * * * * * * * * * * * * * * * * * * * * * //

dimensions      [0 1 -1 0 0 0 0];


internalField   nonuniform List<vector> 
300
(
(0.0008035456623 -0.000397631393618 7.23549697284e-21)
(0.00122079231797 -0.000354914636051 2.73764439481e-21)
(0.000343465733502 -0.000716119462793 2.97609620045e-20)
(0.000765787563582 -0.000524373061692 8.13914739987e-21)
(-0.000136679442005 -0.001023418232 1.24972418867e-19)
(0.000331592358467 -0.00080000109895 3.54272142478e-20)
(-0.000690482407945 -0.0014010058984 4.80456555824e-19)
(-2.01186258679e-05 -0.00106643922477 1.49847950274e-19)
(-0.00147934755806 -0.00186947413765 1.61893096957e-18)
(-0.000444283293269 -0.00138299474158 5.70555369072e-19)
(-0.00159803053905 -0.00258573634888 4.53762398703e-18)
(-0.000947603812192 -0.00198826614937 1.8902488432e-18)
(0.000384377109581 -0.00282605505488 9.72362081473e-18)
(-0.000616212199296 -0.00292851019616 5.01295253672e-18)
(0.000189234801876 -0.000473433084649 1.6514633701e-17)
(0.000811409673888 -0.00292905175421 9.64576094935e-18)
(-0.00346840761653 0.00193736020424 1.99001714128e-17)
(-0.00241065519755 -0.0013762372083 1.44622502333e-17)
(-0.00239090547901 0.00891869855623 1.60449786777e-17)
(-0.00698112347119 -0.000423954041341 1.40896693349e-17)
(0.00953359800312 0.0105271685858 1.28262117098e-17)
(-0.00160816356172 0.00541457730338 9.81326269012e-18)
(0.0224502070974 7.9978573451e-05 9.93877161431e-18)
(0.0104476261396 -0.00116319030325 1.08425916787e-17)
(0.0161022218781 0.000406402032737 5.65011869112e-18)
(0.0235587795702 -0.000151409033381 6.76979872414e-18)
(0.00518991148322 0.00410011778243 4.5082439191e-18)
(0.00116784323886 -0.000373598755163 3.64129482184e-21)
(0.00159436568821 -0.000336159680232 1.93419416252e-21)
(0.000681417744389 -0.000667141405623 1.38053996433e-20)
(0.00105929225135 -0.000485922498171 3.66217235039e-21)
(0.000322104098138 -0.000882433301818 6.03027456544e-20)
(0.00054683844823 -0.000724318382757 1.53616566955e-20)
(0.000148889627275 -0.00113014026828 2.39946763521e-19)
(0.000227539539723 -0.000924341747239 6.74263099411e-20)
(9.94950797955e-05 -0.00166305892845 8.41873242698e-19)
(8.85916633018e-05 -0.00115810893446 2.6309171489e-19)
(0.000265809665082 -0.00273843193829 2.36557739289e-18)
(0.000127750197709 -0.00163251512215 8.9485150249e-19)
(0.000292315209175 -0.00377069013313 4.93509267134e-18)
(0.000416075138039 -0.00249767422166 2.35640720535e-18)
(-0.00154132307145 -0.00326266033833 7.59337748167e-18)
(0.000303478133931 -0.00277261967828 4.47110582577e-18)
(-0.00534936356834 -0.00330688369803 8.65174815545e-18)
(-0.00236624952055 -0.00276528862531 6.10115281047e-18)
(-0.00542552097525 -0.00505545667642 7.85795334729e-18)
(-0.00523228318799 -0.00399539936041 6.03946224244e-18)
(0.0010720063039 -0.0048666291609 7.82964265907e-18)
(-0.00179664815506 -0.00617269856971 5.4090341088e-18)
(0.0134592812633 -0.00184662089987 7.67361878857e-18)
(0.00742805149516 -0.00600869314068 6.57430726363e-18)
(0.0133834499388 0.00421024543849 5.62792395212e-18)
(0.0175024324116 0.000537006701821 5.56566173452e-18)
(0.00431504239459 0.00699410148559 3.6039627398e-18)
(0.0014882471373 -0.000345570007724 1.95507169106e-21)
(0.00193988188145 -0.00032192856323 1.69755443403e-21)
(0.000929682964597 -0.000618639169951 5.21842940264e-21)
(0.00133229497799 -0.000453815575582 1.61217521509e-21)
(0.000506553861512 -0.000822120772798 2.24852209822e-20)
(0.000750248565472 -0.000679737921371 5.43309921569e-21)
(0.000305937712091 -0.00102559465861 9.05712613099e-20)
(0.000430944939571 -0.000855034199989 2.40222776152e-20)
(0.000283225702147 -0.00130180125056 3.16069974681e-19)
(0.00036474445639 -0.000996140994407 9.43785097604e-20)
(0.000396288103333 -0.001643833656 8.85681314952e-19)
(0.000469764788931 -0.00116538159682 3.17948126627e-19)
(0.000447684574568 -0.00183248714376 1.89242035978e-18)
(0.000604770273299 -0.00135567142147 8.35936220987e-19)
(-0.000604718350439 -0.00192035911441 2.97888115457e-18)
(0.000391473488637 -0.00133790290195 1.63117048109e-18)
(-0.00261598013003 -0.00300051879549 3.48886689746e-18)
(-0.00128587183407 -0.00168674338714 2.26735367227e-18)
(-0.00204438967475 -0.00529617008912 3.59054300394e-18)
(-0.002936317286 -0.00325999186295 2.34880439545e-18)
(0.00335588773939 -0.00651435723375 4.15369871336e-18)
(-0.000578065324267 -0.00562150129894 2.50409428682e-18)
(0.009756743878 -0.0041171764899 4.46635020959e-18)
(0.0050313631706 -0.00530648034453 3.22342209914e-18)
(0.00766317534611 0.00379715381189 3.54170052221e-18)
(0.00958871290234 0.000661522630446 2.95106174925e-18)
(0.00184017173093 0.00670495715981 1.9612773353e-18)
(0.0017873954228 -0.000327084545873 1.35465795805e-21)
(0.00226688708756 -0.000316159591269 1.54608814872e-21)
(0.00115464887989 -0.000586522950799 1.82684502814e-21)
(0.00159164217287 -0.000434293718844 8.21302112391e-22)
(0.000677986238668 -0.000764561652287 6.97015584866e-21)
(0.000928193654718 -0.000646765856693 1.67169932753e-21)
(0.000474947764243 -0.00089117503072 2.78295260657e-20)
(0.000557472920938 -0.000797802638511 7.1895918579e-21)
(0.000482699019119 -0.000989268708549 9.62566617058e-20)
(0.000462776045901 -0.00087460676294 2.8011776766e-20)
(0.000561049979661 -0.00102846950342 2.68203032662e-19)
(0.000508949833332 -0.000908630979926 9.31449673695e-20)
(0.000491962530465 -0.000969253911474 5.74686342296e-19)
(0.000545610550056 -0.000885560125689 2.43801777057e-19)
(-0.000223981926247 -0.000965355413976 9.1964299879e-19)
(0.000387726455894 -0.000745588217541 4.78921467692e-19)
(-0.00142243035168 -0.0017557601581 1.12729117026e-18)
(-0.000495205574851 -0.000908962127893 6.81103162215e-19)
(-0.00129447373817 -0.00340661233967 1.26235567833e-18)
(-0.0012850913638 -0.00191997550347 7.47494435806e-19)
(0.00154013798493 -0.00378017848341 1.57381767261e-18)
(-0.000204030369808 -0.0031268618651 8.56119687454e-19)
(0.00485839159837 -0.00153827076086 1.7081336388e-18)
(0.00279004279194 -0.00243179607826 1.12911912874e-18)
(0.00333099776088 0.00396432249967 1.37063856235e-18)
(0.00408685864558 0.00165231424506 1.0265906629e-18)
(-0.000161075585662 0.0055331929813 7.2406372598e-19)
(0.00207307256225 -0.000319547850396 1.01273230305e-21)
(0.00258633622227 -0.000313122804923 1.39267377422e-21)
(0.00136488426814 -0.000562946343845 6.66156411782e-22)
(0.00183493167284 -0.000426154099259 5.33795486739e-22)
(0.000818711496052 -0.000725057580162 1.89113533677e-21)
(0.00109019601928 -0.000630699613093 4.95917924007e-22)
(0.000558769347249 -0.000830252206847 7.37184255821e-21)
(0.000662571224754 -0.000774648774533 1.90235376158e-21)
(0.000500303402189 -0.000860256727244 2.49000824297e-20)
(0.000492714871614 -0.000840379308256 7.28489646318e-21)
(0.000513032420349 -0.000818091392717 6.87437117643e-20)
(0.000466774787352 -0.000846856714144 2.3397754558e-20)
(0.000453145251474 -0.00070852750763 1.48036902453e-19)
(0.000436121278948 -0.000793146145768 6.07988735554e-20)
(9.33800056706e-05 -0.000616057466783 2.40381631117e-19)
(0.00029544183173 -0.000661267420617 1.20163341276e-19)
(-0.000464173027915 -0.000929151826207 3.01306427763e-19)
(-0.000181798084532 -0.000673052298036 1.73568739915e-19)
(-0.000396833392053 -0.00160878453099 3.4125844493e-19)
(-0.000605015833435 -0.00109574322126 1.94595084856e-19)
(0.000767134176164 -0.00158195475952 4.11421143592e-19)
(-0.000230306818787 -0.00147833684495 2.20568028782e-19)
(0.0018741103893 0.000332503509602 4.47576152841e-19)
(0.000876280961345 -0.00065781369626 2.74628758817e-19)
(0.000542379776457 0.00353023645749 3.80015826529e-19)
(0.000890005116038 0.00186070467854 2.62479330002e-19)
(-0.00167734900701 0.00416737449587 1.97676304382e-19)
(0.00234918199207 -0.000317236142519 9.13736957902e-22)
(0.00290346258269 -0.000307885571519 1.39801417382e-21)
(0.00156675177419 -0.000556121858827 3.63556998965e-22)
(0.00207369963932 -0.000425843209099 4.91980299488e-22)
(0.000946529849725 -0.000720062684664 5.07136348821e-22)
(0.00125402146446 -0.000633192555972 2.40877000697e-22)
(0.000624948727555 -0.000818914428321 1.81540766656e-21)
(0.000761323403265 -0.00078216932015 5.63545100639e-22)
(0.000502592977776 -0.000870735804238 5.78256859141e-21)
(0.000544472840925 -0.000866077770424 1.83518884001e-21)
(0.000442891814704 -0.00084153879402 1.54529163491e-20)
(0.000437578272228 -0.000905638589609 5.30119423689e-21)
(0.000344890491573 -0.000770722561618 3.29253123778e-20)
(0.000365400989198 -0.000892282416139 1.3411935299e-20)
(9.67398791433e-05 -0.000689600013359 5.33504500732e-20)
(0.000214540058496 -0.000823556380481 2.6213446713e-20)
(-0.000264843464763 -0.000763010411798 6.68573970077e-20)
(-0.000108022670746 -0.0008010033719 3.78325374415e-20)
(-0.000405912730698 -0.000915592016733 7.39046687076e-20)
(-0.000451923026726 -0.000926939640378 4.238218684e-20)
(-0.000164107714152 -0.000597376781261 8.37756440073e-20)
(-0.000547886655969 -0.000932716449361 4.60341097841e-20)
(-0.000138754906547 0.000745900367109 8.95319359787e-20)
(-0.000466194825221 -0.000255910387683 5.37422788169e-20)
(-0.00131740504293 0.00268963207242 8.01398078551e-20)
(-0.00105271456405 0.00125006950865 5.19551682762e-20)
(-0.00271366143064 0.0026159106014 3.87380151802e-20)
(0.0026282801911 -0.000314928279204 9.76257515403e-22)
(0.00321827925341 -0.000298481176701 1.32488307807e-21)
(0.0017724559794 -0.00056036049711 3.6930030122e-22)
(0.0023190148182 -0.000426219179301 4.17538467182e-22)
(0.00108303492997 -0.000735881064637 2.97285752514e-22)
(0.00142942873868 -0.000643124022325 1.73592877854e-22)
(0.000703745490579 -0.000857707676666 5.83326274095e-22)
(0.000883053971483 -0.000808209370959 2.76325999978e-22)
(0.000528809229781 -0.000931870415231 1.3538144855e-21)
(0.000618578415453 -0.000919794120825 5.81815224623e-22)
(0.000418527872648 -0.000974949181446 3.26021318679e-21)
(0.000480668388754 -0.00100738044983 1.22116449307e-21)
(0.00027994180168 -0.000959170151165 6.70006963417e-21)
(0.000349736075453 -0.00106065110965 2.84171723849e-21)
(4.83910138165e-05 -0.000931352420253 1.06955340813e-20)
(0.000186971475985 -0.00107160440764 5.3151032954e-21)
(-0.000274885457502 -0.000937094135321 1.33573272739e-20)
(-0.000101874676583 -0.00108150610254 7.64237751236e-21)
(-0.000577857344713 -0.000912874962706 1.45116279166e-20)
(-0.000475576420963 -0.00113057361714 8.52571078598e-21)
(-0.000849925048575 -0.000633996917669 1.60007445936e-20)
(-0.000826063828227 -0.0010864799002 8.84186096897e-21)
(-0.00139407369419 0.000198508436858 1.61655111143e-20)
(-0.00129781396055 -0.000687346383872 9.72807199593e-21)
(-0.0024706553418 0.00131783929747 1.05533756013e-20)
(-0.00217092728097 7.89439968946e-05 7.36138148636e-21)
(-0.00332984968262 0.000747852633325 -2.63321748969e-21)
(0.00291120562781 -0.00030729200636 7.66164029846e-22)
(0.00352546664646 -0.000286849351658 8.15410889506e-22)
(0.00198762266713 -0.00056164761596 2.21831043817e-22)
(0.00257326237183 -0.000424370656543 1.02898928668e-22)
(0.00123986923966 -0.000748463358631 1.52633125318e-22)
(0.00161613971629 -0.00065251363199 -2.66545770198e-23)
(0.000815671723617 -0.000894451868855 2.74814950505e-22)
(0.0010289534825 -0.000841763752111 1.13480140316e-22)
(0.000601507508093 -0.00101266575173 4.49165232197e-22)
(0.000736740729547 -0.000988757649045 2.88739686922e-22)
(0.000460502784894 -0.00110872799917 8.0266854477e-22)
(0.000576746964286 -0.00112381135497 4.08209323096e-22)
(0.000297391376879 -0.00118752649553 1.45675089972e-21)
(0.000428655072961 -0.00124748201354 7.10568681493e-22)
(5.17107880017e-05 -0.00122996209199 2.26194672642e-21)
(0.00022966695309 -0.00135150541769 1.16721592882e-21)
(-0.000295631985873 -0.00127106042777 2.81076102445e-21)
(-6.03518345225e-05 -0.00145038701399 1.6758508318e-21)
(-0.00072263267582 -0.00128847988297 2.85594383837e-21)
(-0.000457563630518 -0.00156563662596 1.81645436601e-21)
(-0.00126867134796 -0.00116882548242 2.56918837128e-21)
(-0.000944981424213 -0.00164264004062 1.58698175824e-21)
(-0.00206327941295 -0.000831961556486 9.23942367961e-22)
(-0.00163374050487 -0.00158471531274 9.85662585447e-22)
(-0.00302372018262 -0.000466886682917 -5.82521160462e-21)
(-0.00253482134148 -0.00143304337813 -2.363707055e-21)
(-0.00336786490945 -0.00135292514092 -1.43956389353e-20)
(0.00319248894582 -0.000303105113179 1.52145788328e-22)
(0.003828475004 -0.000275974916025 1.44598544896e-22)
(0.00221378579604 -0.000561014374576 -1.45586692168e-22)
(0.0028310706309 -0.000421427856028 -2.39233898467e-22)
(0.0014195336044 -0.000769967954693 -6.58075620215e-23)
(0.00182498897003 -0.000661717911023 -2.34865912136e-22)
(0.000966398899167 -0.000947581803099 1.27404876732e-22)
(0.00120646909292 -0.000878217373722 5.97850812646e-24)
(0.000732405419859 -0.00111161201774 2.4778377782e-22)
(0.000900699655903 -0.00106543976011 1.98911621476e-22)
(0.00057520716488 -0.00126840737666 3.16109459818e-22)
(0.000733531903439 -0.00125171865911 2.46736884957e-22)
(0.000401313361434 -0.00142533586875 4.21033710595e-22)
(0.000585676609239 -0.00144471818714 2.86421944713e-22)
(0.000152904738567 -0.00158116372379 5.81120034199e-22)
(0.000385736953495 -0.00164683452204 3.59984190413e-22)
(-0.000198071681029 -0.00174539755809 6.81544173361e-22)
(0.000104295250667 -0.00186617678379 4.71473935007e-22)
(-0.000666562098846 -0.00192649765478 5.47492285884e-22)
(-0.000275877665424 -0.00211781960825 4.32013941409e-22)
(-0.00129442483151 -0.00207469076973 3.45597241192e-24)
(-0.000796053476788 -0.00239345075098 2.25191644883e-22)
(-0.00210911034004 -0.00220018529455 -2.30198683752e-21)
(-0.00150729911906 -0.00267685598201 -5.64792468415e-22)
(-0.00292881801126 -0.00236718876146 -1.09341343857e-20)
(-0.00236662561436 -0.00299903566437 -4.32543877234e-21)
(-0.00306137121865 -0.00333369790703 -1.80335164176e-20)
(0.00347285464868 -0.000295113133933 -2.46781141899e-22)
(0.00412349746811 -0.000264431705818 -1.84088219667e-22)
(0.00245393109983 -0.000563208107092 -3.28513118436e-22)
(0.00309905956303 -0.000418623867077 -4.04905092852e-22)
(0.00162589065734 -0.000792766875802 -1.63079841988e-22)
(0.00205442381097 -0.000671281615878 -2.68714666143e-22)
(0.00115763359052 -0.00100427102777 7.74852528701e-23)
(0.0014178382813 -0.000914248568811 -4.12752765216e-24)
(0.000921321116865 -0.00121472753242 1.97864728613e-22)
(0.00111103543571 -0.00113976376423 1.7981226711e-22)
(0.000767527449582 -0.00143457410001 2.17049369852e-22)
(0.000953313115329 -0.00137504426536 2.06335617237e-22)
(0.000604477298953 -0.00167032754543 2.2537242453e-22)
(0.00082147884758 -0.00163103657112 1.91825892418e-22)
(0.000381269292528 -0.00194077518459 2.50338091221e-22)
(0.00065639228073 -0.00192084014917 1.97850808622e-22)
(6.42069296113e-05 -0.00224588021603 2.21943703055e-22)
(0.000409784991002 -0.00225682890004 2.12366610721e-22)
(-0.000375391033416 -0.0026016240262 1.09713300408e-22)
(8.04461892007e-05 -0.00264834788163 1.34478248763e-22)
(-0.000970461670378 -0.00301022462755 -3.43056795944e-22)
(-0.000386712906619 -0.00311436104044 -8.57005382722e-23)
(-0.00172389642601 -0.00349270036694 -2.58824440324e-21)
(-0.00102390920275 -0.00367651910489 -8.89427853284e-22)
(-0.00248830430834 -0.00401601278625 -1.14248208042e-20)
(-0.00184216990482 -0.00433783521689 -4.56832407483e-21)
(-0.00258526976034 -0.00497616216028 -1.74354648022e-20)
(0.00375343231556 -0.000290907343717 -3.42212170619e-22)
(0.00270945358324 -0.000563791734446 -3.45106640559e-22)
(0.00186025722168 -0.000813366520627 -1.09762351807e-22)
(0.00138794388277 -0.00105547103508 9.81994865875e-23)
(0.00116143007987 -0.00130665527773 1.88283155734e-22)
(0.00102821452174 -0.00157767893924 1.81112139804e-22)
(0.000898463383678 -0.00188273635119 1.6430427651e-22)
(0.000727904724398 -0.00223651014494 1.59879328122e-22)
(0.00048099947167 -0.00267451938699 1.24901156428e-22)
(0.000848177046771 -0.00255193908877 1.31008770331e-22)
(0.00011650316667 -0.00317018889485 -6.09355899172e-23)
(0.00057669430927 -0.00306263471564 8.10825790762e-23)
(-0.000399178896364 -0.00379955410256 -6.32071595612e-22)
(0.000243435094978 -0.00369405488401 -1.49210438743e-22)
(-0.00108860083866 -0.00453332763594 -2.86950752488e-21)
(-0.00028921029854 -0.00449077877169 -9.76325731378e-22)
(-0.0018833801155 -0.00534859932248 -1.05789680728e-20)
(-0.00102576692441 -0.00546710799439 -4.32028742746e-21)
(-0.00187933381255 -0.00648752682719 -1.48843302827e-20)
(0.00100605011689 -0.00294251285305 8.7190192979e-23)
(0.000771446922814 -0.00359505397922 -7.19226974917e-24)
(0.000401119479695 -0.00440038363035 -4.93464574509e-22)
(-0.000160290083189 -0.0054331105817 -2.42710563396e-21)
(0.000744596159849 -0.00505718537691 -7.8499937129e-22)
(-0.000936806115846 -0.00665074940507 -8.62564963734e-21)
(0.000193076680565 -0.00634753238152 -3.31088836861e-21)
(-0.000705223743709 -0.00784132566068 -1.08534241833e-20)
(0.00115027182476 -0.00597747479524 -1.66878210594e-21)
(0.000516412308793 -0.00755995421404 -5.53866291457e-21)
(0.000974380639493 -0.00847126631899 -6.82063309935e-21)
)
;

boundaryField
{
    back
    {
        type            calculated;
        value           uniform (0 0 0);
    }
    sides
    {
        type            calculated;
        value           nonuniform List<vector> 0();
    }
    bottom
    {
        type            calculated;
        value           uniform (0 0 0);
    }
    front
    {
        type            calculated;
        value           uniform (0 0 0);
    }
    atmosphere
    {
        type            calculated;
        value           nonuniform List<vector> 0();
    }
    floatingObject
    {
        type            calculated;
        value           nonuniform List<vector> 4((0 -2.22044604925e-15 2.77555756156e-16) (0 -2.22044604925e-15 2.77555756156e-16) (0 0 0) (0 -4.4408920985e-15 2.77555756156e-16));
    }
    procBoundary8to3
    {
        type            processor;
        value           nonuniform List<vector> 8((0.000823144084623 -0.000360791765945 4.3696312998e-21) (0.000447296841811 -0.000500283658972 1.53012477886e-20) (2.43057464947e-05 -0.000694230655585 6.56759547704e-20) (-0.00039768038807 -0.00081207757262 2.59908169156e-19) (-0.000912714205919 -0.000757821316523 9.16370650398e-19) (-0.00166384107123 -0.000919309223386 2.80651193691e-18) (-0.000856534666674 -0.000237860453399 6.84814679116e-18) (0.00316395686217 -0.00135251236559 1.25629420148e-17));
    }
    procBoundary8to6
    {
        type            processor;
        value           nonuniform List<vector> 
16
(
(0.0238844831521 -0.00663862175627 5.64739907771e-18)
(0.0041362077377 -0.00306713410332 4.08187585029e-18)
(-0.00176502483708 -0.000646633027081 3.53989481866e-18)
(-0.00170802393438 0.00508563321879 3.22931732637e-18)
(-0.00245425741781 0.00627265249211 1.95977330754e-18)
(-0.00318387866391 0.00596633716457 7.74418944353e-19)
(-0.00352230980886 0.0050474253906 2.16621992032e-19)
(-0.00369882435558 0.00372699741747 4.16553013563e-20)
(-0.00376764566157 0.00193518817804 -7.30692922538e-21)
(-0.00368297417321 -0.000427650032621 -2.60525585721e-20)
(-0.00332656486969 -0.0026724608834 -3.55943590201e-20)
(-0.0029337688957 -0.00449094683945 -3.71430117581e-20)
(-0.00252168214149 -0.0060534562407 -3.0865682139e-20)
(-0.0018317389575 -0.00782366766699 -2.40750115653e-20)
(-0.000655532226713 -0.00923811855116 -1.43445995121e-20)
(0.000894382474401 -0.00950096942741 -8.58310903252e-21)
)
;
    }
    procBoundary8to7
    {
        type            processor;
        value           nonuniform List<vector> 
17
(
(0.00441432021056 -0.000250887092473 -2.5143555639e-22)
(0.00337183405568 -0.000415910537548 -3.72408835728e-22)
(0.00230385792492 -0.000679402087741 -1.99121054072e-22)
(0.00165977925336 -0.00094412709809 3.00079270166e-23)
(0.00136205721617 -0.00120078767348 1.69210816326e-22)
(0.00122422454472 -0.00147498694673 1.7908234865e-22)
(0.00112654723083 -0.00177848432372 1.53282197197e-22)
(0.00101033863209 -0.00212976447594 1.41917930657e-22)
(0.00115465102156 -0.00244196233292 1.13047372866e-22)
(0.00134908899505 -0.00272607365868 7.55260154537e-23)
(0.00122996643534 -0.00331685607362 4.72162417478e-23)
(0.0010495560046 -0.00407030109603 -8.85758848784e-23)
(0.00143879759615 -0.00473369116475 -3.8011068166e-22)
(0.00199001103421 -0.00525909106492 -6.76196888711e-22)
(0.00177679371325 -0.00669280037077 -2.41433929194e-21)
(0.00228744164281 -0.00761805662255 -3.69630947672e-21)
(0.00285916946371 -0.00799574614139 -4.64414165064e-21)
)
;
    }
}


// ************************************************************************* //
