/*--------------------------------*- C++ -*----------------------------------*\
| =========                 |                                                 |
| \\      /  F ield         | OpenFOAM: The Open Source CFD Toolbox           |
|  \\    /   O peration     | Version:  v2012                                 |
|   \\  /    A nd           | Website:  www.openfoam.com                      |
|    \\/     M anipulation  |                                                 |
\*---------------------------------------------------------------------------*/
FoamFile
{
    version     2.0;
    format      ascii;
    class       volScalarField;
    location    "1";
    object      alpha.water;
}
// * * * * * * * * * * * * * * * * * * * * * * * * * * * * * * * * * * * * * //

dimensions      [0 0 0 0 0 0 0];


internalField   nonuniform List<scalar> 
167
(
1.00000026646
1.00000024073
1.00000027055
1.00000027281
1.00000020731
1
0.999999999862
0.999999990042
0.999999623433
0.980708495605
0.371361620342
0
1.00000033546
1.00000026945
1.00000028948
1.000000286
1.0000002119
1
0.999999999854
0.999999988254
0.999999567564
0.980683425518
0.37611859483
-5.02502302401e-25
1.00000029868
1.00000034394
1.00000030734
1.00000029094
1.00000020721
1
0.999999999845
0.99999998842
0.999999571765
0.980007057421
0.371595986991
-3.19462171447e-26
1.00000036009
1.000000342
1.00000029057
1.00000019835
1
0.999999999847
0.99999998846
0.999999569841
0.979026532209
0.367153523208
-1.14735289456e-27
1.00000040614
1.00000028059
1.0000001809
1
0.999999999848
0.999999988609
0.999999569676
0.977867334207
0.361804139736
-3.59204879536e-29
1.00000041244
1.00000026125
1.00000016073
1
0.999999999855
0.999999988768
0.999999569135
0.976367911992
0.355036733032
-1.1026657223e-30
1.000000388
1.00000023842
1.00000014009
1
0.999999999864
0.999999988918
0.999999566808
0.974400504212
0.347227177586
-3.48049024557e-32
1.00000036009
1.00000021703
1.00000012372
1
0.999999999873
0.999999989154
0.999999564726
0.972085504556
0.338433782536
-1.14872476813e-33
1.00000032977
1.00000019818
1.00000011079
1
0.999999999881
0.999999989467
0.999999564316
0.969442847565
0.328707632193
-3.98429676354e-35
1.00000030774
1.00000018351
1.00000009953
1
0.999999999885
0.999999989828
0.999999564597
0.966312576726
0.318302361812
-1.45515809285e-36
1.00000028678
1.00000017268
1.00000009331
1
0.999999999888
0.999999990331
0.999999568178
0.962892201888
0.307368525884
-2.95178141682e-33
1.00000027724
1.00000016692
1.00000009106
1
0.999999999891
0.999999992075
0.999999575257
0.95901371523
0.296097761287
-5.54552668219e-34
1.00000026853
1.00000016575
1.00000009452
1
0.999999999925
0.999999992696
0.999999587906
0.954817718235
0.28462896627
-6.58062470516e-43
1.0000002811
1.00000018621
1.00000011339
1
0.999999999899
0.999999994627
0.999999605283
0.950370930766
0.273210451518
-1.07712417817e-49
1.00000035314
1.00000022902
1.00000016509
1
0.999999999903
0.999999994542
0.999999629592
0.945662296473
0.262027664396
-1.47497055364e-37
1.00000036316
1.00000028289
1.00000019797
1
1.00000000003
0.999999995852
0.999999658891
0.940834313162
0.251299305895
-3.18337041734e-37
)
;

boundaryField
{
    back
    {
        type            zeroGradient;
    }
    sides
    {
        type            zeroGradient;
    }
    bottom
    {
        type            zeroGradient;
    }
    front
    {
        type            zeroGradient;
    }
    atmosphere
    {
        type            inletOutlet;
        inletValue      uniform 0;
        value           uniform 0;
    }
    floatingObject
    {
        type            zeroGradient;
    }
    procBoundary1to0
    {
        type            processor;
        value           nonuniform List<scalar> 10(1.00000041825 1.00000037228 1.00000030312 1.00000000092 1.00000000003 1.00000000301 0.999999707777 0.936054699075 0.241280228013 -1.20883572705e-45);
    }
    procBoundary1to2
    {
        type            processor;
        value           nonuniform List<scalar> 
18
(
1.00000023089
1.00000023258
1.00000029091
1.0000004694
1.0000004694
1.00000051987
1.00000051987
1.00000041938
1.00000037213
1.00000033408
1.00000030584
1.00000027847
1.00000026185
1.00000024552
1.00000024039
1.00000025071
1.00000026281
1.00000030585
)
;
    }
}


// ************************************************************************* //
