/*--------------------------------*- C++ -*----------------------------------*\
| =========                 |                                                 |
| \\      /  F ield         | OpenFOAM: The Open Source CFD Toolbox           |
|  \\    /   O peration     | Version:  v2012                                 |
|   \\  /    A nd           | Website:  www.openfoam.com                      |
|    \\/     M anipulation  |                                                 |
\*---------------------------------------------------------------------------*/
FoamFile
{
    version     2.0;
    format      ascii;
    class       volScalarField;
    location    "1";
    object      ddt0(epsilon);
}
// * * * * * * * * * * * * * * * * * * * * * * * * * * * * * * * * * * * * * //

dimensions      [0 2 -4 0 0 0 0];


internalField   nonuniform List<scalar> 
167
(
-0.0369941531596
-0.0369631995232
-0.0369200119579
-0.0368306762611
-0.0365318005018
-0.0353801135873
-0.0314192930548
-0.0203247551725
0.00416178588519
0.0442967518204
0.0849302343829
0.0596775374404
-0.0365348360771
-0.0365189423432
-0.0364913156024
-0.0364091464218
-0.0360816007834
-0.0348199391775
-0.0307103257877
-0.0199554500043
0.00178314430098
0.0316323678693
0.0443026991589
0.0133556285446
-0.0382406323137
-0.038215295263
-0.0381760961948
-0.0380760372543
-0.0377106238833
-0.0363580113525
-0.032051571442
-0.0209844169209
0.000944813817777
0.0306991216466
0.0468692600517
0.016592832496
-0.0383767208501
-0.0383288873251
-0.0382182551426
-0.0378381829746
-0.0364641364763
-0.0321349021123
-0.0210776985144
0.000775395317015
0.0306902115035
0.0474719951756
0.0203333030948
-0.0382703558349
-0.0381555226676
-0.0377713684744
-0.036397814358
-0.0320929882154
-0.0211379500158
0.000450859316679
0.0299719046344
0.0468318072508
0.020011777381
-0.0382350050706
-0.0381191761285
-0.0377352820513
-0.0363696200639
-0.0321045824836
-0.0212862813724
-4.41736873901e-05
0.0288594849912
0.045275940499
0.0189857148037
-0.0382277773594
-0.0381122411353
-0.0377302829762
-0.0363755754202
-0.0321582669187
-0.0214999603637
-0.000670881926586
0.0274637452898
0.0433963080726
0.0185897240979
-0.0382335901367
-0.0381188610399
-0.0377397000482
-0.0363983640044
-0.0322369682143
-0.0217633643052
-0.00140669875457
0.0258634220683
0.0411298114813
0.0175459766586
-0.03824519449
-0.0381315686028
-0.0377559694523
-0.0364307901174
-0.032335194112
-0.0220766028097
-0.0022746457163
0.0238945787604
0.0378529080371
0.0154244469781
-0.0382604196823
-0.0381481698307
-0.0377770565698
-0.0364715948222
-0.0324541841028
-0.0224458630639
-0.00327159310692
0.0217804373728
0.0350377638597
0.0143436093999
-0.0382789368095
-0.0381683856998
-0.0378028953974
-0.0365214201145
-0.0325962294287
-0.0228766040901
-0.00441860765667
0.0193093958963
0.0312475520577
0.0120849547172
-0.0383009866513
-0.0381925199805
-0.0378340461449
-0.036581688738
-0.0327653751047
-0.02337984937
-0.00573923715197
0.0165140861495
0.0271817851863
0.0100431866799
-0.0383269491267
-0.0382210399142
-0.037871230562
-0.0366538478417
-0.0329643368565
-0.0239570012101
-0.00721481996265
0.0134826914543
0.0229681735605
0.00792918023306
-0.0383572643175
-0.0382544741682
-0.0379152408277
-0.0367394992923
-0.0331970359617
-0.0246190439393
-0.00888336052407
0.0100509732775
0.0179122981543
0.00500932295083
-0.0383923639923
-0.0382933308137
-0.0379668465341
-0.0368401874502
-0.0334673316561
-0.0253759095793
-0.0107640813855
0.00624487922874
0.0123878469646
0.0019741652665
-0.0384325062094
-0.0383380074278
-0.0380266490868
-0.0369571117682
-0.0337774784662
-0.0262304654174
-0.012856013669
0.00206801907654
0.00638516216833
-0.00121757164685
)
;

boundaryField
{
    back
    {
        type            calculated;
        value           nonuniform List<scalar> 
167
(
-0.0369941531596
-0.0369631995232
-0.0369200119579
-0.0368306762611
-0.0365318005018
-0.0353801135873
-0.0314192930548
-0.0203247551725
0.00416178588519
0.0442967518204
0.0849302343829
0.0596775374404
-0.0365348360771
-0.0365189423432
-0.0364913156024
-0.0364091464218
-0.0360816007834
-0.0348199391775
-0.0307103257877
-0.0199554500043
0.00178314430098
0.0316323678693
0.0443026991589
0.0133556285446
-0.0382406323137
-0.038215295263
-0.0381760961948
-0.0380760372543
-0.0377106238833
-0.0363580113525
-0.032051571442
-0.0209844169209
0.000944813817777
0.0306991216466
0.0468692600517
0.016592832496
-0.0383767208501
-0.0383288873251
-0.0382182551426
-0.0378381829746
-0.0364641364763
-0.0321349021123
-0.0210776985144
0.000775395317014
0.0306902115035
0.0474719951756
0.0203333030948
-0.0382703558349
-0.0381555226676
-0.0377713684744
-0.036397814358
-0.0320929882154
-0.0211379500158
0.00045085931668
0.0299719046344
0.0468318072508
0.020011777381
-0.0382350050706
-0.0381191761285
-0.0377352820513
-0.0363696200639
-0.0321045824836
-0.0212862813724
-4.41736873906e-05
0.0288594849912
0.045275940499
0.0189857148037
-0.0382277773594
-0.0381122411353
-0.0377302829762
-0.0363755754202
-0.0321582669187
-0.0214999603637
-0.000670881926586
0.0274637452898
0.0433963080726
0.0185897240979
-0.0382335901367
-0.0381188610399
-0.0377397000482
-0.0363983640044
-0.0322369682143
-0.0217633643052
-0.00140669875457
0.0258634220683
0.0411298114813
0.0175459766586
-0.03824519449
-0.0381315686028
-0.0377559694523
-0.0364307901174
-0.032335194112
-0.0220766028097
-0.0022746457163
0.0238945787604
0.0378529080371
0.0154244469781
-0.0382604196823
-0.0381481698307
-0.0377770565698
-0.0364715948222
-0.0324541841028
-0.0224458630639
-0.00327159310692
0.0217804373728
0.0350377638597
0.0143436093999
-0.0382789368095
-0.0381683856998
-0.0378028953974
-0.0365214201145
-0.0325962294287
-0.0228766040901
-0.00441860765667
0.0193093958963
0.0312475520577
0.0120849547172
-0.0383009866513
-0.0381925199805
-0.0378340461449
-0.036581688738
-0.0327653751047
-0.02337984937
-0.00573923715197
0.0165140861495
0.0271817851863
0.0100431866799
-0.0383269491267
-0.0382210399142
-0.037871230562
-0.0366538478417
-0.0329643368565
-0.0239570012101
-0.00721481996265
0.0134826914543
0.0229681735605
0.00792918023305
-0.0383572643175
-0.0382544741682
-0.0379152408277
-0.0367394992923
-0.0331970359617
-0.0246190439393
-0.00888336052407
0.0100509732775
0.0179122981543
0.00500932295083
-0.0383923639923
-0.0382933308137
-0.0379668465341
-0.0368401874502
-0.0334673316561
-0.0253759095793
-0.0107640813855
0.00624487922874
0.0123878469646
0.0019741652665
-0.0384325062094
-0.0383380074278
-0.0380266490868
-0.0369571117682
-0.0337774784662
-0.0262304654174
-0.012856013669
0.00206801907654
0.00638516216833
-0.00121757164685
)
;
    }
    sides
    {
        type            calculated;
        value           nonuniform List<scalar> 
12
(
-0.0369941531596
-0.0369631995232
-0.0369200119579
-0.0368306762611
-0.0365318005018
-0.0353801135873
-0.0314192930548
-0.0203247551725
0.00416178588519
0.0442967518204
0.0849302343829
0.0596775374404
)
;
    }
    bottom
    {
        type            calculated;
        value           nonuniform List<scalar> 0();
    }
    front
    {
        type            calculated;
        value           nonuniform List<scalar> 
167
(
-0.0369941531596
-0.0369631995232
-0.0369200119579
-0.0368306762611
-0.0365318005018
-0.0353801135873
-0.0314192930548
-0.0203247551725
0.00416178588519
0.0442967518204
0.0849302343829
0.0596775374404
-0.0365348360771
-0.0365189423432
-0.0364913156024
-0.0364091464218
-0.0360816007834
-0.0348199391775
-0.0307103257877
-0.0199554500043
0.00178314430098
0.0316323678693
0.0443026991589
0.0133556285446
-0.0382406323137
-0.038215295263
-0.0381760961948
-0.0380760372543
-0.0377106238833
-0.0363580113525
-0.032051571442
-0.0209844169209
0.000944813817777
0.0306991216466
0.0468692600517
0.016592832496
-0.0383767208501
-0.0383288873251
-0.0382182551426
-0.0378381829746
-0.0364641364763
-0.0321349021123
-0.0210776985144
0.000775395317014
0.0306902115035
0.0474719951756
0.0203333030948
-0.0382703558349
-0.0381555226676
-0.0377713684744
-0.036397814358
-0.0320929882154
-0.0211379500158
0.00045085931668
0.0299719046344
0.0468318072508
0.020011777381
-0.0382350050706
-0.0381191761285
-0.0377352820513
-0.0363696200639
-0.0321045824836
-0.0212862813724
-4.41736873906e-05
0.0288594849912
0.045275940499
0.0189857148037
-0.0382277773594
-0.0381122411353
-0.0377302829762
-0.0363755754202
-0.0321582669187
-0.0214999603637
-0.000670881926586
0.0274637452898
0.0433963080726
0.0185897240979
-0.0382335901367
-0.0381188610399
-0.0377397000482
-0.0363983640044
-0.0322369682143
-0.0217633643052
-0.00140669875457
0.0258634220683
0.0411298114813
0.0175459766586
-0.03824519449
-0.0381315686028
-0.0377559694523
-0.0364307901174
-0.032335194112
-0.0220766028097
-0.0022746457163
0.0238945787604
0.0378529080371
0.0154244469781
-0.0382604196823
-0.0381481698307
-0.0377770565698
-0.0364715948222
-0.0324541841028
-0.0224458630639
-0.00327159310692
0.0217804373728
0.0350377638597
0.0143436093999
-0.0382789368095
-0.0381683856998
-0.0378028953974
-0.0365214201145
-0.0325962294287
-0.0228766040901
-0.00441860765667
0.0193093958963
0.0312475520577
0.0120849547172
-0.0383009866513
-0.0381925199805
-0.0378340461449
-0.036581688738
-0.0327653751047
-0.02337984937
-0.00573923715197
0.0165140861495
0.0271817851863
0.0100431866799
-0.0383269491267
-0.0382210399142
-0.037871230562
-0.0366538478417
-0.0329643368565
-0.0239570012101
-0.00721481996265
0.0134826914543
0.0229681735605
0.00792918023305
-0.0383572643175
-0.0382544741682
-0.0379152408277
-0.0367394992923
-0.0331970359617
-0.0246190439393
-0.00888336052407
0.0100509732775
0.0179122981543
0.00500932295083
-0.0383923639923
-0.0382933308137
-0.0379668465341
-0.0368401874502
-0.0334673316561
-0.0253759095793
-0.0107640813855
0.00624487922874
0.0123878469646
0.0019741652665
-0.0384325062094
-0.0383380074278
-0.0380266490868
-0.0369571117682
-0.0337774784662
-0.0262304654174
-0.012856013669
0.00206801907654
0.00638516216833
-0.00121757164685
)
;
    }
    atmosphere
    {
        type            calculated;
        value           uniform 0;
    }
    floatingObject
    {
        type            calculated;
        value           nonuniform List<scalar> 0();
    }
    procBoundary1to0
    {
        type            processor;
        value           nonuniform List<scalar> 10(-0.0384780770506 -0.0383889608167 -0.0380953352117 -0.0370913513091 -0.0341292181611 -0.0271845087687 -0.0151609388502 -0.00250035948786 -0.000219100806789 -0.00479461552276);
    }
    procBoundary1to2
    {
        type            processor;
        value           nonuniform List<scalar> 
18
(
-0.0370191045441
-0.0365472930015
-0.0382614518955
-0.0384096772942
-0.0384096772942
-0.0383219271696
-0.0383219271696
-0.0382876660507
-0.0382803624443
-0.0382856283029
-0.0382964851129
-0.0383108083454
-0.038328285602
-0.038349123754
-0.0383736877011
-0.0384023686507
-0.0384355318637
-0.0384734740565
)
;
    }
}


// ************************************************************************* //
