/*--------------------------------*- C++ -*----------------------------------*\
| =========                 |                                                 |
| \\      /  F ield         | OpenFOAM: The Open Source CFD Toolbox           |
|  \\    /   O peration     | Version:  v2012                                 |
|   \\  /    A nd           | Website:  www.openfoam.com                      |
|    \\/     M anipulation  |                                                 |
\*---------------------------------------------------------------------------*/
FoamFile
{
    version     2.0;
    format      ascii;
    class       volScalarField;
    location    "1";
    object      k;
}
// * * * * * * * * * * * * * * * * * * * * * * * * * * * * * * * * * * * * * //

dimensions      [0 2 -2 0 0 0 0];


internalField   nonuniform List<scalar> 
167
(
0.0152082990621
0.0152509250706
0.0152940445317
0.0153397536453
0.0153998933974
0.015530168144
0.0159465826283
0.0173179010051
0.0212292682326
0.0304177383602
0.0484612461203
0.0789694603496
0.0184661560102
0.0185064571181
0.0185475552709
0.0185928671569
0.0186600968401
0.0188258661507
0.0193633532175
0.0210476609058
0.0255325033008
0.035252397021
0.0524481397317
0.0798916553002
0.0193767090514
0.0194173596523
0.019459032105
0.0195053740582
0.0195750460173
0.0197472889246
0.0202999783132
0.0220096891383
0.0265097180688
0.0361885600751
0.0534131189578
0.0804972181172
0.0196868962916
0.0197281602538
0.0197743190968
0.0198441707606
0.0200172730715
0.0205713401963
0.0222794158426
0.026764879529
0.0364149491548
0.053596991116
0.0806800343492
0.0198095082983
0.0198549153286
0.0199242675814
0.0200972057332
0.0206512961195
0.0223579031857
0.0268358093358
0.03647033285
0.0536484473973
0.0807311706351
0.0198422916361
0.0198867562902
0.0199554314433
0.0201281590847
0.0206827953346
0.0223903446795
0.0268669483184
0.0364936064199
0.0536663242539
0.0807514368264
0.0198650189186
0.0199084577091
0.019976421874
0.0201490663206
0.0207048787449
0.0224151519455
0.0268934479519
0.0365127264581
0.053663531882
0.0807446062833
0.01988722605
0.0199296252338
0.0199968931545
0.0201695763321
0.020726975913
0.022440864756
0.0269216378329
0.036531721811
0.0536571801507
0.0807308706349
0.0199109582102
0.0199523464402
0.0200189570278
0.0201917718367
0.0207509777385
0.0224687696046
0.0269515800727
0.0365487992957
0.0536399020702
0.0807117980785
0.0199364886799
0.019976924652
0.0200429303637
0.0202159266955
0.0207769375842
0.0224982829678
0.0269815557476
0.0365623629502
0.0536140594286
0.0806822513073
0.0199637092917
0.0200032744347
0.0200687365051
0.0202419252898
0.0208045754842
0.022528706217
0.0270099015804
0.0365679885018
0.0535747193876
0.0806475129187
0.0199924452264
0.0200312372432
0.020096218597
0.0202695558746
0.0208334514008
0.0225589707085
0.0270345004842
0.0365633280665
0.0535162144631
0.0806007762489
0.0200225204178
0.0200606487573
0.0201252093114
0.0202985927215
0.0208631403911
0.0225882689049
0.0270542344108
0.0365469394003
0.0534376463214
0.0805427582403
0.0200537704821
0.0200913522426
0.0201555441885
0.0203288011622
0.0208931488803
0.0226153817368
0.0270662363759
0.0365136220879
0.0533347630234
0.0804736060794
0.0200860446687
0.0201232028692
0.0201870669395
0.0203599445758
0.0209229477654
0.0226389701902
0.0270674727694
0.0364584502369
0.0532014311899
0.0803884600361
0.0201192267191
0.02015608712
0.0202196511808
0.0203918124199
0.020952039909
0.022657861086
0.0270556432455
0.0363770333621
0.05302941598
0.0802830267665
)
;

boundaryField
{
    back
    {
        type            kqRWallFunction;
        value           nonuniform List<scalar> 
167
(
0.0152082990621
0.0152509250706
0.0152940445317
0.0153397536453
0.0153998933974
0.015530168144
0.0159465826283
0.0173179010051
0.0212292682326
0.0304177383602
0.0484612461203
0.0789694603496
0.0184661560102
0.0185064571181
0.0185475552709
0.0185928671569
0.0186600968401
0.0188258661507
0.0193633532175
0.0210476609058
0.0255325033008
0.035252397021
0.0524481397317
0.0798916553002
0.0193767090514
0.0194173596523
0.019459032105
0.0195053740582
0.0195750460173
0.0197472889246
0.0202999783132
0.0220096891383
0.0265097180688
0.0361885600751
0.0534131189578
0.0804972181172
0.0196868962916
0.0197281602538
0.0197743190968
0.0198441707606
0.0200172730715
0.0205713401963
0.0222794158426
0.026764879529
0.0364149491548
0.053596991116
0.0806800343492
0.0198095082983
0.0198549153286
0.0199242675814
0.0200972057332
0.0206512961195
0.0223579031857
0.0268358093358
0.03647033285
0.0536484473973
0.0807311706351
0.0198422916361
0.0198867562902
0.0199554314433
0.0201281590847
0.0206827953346
0.0223903446795
0.0268669483184
0.0364936064199
0.0536663242539
0.0807514368264
0.0198650189186
0.0199084577091
0.019976421874
0.0201490663206
0.0207048787449
0.0224151519455
0.0268934479519
0.0365127264581
0.053663531882
0.0807446062833
0.01988722605
0.0199296252338
0.0199968931545
0.0201695763321
0.020726975913
0.022440864756
0.0269216378329
0.036531721811
0.0536571801507
0.0807308706349
0.0199109582102
0.0199523464402
0.0200189570278
0.0201917718367
0.0207509777385
0.0224687696046
0.0269515800727
0.0365487992957
0.0536399020702
0.0807117980785
0.0199364886799
0.019976924652
0.0200429303637
0.0202159266955
0.0207769375842
0.0224982829678
0.0269815557476
0.0365623629502
0.0536140594286
0.0806822513073
0.0199637092917
0.0200032744347
0.0200687365051
0.0202419252898
0.0208045754842
0.022528706217
0.0270099015804
0.0365679885018
0.0535747193876
0.0806475129187
0.0199924452264
0.0200312372432
0.020096218597
0.0202695558746
0.0208334514008
0.0225589707085
0.0270345004842
0.0365633280665
0.0535162144631
0.0806007762489
0.0200225204178
0.0200606487573
0.0201252093114
0.0202985927215
0.0208631403911
0.0225882689049
0.0270542344108
0.0365469394003
0.0534376463214
0.0805427582403
0.0200537704821
0.0200913522426
0.0201555441885
0.0203288011622
0.0208931488803
0.0226153817368
0.0270662363759
0.0365136220879
0.0533347630234
0.0804736060794
0.0200860446687
0.0201232028692
0.0201870669395
0.0203599445758
0.0209229477654
0.0226389701902
0.0270674727694
0.0364584502369
0.0532014311899
0.0803884600361
0.0201192267191
0.02015608712
0.0202196511808
0.0203918124199
0.020952039909
0.022657861086
0.0270556432455
0.0363770333621
0.05302941598
0.0802830267665
)
;
    }
    sides
    {
        type            kqRWallFunction;
        value           nonuniform List<scalar> 
12
(
0.0152082990621
0.0152509250706
0.0152940445317
0.0153397536453
0.0153998933974
0.015530168144
0.0159465826283
0.0173179010051
0.0212292682326
0.0304177383602
0.0484612461203
0.0789694603496
)
;
    }
    bottom
    {
        type            kqRWallFunction;
        value           nonuniform List<scalar> 0();
    }
    front
    {
        type            kqRWallFunction;
        value           nonuniform List<scalar> 
167
(
0.0152082990621
0.0152509250706
0.0152940445317
0.0153397536453
0.0153998933974
0.015530168144
0.0159465826283
0.0173179010051
0.0212292682326
0.0304177383602
0.0484612461203
0.0789694603496
0.0184661560102
0.0185064571181
0.0185475552709
0.0185928671569
0.0186600968401
0.0188258661507
0.0193633532175
0.0210476609058
0.0255325033008
0.035252397021
0.0524481397317
0.0798916553002
0.0193767090514
0.0194173596523
0.019459032105
0.0195053740582
0.0195750460173
0.0197472889246
0.0202999783132
0.0220096891383
0.0265097180688
0.0361885600751
0.0534131189578
0.0804972181172
0.0196868962916
0.0197281602538
0.0197743190968
0.0198441707606
0.0200172730715
0.0205713401963
0.0222794158426
0.026764879529
0.0364149491548
0.053596991116
0.0806800343492
0.0198095082983
0.0198549153286
0.0199242675814
0.0200972057332
0.0206512961195
0.0223579031857
0.0268358093358
0.03647033285
0.0536484473973
0.0807311706351
0.0198422916361
0.0198867562902
0.0199554314433
0.0201281590847
0.0206827953346
0.0223903446795
0.0268669483184
0.0364936064199
0.0536663242539
0.0807514368264
0.0198650189186
0.0199084577091
0.019976421874
0.0201490663206
0.0207048787449
0.0224151519455
0.0268934479519
0.0365127264581
0.053663531882
0.0807446062833
0.01988722605
0.0199296252338
0.0199968931545
0.0201695763321
0.020726975913
0.022440864756
0.0269216378329
0.036531721811
0.0536571801507
0.0807308706349
0.0199109582102
0.0199523464402
0.0200189570278
0.0201917718367
0.0207509777385
0.0224687696046
0.0269515800727
0.0365487992957
0.0536399020702
0.0807117980785
0.0199364886799
0.019976924652
0.0200429303637
0.0202159266955
0.0207769375842
0.0224982829678
0.0269815557476
0.0365623629502
0.0536140594286
0.0806822513073
0.0199637092917
0.0200032744347
0.0200687365051
0.0202419252898
0.0208045754842
0.022528706217
0.0270099015804
0.0365679885018
0.0535747193876
0.0806475129187
0.0199924452264
0.0200312372432
0.020096218597
0.0202695558746
0.0208334514008
0.0225589707085
0.0270345004842
0.0365633280665
0.0535162144631
0.0806007762489
0.0200225204178
0.0200606487573
0.0201252093114
0.0202985927215
0.0208631403911
0.0225882689049
0.0270542344108
0.0365469394003
0.0534376463214
0.0805427582403
0.0200537704821
0.0200913522426
0.0201555441885
0.0203288011622
0.0208931488803
0.0226153817368
0.0270662363759
0.0365136220879
0.0533347630234
0.0804736060794
0.0200860446687
0.0201232028692
0.0201870669395
0.0203599445758
0.0209229477654
0.0226389701902
0.0270674727694
0.0364584502369
0.0532014311899
0.0803884600361
0.0201192267191
0.02015608712
0.0202196511808
0.0203918124199
0.020952039909
0.022657861086
0.0270556432455
0.0363770333621
0.05302941598
0.0802830267665
)
;
    }
    atmosphere
    {
        type            inletOutlet;
        inletValue      uniform 0.1;
        value           uniform 0.1;
    }
    floatingObject
    {
        type            kqRWallFunction;
        value           nonuniform List<scalar> 0();
    }
    procBoundary1to0
    {
        type            processor;
        value           nonuniform List<scalar> 10(0.020153216108 0.02018992364 0.0202532034089 0.0204242109049 0.0209798978932 0.0226707298775 0.0270279860795 0.0362646615761 0.0528122804942 0.0801548934631);
    }
    procBoundary1to2
    {
        type            processor;
        value           nonuniform List<scalar> 
18
(
0.0151658566784
0.0184260786018
0.0193365143442
0.0196468403585
0.0196468403585
0.0197691821389
0.0197691821389
0.0198031000767
0.0198270792612
0.0198505536714
0.0198755156788
0.0199022030213
0.0199304823675
0.0199601603911
0.0199910485701
0.0200229725881
0.0200557759278
0.0200893284211
)
;
    }
}


// ************************************************************************* //
