/*--------------------------------*- C++ -*----------------------------------*\
| =========                 |                                                 |
| \\      /  F ield         | OpenFOAM: The Open Source CFD Toolbox           |
|  \\    /   O peration     | Version:  v2012                                 |
|   \\  /    A nd           | Website:  www.openfoam.com                      |
|    \\/     M anipulation  |                                                 |
\*---------------------------------------------------------------------------*/
FoamFile
{
    version     2.0;
    format      ascii;
    class       volScalarField;
    location    "1";
    object      p;
}
// * * * * * * * * * * * * * * * * * * * * * * * * * * * * * * * * * * * * * //

dimensions      [1 -1 -2 0 0 0 0];


internalField   nonuniform List<scalar> 
167
(
4803.86730932
4314.2951456
3824.81978437
3335.4696313
2846.2876834
2357.32272636
1868.52068052
1379.80851437
891.557945669
408.761648477
80.6436448169
-9.99836007122
4803.96256369
4314.36026323
3824.85061777
3335.46110044
2846.23414281
2357.24157014
1868.46577766
1379.72500292
891.523593671
410.509030563
82.888855791
-9.50694033688
4803.57493763
4313.90954454
3824.32787049
3334.85737692
2845.54062522
2356.45424287
1867.58397792
1378.71956362
890.253263536
408.556750442
81.2963839368
-9.69331966675
4313.13976715
3823.44351882
3333.8434775
2844.3819076
2355.13470989
1866.08470125
1377.0305205
888.372337925
406.604934321
80.2140112212
-9.71892640618
3822.28888068
3332.51406741
2842.85502764
2353.38535697
1864.08518264
1374.75634018
885.799893759
403.980646087
78.8764474601
-9.73209271707
3820.88255674
3330.88971429
2840.98313535
2351.23329637
1861.61849078
1371.94421272
882.600608202
400.69168342
77.2178250348
-9.73685858566
3819.24859472
3328.99632038
2838.79453654
2348.7098397
1858.71882514
1368.63378172
878.829022492
396.842874584
75.3215316597
-9.73498749704
3817.42300224
3326.87231562
2836.33020753
2345.85861724
1855.43263207
1364.87234573
874.533804646
392.479000304
73.1916530267
-9.73019734067
3815.44791104
3324.56273142
2833.63808933
2342.73029027
1851.81250488
1360.71256046
869.764699228
387.637946669
70.8430689096
-9.72345573826
3813.37062256
3322.11834066
2830.77240972
2339.38226371
1847.91879863
1356.21837898
864.58375075
382.392787765
68.3274393771
-9.71595366253
3811.24404434
3319.59624467
2827.79455454
2335.88035497
1843.82197536
1351.46335688
859.072046509
376.826741183
65.687086869
-9.70751693639
3809.12657571
3317.05987732
2824.77314386
2332.29809664
1839.59936333
1346.52813048
853.306142518
371.010941503
62.9661124549
-9.69851293111
3807.08178925
3314.57888431
2821.78426895
2328.71848924
1835.34139641
1341.50909535
847.387578249
365.032067603
60.1992288159
-9.68863228406
3805.17791751
3312.22872138
2818.91121159
2325.23317635
1831.14836676
1336.51427929
841.430466235
358.998390089
57.4461574748
-9.678253947
3803.48716345
3310.09002566
2816.2439738
2321.94229063
1827.13085064
1331.66431187
835.559557266
353.010843196
54.7507609096
-9.66783091989
3802.08464077
3308.24770671
2813.87865268
2318.95481761
1823.41250102
1327.09956216
829.934850288
347.203290731
52.1680049988
-9.65693519593
)
;

boundaryField
{
    back
    {
        type            calculated;
        value           nonuniform List<scalar> 
167
(
4803.86730932
4314.2951456
3824.81978437
3335.4696313
2846.2876834
2357.32272636
1868.52068052
1379.80851437
891.557945669
408.761648477
80.6436448169
-9.99836007122
4803.96256369
4314.36026323
3824.85061777
3335.46110044
2846.23414281
2357.24157014
1868.46577766
1379.72500292
891.523593671
410.509030563
82.888855791
-9.50694033688
4803.57493763
4313.90954454
3824.32787049
3334.85737692
2845.54062522
2356.45424287
1867.58397792
1378.71956362
890.253263536
408.556750442
81.2963839368
-9.69331966675
4313.13976715
3823.44351882
3333.8434775
2844.3819076
2355.13470989
1866.08470125
1377.0305205
888.372337925
406.604934321
80.2140112212
-9.71892640618
3822.28888068
3332.51406741
2842.85502764
2353.38535697
1864.08518264
1374.75634018
885.799893759
403.980646087
78.8764474601
-9.73209271707
3820.88255674
3330.88971429
2840.98313535
2351.23329637
1861.61849078
1371.94421272
882.600608202
400.69168342
77.2178250348
-9.73685858566
3819.24859472
3328.99632038
2838.79453654
2348.7098397
1858.71882514
1368.63378172
878.829022492
396.842874584
75.3215316597
-9.73498749704
3817.42300224
3326.87231562
2836.33020753
2345.85861724
1855.43263207
1364.87234573
874.533804646
392.479000304
73.1916530267
-9.73019734067
3815.44791104
3324.56273142
2833.63808933
2342.73029027
1851.81250488
1360.71256046
869.764699228
387.637946669
70.8430689096
-9.72345573826
3813.37062256
3322.11834066
2830.77240972
2339.38226371
1847.91879863
1356.21837898
864.58375075
382.392787765
68.3274393771
-9.71595366253
3811.24404434
3319.59624467
2827.79455454
2335.88035497
1843.82197536
1351.46335688
859.072046509
376.826741183
65.687086869
-9.70751693639
3809.12657571
3317.05987732
2824.77314386
2332.29809664
1839.59936333
1346.52813048
853.306142518
371.010941503
62.9661124549
-9.69851293111
3807.08178925
3314.57888431
2821.78426895
2328.71848924
1835.34139641
1341.50909535
847.387578249
365.032067603
60.1992288159
-9.68863228406
3805.17791751
3312.22872138
2818.91121159
2325.23317635
1831.14836676
1336.51427929
841.430466235
358.998390089
57.4461574748
-9.678253947
3803.48716345
3310.09002566
2816.2439738
2321.94229063
1827.13085064
1331.66431187
835.559557266
353.010843196
54.7507609096
-9.66783091989
3802.08464077
3308.24770671
2813.87865268
2318.95481761
1823.41250102
1327.09956216
829.934850288
347.203290731
52.1680049988
-9.65693519593
)
;
    }
    sides
    {
        type            calculated;
        value           nonuniform List<scalar> 
12
(
4803.86730932
4314.2951456
3824.81978437
3335.4696313
2846.2876834
2357.32272636
1868.52068052
1379.80851437
891.557945669
408.761648477
80.6436448169
-9.99836007122
)
;
    }
    bottom
    {
        type            calculated;
        value           nonuniform List<scalar> 0();
    }
    front
    {
        type            calculated;
        value           nonuniform List<scalar> 
167
(
4803.86730932
4314.2951456
3824.81978437
3335.4696313
2846.2876834
2357.32272636
1868.52068052
1379.80851437
891.557945669
408.761648477
80.6436448169
-9.99836007122
4803.96256369
4314.36026323
3824.85061777
3335.46110044
2846.23414281
2357.24157014
1868.46577766
1379.72500292
891.523593671
410.509030563
82.888855791
-9.50694033688
4803.57493763
4313.90954454
3824.32787049
3334.85737692
2845.54062522
2356.45424287
1867.58397792
1378.71956362
890.253263536
408.556750442
81.2963839368
-9.69331966675
4313.13976715
3823.44351882
3333.8434775
2844.3819076
2355.13470989
1866.08470125
1377.0305205
888.372337925
406.604934321
80.2140112212
-9.71892640618
3822.28888068
3332.51406741
2842.85502764
2353.38535697
1864.08518264
1374.75634018
885.799893759
403.980646087
78.8764474601
-9.73209271707
3820.88255674
3330.88971429
2840.98313535
2351.23329637
1861.61849078
1371.94421272
882.600608202
400.69168342
77.2178250348
-9.73685858566
3819.24859472
3328.99632038
2838.79453654
2348.7098397
1858.71882514
1368.63378172
878.829022492
396.842874584
75.3215316597
-9.73498749704
3817.42300224
3326.87231562
2836.33020753
2345.85861724
1855.43263207
1364.87234573
874.533804646
392.479000304
73.1916530267
-9.73019734067
3815.44791104
3324.56273142
2833.63808933
2342.73029027
1851.81250488
1360.71256046
869.764699228
387.637946669
70.8430689096
-9.72345573826
3813.37062256
3322.11834066
2830.77240972
2339.38226371
1847.91879863
1356.21837898
864.58375075
382.392787765
68.3274393771
-9.71595366253
3811.24404434
3319.59624467
2827.79455454
2335.88035497
1843.82197536
1351.46335688
859.072046509
376.826741183
65.687086869
-9.70751693639
3809.12657571
3317.05987732
2824.77314386
2332.29809664
1839.59936333
1346.52813048
853.306142518
371.010941503
62.9661124549
-9.69851293111
3807.08178925
3314.57888431
2821.78426895
2328.71848924
1835.34139641
1341.50909535
847.387578249
365.032067603
60.1992288159
-9.68863228406
3805.17791751
3312.22872138
2818.91121159
2325.23317635
1831.14836676
1336.51427929
841.430466235
358.998390089
57.4461574748
-9.678253947
3803.48716345
3310.09002566
2816.2439738
2321.94229063
1827.13085064
1331.66431187
835.559557266
353.010843196
54.7507609096
-9.66783091989
3802.08464077
3308.24770671
2813.87865268
2318.95481761
1823.41250102
1327.09956216
829.934850288
347.203290731
52.1680049988
-9.65693519593
)
;
    }
    atmosphere
    {
        type            calculated;
        value           nonuniform List<scalar> 
16
(
-9.83693681822
-9.82355987361
-9.82637624387
-9.82707619753
-9.82717662126
-9.82707670181
-9.82683618652
-9.82650579914
-9.82601978076
-9.82553749547
-9.82493668042
-9.82426207098
-9.82351885454
-9.82267329748
-9.82174244583
-9.82072248378
)
;
    }
    floatingObject
    {
        type            calculated;
        value           nonuniform List<scalar> 0();
    }
    procBoundary1to0
    {
        type            processor;
        value           nonuniform List<scalar> 10(3801.04722824 3306.78958103 2811.91590213 2316.38653558 1820.12715828 1322.97640796 824.745570272 341.756639009 49.7593380276 -9.64569684915);
    }
    procBoundary1to2
    {
        type            processor;
        value           nonuniform List<scalar> 
18
(
5293.50993461
5293.63109168
5293.29767371
4802.90533742
4802.90533742
4312.13861575
4312.13861575
4310.92307915
4309.51565325
4307.95005514
4306.26561327
4304.50629851
4302.72102612
4300.96347443
4299.29161653
4297.76717204
4296.45482251
4295.42127682
)
;
    }
}


// ************************************************************************* //
