/*--------------------------------*- C++ -*----------------------------------*\
| =========                 |                                                 |
| \\      /  F ield         | OpenFOAM: The Open Source CFD Toolbox           |
|  \\    /   O peration     | Version:  v2012                                 |
|   \\  /    A nd           | Website:  www.openfoam.com                      |
|    \\/     M anipulation  |                                                 |
\*---------------------------------------------------------------------------*/
FoamFile
{
    version     2.0;
    format      ascii;
    class       volScalarField;
    location    "0.2";
    object      nut;
}
// * * * * * * * * * * * * * * * * * * * * * * * * * * * * * * * * * * * * * //

dimensions      [0 2 -1 0 0 0 0];


internalField   nonuniform List<scalar> 
166
(
0.00275200393154
0.00275207514981
0.00275214962466
0.00275222571038
0.00275230172447
0.00275237606052
0.00275244719078
0.00275251511719
0.00275260330584
0.00275306467608
0.00275812516317
0.00280760921453
0.0031483846195
0.00275221383677
0.00275227377807
0.00275233988243
0.00275241101983
0.0027524856349
0.00275256209987
0.00275263874608
0.00275271391117
0.00275278604398
0.0027528552575
0.00275294721165
0.00275343875268
0.00275873900924
0.00280937273707
0.00314998625248
0.00193469754698
0.0027348255181
0.00275251216369
0.00275257069307
0.00275263134708
0.00275269841656
0.00275277077615
0.00275284689111
0.00275292512174
0.00275300376731
0.00275308110728
0.00275315553171
0.00275322727012
0.00275332453898
0.00275385158931
0.00275942214878
0.0028113167021
0.00315174206661
0.00193507270047
0.00273521367114
0.00275126527778
0.00275274092441
0.00275288852349
0.00275294864271
0.00275301125154
0.00275308066063
0.00275315573926
0.0027532349311
0.00275331655206
0.00275339883435
0.00275347996831
0.00275355825135
0.00275363403532
0.00275373852607
0.00275430743924
0.00276018314218
0.0028134597975
0.00315366631468
0.00193546439714
0.0027356203932
0.00275165986879
0.0027531357443
0.00275328546938
0.00275334840032
0.00275341439981
0.00275348775682
0.00275356730618
0.00275365143589
0.0027537383816
0.00275382626933
0.00275391315894
0.002753997214
0.00275407891357
0.00275419297513
0.00275481134646
0.00276103218084
0.00281582393825
0.0031557756192
0.00193587201878
0.00273604558226
0.00275207336874
0.00275355034683
0.00275370336284
0.00275377054223
0.00275384161009
0.00275392080599
0.00275400689872
0.00275409818469
0.00275419277894
0.00275428865549
0.00275438369295
0.0027544758699
0.00275456579784
0.00275469234007
0.00275536931395
0.0027619814754
0.00281843497977
0.00315808948578
0.00193629446113
0.00273648870446
0.00275250550067
0.00275398463567
0.00275414231239
0.00275421542421
0.00275429353998
0.00275438081692
0.00275447592476
0.00275457703068
0.002754682085
0.00275478885495
0.00275489497631
0.00275499817914
0.00275509921359
0.00275524186592
0.00275598853589
0.00276304576
0.00282132362067
0.00316063095613
0.00193673001504
0.0027369487275
0.00275295557651
0.00275443813472
0.00275460208459
0.00275468311137
0.00275477061585
0.00275486864923
0.00275497574516
0.00275508988615
0.0027552088176
0.0027553300361
0.00275545086084
0.00275556869565
0.00275568443831
0.0027558477589
0.00275667769138
0.00276424294076
0.00282452655143
0.00316342744745
0.00193717623974
0.00273742399319
0.00275342236629
0.00275490987103
0.00275508200457
0.00275517329803
0.00275527296956
0.00275538495449
0.00275550760754
0.00275563868483
0.0027557756597
0.00275591569265
0.00275605570133
0.00275619266886
0.0027563276536
0.00275651740812
0.00275744733368
0.00276559495189
0.00282808795302
0.00316651186195
)
;

boundaryField
{
    back
    {
        type            nutkWallFunction;
        blending        stepwise;
        Cmu             0.09;
        kappa           0.41;
        E               9.8;
        value           nonuniform List<scalar> 
166
(
0.000253720700623
0.000253725685538
0.000253730888054
0.000253736191077
0.000253741474091
0.0002537466232
0.000253751527993
0.00025375615552
0.000253761675726
0.000253787212877
0.00025407939212
0.000257178582456
0.000280911020614
0.000253736130117
0.000253740330155
0.000253744960903
0.000253749936272
0.000253755144731
0.000253760469884
0.000253765792699
0.000253770994937
0.000253775964432
0.000253780671962
0.000253786397497
0.000253813556697
0.000254119510974
0.000257291158935
0.000281026631482
0.000240451544595
0.000252511052171
0.000253757905933
0.000253761941162
0.000253766189712
0.000253770886212
0.000253775945088
0.000253781255994
0.000253786701596
0.000253792160559
0.000253797510411
0.000253802634531
0.000253807507305
0.00025381353645
0.000253842618269
0.000254164125164
0.000257415377273
0.000281153611585
0.000240488219978
0.000252539127156
0.000253678717448
0.000253775704761
0.000253785170306
0.000253789317503
0.000253793703563
0.000253798564157
0.000253803813217
0.000253809338718
0.000253815020052
0.000253820730978
0.000253826342593
0.000253831731251
0.000253836874424
0.000253843328796
0.000253874692211
0.00025421378466
0.000257552465219
0.000281293057442
0.000240526593451
0.000252568597056
0.00025370733848
0.000253804352241
0.000253813970397
0.000253818317477
0.000253822943885
0.000253828083677
0.00025383364809
0.000253839520908
0.000253845575567
0.000253851678075
0.000253857690048
0.000253863477749
0.000253869020838
0.000253876050602
0.000253910126215
0.000254269143231
0.000257703864192
0.00028144625246
0.000240566617853
0.000252599461905
0.000253737381461
0.00025383448435
0.000253844339121
0.000253848989452
0.000253853976799
0.000253859531534
0.000253865559832
0.000253871938592
0.000253878532314
0.000253885195855
0.000253891777626
0.000253898129928
0.000253904233429
0.000253912025076
0.000253949333188
0.00025433098411
0.000257871277747
0.000281614709172
0.000240608200105
0.000252631691817
0.000253768833586
0.000253866100971
0.00025387629121
0.000253881366369
0.000253886857505
0.000253892988697
0.000253899658532
0.000253906734275
0.000253914068154
0.000253921499805
0.000253928859876
0.000253935981877
0.000253942845926
0.000253951632653
0.000253992806877
0.00025440025248
0.000258056732605
0.000281800223258
0.000240651189129
0.00025266522124
0.000253801652328
0.000253899174817
0.000253909817253
0.000253915460772
0.000253921625034
0.000253928526006
0.000253936051856
0.000253944055869
0.000253952375026
0.000253960828981
0.000253969225114
0.000253977372176
0.000253985247784
0.000253995323231
0.000254041141579
0.000254478097389
0.000258262656862
0.000282004943899
0.000240695363236
0.000252699939868
0.000253835756191
0.000253933642857
0.000253944876223
0.000253951258943
0.00025395829781
0.000253966199908
0.000253974840052
0.000253984054158
0.000253993658372
0.000254003447779
0.000254013200035
0.000254022691787
0.000254031895694
0.000254043632309
0.00025409505851
0.000254565927698
0.000258491982485
0.000282231467528
)
;
    }
    sides
    {
        type            nutkWallFunction;
        blending        stepwise;
        Cmu             0.09;
        kappa           0.41;
        E               9.8;
        value           nonuniform List<scalar> 0();
    }
    bottom
    {
        type            nutkWallFunction;
        blending        stepwise;
        Cmu             0.09;
        kappa           0.41;
        E               9.8;
        value           nonuniform List<scalar> 7(0.000127794314186 0.000127813747532 0.000127834080636 0.000127855288507 0.000127877321822 0.000127900100526 0.000127923507152);
    }
    front
    {
        type            nutkWallFunction;
        blending        stepwise;
        Cmu             0.09;
        kappa           0.41;
        E               9.8;
        value           nonuniform List<scalar> 
166
(
0.000253720700623
0.000253725685538
0.000253730888054
0.000253736191077
0.000253741474091
0.0002537466232
0.000253751527993
0.00025375615552
0.000253761675726
0.000253787212877
0.00025407939212
0.000257178582456
0.000280911020614
0.000253736130117
0.000253740330155
0.000253744960903
0.000253749936272
0.000253755144731
0.000253760469884
0.000253765792699
0.000253770994937
0.000253775964432
0.000253780671962
0.000253786397497
0.000253813556697
0.000254119510974
0.000257291158935
0.000281026631482
0.000240451544595
0.000252511052171
0.000253757905933
0.000253761941162
0.000253766189712
0.000253770886212
0.000253775945088
0.000253781255994
0.000253786701596
0.000253792160559
0.000253797510411
0.000253802634531
0.000253807507305
0.00025381353645
0.000253842618269
0.000254164125164
0.000257415377273
0.000281153611585
0.000240488219978
0.000252539127156
0.000253678717448
0.000253775704761
0.000253785170306
0.000253789317503
0.000253793703563
0.000253798564157
0.000253803813217
0.000253809338718
0.000253815020052
0.000253820730978
0.000253826342593
0.000253831731251
0.000253836874424
0.000253843328796
0.000253874692211
0.00025421378466
0.000257552465219
0.000281293057442
0.000240526593451
0.000252568597056
0.00025370733848
0.000253804352241
0.000253813970397
0.000253818317477
0.000253822943885
0.000253828083677
0.00025383364809
0.000253839520908
0.000253845575567
0.000253851678075
0.000253857690048
0.000253863477749
0.000253869020838
0.000253876050602
0.000253910126215
0.000254269143231
0.000257703864192
0.00028144625246
0.000240566617853
0.000252599461905
0.000253737381461
0.00025383448435
0.000253844339121
0.000253848989452
0.000253853976799
0.000253859531534
0.000253865559832
0.000253871938592
0.000253878532314
0.000253885195855
0.000253891777626
0.000253898129928
0.000253904233429
0.000253912025076
0.000253949333188
0.00025433098411
0.000257871277747
0.000281614709172
0.000240608200105
0.000252631691817
0.000253768833586
0.000253866100971
0.00025387629121
0.000253881366369
0.000253886857505
0.000253892988697
0.000253899658532
0.000253906734275
0.000253914068154
0.000253921499805
0.000253928859876
0.000253935981877
0.000253942845926
0.000253951632653
0.000253992806877
0.00025440025248
0.000258056732605
0.000281800223258
0.000240651189129
0.00025266522124
0.000253801652328
0.000253899174817
0.000253909817253
0.000253915460772
0.000253921625034
0.000253928526006
0.000253936051856
0.000253944055869
0.000253952375026
0.000253960828981
0.000253969225114
0.000253977372176
0.000253985247784
0.000253995323231
0.000254041141579
0.000254478097389
0.000258262656862
0.000282004943899
0.000240695363236
0.000252699939868
0.000253835756191
0.000253933642857
0.000253944876223
0.000253951258943
0.00025395829781
0.000253966199908
0.000253974840052
0.000253984054158
0.000253993658372
0.000254003447779
0.000254013200035
0.000254022691787
0.000254031895694
0.000254043632309
0.00025409505851
0.000254565927698
0.000258491982485
0.000282231467528
)
;
    }
    atmosphere
    {
        type            calculated;
        value           uniform 0.009;
    }
    floatingObject
    {
        type            nutkWallFunction;
        blending        stepwise;
        Cmu             0.09;
        kappa           0.41;
        E               9.8;
        value           nonuniform List<scalar> 0();
    }
    procBoundary0to1
    {
        type            processor;
        value           nonuniform List<scalar> 10(0.00275191412665 0.00275199066096 0.00275206530032 0.00275213651719 0.00275220420187 0.00275228993822 0.00275272570996 0.00275757340391 0.00280601016919 0.00314692490873);
    }
    procBoundary0to2
    {
        type            processor;
        value           nonuniform List<scalar> 
14
(
0.00275168930808
0.00275176173776
0.00275183724136
0.00275187714235
0.00275193752097
0.00275193752097
0.00193433911217
0.00273445568172
0.00275215573814
0.00275215573814
0.00275088941999
0.00275088941999
0.00275236562134
0.00275236562134
)
;
    }
    procBoundary0to4
    {
        type            processor;
        value           nonuniform List<scalar> 8(0.00193762983889 0.00273791210533 0.00275390398842 0.00275539825886 0.00275558082646 0.00275568516651 0.00275580031804 0.00275593006557);
    }
    procBoundary0to5
    {
        type            processor;
        value           nonuniform List<scalar> 
12
(
0.00275607257028
0.00275622531342
0.00275638544035
0.0027565496708
0.00275671443502
0.00275687617906
0.00275703614418
0.00275725967673
0.00275831040866
0.00276712892277
0.00283206145535
0.00316992406017
)
;
    }
}


// ************************************************************************* //
