/*--------------------------------*- C++ -*----------------------------------*\
| =========                 |                                                 |
| \\      /  F ield         | OpenFOAM: The Open Source CFD Toolbox           |
|  \\    /   O peration     | Version:  v2012                                 |
|   \\  /    A nd           | Website:  www.openfoam.com                      |
|    \\/     M anipulation  |                                                 |
\*---------------------------------------------------------------------------*/
FoamFile
{
    version     2.0;
    format      ascii;
    class       volScalarField;
    location    "4";
    object      k_0;
}
// * * * * * * * * * * * * * * * * * * * * * * * * * * * * * * * * * * * * * //

dimensions      [0 2 -2 0 0 0 0];


internalField   nonuniform List<scalar> 
164
(
0.00292578237041
0.00294465294066
0.00296554267717
0.00298973550602
0.00302260984894
0.00308382447257
0.00323272049782
0.00361717777835
0.0045793799572
0.0071403743246
0.0147709468959
0.0348292522335
0.0751477514409
0.00207129917321
0.00258188923868
0.00275316737007
0.00282402177566
0.00288000585569
0.00289854789895
0.00291739661797
0.00293782715973
0.00296033951616
0.00298586904285
0.00301891356285
0.00307724158437
0.0032185265381
0.00360137675027
0.00462101900321
0.00738442267549
0.0152215106774
0.0349648791105
0.0751852070584
0.00205894382516
0.00256793401005
0.00273896406132
0.00281024524087
0.00284521588661
0.00286783066452
0.00288728885321
0.00290714933333
0.00292891801156
0.00295318823305
0.00298054679915
0.00301526901349
0.0030757522326
0.00322196881618
0.00361929691986
0.00468473010543
0.00757169626207
0.0156601752294
0.0357108436339
0.0754819006898
0.00204613544137
0.00255394610797
0.00272465676922
0.00279607996199
0.00283126742802
0.00285381469923
0.0028726354019
0.00289138421997
0.00291310610534
0.00293896100325
0.00296833005354
0.00300542745998
0.00307305002099
0.00324008333247
0.00366957873807
0.00476542531016
0.00769152945795
0.0160397467057
0.036841544195
0.0759938399695
0.00203342387243
0.00254046079419
0.00271075169299
0.00278176993093
0.00281593464112
0.00283575946238
0.00284886225386
0.00285898274604
0.00287577360409
0.0029024023304
0.00293319900035
0.00297080730641
0.0030512076537
0.00326744612262
0.00376370280982
0.00491850466178
0.00788430127205
0.0164544549045
0.0379617049983
0.0765373770029
0.00202114943319
0.00252812160832
0.00269778526819
0.00276747422349
0.00279809615847
0.00280861483828
0.0028008713789
0.00277631933927
0.00276452013748
0.00279144096988
0.00282258088612
0.00286057241765
0.00298526959912
0.00330278924871
0.00391325397049
0.00517065960121
0.00817916649824
0.0168082621424
0.0386609159891
0.0769267589406
0.00200998595059
0.00251751570768
0.00268627775091
0.00275338898281
0.00277687270105
0.00276737033293
0.00270431119078
0.00255472746634
0.00236351532291
0.00235704294655
0.00240488794524
0.00256223019579
0.00291433792033
0.00342025454924
0.0041730073994
0.00555961029525
0.00862290976774
0.0172119640464
0.0391054368463
0.0771066913667
0.00200029088442
0.00250887715448
0.002676920098
0.00274116955665
0.00275697945624
0.00272894399728
0.0026183222643
0.0022329391427
0.00199379040898
0.00250400270571
0.00267190087533
0.00273456433708
0.00274593955406
0.00270713880535
0.00257034444803
0.00210927428752
0.00199373852202
0.00250396382516
0.00267187923722
0.00273455700652
0.00274594374554
0.00270718228146
0.00257048074571
0.00210977073992
0.00200023097671
0.00250882430484
0.00267689589165
0.00274117748123
0.00275702193854
0.00272904686714
0.00261852838002
0.00223418765774
)
;

boundaryField
{
    back
    {
        type            kqRWallFunction;
        value           nonuniform List<scalar> 
164
(
0.00292578237041
0.00294465294066
0.00296554267717
0.00298973550602
0.00302260984894
0.00308382447257
0.00323272049782
0.00361717777835
0.0045793799572
0.0071403743246
0.0147709468959
0.0348292522335
0.0751477514409
0.00207129917321
0.00258188923868
0.00275316737007
0.00282402177566
0.00288000585569
0.00289854789895
0.00291739661797
0.00293782715973
0.00296033951616
0.00298586904285
0.00301891356285
0.00307724158437
0.0032185265381
0.00360137675027
0.00462101900321
0.00738442267549
0.0152215106774
0.0349648791105
0.0751852070584
0.00205894382516
0.00256793401005
0.00273896406132
0.00281024524087
0.00284521588661
0.00286783066452
0.00288728885321
0.00290714933333
0.00292891801156
0.00295318823305
0.00298054679915
0.00301526901349
0.0030757522326
0.00322196881618
0.00361929691986
0.00468473010543
0.00757169626207
0.0156601752294
0.0357108436339
0.0754819006898
0.00204613544137
0.00255394610797
0.00272465676922
0.00279607996199
0.00283126742802
0.00285381469923
0.0028726354019
0.00289138421997
0.00291310610534
0.00293896100325
0.00296833005354
0.00300542745998
0.00307305002099
0.00324008333247
0.00366957873807
0.00476542531016
0.00769152945795
0.0160397467057
0.036841544195
0.0759938399695
0.00203342387243
0.00254046079419
0.00271075169299
0.00278176993093
0.00281593464112
0.00283575946238
0.00284886225386
0.00285898274604
0.00287577360409
0.0029024023304
0.00293319900035
0.00297080730641
0.0030512076537
0.00326744612262
0.00376370280982
0.00491850466178
0.00788430127205
0.0164544549045
0.0379617049983
0.0765373770029
0.00202114943319
0.00252812160832
0.00269778526819
0.00276747422349
0.00279809615847
0.00280861483828
0.0028008713789
0.00277631933927
0.00276452013748
0.00279144096988
0.00282258088612
0.00286057241765
0.00298526959912
0.00330278924871
0.00391325397049
0.00517065960121
0.00817916649824
0.0168082621424
0.0386609159891
0.0769267589406
0.00200998595059
0.00251751570768
0.00268627775091
0.00275338898281
0.00277687270105
0.00276737033293
0.00270431119078
0.00255472746634
0.00236351532291
0.00235704294655
0.00240488794524
0.00256223019579
0.00291433792033
0.00342025454924
0.0041730073994
0.00555961029525
0.00862290976774
0.0172119640464
0.0391054368463
0.0771066913667
0.00200029088442
0.00250887715448
0.002676920098
0.00274116955665
0.00275697945624
0.00272894399728
0.0026183222643
0.0022329391427
0.00199379040898
0.00250400270571
0.00267190087533
0.00273456433708
0.00274593955406
0.00270713880535
0.00257034444803
0.00210927428752
0.00199373852202
0.00250396382516
0.00267187923722
0.00273455700652
0.00274594374554
0.00270718228146
0.00257048074571
0.00210977073992
0.00200023097671
0.00250882430484
0.00267689589165
0.00274117748123
0.00275702193854
0.00272904686714
0.00261852838002
0.00223418765774
)
;
    }
    sides
    {
        type            kqRWallFunction;
        value           nonuniform List<scalar> 0();
    }
    bottom
    {
        type            kqRWallFunction;
        value           nonuniform List<scalar> 10(0.00207129917321 0.00205894382516 0.00204613544137 0.00203342387243 0.00202114943319 0.00200998595059 0.00200029088442 0.00199379040898 0.00199373852202 0.00200023097671);
    }
    front
    {
        type            kqRWallFunction;
        value           nonuniform List<scalar> 
164
(
0.00292578237041
0.00294465294066
0.00296554267717
0.00298973550602
0.00302260984894
0.00308382447257
0.00323272049782
0.00361717777835
0.0045793799572
0.0071403743246
0.0147709468959
0.0348292522335
0.0751477514409
0.00207129917321
0.00258188923868
0.00275316737007
0.00282402177566
0.00288000585569
0.00289854789895
0.00291739661797
0.00293782715973
0.00296033951616
0.00298586904285
0.00301891356285
0.00307724158437
0.0032185265381
0.00360137675027
0.00462101900321
0.00738442267549
0.0152215106774
0.0349648791105
0.0751852070584
0.00205894382516
0.00256793401005
0.00273896406132
0.00281024524087
0.00284521588661
0.00286783066452
0.00288728885321
0.00290714933333
0.00292891801156
0.00295318823305
0.00298054679915
0.00301526901349
0.0030757522326
0.00322196881618
0.00361929691986
0.00468473010543
0.00757169626207
0.0156601752294
0.0357108436339
0.0754819006898
0.00204613544137
0.00255394610797
0.00272465676922
0.00279607996199
0.00283126742802
0.00285381469923
0.0028726354019
0.00289138421997
0.00291310610534
0.00293896100325
0.00296833005354
0.00300542745998
0.00307305002099
0.00324008333247
0.00366957873807
0.00476542531016
0.00769152945795
0.0160397467057
0.036841544195
0.0759938399695
0.00203342387243
0.00254046079419
0.00271075169299
0.00278176993093
0.00281593464112
0.00283575946238
0.00284886225386
0.00285898274604
0.00287577360409
0.0029024023304
0.00293319900035
0.00297080730641
0.0030512076537
0.00326744612262
0.00376370280982
0.00491850466178
0.00788430127205
0.0164544549045
0.0379617049983
0.0765373770029
0.00202114943319
0.00252812160832
0.00269778526819
0.00276747422349
0.00279809615847
0.00280861483828
0.0028008713789
0.00277631933927
0.00276452013748
0.00279144096988
0.00282258088612
0.00286057241765
0.00298526959912
0.00330278924871
0.00391325397049
0.00517065960121
0.00817916649824
0.0168082621424
0.0386609159891
0.0769267589406
0.00200998595059
0.00251751570768
0.00268627775091
0.00275338898281
0.00277687270105
0.00276737033293
0.00270431119078
0.00255472746634
0.00236351532291
0.00235704294655
0.00240488794524
0.00256223019579
0.00291433792033
0.00342025454924
0.0041730073994
0.00555961029525
0.00862290976774
0.0172119640464
0.0391054368463
0.0771066913667
0.00200029088442
0.00250887715448
0.002676920098
0.00274116955665
0.00275697945624
0.00272894399728
0.0026183222643
0.0022329391427
0.00199379040898
0.00250400270571
0.00267190087533
0.00273456433708
0.00274593955406
0.00270713880535
0.00257034444803
0.00210927428752
0.00199373852202
0.00250396382516
0.00267187923722
0.00273455700652
0.00274594374554
0.00270718228146
0.00257048074571
0.00210977073992
0.00200023097671
0.00250882430484
0.00267689589165
0.00274117748123
0.00275702193854
0.00272904686714
0.00261852838002
0.00223418765774
)
;
    }
    atmosphere
    {
        type            inletOutlet;
        inletValue      uniform 0.1;
        value           uniform 0.1;
    }
    floatingObject
    {
        type            kqRWallFunction;
        value           nonuniform List<scalar> 8(0.00236351532291 0.00235704294655 0.00240488794524 0.00256223019579 0.0022329391427 0.00210927428752 0.00210977073992 0.00223418765774);
    }
    procBoundary3to4
    {
        type            processor;
        value           nonuniform List<scalar> 
13
(
0.00293327717851
0.00295069286546
0.002970179319
0.00208284980551
0.00259537867372
0.00276688726394
0.00283715004043
0.00289108863259
0.00290836150963
0.00290836150963
0.00285824994077
0.00285824994077
0.00285824994077
)
;
    }
    procBoundary3to5
    {
        type            processor;
        value           nonuniform List<scalar> 10(0.00299345924917 0.00302724552704 0.00309442904681 0.00325819952521 0.00365557996616 0.0045694397495 0.00692557971942 0.0143381136244 0.0347529830339 0.075139818606);
    }
    procBoundary3to6
    {
        type            processor;
        value           nonuniform List<scalar> 8(0.0029314388286 0.00380028386637 0.00472482029589 0.0061645668356 0.00924062064801 0.0177558026693 0.0389905035842 0.0769036390695);
    }
    procBoundary3to8
    {
        type            processor;
        value           nonuniform List<scalar> 8(0.00200992945125 0.00251746915136 0.00268625998113 0.0027534164252 0.00277694435574 0.0027673932504 0.00270413755638 0.00255450776436);
    }
}


// ************************************************************************* //
