/*--------------------------------*- C++ -*----------------------------------*\
| =========                 |                                                 |
| \\      /  F ield         | OpenFOAM: The Open Source CFD Toolbox           |
|  \\    /   O peration     | Version:  v2012                                 |
|   \\  /    A nd           | Website:  www.openfoam.com                      |
|    \\/     M anipulation  |                                                 |
\*---------------------------------------------------------------------------*/
FoamFile
{
    version     2.0;
    format      ascii;
    class       volVectorField;
    location    "4";
    object      U;
}
// * * * * * * * * * * * * * * * * * * * * * * * * * * * * * * * * * * * * * //

dimensions      [0 1 -1 0 0 0 0];


internalField   nonuniform List<vector> 
164
(
(-0.0280975508148 -0.0222603486968 2.59088893345e-21)
(-0.0297408600743 -0.0253254007915 3.97457562845e-21)
(-0.0316622696682 -0.028388021436 4.52700913481e-21)
(-0.0339886777322 -0.0313154367114 4.40129541016e-21)
(-0.0366904815499 -0.0337048984713 4.53784867523e-21)
(-0.0392940440575 -0.0353121619834 4.45911814555e-21)
(-0.0415990913978 -0.0365609784555 3.80669009718e-21)
(-0.0446830596428 -0.0380570654025 2.75619863038e-21)
(-0.0491943232492 -0.03980461441 9.54002854296e-22)
(-0.0508152446799 -0.0464415256538 8.70485487598e-21)
(-0.0472270970314 -0.0405119602717 4.31449378961e-21)
(-0.0658399665046 -0.0532477160696 -1.08133801479e-20)
(-0.0491168460016 -0.0559007166847 -9.31846458518e-21)
(-0.0232771189494 -0.00158554463929 1.51058665409e-21)
(-0.0222667440265 -0.00463153541426 3.80556968155e-22)
(-0.021594525744 -0.00760776017259 1.2742573511e-22)
(-0.0214497465643 -0.0106534455862 2.80552534497e-22)
(-0.0224656798445 -0.0170149294743 2.6283128652e-21)
(-0.0234822200642 -0.0203507424673 7.3682203193e-21)
(-0.0248645148287 -0.0237150813673 1.61189681649e-20)
(-0.0264978993585 -0.0271112085663 2.54352170258e-20)
(-0.0284618144744 -0.0306353007725 2.89890004649e-20)
(-0.0311387041576 -0.0340857659766 2.84943152989e-20)
(-0.0346554874744 -0.0367028027459 3.22643974556e-20)
(-0.038117821315 -0.0379001061944 3.1808209578e-20)
(-0.040418459105 -0.0385727859352 2.50952635299e-20)
(-0.0424213519969 -0.0400219187511 1.30632951244e-20)
(-0.0449633861484 -0.0431435924315 7.59658802228e-21)
(-0.0460579200964 -0.0519143488214 5.51255891763e-21)
(-0.0440126302132 -0.0458448575584 7.54031726067e-22)
(-0.0634097264494 -0.0585654254005 -1.59413704339e-20)
(-0.0462997947976 -0.0615007061169 -1.27223950212e-20)
(-0.0201666509626 -0.00163827046435 1.94978049692e-21)
(-0.0192118465372 -0.0047671418213 6.62775936038e-22)
(-0.0185355477975 -0.00783938787759 4.71762825196e-22)
(-0.0183095928333 -0.0110179229842 1.13080281991e-21)
(-0.0184998491778 -0.0143134172242 4.10093531282e-21)
(-0.0190345420676 -0.0177917088791 1.41501100786e-20)
(-0.0199367004655 -0.0214749101464 4.19121902776e-20)
(-0.0212916888766 -0.0252261415396 9.37020929623e-20)
(-0.0227918306819 -0.0290884787246 1.47703564953e-19)
(-0.0246175507042 -0.0333712214237 1.66450240374e-19)
(-0.0277234348291 -0.0378213156607 1.69824383427e-19)
(-0.0327570489715 -0.040981259813 2.09118893278e-19)
(-0.0378280097351 -0.0413632972148 2.10690071706e-19)
(-0.0395851079907 -0.0409085183717 1.69480072658e-19)
(-0.0398549482135 -0.0423272483597 7.63990861736e-20)
(-0.0391307741025 -0.0466843436319 2.20381028867e-20)
(-0.039890134983 -0.0565258047281 2.14658765699e-20)
(-0.0407750689575 -0.0506104541785 1.07675424089e-20)
(-0.0613928103796 -0.0649741518397 -8.27238987292e-21)
(-0.0430260162517 -0.071403369357 -5.80875197723e-21)
(-0.0169866531086 -0.00165455796938 2.24035100779e-21)
(-0.0160808638106 -0.00483151601717 1.02939717652e-21)
(-0.0153829607983 -0.00795926135278 1.38610780986e-21)
(-0.0150425341347 -0.0112190535715 4.50918042806e-21)
(-0.0150321232729 -0.0146607712371 1.8114217223e-20)
(-0.0152825797869 -0.0184298085464 6.59663409606e-20)
(-0.0158246122496 -0.0226347634298 2.00394206274e-19)
(-0.0169873610435 -0.0269646880147 4.48694525926e-19)
(-0.018164505538 -0.0315247812432 6.98529771775e-19)
(-0.0194356307936 -0.037009193111 7.93241232566e-19)
(-0.0229718323952 -0.0432148148325 8.17630383206e-19)
(-0.0307819384502 -0.0475856299311 1.04984092364e-18)
(-0.0389206212545 -0.0461735505366 1.05508143771e-18)
(-0.0396178214097 -0.0434709874917 8.68645567582e-19)
(-0.0366487820889 -0.0446658539738 3.61250326709e-19)
(-0.0323164202951 -0.0498404891077 1.33702186873e-19)
(-0.0322637504038 -0.0604646081928 8.18410276071e-20)
(-0.0354014037 -0.0551990283644 5.80417844094e-20)
(-0.0559234642169 -0.0733132066845 4.16199751118e-20)
(-0.0376921653376 -0.0844315312843 3.44160091473e-20)
(-0.0137766674601 -0.00165559521071 2.07607042987e-21)
(-0.0129266847918 -0.00482660585606 1.49673280091e-21)
(-0.0121931105884 -0.00794506685785 4.08217165771e-21)
(-0.0117213051507 -0.0112156934064 1.72472077407e-20)
(-0.0114595781484 -0.0147148887139 7.10131628029e-20)
(-0.0113636244001 -0.0187201042552 2.65809787389e-19)
(-0.0114350315398 -0.0237490161794 8.09976532182e-19)
(-0.0123585926092 -0.0294065212988 1.79654167497e-18)
(-0.0133230892412 -0.0353276341313 2.7445288909e-18)
(-0.0131096642109 -0.0420485464505 2.93604981736e-18)
(-0.0168381997094 -0.0503843907529 2.78771393227e-18)
(-0.0286656583237 -0.0568417440739 3.49952501368e-18)
(-0.042883942242 -0.0524253816423 3.44714427507e-18)
(-0.0409951609016 -0.0458642476994 2.73613032507e-18)
(-0.0333570757746 -0.0478815778471 1.25624955724e-18)
(-0.0250778527464 -0.0537722782026 5.05040745716e-19)
(-0.0232718020699 -0.0648438000126 2.89956403701e-19)
(-0.0271032775455 -0.060188586981 2.26332721236e-19)
(-0.0451348932219 -0.0819329652674 2.09669581065e-19)
(-0.0296985658162 -0.0980681832793 1.60151323408e-19)
(-0.0106056796951 -0.00164600705712 1.7977199861e-21)
(-0.00981066672617 -0.00475378204505 2.75815759887e-21)
(-0.0090260543193 -0.00780936293308 1.16083545774e-20)
(-0.00830551399953 -0.0110537188892 5.2594075029e-20)
(-0.00752257052267 -0.0146382023732 2.19440256949e-19)
(-0.00668658796524 -0.018916734649 8.24934393387e-19)
(-0.00623872155717 -0.0251466403343 2.51631822509e-18)
(-0.00633093547762 -0.0334216569188 5.42802170791e-18)
(-0.00609491748087 -0.0401488571868 8.08220156009e-18)
(-0.00471561251364 -0.0459934180653 8.5508192638e-18)
(-0.00764389326423 -0.0544500428202 6.82750469536e-18)
(-0.0228791112023 -0.0647527092816 8.16614815707e-18)
(-0.0564677037636 -0.0584308889339 7.48274459762e-18)
(-0.0444163166094 -0.046585899045 5.21163793605e-18)
(-0.0302655929833 -0.052035324642 2.64081794554e-18)
(-0.0177790388799 -0.0590995840835 1.18444428936e-18)
(-0.0137859707319 -0.0698587595451 7.08789149068e-19)
(-0.0167411532259 -0.064612971015 5.27593637659e-19)
(-0.0321884816778 -0.0903851643463 4.15784956651e-19)
(-0.0220525131191 -0.108383141995 3.17369197629e-19)
(-0.00748164050423 -0.00162752860773 1.75000890238e-21)
(-0.0067807063392 -0.00459781691856 5.79765068505e-21)
(-0.00598069276837 -0.00743396046188 2.79973954103e-20)
(-0.00495547646547 -0.0103911630474 1.24469149622e-19)
(-0.00324713943862 -0.013735993393 4.97015564081e-19)
(-0.000154884711828 -0.017926957323 1.75578114282e-18)
(0.00433281947586 -0.0243316697139 5.19980742141e-18)
(0.00794020167762 -0.0352725962273 1.18382784227e-17)
(-0.00343316283678 -0.0443406401073 1.93660606653e-17)
(0.000374792218899 -0.0467183324198 2.09071247063e-17)
(-0.0021502427878 -0.0452715845362 1.31863885967e-17)
(-0.0299727423195 -0.0708792332115 1.42145105271e-17)
(-0.0777282638362 -0.0603263435762 8.22763993688e-18)
(-0.0461824310876 -0.0487912348261 6.17595928131e-18)
(-0.0220493999298 -0.0568446104357 3.22092197537e-18)
(-0.00845883229625 -0.0653644411374 1.66061674559e-18)
(-0.0041636655431 -0.0746211121874 1.11632696304e-18)
(-0.0057673696521 -0.0683591659044 9.19632045765e-19)
(-0.0148897540561 -0.0945529548499 7.82306674797e-19)
(-0.0139828663274 -0.109450329295 5.82194412431e-19)
(-0.00445893396443 -0.00158793873384 2.34367262606e-21)
(-0.00396381655965 -0.0043637259198 1.11794897442e-20)
(-0.00335233505094 -0.00683483482036 5.31942561391e-20)
(-0.00248497694443 -0.00899196934749 2.21812161577e-19)
(-0.000960531032817 -0.0104725434255 8.10853566926e-19)
(0.00201958190753 -0.0107801644224 2.59951237586e-18)
(0.00665080478389 -0.00922771731134 6.46802061132e-18)
(0.0120918435402 -0.00551347769527 1.20410233817e-17)
(-0.0015311118931 -0.00157837466421 4.33232378026e-21)
(-0.00135826795482 -0.00423881241108 1.75434274942e-20)
(-0.00114045316059 -0.00653727302409 8.17248181143e-20)
(-0.000836958242268 -0.00847166713958 3.37484923288e-19)
(-0.000392514139944 -0.00960938852993 1.1641781186e-18)
(0.00035092464051 -0.00951755816357 3.86005871047e-18)
(0.0011689574637 -0.00769718188422 1.0541500616e-17)
(0.00118828896882 -0.00259864836342 2.51480388345e-17)
(0.00138960360513 -0.00157958741477 5.05676866665e-21)
(0.00120390437161 -0.00423866424432 1.81115300853e-20)
(0.000973691691429 -0.00653662869726 8.18698878675e-20)
(0.000652866837255 -0.00847340028605 3.36418482675e-19)
(0.0001856900594 -0.00960897052948 1.16601873026e-18)
(-0.000591688813169 -0.00951663077276 3.86048593439e-18)
(-0.00141477492684 -0.00769740282117 1.05383801461e-17)
(-0.00139460784916 -0.00260232817021 2.51233961837e-17)
(0.00432190864579 -0.00158855539579 4.1835710581e-21)
(0.00381958476058 -0.0043690216101 1.23463124333e-20)
(0.0031938772432 -0.00685081916554 5.35897629417e-20)
(0.00230551929697 -0.00902287158034 2.21383741604e-19)
(0.00075775756769 -0.0105357983075 8.10067578699e-19)
(-0.00225731761239 -0.0108433627209 2.59801438256e-18)
(-0.00692100461394 -0.00924476497348 6.46727987964e-18)
(-0.0123490695768 -0.00561516444476 1.20364548646e-17)
)
;

boundaryField
{
    back
    {
        type            noSlip;
    }
    sides
    {
        type            noSlip;
    }
    bottom
    {
        type            noSlip;
    }
    front
    {
        type            noSlip;
    }
    atmosphere
    {
        type            pressureInletOutletVelocity;
        value           nonuniform List<vector> 7((0 -0.0559007166847 0) (0 -0.0615007061169 0) (0 -0.071403369357 0) (0 -0.0844315312843 0) (0 -0.0980681832793 0) (0 -0.108383141995 0) (0 -0.109450329295 0));
    }
    floatingObject
    {
        type            movingWallVelocity;
        value           nonuniform List<vector> 8((0 -1.66533453694e-15 2.08166817117e-16) (0 0 2.08166817117e-16) (0 0 0) (0 -3.33066907388e-15 2.08166817117e-16) (4.16333634234e-16 0 0) (0 0 2.08166817117e-16) (0 0 2.08166817117e-16) (0 0 0));
    }
    procBoundary3to4
    {
        type            processor;
        value           nonuniform List<vector> 
13
(
(-0.031086424809 -0.0208180830545 5.03957714563e-22)
(-0.0326836742589 -0.0236217247634 6.76887207871e-22)
(-0.0345026498691 -0.0263928046921 7.28440974106e-22)
(-0.0262990510579 -0.0015081204539 1.71710129838e-21)
(-0.0252124195819 -0.00443606481125 3.39690055932e-22)
(-0.0245353378363 -0.00727986471801 2.96075449195e-23)
(-0.0244391258346 -0.0101633118557 8.63317144973e-23)
(-0.0256305180259 -0.0161263371859 5.31460291902e-22)
(-0.0267220116623 -0.0191919563635 1.26872370764e-21)
(-0.0267220116623 -0.0191919563635 1.26872370764e-21)
(-0.0217758486487 -0.013777859134 8.81758575652e-22)
(-0.0217758486487 -0.013777859134 8.81758575652e-22)
(-0.0217758486487 -0.013777859134 8.81758575652e-22)
)
;
    }
    procBoundary3to5
    {
        type            processor;
        value           nonuniform List<vector> 10((-0.0365557527001 -0.0290342444566 8.70045951787e-22) (-0.0387654648664 -0.0313854707105 9.52661340371e-22) (-0.0408732460176 -0.0333021147458 1.57535164884e-21) (-0.0430032461559 -0.0349614511804 1.9956221083e-21) (-0.0463173648529 -0.03654240304 2.9693770743e-21) (-0.0515139049524 -0.0372879854937 2.38273034725e-21) (-0.0537150220653 -0.0414288739792 9.60551688434e-21) (-0.050794849352 -0.0359256581424 2.5222095036e-21) (-0.069380212488 -0.0483436889579 -5.90773245487e-21) (-0.0523604322869 -0.0490184881185 -5.1336863038e-21));
    }
    procBoundary3to6
    {
        type            processor;
        value           nonuniform List<vector> 8((-0.0739429517659 -0.0269869485534 5.77117772727e-18) (-0.0328590974921 -0.0497223988987 4.41068453287e-18) (-0.0123046082372 -0.0649929203635 2.88497519789e-18) (-0.00137718925583 -0.0729775725759 1.92918769361e-18) (0.00238109746319 -0.0785066593784 1.48224751297e-18) (0.00166869689531 -0.0710367135635 1.30240858796e-18) (-0.00131208270788 -0.0901627128608 1.13747073395e-18) (-0.00746207140953 -0.0954495498668 8.73023269078e-19));
    }
    procBoundary3to8
    {
        type            processor;
        value           nonuniform List<vector> 8((0.00734613809438 -0.00162712096035 2.60781705009e-21) (0.00664265106399 -0.00460644217632 6.30902722424e-21) (0.00583757965429 -0.00746072361174 2.79187132261e-20) (0.00480223248694 -0.0104358020586 1.23575345227e-19) (0.00307963050867 -0.01380058467 4.96108742219e-19) (-1.47795116889e-05 -0.0180238746403 1.75715631492e-18) (-0.00453223304842 -0.0244887795358 5.21707321429e-18) (-0.00811768886052 -0.0355300854993 1.1864746877e-17));
    }
}


// ************************************************************************* //
