/*--------------------------------*- C++ -*----------------------------------*\
| =========                 |                                                 |
| \\      /  F ield         | OpenFOAM: The Open Source CFD Toolbox           |
|  \\    /   O peration     | Version:  v2012                                 |
|   \\  /    A nd           | Website:  www.openfoam.com                      |
|    \\/     M anipulation  |                                                 |
\*---------------------------------------------------------------------------*/
FoamFile
{
    version     2.0;
    format      ascii;
    class       surfaceVectorField;
    location    "4";
    object      Uf;
}
// * * * * * * * * * * * * * * * * * * * * * * * * * * * * * * * * * * * * * //

dimensions      [0 1 -1 0 0 0 0];


internalField   nonuniform List<vector> 
296
(
(-0.0289192054446 -0.0238119825465 3.28273228095e-21)
(-0.0265749281564 -0.022987715032 9.35492854919e-21)
(-0.0307015648713 -0.0268963878501 4.25079238163e-21)
(-0.0282186259244 -0.0262183046789 1.47048963271e-20)
(-0.0328254737002 -0.0299046208712 4.46415227249e-21)
(-0.0301656047586 -0.0295116611042 1.67580047999e-20)
(-0.0353395796411 -0.0326246975488 4.4695720427e-21)
(-0.0326391863118 -0.032700601344 1.64478053545e-20)
(-0.0379922628037 -0.0346152923439 4.49848341039e-21)
(-0.0357355126797 -0.0352038506086 1.84011230654e-20)
(-0.0404465677276 -0.0360116406654 4.13290412137e-21)
(-0.0387573201463 -0.0366061340889 1.81336638618e-20)
(-0.0431410755203 -0.037330616086 3.28144436378e-21)
(-0.0410679268463 -0.0375668821954 1.44509768135e-20)
(-0.046938691446 -0.0392451180829 1.85510074234e-21)
(-0.0437262684069 -0.0390394920768 7.90974687741e-21)
(-0.0500047839645 -0.042449005296 4.82942886514e-21)
(-0.0473510962609 -0.0414741034208 4.27529543829e-21)
(-0.0490211708556 -0.0461610682222 6.5096743328e-21)
(-0.0487936861273 -0.0491779372376 7.1087068968e-21)
(-0.056533531768 -0.0495697086314 -3.24944317913e-21)
(-0.0456819285524 -0.043178408915 2.53426275784e-21)
(-0.0574784062531 -0.0529058882268 -1.00659223665e-20)
(-0.0647311682884 -0.055906570735 -1.33773752909e-20)
(-0.0481082356623 -0.0587007114008 -1.10204298032e-20)
(-0.022771931488 -0.0030929882818 9.45571811125e-22)
(-0.0217366381148 -0.00161190755182 1.73018357551e-21)
(-0.0219306348852 -0.00609532953699 2.53991351632e-22)
(-0.0207575813297 -0.00469933861778 5.21666452096e-22)
(-0.0215221361542 -0.0091102616591 2.03989134803e-22)
(-0.0200832628771 -0.00772357402509 2.99594280153e-22)
(-0.0199118840956 -0.0108356842852 7.05677677204e-22)
(-0.0229739499543 -0.0186524579719 4.99826659225e-21)
(-0.0208125418139 -0.0174033191767 8.38921147191e-21)
(-0.0241733674464 -0.0220231504386 1.17435942421e-20)
(-0.0217993663967 -0.0209128263069 2.46402052985e-20)
(-0.0256812070936 -0.025420643534 2.07770925954e-20)
(-0.0231774304959 -0.0244706114535 5.49105305636e-20)
(-0.0274798569165 -0.028892551802 2.72121087454e-20)
(-0.0247467077822 -0.0280998436455 8.65693909894e-20)
(-0.029800259316 -0.0324098965804 2.87416578819e-20)
(-0.0266482447878 -0.0320032610981 9.77196204195e-20)
(-0.032897095816 -0.0355435045764 3.03793563772e-20)
(-0.0295055584763 -0.0359535408186 9.91593493632e-20)
(-0.0363866543947 -0.0374578711345 3.20363035168e-20)
(-0.0338211237692 -0.0388420312795 1.20691645367e-19)
(-0.03926814021 -0.038269048098 2.84517365539e-20)
(-0.0379461199835 -0.0396317017046 1.21249140642e-19)
(-0.0414199055509 -0.0392618918608 1.90792793271e-20)
(-0.0400750615636 -0.0397406521534 9.7287668094e-20)
(-0.0436923690726 -0.0417152736129 1.03299415734e-20)
(-0.0412728686472 -0.0411745835554 4.4731190649e-20)
(-0.0455106531224 -0.0467547339023 6.55457346996e-21)
(-0.0423116244055 -0.0449139680317 1.48173454545e-20)
(-0.0450352751548 -0.0522528752938 3.13329532185e-21)
(-0.0432955429499 -0.0542200767748 1.34892177438e-20)
(-0.0537111783313 -0.0554121905511 -7.59366935389e-21)
(-0.0425226032257 -0.0482276558685 5.76078706751e-21)
(-0.0548547606235 -0.0575857875361 -1.43318827275e-20)
(-0.0625572079597 -0.0617697886201 -1.21068801534e-20)
(-0.0446479785858 -0.0664520377369 -9.26557349922e-21)
(-0.0196892487499 -0.0031712664292 1.30627821648e-21)
(-0.0185653608015 -0.00164641421687 2.09506575236e-21)
(-0.0188736971673 -0.00627234489358 5.67269380617e-22)
(-0.0176564914852 -0.00479932891924 8.46086556281e-22)
(-0.0184225703154 -0.00940054613408 8.01282822553e-22)
(-0.016955049049 -0.00789932461518 9.28935317528e-22)
(-0.0184047210055 -0.0126208777148 2.61586906637e-21)
(-0.0166915406038 -0.0111184882778 2.81999162398e-21)
(-0.0187671956227 -0.0160012880711 9.12552269572e-21)
(-0.0167989843175 -0.0144870942306 1.11075762679e-20)
(-0.0194856212666 -0.0195730540087 2.80311501781e-20)
(-0.0172407659989 -0.0181107587127 4.00582255196e-20)
(-0.0206141946711 -0.0233226225796 6.780714162e-20)
(-0.018049787084 -0.0220548367881 1.21153198276e-19)
(-0.0220417597792 -0.0271528124732 1.20702828958e-19)
(-0.0193472272147 -0.0260954147772 2.71198309444e-19)
(-0.023704690693 -0.0312344103861 1.57076902663e-19)
(-0.0206650931689 -0.0303066299839 4.23116668364e-19)
(-0.0261704927667 -0.0356567136004 1.68137311901e-19)
(-0.0222259221262 -0.0351902072673 4.7984573647e-19)
(-0.0302402419003 -0.0396016411866 1.89471638353e-19)
(-0.025560610175 -0.0405180652466 4.93727383317e-19)
(-0.0352925293533 -0.0414124298958 2.09904482492e-19)
(-0.0320103149129 -0.0442834448721 6.29479908458e-19)
(-0.0387065588629 -0.0410643106101 1.90085072182e-19)
(-0.0382942211823 -0.0437684238757 6.32885754709e-19)
(-0.0397200281021 -0.0414542097862 1.22939579416e-19)
(-0.0396851471602 -0.0421897529317 5.1906282012e-19)
(-0.039492861158 -0.0444084736571 4.92185945301e-20)
(-0.0383185933878 -0.0434965511667 2.18824706441e-19)
(-0.0395104545427 -0.0507431076915 2.17519897283e-20)
(-0.0359769836539 -0.0482624163698 7.787014488e-20)
(-0.0403326019702 -0.057537732916 1.61167094894e-20)
(-0.0365009178859 -0.0584952064605 5.16534520885e-20)
(-0.0510839396685 -0.0616598271322 1.24757626801e-21)
(-0.0384004908375 -0.0529047412715 3.44046634092e-20)
(-0.0522094133157 -0.0657326630496 -7.04057092507e-21)
(-0.0584845335268 -0.0691436792621 1.66737926194e-20)
(-0.040032978371 -0.0779174503207 1.4303628585e-20)
(-0.0165337584596 -0.00319953794501 1.63487409216e-21)
(-0.0153658138043 -0.00165507659005 2.15821071883e-21)
(-0.0157319123044 -0.00636942145471 1.20775249319e-21)
(-0.0144865988813 -0.00482906093662 1.26306498872e-21)
(-0.0152127474665 -0.00955175299968 2.94764411896e-21)
(-0.0137727071521 -0.00795216410531 2.73413973379e-21)
(-0.0150373287038 -0.0128815235779 1.13116988255e-20)
(-0.0133617587385 -0.0112173734889 1.08781940844e-20)
(-0.0151573515299 -0.0164587416569 4.20402790918e-20)
(-0.0132217540817 -0.0146878299755 4.45636900129e-20)
(-0.0155535960183 -0.0204251273309 1.33180273618e-19)
(-0.0132743669874 -0.0185749564008 1.65888064175e-19)
(-0.0164059866466 -0.0247632270101 3.245443661e-19)
(-0.0137116720277 -0.0231918898046 5.05185369228e-19)
(-0.0175759332907 -0.0292258812245 5.73612148851e-19)
(-0.0148845550789 -0.0281856046568 1.12261810045e-18)
(-0.0188000681658 -0.0342234820454 7.45885502171e-19)
(-0.0156674720816 -0.0334262076872 1.72152933134e-18)
(-0.0212037315944 -0.0401613633154 8.05435807886e-19)
(-0.016288019537 -0.0395288697807 1.86464552496e-18)
(-0.0268768854227 -0.0455858511483 9.33735653422e-19)
(-0.0201361017701 -0.0467996027927 1.80267215774e-18)
(-0.0348512798524 -0.0472466184526 1.05246118068e-18)
(-0.0303495298976 -0.0522136870025 2.27468296866e-18)
(-0.0392692213321 -0.044479596544 9.61863502647e-19)
(-0.0410612288501 -0.0492994660895 2.25111285639e-18)
(-0.0381333017493 -0.0437947532576 6.14947947146e-19)
(-0.0403699799517 -0.0446676175956 1.80238794633e-18)
(-0.034482601192 -0.0469671119983 2.47476256791e-19)
(-0.0351462279125 -0.0462737159104 8.08749941973e-19)
(-0.0322900853495 -0.053997258441 1.0777160724e-19)
(-0.0289468338232 -0.0518063836552 3.19371466295e-19)
(-0.0338325770519 -0.0623533999961 6.99414060082e-20)
(-0.0281447775551 -0.0626542041027 1.85898715654e-19)
(-0.0456624339585 -0.0690903584543 4.98308797606e-20)
(-0.0316635070651 -0.0576938076727 1.42187252823e-19)
(-0.0468078147773 -0.0765477917761 3.80179921295e-20)
(-0.0510277956608 -0.0776230859759 1.25644778088e-19)
(-0.0334642362587 -0.0912498572818 9.72836662777e-20)
(-0.013351676126 -0.00321061623903 1.78640161539e-21)
(-0.0121551913163 -0.00165080113392 1.93689520798e-21)
(-0.0125598976901 -0.00636418294187 2.78945222931e-21)
(-0.0113330258617 -0.00479019395056 2.12744519989e-21)
(-0.0119572078695 -0.00956358598202 1.06646896992e-20)
(-0.0105732966709 -0.00787721489546 7.84526311755e-21)
(-0.0115904416496 -0.0129147779854 4.41301852718e-20)
(-0.0100105578134 -0.0111347061478 3.49206413849e-20)
(-0.0114116012743 -0.0166251924028 1.68411475096e-19)
(-0.00951132896634 -0.0146765455436 1.45226709876e-19)
(-0.01139932797 -0.0210461611652 5.37893159786e-19)
(-0.00885338536114 -0.0188184194521 5.45372090388e-19)
(-0.0118968120745 -0.0264017788425 1.30325910357e-18)
(-0.00835603893323 -0.0244478282569 1.66314737863e-18)
(-0.0128408409252 -0.0325467005461 2.27053528293e-18)
(-0.00873961540293 -0.0314140891088 3.61228169144e-18)
(-0.013216376726 -0.038672334366 2.84028935413e-18)
(-0.00954181784752 -0.037738245659 5.41336522549e-18)
(-0.0149739319602 -0.046076475325 2.86188187481e-18)
(-0.0088838575288 -0.0440209822579 5.74343454058e-18)
(-0.0227519290165 -0.0536326893106 3.14361947297e-18)
(-0.0125798687504 -0.0524172167865 4.80760931381e-18)
(-0.0357748002828 -0.0559250744975 3.47333464437e-18)
(-0.0280571294977 -0.0607972266778 5.83283658537e-18)
(-0.0419395515718 -0.0481152203753 3.09163730007e-18)
(-0.0488710721906 -0.0554281352881 5.46494443634e-18)
(-0.0371761183381 -0.0466411531248 1.99618994115e-18)
(-0.041844040118 -0.0462250733722 3.97388413056e-18)
(-0.0292174642605 -0.0502970578005 8.80645151477e-19)
(-0.0314903199126 -0.0499584512446 1.94853375139e-18)
(-0.0241748274082 -0.0579511713235 3.97498574708e-19)
(-0.0212927195509 -0.0564359311431 8.44742517536e-19)
(-0.0251875398077 -0.0673982203448 2.58144562469e-19)
(-0.0186977329531 -0.0673512797788 4.99372776385e-19)
(-0.0361190853837 -0.0766732980612 2.1800115115e-19)
(-0.0223883929842 -0.062400778998 3.76963179448e-19)
(-0.037416729519 -0.0884502733838 1.84910452236e-19)
(-0.0392506107916 -0.0861590648068 3.12727268858e-19)
(-0.0255499894742 -0.103225662637 2.38760260519e-19)
(-0.0102081732106 -0.00315904648901 2.27793879248e-21)
(-0.00899614197889 -0.00163676783243 1.77386444424e-21)
(-0.00941836052273 -0.00625266658485 7.18325608812e-21)
(-0.00823940269479 -0.00467579948181 4.27790414196e-21)
(-0.00866578415941 -0.00939634681776 3.21012148032e-20)
(-0.00742961248242 -0.00762166169748 1.98028749938e-20)
(-0.0079140422611 -0.0127934922099 1.36017165989e-19)
(-0.00661340720133 -0.0107224409683 8.85316123255e-20)
(-0.00710457924396 -0.0167355901089 5.22187325168e-19)
(-0.00556922418456 -0.0141870978831 3.58227910515e-19)
(-0.00646265476121 -0.0216798949765 1.67062630924e-18)
(-0.00390907151805 -0.018421845986 1.2903577681e-18)
(-0.00628482851739 -0.0285958867354 3.9721699665e-18)
(-0.00144003570342 -0.0247391550241 3.85806282325e-18)
(-0.00621292647924 -0.0378557374693 6.755111634e-18)
(0.000520250452692 -0.0343471265731 8.63315006529e-18)
(-0.00540526499725 -0.0426584766961 8.31651041194e-18)
(-0.00473905955819 -0.042244748647 1.37241311127e-17)
(-0.00617975288894 -0.0497318796643 7.68916197958e-18)
(-0.00181043506815 -0.0463558752425 1.47289719851e-17)
(-0.0152615022333 -0.0584788358573 7.49682642621e-18)
(-0.00383289535133 -0.0498608136782 1.0006946646e-17)
(-0.0396734074829 -0.0642148855995 7.82444637734e-18)
(-0.0223210675763 -0.0678159712466 1.11903293421e-17)
(-0.0504420101865 -0.0510459166756 6.34719126683e-18)
(-0.062040031922 -0.059378616255 7.85519226725e-18)
(-0.0373409547964 -0.0493750854993 3.92622794079e-18)
(-0.0435148664855 -0.0476885669356 5.69379860868e-18)
(-0.0240223159316 -0.0548070208853 1.91263111745e-18)
(-0.0260583832919 -0.0544399675389 2.93086996045e-18)
(-0.0157825048059 -0.0628055557699 9.46616719212e-19)
(-0.0132941853621 -0.0622320126104 1.42253051747e-18)
(-0.0152635619789 -0.0723883319452 6.18191393364e-19)
(-0.00911495765794 -0.0722399358662 9.12558056052e-19)
(-0.0244648174518 -0.0832071779492 4.71689297155e-19)
(-0.0115695223322 -0.0664860684597 7.23612841712e-19)
(-0.0271204973984 -0.0989766379504 3.6657707714e-19)
(-0.0234820600182 -0.0924690595981 5.99045815724e-19)
(-0.0178916385249 -0.108916735645 4.4978180503e-19)
(-0.00713117342171 -0.00308190062536 3.77382979372e-21)
(-0.00591424146609 -0.00160773367079 2.04684076422e-21)
(-0.00638069955378 -0.00600633632223 1.68975230477e-20)
(-0.00531496682776 -0.00448077141918 8.48857021464e-21)
(-0.00546808461692 -0.00887303466584 7.62332725162e-20)
(-0.00456291371852 -0.00713439764112 4.05958257747e-20)
(-0.00410130795204 -0.0119653789663 3.10742356851e-19)
(-0.00352106213219 -0.00969156619746 1.73140655599e-19)
(-0.00170101207523 -0.0157213888123 1.12639835345e-18)
(-0.00181321287991 -0.0121042684092 6.53934565503e-19)
(0.00208896738201 -0.0209171629982 3.47779428211e-18)
(0.00128670544643 -0.0143535608727 2.17764675934e-18)
(0.00613651057674 -0.0290565323627 8.51904292204e-18)
(0.00669933923052 -0.0167796935126 5.83391401637e-18)
(0.00225351942042 -0.0409339890035 1.5602169544e-17)
(0.0123977159588 -0.0203930369613 1.19396509022e-17)
(-0.00152918530894 -0.0456730390539 2.01365926858e-17)
(-0.000887725284451 -0.0474834650325 1.70467566515e-17)
(-0.0160614925536 -0.0513163536276 1.37004495619e-17)
(-0.0538505030778 -0.0736374158167 1.1221075232e-17)
(-0.0619553474619 -0.0516308607117 7.20179960909e-18)
(-0.0341159155087 -0.052175422042 4.69844062834e-18)
(-0.015254116113 -0.0599449058812 2.44076936048e-18)
(-0.00631124891968 -0.0682153346103 1.38847185431e-18)
(-0.0049655175976 -0.0765185626546 1.0179795044e-18)
(-0.0103285618541 -0.0863507371075 8.50969360281e-19)
(-0.0144363101918 -0.102805251309 6.82250543614e-19)
(-0.00421137526204 -0.00295414536392 6.76158118514e-21)
(-0.00296009777433 -0.00158315669903 3.33799820316e-21)
(-0.0036580758053 -0.00563934917187 3.21868729417e-20)
(-0.0026297644575 -0.00430126916544 1.43614586192e-20)
(-0.00291865599769 -0.00798903337709 1.37503208858e-19)
(-0.00221323172318 -0.00668605392223 6.74595371267e-20)
(-0.00172275398862 -0.00984952611158 5.16332864251e-19)
(-0.00166057273949 -0.00873181824354 2.79648542432e-19)
(0.000529525437355 -0.0108657297668 1.70518297139e-18)
(-0.000797013354771 -0.0100409659777 9.87515842762e-19)
(0.00433519334571 -0.0105323780559 4.53376649359e-18)
(0.000953349843485 -0.010148861293 3.22978554316e-18)
(0.00937132416205 -0.00710361790609 9.25452199651e-18)
(0.00327057550719 -0.00846244959778 8.50476061368e-18)
(0.00529409467757 -0.00405606302935 1.85945311081e-17)
(-0.00144468992396 -0.00288952119927 1.09378756372e-20)
(-7.05746148936e-05 -0.00157898103949 4.69454622346e-21)
(-0.00124936055771 -0.00544314128244 4.96341228042e-20)
(-7.61434943372e-05 -0.0042387383277 1.78274787897e-20)
(-0.000988705701429 -0.00757291096804 2.09604870701e-19)
(-8.34641814017e-05 -0.00653695086068 8.17973529909e-20)
(-0.000614736191106 -0.00914157519248 7.50831520943e-19)
(-9.19145922248e-05 -0.00847253371282 3.36951702982e-19)
(-2.07947497167e-05 -0.00983587870124 2.51211841453e-18)
(-0.000102719477716 -0.00960917952971 1.16509842443e-18)
(0.000759941052104 -0.00877508223895 7.20077966325e-18)
(-0.000107458403359 -0.00951709446816 3.86027232243e-18)
(0.00117862321626 -0.00539405252591 1.78447697253e-17)
(-0.00011046609608 -0.0076972923527 1.05399403811e-17)
(-9.99680800496e-05 -0.00260048826681 2.51357175091e-17)
(0.00129675398837 -0.00289151407829 1.1584149376e-20)
(0.00282094773434 -0.00158407140528 4.62016986238e-21)
(0.00108879803152 -0.00544157095692 4.99907089764e-20)
(0.00247391845717 -0.00430384292721 1.52289212593e-20)
(0.000813279264342 -0.0075733827221 2.09144185271e-19)
(0.00204834622448 -0.0066937239314 6.77298254046e-20)
(0.000419278448328 -0.00914668308624 7.51218606465e-19)
(0.00148137697051 -0.0087481359332 2.7890111214e-19)
(-0.000202999376885 -0.00982958491185 2.51325233232e-18)
(0.000580167039037 -0.0100723844185 9.88043154477e-19)
(-0.00100323187 -0.00877830972625 7.19943304026e-18)
(-0.00115875211081 -0.0101799967468 3.22925015847e-18)
(-0.001404691388 -0.00539112132837 1.78308881649e-17)
(-0.00349767632839 -0.00847108389733 8.50283001288e-18)
(-0.00549109838325 -0.00410874630748 1.85799255241e-17)
(0.00407074670318 -0.00295767137385 8.26494174572e-21)
(0.00350673100189 -0.00564922563773 3.29680376875e-20)
(0.00274969827008 -0.00801289942746 1.37486752273e-19)
(0.00153163843233 -0.00988766811799 5.15725660151e-19)
(-0.000749780022349 -0.0109509050339 1.70404098063e-18)
(-0.00458916111317 -0.0105744826448 4.5326471311e-18)
(-0.00963503709536 -0.00711687366795 9.25186737211e-18)
)
;

boundaryField
{
    back
    {
        type            calculated;
        value           uniform (0 0 0);
    }
    sides
    {
        type            calculated;
        value           nonuniform List<vector> 0();
    }
    bottom
    {
        type            calculated;
        value           uniform (0 0 0);
    }
    front
    {
        type            calculated;
        value           uniform (0 0 0);
    }
    atmosphere
    {
        type            calculated;
        value           nonuniform List<vector> 7((0 -0.0554802641487 0) (0 -0.0610463759257 0) (0 -0.0703475172434 0) (0 -0.0831159240784 0) (0 -0.0963646919722 0) (0 -0.106634184193 0) (0 -0.109062747291 0));
    }
    floatingObject
    {
        type            calculated;
        value           nonuniform List<vector> 8((0 -1.66533453694e-15 2.08166817117e-16) (0 0 2.08166817117e-16) (0 0 0) (0 -3.33066907388e-15 2.08166817117e-16) (4.16333634234e-16 0 0) (0 0 2.08166817117e-16) (0 0 2.08166817117e-16) (0 0 0));
    }
    procBoundary3to4
    {
        type            processor;
        value           nonuniform List<vector> 
13
(
(-0.0296631473537 -0.0215392158756 1.54742332401e-21)
(-0.0313030267557 -0.0244735627775 2.32573141816e-21)
(-0.0331738480342 -0.0273904130641 2.62772505446e-21)
(-0.0248296422374 -0.00154683254659 1.61384397624e-21)
(-0.0237599392613 -0.00453380011275 3.60123512044e-22)
(-0.0230982059156 -0.0074438124453 7.85166400149e-23)
(-0.0229844550787 -0.0104083787209 1.83442124497e-22)
(-0.0240985451239 -0.0165706333301 1.57988657855e-21)
(-0.0274097812385 -0.0207237375619 1.92980632055e-21)
(-0.0251700531796 -0.0197713494154 4.31847201347e-21)
(-0.0216127976065 -0.0121828143856 5.81155555074e-22)
(-0.0221207642466 -0.0153664604717 1.75503572043e-21)
(-0.0201794148483 -0.0140456381791 2.49134694424e-21)
)
;
    }
    procBoundary3to5
    {
        type            processor;
        value           nonuniform List<vector> 10((-0.0353592890358 -0.030174840584 2.63567068098e-21) (-0.037726145239 -0.0325451845909 2.7452550078e-21) (-0.0401537156281 -0.0343071383646 3.0172348972e-21) (-0.0423869510931 -0.035761214818 2.90115610274e-21) (-0.0456408167352 -0.0372997342213 2.86278785234e-21) (-0.0505550169885 -0.0385462999519 1.66836660077e-21) (-0.0525057632738 -0.0439351998165 9.15518588016e-21) (-0.0490905801425 -0.038218809207 3.41835164661e-21) (-0.0680674013487 -0.0507957025137 -8.36055630137e-21) (-0.0506825530876 -0.0524596024016 -7.22607544449e-21));
    }
    procBoundary3to6
    {
        type            processor;
        value           nonuniform List<vector> 8((-0.0840465805388 -0.0436566460648 6.99940883207e-18) (-0.0429703010818 -0.0492568168624 5.29332190709e-18) (-0.0182888984263 -0.0609187653996 3.05294858663e-18) (-0.00502375706921 -0.0691710068566 1.7949022196e-18) (-0.000811728276937 -0.0765638857829 1.299287238e-18) (-0.00173734068436 -0.069697939734 1.11102031686e-18) (-0.00702847404418 -0.0923578338554 9.59888704371e-19) (-0.0116332937654 -0.102449939581 7.27608840755e-19));
    }
    procBoundary3to8
    {
        type            processor;
        value           nonuniform List<vector> 8((0.00577863159104 -0.00160783817807 3.3956940541e-21) (0.00516548108418 -0.00448773189321 9.32766982879e-21) (0.00441202056159 -0.00715577138864 4.07542380839e-20) (0.00335613713353 -0.00972933681944 1.72479543415e-19) (0.00164338850025 -0.0121681914888 6.53088160459e-19) (-0.00153519457535 -0.0144336186806 2.17758534874e-18) (-0.00695530284035 -0.0168667722546 5.84217654696e-18) (-0.0126079802233 -0.020572624972 1.19506008708e-17));
    }
}


// ************************************************************************* //
