/*--------------------------------*- C++ -*----------------------------------*\
| =========                 |                                                 |
| \\      /  F ield         | OpenFOAM: The Open Source CFD Toolbox           |
|  \\    /   O peration     | Version:  v2012                                 |
|   \\  /    A nd           | Website:  www.openfoam.com                      |
|    \\/     M anipulation  |                                                 |
\*---------------------------------------------------------------------------*/
FoamFile
{
    version     2.0;
    format      ascii;
    class       volVectorField;
    location    "4.4";
    object      ddtCorrDdt0(U);
}
// * * * * * * * * * * * * * * * * * * * * * * * * * * * * * * * * * * * * * //

dimensions      [0 1 -2 0 0 0 0];


internalField   nonuniform List<vector> 
166
(
(-0.0858815134715 -0.000548539997034 8.86743569525e-23)
(-0.0853304822759 -0.00121806348441 -1.2345392909e-23)
(-0.0862306385588 -0.00199374237086 1.16372201085e-23)
(-0.0877797627831 -0.00272386030101 -8.00569218735e-23)
(-0.0898808682005 -0.00332691992513 -2.08659288502e-25)
(-0.0925462599906 -0.0037751764716 2.35074259769e-23)
(-0.095818858388 -0.00400882354957 -6.81468067309e-24)
(-0.0997599641021 -0.00394320573413 -2.16219054561e-24)
(-0.104444441336 -0.00346753113459 -2.90422480338e-24)
(-0.109974599684 -0.00243068787218 -2.21825527015e-23)
(-0.116482992485 -0.000634119819211 1.00940876362e-22)
(-0.124197523832 0.00221609599217 -1.64824509221e-23)
(-0.133358402306 0.00646332971983 4.82858706165e-22)
(-0.144575430267 0.0126256030014 -6.49822245553e-22)
(-0.158881582424 0.0233379639115 2.34548073035e-21)
(-0.177306659686 0.0282568106475 -4.07537063851e-21)
(-0.201604226323 0.0488687971718 1.3031133231e-20)
(-0.262223558701 -0.00031770232351 -3.49257497131e-21)
(-0.903466669334 0.184905634251 1.32053977482e-20)
(-0.440432197579 0.332518852239 1.3610717537e-20)
(-0.0847754123031 -0.000791246649927 4.52409136486e-23)
(-0.0842519156558 -0.00200105279964 -5.55370030343e-24)
(-0.0851995101042 -0.00330784138222 -1.13246258787e-23)
(-0.0868323604551 -0.00458991460855 -3.47007458849e-23)
(-0.0890518497211 -0.00577717652624 -5.07890180277e-23)
(-0.0918854090742 -0.00685291330364 -3.68115482337e-23)
(-0.095392629518 -0.00777193435961 -5.17811310758e-23)
(-0.0996562704819 -0.0084692603209 2.3733785636e-23)
(-0.104780813484 -0.00886215206316 -1.09276692422e-22)
(-0.110907084457 -0.00883454603131 -5.62986446641e-23)
(-0.118214079605 -0.00827289795598 3.90993568533e-23)
(-0.126958049777 -0.00694275970501 -1.36343519037e-22)
(-0.137485810739 -0.00459772889673 1.13342379092e-23)
(-0.150400380332 -0.00110269841906 -8.21750359511e-23)
(-0.166830044568 0.00581057655215 6.15069793488e-22)
(-0.187759307825 0.0046457868932 -3.67743966566e-21)
(-0.216838198251 0.0137333947847 -7.26564953594e-21)
(-0.277529307886 -0.0373360928149 2.58185045937e-21)
(-1.0582570758 0.0786649631004 -6.17746297099e-21)
(-0.49125508683 0.251239034447 1.22622647638e-20)
(-0.0831523373266 -0.00105333447996 5.136107954e-23)
(-0.0826831092713 -0.00281913038051 3.6651884029e-24)
(-0.0836388863633 -0.00466357182702 1.20527117719e-23)
(-0.0853157662742 -0.00653142066516 2.96374399566e-23)
(-0.0876103225783 -0.00833918690626 1.98740541667e-23)
(-0.090549414863 -0.0100942722239 -8.85077449363e-24)
(-0.0942106436797 -0.0117692024104 -2.93137762746e-24)
(-0.0986920868941 -0.0133256784421 -1.82000514874e-23)
(-0.104113138218 -0.0147125458826 2.08981277665e-23)
(-0.110637642947 -0.0158618972315 2.52060077722e-23)
(-0.118486804342 -0.0166989430905 -2.69379572412e-23)
(-0.127876549217 -0.0170982806889 -6.15161421228e-23)
(-0.139242315962 -0.0169121872552 -5.35703279201e-23)
(-0.152993018063 -0.0162497785086 5.21578869957e-22)
(-0.170227599928 -0.0132934192696 -3.55876674428e-22)
(-0.190762399888 -0.0189880420442 1.66785744238e-21)
(-0.219420311364 -0.0164699152092 2.10430824978e-20)
(-0.272634135885 -0.0568788462032 -2.17009877604e-21)
(-1.19905178507 -0.0289762222466 3.30589208185e-20)
(-0.538135472839 0.139962541606 3.61332539929e-20)
(-0.0809401230261 -0.00135191551084 7.4996941794e-23)
(-0.0806872015109 -0.00365146942746 2.31857815868e-23)
(-0.0814921479859 -0.00600487204682 6.22784488983e-23)
(-0.0832009764088 -0.00849755322946 -5.61070081001e-24)
(-0.0855260098812 -0.0109567702498 -5.14234595718e-24)
(-0.0884992062827 -0.0134220215251 3.23265836348e-25)
(-0.0922249365336 -0.0159000883499 -5.78723043107e-23)
(-0.0967851102023 -0.0183640511234 2.53354705689e-23)
(-0.102342727001 -0.0208074645577 -5.31444359496e-23)
(-0.109058427619 -0.0232228688822 -1.19457159063e-22)
(-0.117164674055 -0.0255589318443 3.90706758228e-23)
(-0.126912486739 -0.0277908654107 -3.19328069153e-22)
(-0.138640056073 -0.0298089497035 -1.58247120298e-22)
(-0.152637963408 -0.0318115316866 -4.84160361721e-23)
(-0.169814395465 -0.032351938965 1.75402211345e-21)
(-0.189688538586 -0.0406237413206 1.70085699313e-21)
(-0.213844824528 -0.0430723312146 2.24798994222e-20)
(-0.253761238496 -0.069509590065 1.10994415272e-21)
(-1.10068923726 -0.103994018531 -1.05546775952e-19)
(-0.578913163647 -0.241716242438 -1.03515541535e-19)
(-0.0783324406635 -0.00176716514063 7.9475360964e-23)
(-0.0778555084356 -0.00448929678086 -4.84169074674e-23)
(-0.0788517756549 -0.00720183564163 4.79121720859e-23)
(-0.080518439749 -0.0104758850194 -5.25356037047e-24)
(-0.0827894906488 -0.0135680263985 -1.33538111494e-23)
(-0.0857151613821 -0.0167564953762 -1.13996096005e-23)
(-0.0893701902694 -0.020033929594 -8.50589072834e-23)
(-0.093884156163 -0.0234234838955 1.10777667367e-22)
(-0.0994152177266 -0.0269689363422 -1.93875253844e-23)
(-0.106162747545 -0.0306791899872 -7.64506936268e-24)
(-0.114115616345 -0.0345585660647 1.27480058268e-22)
(-0.123948936776 -0.0386251165252 -3.24497273858e-22)
(-0.135724369547 -0.0428159906636 -3.42497629114e-22)
(-0.149693816017 -0.0473068939313 -1.17036942119e-21)
(-0.166372350327 -0.0509184877979 2.13041563299e-22)
(-0.186524350735 -0.0592712739862 -2.50402658368e-21)
(-0.20541976194 -0.0629832871559 3.16761914723e-20)
(-0.22986049125 -0.0793594549188 1.45305705407e-20)
(-0.948922787476 -0.0913933487723 -6.81061729754e-20)
(-0.607299884169 -0.216285925043 -6.61850632271e-20)
(-0.075329369781 -0.00183744183857 5.17095323905e-23)
(-0.0745032096551 -0.00524343731206 -2.12274449977e-23)
(-0.0756566218294 -0.00866369389562 -3.85503612857e-23)
(-0.0772254829268 -0.0123375004477 -7.17346162509e-23)
(-0.0793787768287 -0.0160811007915 -2.41789057426e-23)
(-0.0821583630695 -0.0199626563317 -2.68025851374e-23)
(-0.0856364414218 -0.024048128392 -6.44463300916e-24)
(-0.0899556686689 -0.0283979888103 2.41120171271e-24)
(-0.0952498579735 -0.0330740340113 -6.8941274006e-24)
(-0.101710404428 -0.0379098425124 3.41983108904e-24)
(-0.109546420424 -0.0433564528278 1.10770626001e-22)
(-0.119100890814 -0.0494542419031 -1.33478350005e-22)
(-0.130582763158 -0.0557488937156 -3.26414174914e-22)
(-0.144283113088 -0.0624962019891 -1.20549210821e-21)
(-0.16044437249 -0.0693676550718 -2.25373186501e-22)
(-0.183212521537 -0.0776987749824 -1.89452834022e-22)
(-0.191949466729 -0.0870510819908 -6.70035479774e-21)
(-0.212621166682 -0.0956557342624 -1.93333994158e-21)
(-0.901636779169 -0.105992476894 3.62559623399e-20)
(-0.618245422414 -0.147558252081 1.75958301944e-20)
(-0.0715597834161 -0.00202169948582 -1.17977090119e-22)
(-0.0709322950825 -0.00599486396767 -1.76205403889e-22)
(-0.0718452420838 -0.00995262017955 -1.52962796844e-22)
(-0.0733106008585 -0.014115084545 -9.6478305363e-23)
(-0.0752918896766 -0.0184392497027 -1.19171845321e-23)
(-0.0778380568577 -0.0229848784856 -2.65457260558e-23)
(-0.0810382584068 -0.0278235804512 -1.97051292385e-23)
(-0.0850119683592 -0.0330432306741 -8.97011592043e-25)
(-0.0898949101988 -0.0387391846258 -2.4685154894e-23)
(-0.0958746227089 -0.044987909421 -6.12349339516e-23)
(-0.103409990461 -0.0519851062364 -2.69649211764e-23)
(-0.112397935487 -0.0597551482132 -1.08731633994e-22)
(-0.123333415136 -0.0682309722737 -1.42770150843e-22)
(-0.136316902428 -0.077379615073 -3.45246070954e-22)
(-0.151298561616 -0.0898946675828 -1.86825940611e-21)
(-0.168160340955 -0.0888318022864 1.37008513979e-21)
(-0.180224897603 -0.105811076872 -5.6597067495e-21)
(-0.192440130805 -0.11743548401 1.90974880223e-21)
(-0.84080915673 -0.145980989441 -4.53992767176e-20)
(-0.579965941039 -0.24066221181 -8.38262444692e-20)
(-0.0674545103847 -0.00216626831864 -7.05194100676e-23)
(-0.0668142775345 -0.00662951325292 -1.80940234082e-22)
(-0.0675824893303 -0.0110674465745 -1.06572076497e-22)
(-0.0688482149239 -0.0157063252807 -3.83806877306e-23)
(-0.0705837397133 -0.0205548478339 4.25229364258e-24)
(-0.0728067591664 -0.0256953795167 6.43318706731e-24)
(-0.0756116149847 -0.0312293262057 -2.34509344081e-23)
(-0.0791125308824 -0.0372640384807 -4.08260445855e-23)
(-0.0834682147538 -0.0439521284917 -6.65703785043e-23)
(-0.0888704553638 -0.0514615303475 -1.3135920898e-23)
(-0.0955939409485 -0.0599308361605 -2.76111596508e-23)
(-0.103860316814 -0.0694558752826 -2.19500780583e-23)
(-0.114113435553 -0.0798619924578 -5.39286591842e-23)
(-0.126435832497 -0.0907328958061 -7.39942422862e-23)
(-0.140960657754 -0.101598065407 2.62889608364e-21)
(-0.154259090398 -0.106209707035 6.82167525361e-21)
(-0.182711684912 -0.122110612423 1.16173116652e-20)
(-0.180480008029 -0.117571040013 2.63959814695e-21)
(-0.786895045459 -0.146771378944 2.73080508822e-20)
(-0.367757494408 -0.229513276837 -1.10117982499e-20)
(-0.0629646554494 -0.00229946516685 -1.49507271844e-23)
(-0.0622667768714 -0.00717336785706 -1.89397820452e-22)
(-0.0628820575434 -0.0119845292006 3.72142711718e-24)
(-0.0581319169737 -0.00238740550296 2.47366607823e-23)
(-0.0529821701506 -0.00244357189208 -2.29053165206e-22)
(-0.0476022356346 -0.002444647026 2.9741634398e-23)
)
;

boundaryField
{
    back
    {
        type            calculated;
        value           uniform (0 0 0);
    }
    sides
    {
        type            calculated;
        value           nonuniform List<vector> 0();
    }
    bottom
    {
        type            calculated;
        value           uniform (0 0 0);
    }
    front
    {
        type            calculated;
        value           uniform (0 0 0);
    }
    atmosphere
    {
        type            calculated;
        value           nonuniform List<vector> 8((0.0165773287537 0.332518852239 -1.53512292311e-21) (-0.000565293331839 0.251239034447 4.59930215286e-22) (-0.0513922301887 0.139962541606 1.61660505808e-21) (-0.107898853897 -0.241716242438 -3.28920651591e-20) (-0.107981066892 -0.216285925043 6.48865355901e-21) (0.199802458988 -0.147558252081 -1.34046392515e-20) (0.45653154052 -0.24066221181 4.86031005839e-20) (0.319410457081 -0.229513276837 3.17741010071e-21));
    }
    floatingObject
    {
        type            calculated;
        value           nonuniform List<vector> 0();
    }
    procBoundary9to6
    {
        type            processor;
        value           nonuniform List<vector> 4((-0.171627906901 0.0753658731791 1.17778019615e-20) (-0.211722777185 0.0301125047321 4.58835182826e-21) (-0.680279835847 0.290837823335 1.14387945327e-19) (-0.331841625623 0.583990212876 -9.99480459505e-21));
    }
    procBoundary9to7
    {
        type            processor;
        value           nonuniform List<vector> 
16
(
(-0.0864873343217 -0.000323167421842 1.00948083628e-22)
(-0.0859221462238 -0.000481172621072 2.77604953002e-23)
(-0.0867520743241 -0.000757606989124 1.90167324031e-23)
(-0.0881948774627 -0.000976415656343 -1.20621428165e-22)
(-0.0901455109617 -0.00104665028545 -1.73997926209e-23)
(-0.0926002059893 -0.000935495898125 -4.69033747606e-23)
(-0.0955824191672 -0.000573230469894 -7.47251598505e-23)
(-0.0991258130592 0.00013740435359 2.02187919848e-23)
(-0.10326906658 0.00132526648856 -8.75894386273e-23)
(-0.108065297376 0.00316756305441 -6.97504603694e-23)
(-0.113585555622 0.00590754361854 6.07107992e-23)
(-0.119932448364 0.00989473430498 -4.7896515239e-23)
(-0.12725608878 0.0155582486654 -2.24225706047e-22)
(-0.135998764921 0.0238531956072 -6.26137834807e-22)
(-0.146872728367 0.0370255835696 4.519405847e-22)
(-0.159900316316 0.0478996705696 5.78956200475e-21)
)
;
    }
    procBoundary9to10
    {
        type            processor;
        value           nonuniform List<vector> 
15
(
(-0.0639155701454 -0.0170299527747 2.71969922093e-23)
(-0.0653213694939 -0.0223424301992 2.15009881339e-23)
(-0.0671277221888 -0.0279962710354 4.00548030153e-24)
(-0.0694288564866 -0.0341321833648 1.97767454418e-24)
(-0.0723320282249 -0.0409147162984 2.98996959262e-23)
(-0.0759972221656 -0.0485180172678 1.99551941559e-23)
(-0.0805876763406 -0.057136894257 2.33115051793e-23)
(-0.0863477660242 -0.0670013872525 2.02480946404e-23)
(-0.0573779521582 -0.00757604128226 -2.9973019423e-22)
(-0.0639155701454 -0.0170299527747 2.71969922093e-23)
(-0.0578028681729 -0.0126917696981 7.59503203119e-23)
(-0.0573779521582 -0.00757604128226 -2.9973019423e-22)
(-0.0521657380574 -0.00785474328523 -3.57519028889e-23)
(-0.0467005213809 -0.00797821026621 -2.96250144518e-22)
(-0.0421159768149 -0.00237995574211 -2.41996594916e-22)
)
;
    }
    procBoundary9to11
    {
        type            processor;
        value           nonuniform List<vector> 9((-0.0936329237648 -0.0783328093712 -2.08538929521e-24) (-0.102875670421 -0.090975138018 -5.46152428027e-23) (-0.114629118279 -0.104588522755 -1.58831244314e-22) (-0.129536975515 -0.118821909614 6.4680425688e-22) (-0.147880966584 -0.133666257257 -1.62352290847e-21) (-0.174536276436 -0.145840557836 1.96247982489e-20) (-0.168777377283 -0.127854830307 1.20164713633e-20) (-0.727786358751 -0.185460198024 2.18335421728e-20) (-0.62551090333 -0.443751315486 -2.0994039427e-19));
    }
}


// ************************************************************************* //
