/*--------------------------------*- C++ -*----------------------------------*\
| =========                 |                                                 |
| \\      /  F ield         | OpenFOAM: The Open Source CFD Toolbox           |
|  \\    /   O peration     | Version:  v2012                                 |
|   \\  /    A nd           | Website:  www.openfoam.com                      |
|    \\/     M anipulation  |                                                 |
\*---------------------------------------------------------------------------*/
FoamFile
{
    version     2.0;
    format      ascii;
    class       volScalarField;
    location    "0.1";
    object      ddt0(k);
}
// * * * * * * * * * * * * * * * * * * * * * * * * * * * * * * * * * * * * * //

dimensions      [0 2 -3 0 0 0 0];


internalField   nonuniform List<scalar> 
166
(
-0.182159721457
-0.182144229768
-0.18212814715
-0.182111841164
-0.182095693787
-0.182080084193
-0.182065369034
-0.182051844813
-0.18203884065
-0.182004248199
-0.181505732141
-0.173741601635
-0.0928526080681
-0.182106356049
-0.182093276425
-0.182078873553
-0.18206347152
-0.182047421995
-0.18203110217
-0.182014895875
-0.181999183483
-0.181984333183
-0.181970650559
-0.181957396665
-0.181920985774
-0.181398709866
-0.173435315261
-0.0924034309759
-0.215141446812
-0.185925101099
-0.182032059177
-0.182019985018
-0.182006807626
-0.181992255615
-0.181976640455
-0.181960323204
-0.1819436847
-0.181927116224
-0.181911010591
-0.181895751587
-0.181881658485
-0.181867915342
-0.181829235595
-0.181279935562
-0.17309613266
-0.0919093510899
-0.215024344714
-0.185831216301
-0.182221975234
-0.181963397408
-0.181940472652
-0.181928098621
-0.181914524612
-0.181899497651
-0.181883331874
-0.181866394597
-0.18184907733
-0.181831786962
-0.181814936675
-0.181798934075
-0.181784119526
-0.181769590643
-0.181728098503
-0.181148009475
-0.172720368389
-0.0913660154418
-0.214901258434
-0.185732259213
-0.18212550986
-0.181866783119
-0.181843396976
-0.181830417393
-0.181816116182
-0.18180024714
-0.181783133916
-0.181765157893
-0.181746730348
-0.181728283335
-0.181710260386
-0.181693103481
-0.181677183651
-0.181661501523
-0.181616535483
-0.181001280063
-0.172303679439
-0.090768359556
-0.214772237733
-0.185628158823
-0.182023851885
-0.181764765967
-0.181740634636
-0.181726714805
-0.181711298902
-0.181694153538
-0.181675619466
-0.181656101751
-0.181636041919
-0.181615908485
-0.181596187739
-0.181577369312
-0.181559867346
-0.181542573369
-0.181493321983
-0.18083777181
-0.171840905965
-0.090110453795
-0.21463747642
-0.185518928369
-0.181916953131
-0.181657264359
-0.181632064696
-0.181616809367
-0.181599817615
-0.18158087632
-0.181560352011
-0.181538683668
-0.181516355397
-0.181493885529
-0.181471818443
-0.181450708064
-0.181431027672
-0.181411545632
-0.181357005151
-0.180655103113
-0.171325871197
-0.0893853105642
-0.214497345836
-0.185404696806
-0.181804875741
-0.181544291932
-0.181517640709
-0.181500580015
-0.181481460438
-0.181460097208
-0.18143689349
-0.181412332649
-0.181386956023
-0.181361347502
-0.181336128328
-0.181311937518
-0.181289328104
-0.181266928825
-0.181205846444
-0.180450374883
-0.170751120816
-0.0885846369153
-0.214352436206
-0.18528573388
-0.1816878054
-0.181425974669
-0.181397414505
-0.181377985393
-0.181356075444
-0.18133153599
-0.18130481488
-0.181276451789
-0.181247066984
-0.181217325237
-0.181187947936
-0.18115968528
-0.181133196544
-0.181106950957
-0.181037747599
-0.180220028602
-0.170107578961
-0.0876985157024
)
;

boundaryField
{
    back
    {
        type            calculated;
        value           nonuniform List<scalar> 
166
(
-0.182159721457
-0.182144229768
-0.18212814715
-0.182111841164
-0.182095693787
-0.182080084193
-0.182065369034
-0.182051844813
-0.18203884065
-0.182004248199
-0.181505732141
-0.173741601635
-0.0928526080681
-0.182106356049
-0.182093276425
-0.182078873553
-0.18206347152
-0.182047421995
-0.18203110217
-0.182014895875
-0.181999183483
-0.181984333183
-0.181970650559
-0.181957396665
-0.181920985774
-0.181398709866
-0.173435315261
-0.0924034309759
-0.215141446812
-0.185925101099
-0.182032059177
-0.182019985018
-0.182006807626
-0.181992255615
-0.181976640455
-0.181960323204
-0.1819436847
-0.181927116224
-0.181911010591
-0.181895751587
-0.181881658485
-0.181867915342
-0.181829235595
-0.181279935562
-0.17309613266
-0.0919093510899
-0.215024344714
-0.185831216301
-0.182221975234
-0.181963397408
-0.181940472652
-0.181928098621
-0.181914524612
-0.181899497651
-0.181883331874
-0.181866394597
-0.18184907733
-0.181831786962
-0.181814936675
-0.181798934075
-0.181784119526
-0.181769590643
-0.181728098503
-0.181148009475
-0.172720368389
-0.0913660154418
-0.214901258434
-0.185732259213
-0.18212550986
-0.181866783119
-0.181843396976
-0.181830417393
-0.181816116182
-0.18180024714
-0.181783133916
-0.181765157893
-0.181746730348
-0.181728283335
-0.181710260386
-0.181693103481
-0.181677183651
-0.181661501523
-0.181616535483
-0.181001280063
-0.172303679439
-0.090768359556
-0.214772237733
-0.185628158823
-0.182023851885
-0.181764765967
-0.181740634636
-0.181726714805
-0.181711298902
-0.181694153538
-0.181675619466
-0.181656101751
-0.181636041919
-0.181615908485
-0.181596187739
-0.181577369312
-0.181559867346
-0.181542573369
-0.181493321983
-0.18083777181
-0.171840905965
-0.090110453795
-0.21463747642
-0.185518928369
-0.181916953131
-0.181657264359
-0.181632064696
-0.181616809367
-0.181599817615
-0.18158087632
-0.181560352011
-0.181538683668
-0.181516355397
-0.181493885529
-0.181471818443
-0.181450708064
-0.181431027672
-0.181411545632
-0.181357005151
-0.180655103113
-0.171325871197
-0.0893853105642
-0.214497345836
-0.185404696806
-0.181804875741
-0.181544291932
-0.181517640709
-0.181500580015
-0.181481460438
-0.181460097208
-0.18143689349
-0.181412332649
-0.181386956023
-0.181361347502
-0.181336128328
-0.181311937518
-0.181289328104
-0.181266928825
-0.181205846444
-0.180450374883
-0.170751120816
-0.0885846369153
-0.214352436206
-0.18528573388
-0.1816878054
-0.181425974669
-0.181397414505
-0.181377985393
-0.181356075444
-0.18133153599
-0.18130481488
-0.181276451789
-0.181247066984
-0.181217325237
-0.181187947936
-0.18115968528
-0.181133196544
-0.181106950957
-0.181037747599
-0.180220028602
-0.170107578961
-0.0876985157024
)
;
    }
    sides
    {
        type            calculated;
        value           nonuniform List<scalar> 0();
    }
    bottom
    {
        type            calculated;
        value           nonuniform List<scalar> 7(-0.215141446812 -0.215024344714 -0.214901258434 -0.214772237733 -0.21463747642 -0.214497345836 -0.214352436206);
    }
    front
    {
        type            calculated;
        value           nonuniform List<scalar> 
166
(
-0.182159721457
-0.182144229768
-0.18212814715
-0.182111841164
-0.182095693787
-0.182080084193
-0.182065369034
-0.182051844813
-0.18203884065
-0.182004248199
-0.181505732141
-0.173741601635
-0.0928526080681
-0.182106356049
-0.182093276425
-0.182078873553
-0.18206347152
-0.182047421995
-0.18203110217
-0.182014895875
-0.181999183483
-0.181984333183
-0.181970650559
-0.181957396665
-0.181920985774
-0.181398709866
-0.173435315261
-0.0924034309759
-0.215141446812
-0.185925101099
-0.182032059177
-0.182019985018
-0.182006807626
-0.181992255615
-0.181976640455
-0.181960323204
-0.1819436847
-0.181927116224
-0.181911010591
-0.181895751587
-0.181881658485
-0.181867915342
-0.181829235595
-0.181279935562
-0.17309613266
-0.0919093510899
-0.215024344714
-0.185831216301
-0.182221975234
-0.181963397408
-0.181940472652
-0.181928098621
-0.181914524612
-0.181899497651
-0.181883331874
-0.181866394597
-0.18184907733
-0.181831786962
-0.181814936675
-0.181798934075
-0.181784119526
-0.181769590643
-0.181728098503
-0.181148009475
-0.172720368389
-0.0913660154418
-0.214901258434
-0.185732259213
-0.18212550986
-0.181866783119
-0.181843396976
-0.181830417393
-0.181816116182
-0.18180024714
-0.181783133916
-0.181765157893
-0.181746730348
-0.181728283335
-0.181710260386
-0.181693103481
-0.181677183651
-0.181661501523
-0.181616535483
-0.181001280063
-0.172303679439
-0.090768359556
-0.214772237733
-0.185628158823
-0.182023851885
-0.181764765967
-0.181740634636
-0.181726714805
-0.181711298902
-0.181694153538
-0.181675619466
-0.181656101751
-0.181636041919
-0.181615908485
-0.181596187739
-0.181577369312
-0.181559867346
-0.181542573369
-0.181493321983
-0.18083777181
-0.171840905965
-0.090110453795
-0.21463747642
-0.185518928369
-0.181916953131
-0.181657264359
-0.181632064696
-0.181616809367
-0.181599817615
-0.18158087632
-0.181560352011
-0.181538683668
-0.181516355397
-0.181493885529
-0.181471818443
-0.181450708064
-0.181431027672
-0.181411545632
-0.181357005151
-0.180655103113
-0.171325871197
-0.0893853105642
-0.214497345836
-0.185404696806
-0.181804875741
-0.181544291932
-0.181517640709
-0.181500580015
-0.181481460438
-0.181460097208
-0.18143689349
-0.181412332649
-0.181386956023
-0.181361347502
-0.181336128328
-0.181311937518
-0.181289328104
-0.181266928825
-0.181205846444
-0.180450374883
-0.170751120816
-0.0885846369153
-0.214352436206
-0.18528573388
-0.1816878054
-0.181425974669
-0.181397414505
-0.181377985393
-0.181356075444
-0.18133153599
-0.18130481488
-0.181276451789
-0.181247066984
-0.181217325237
-0.181187947936
-0.18115968528
-0.181133196544
-0.181106950957
-0.181037747599
-0.180220028602
-0.170107578961
-0.0876985157024
)
;
    }
    atmosphere
    {
        type            calculated;
        value           uniform 0;
    }
    floatingObject
    {
        type            calculated;
        value           nonuniform List<scalar> 0();
    }
    procBoundary0to1
    {
        type            processor;
        value           nonuniform List<scalar> 10(-0.182186338572 -0.182169993633 -0.182154242353 -0.182139430968 -0.182125853088 -0.182112899247 -0.182079749785 -0.181602153833 -0.174018112207 -0.093260633421);
    }
    procBoundary0to2
    {
        type            processor;
        value           nonuniform List<scalar> 
14
(
-0.182235068755
-0.182219257132
-0.182202883022
-0.182187416203
-0.182174212901
-0.182174212901
-0.215252599453
-0.186014026092
-0.182118327525
-0.182118327525
-0.182313330725
-0.182313330725
-0.182054730252
-0.182054730252
)
;
    }
    procBoundary0to4
    {
        type            processor;
        value           nonuniform List<scalar> 8(-0.214203609587 -0.185162487874 -0.181566085632 -0.181302584278 -0.181271567922 -0.181249094782 -0.18122359569 -0.181194965988);
    }
    procBoundary0to5
    {
        type            processor;
        value           nonuniform List<scalar> 
12
(
-0.181163715034
-0.181130429586
-0.181095849424
-0.181060737427
-0.18102594174
-0.180992355454
-0.180960777693
-0.18092949308
-0.180850161111
-0.179959650649
-0.169384089562
-0.0867149890008
)
;
    }
}


// ************************************************************************* //
