/*--------------------------------*- C++ -*----------------------------------*\
| =========                 |                                                 |
| \\      /  F ield         | OpenFOAM: The Open Source CFD Toolbox           |
|  \\    /   O peration     | Version:  v2012                                 |
|   \\  /    A nd           | Website:  www.openfoam.com                      |
|    \\/     M anipulation  |                                                 |
\*---------------------------------------------------------------------------*/
FoamFile
{
    version     2.0;
    format      ascii;
    class       volScalarField;
    location    "0.1";
    object      epsilon;
}
// * * * * * * * * * * * * * * * * * * * * * * * * * * * * * * * * * * * * * //

dimensions      [0 2 -3 0 0 0 0];


internalField   nonuniform List<scalar> 
166
(
0.181816764789
0.181821000225
0.181825391238
0.18182982868
0.181834203566
0.181838414142
0.181842359055
0.18184594769
0.181849179041
0.18185406663
0.181908522648
0.182972868795
0.200531089698
0.181832390343
0.181835978789
0.181839929403
0.181844149675
0.181848535864
0.181852981046
0.181857377341
0.181861618547
0.181865601627
0.181869233056
0.181872514385
0.181877579577
0.18193436462
0.183024192407
0.200628253737
0.219872846072
0.180902797327
0.181853923809
0.18185717038
0.181860800584
0.181864806043
0.181869094249
0.181873562378
0.181878102765
0.181882605229
0.181886959601
0.18189105843
0.181894803368
0.181898197723
0.181903512698
0.181962966418
0.183081040534
0.200735430181
0.219918070546
0.180929390942
0.181827793709
0.181875484888
0.181880243547
0.181883593414
0.181887346786
0.181891496909
0.181895950451
0.181900602579
0.181905342105
0.181910053969
0.181914621908
0.181918931488
0.181922877145
0.181926462851
0.181932116747
0.181994634692
0.183144033206
0.200853650584
0.219965745621
0.180957477146
0.181855514941
0.181903293353
0.181908200025
0.181911734552
0.181915706972
0.18192010899
0.181924843923
0.181929802119
0.181934866127
0.181939913087
0.181944817605
0.181949455097
0.181953709685
0.181957584425
0.181963687496
0.182029732876
0.183213903539
0.200984123468
0.220015878383
0.180987083716
0.181884785187
0.181932710504
0.18193784503
0.181941662482
0.181945968433
0.181950750612
0.181955906238
0.18196131801
0.181966859116
0.181972395329
0.18197778831
0.181982899293
0.181987598041
0.18199188445
0.18199857399
0.182068693512
0.183291524051
0.201128273971
0.220068425244
0.181018209948
0.181915613562
0.181963757716
0.181969215345
0.181973433122
0.181978210625
0.181983527707
0.181989272538
0.181995317533
0.182001522966
0.182007738851
0.182013809159
0.182019575798
0.182024888896
0.182029742046
0.182037190397
0.182112034915
0.183377940872
0.201287794865
0.220123278648
0.181050824385
0.181947982753
0.181996432492
0.182002327109
0.182007084984
0.182012498497
0.182018538223
0.182025079233
0.182031977373
0.182039078058
0.182046210164
0.182053194061
0.18205984574
0.182065988813
0.182071606182
0.182080031443
0.18216038295
0.183474419345
0.201464712797
0.220180249536
0.181084854545
0.181981838048
0.182030697562
0.182037166208
0.182042632857
0.182048880165
0.182055868357
0.182063458007
0.182071482233
0.182079764164
0.182088107644
0.182096302186
0.182104129402
0.182111377388
0.182118012227
0.182127692782
0.182214501364
0.183582504113
0.201661475016
)
;

boundaryField
{
    back
    {
        lowReCorrection 0;
        blending        stepwise;
        n               2;
        type            epsilonWallFunction;
        value           nonuniform List<scalar> 
166
(
0.181816764789
0.181821000225
0.181825391238
0.18182982868
0.181834203566
0.181838414142
0.181842359055
0.18184594769
0.181849179041
0.18185406663
0.181908522648
0.182972868795
0.200531089698
0.181832390343
0.181835978789
0.181839929403
0.181844149675
0.181848535864
0.181852981046
0.181857377341
0.181861618547
0.181865601627
0.181869233056
0.181872514385
0.181877579577
0.18193436462
0.183024192407
0.200628253737
0.219872846072
0.180902797327
0.181853923809
0.18185717038
0.181860800584
0.181864806043
0.181869094249
0.181873562378
0.181878102765
0.181882605229
0.181886959601
0.18189105843
0.181894803368
0.181898197723
0.181903512698
0.181962966418
0.183081040534
0.200735430181
0.219918070546
0.180929390942
0.181827793709
0.181875484888
0.181880243547
0.181883593414
0.181887346786
0.181891496909
0.181895950451
0.181900602579
0.181905342105
0.181910053969
0.181914621908
0.181918931488
0.181922877145
0.181926462851
0.181932116747
0.181994634692
0.183144033206
0.200853650584
0.219965745621
0.180957477146
0.181855514941
0.181903293353
0.181908200025
0.181911734552
0.181915706972
0.18192010899
0.181924843923
0.181929802119
0.181934866127
0.181939913087
0.181944817605
0.181949455097
0.181953709685
0.181957584425
0.181963687496
0.182029732876
0.183213903539
0.200984123468
0.220015878383
0.180987083716
0.181884785187
0.181932710504
0.18193784503
0.181941662482
0.181945968433
0.181950750612
0.181955906238
0.18196131801
0.181966859116
0.181972395329
0.18197778831
0.181982899293
0.181987598041
0.18199188445
0.18199857399
0.182068693512
0.183291524051
0.201128273971
0.220068425244
0.181018209948
0.181915613562
0.181963757716
0.181969215345
0.181973433122
0.181978210625
0.181983527707
0.181989272538
0.181995317533
0.182001522966
0.182007738851
0.182013809159
0.182019575798
0.182024888896
0.182029742046
0.182037190397
0.182112034915
0.183377940872
0.201287794865
0.220123278648
0.181050824385
0.181947982753
0.181996432492
0.182002327109
0.182007084984
0.182012498497
0.182018538223
0.182025079233
0.182031977373
0.182039078058
0.182046210164
0.182053194061
0.18205984574
0.182065988813
0.182071606182
0.182080031443
0.18216038295
0.183474419345
0.201464712797
0.220180249536
0.181084854545
0.181981838048
0.182030697562
0.182037166208
0.182042632857
0.182048880165
0.182055868357
0.182063458007
0.182071482233
0.182079764164
0.182088107644
0.182096302186
0.182104129402
0.182111377388
0.182118012227
0.182127692782
0.182214501364
0.183582504113
0.201661475016
)
;
    }
    sides
    {
        lowReCorrection 0;
        blending        stepwise;
        n               2;
        type            epsilonWallFunction;
        value           nonuniform List<scalar> 0();
    }
    bottom
    {
        lowReCorrection 0;
        blending        stepwise;
        n               2;
        type            epsilonWallFunction;
        value           nonuniform List<scalar> 7(0.219872846072 0.219918070546 0.219965745621 0.220015878383 0.220068425244 0.220123278648 0.220180249536);
    }
    front
    {
        lowReCorrection 0;
        blending        stepwise;
        n               2;
        type            epsilonWallFunction;
        value           nonuniform List<scalar> 
166
(
0.181816764789
0.181821000225
0.181825391238
0.18182982868
0.181834203566
0.181838414142
0.181842359055
0.18184594769
0.181849179041
0.18185406663
0.181908522648
0.182972868795
0.200531089698
0.181832390343
0.181835978789
0.181839929403
0.181844149675
0.181848535864
0.181852981046
0.181857377341
0.181861618547
0.181865601627
0.181869233056
0.181872514385
0.181877579577
0.18193436462
0.183024192407
0.200628253737
0.219872846072
0.180902797327
0.181853923809
0.18185717038
0.181860800584
0.181864806043
0.181869094249
0.181873562378
0.181878102765
0.181882605229
0.181886959601
0.18189105843
0.181894803368
0.181898197723
0.181903512698
0.181962966418
0.183081040534
0.200735430181
0.219918070546
0.180929390942
0.181827793709
0.181875484888
0.181880243547
0.181883593414
0.181887346786
0.181891496909
0.181895950451
0.181900602579
0.181905342105
0.181910053969
0.181914621908
0.181918931488
0.181922877145
0.181926462851
0.181932116747
0.181994634692
0.183144033206
0.200853650584
0.219965745621
0.180957477146
0.181855514941
0.181903293353
0.181908200025
0.181911734552
0.181915706972
0.18192010899
0.181924843923
0.181929802119
0.181934866127
0.181939913087
0.181944817605
0.181949455097
0.181953709685
0.181957584425
0.181963687496
0.182029732876
0.183213903539
0.200984123468
0.220015878383
0.180987083716
0.181884785187
0.181932710504
0.18193784503
0.181941662482
0.181945968433
0.181950750612
0.181955906238
0.18196131801
0.181966859116
0.181972395329
0.18197778831
0.181982899293
0.181987598041
0.18199188445
0.18199857399
0.182068693512
0.183291524051
0.201128273971
0.220068425244
0.181018209948
0.181915613562
0.181963757716
0.181969215345
0.181973433122
0.181978210625
0.181983527707
0.181989272538
0.181995317533
0.182001522966
0.182007738851
0.182013809159
0.182019575798
0.182024888896
0.182029742046
0.182037190397
0.182112034915
0.183377940872
0.201287794865
0.220123278648
0.181050824385
0.181947982753
0.181996432492
0.182002327109
0.182007084984
0.182012498497
0.182018538223
0.182025079233
0.182031977373
0.182039078058
0.182046210164
0.182053194061
0.18205984574
0.182065988813
0.182071606182
0.182080031443
0.18216038295
0.183474419345
0.201464712797
0.220180249536
0.181084854545
0.181981838048
0.182030697562
0.182037166208
0.182042632857
0.182048880165
0.182055868357
0.182063458007
0.182071482233
0.182079764164
0.182088107644
0.182096302186
0.182104129402
0.182111377388
0.182118012227
0.182127692782
0.182214501364
0.183582504113
0.201661475016
)
;
    }
    atmosphere
    {
        type            inletOutlet;
        inletValue      uniform 0.1;
        value           uniform 0.1;
    }
    floatingObject
    {
        lowReCorrection 0;
        blending        stepwise;
        n               2;
        type            epsilonWallFunction;
        value           nonuniform List<scalar> 0();
    }
    procBoundary0to1
    {
        type            processor;
        value           nonuniform List<scalar> 10(0.181808497636 0.181812922828 0.18181717159 0.181821142476 0.181824746453 0.181827979834 0.181832750554 0.181885174695 0.182926540137 0.200443052492);
    }
    procBoundary0to2
    {
        type            processor;
        value           nonuniform List<scalar> 
14
(
0.181795196599
0.181799522604
0.181803993296
0.181809157399
0.181812783168
0.181812783168
0.219830015473
0.180877644542
0.181829165054
0.181829165054
0.181801579223
0.181801579223
0.181849238024
0.181849238024
)
;
    }
    procBoundary0to4
    {
        type            processor;
        value           nonuniform List<scalar> 8(0.220239047356 0.181120175845 0.182017076835 0.182066471011 0.182073677639 0.182080055981 0.182087377623 0.182095589099);
    }
    procBoundary0to5
    {
        type            processor;
        value           nonuniform List<scalar> 
12
(
0.182104534025
0.182114018719
0.182123841127
0.182133765499
0.182143545765
0.182152918328
0.182161623941
0.182169603437
0.182180898824
0.182275330735
0.183704099857
0.201881064056
)
;
    }
}


// ************************************************************************* //
