/*--------------------------------*- C++ -*----------------------------------*\
| =========                 |                                                 |
| \\      /  F ield         | OpenFOAM: The Open Source CFD Toolbox           |
|  \\    /   O peration     | Version:  v2012                                 |
|   \\  /    A nd           | Website:  www.openfoam.com                      |
|    \\/     M anipulation  |                                                 |
\*---------------------------------------------------------------------------*/
FoamFile
{
    version     2.0;
    format      ascii;
    class       volVectorField;
    location    "0.1";
    object      U_0;
}
// * * * * * * * * * * * * * * * * * * * * * * * * * * * * * * * * * * * * * //

dimensions      [0 1 -1 0 0 0 0];


internalField   nonuniform List<vector> 
166
(
(0.0232994883885 -0.0170158186663 2.04575263175e-24)
(0.02222008362 -0.019093894071 5.87792005592e-25)
(0.0209978169764 -0.0210885663752 1.46869843205e-24)
(0.0196332584632 -0.0229848142307 1.09186922378e-25)
(0.0181286644422 -0.024766695537 5.4229171266e-24)
(0.0164883140247 -0.0264176494086 6.62561140265e-26)
(0.0147187860692 -0.0279208917059 1.26236622975e-24)
(0.0128291504156 -0.0292599173233 -5.67104233709e-24)
(0.0108310994656 -0.0304188199279 -3.40142891655e-24)
(0.00873873582862 -0.0313796432818 -2.43228455043e-24)
(0.00656320740169 -0.0321308979215 -4.78395078054e-23)
(0.00434709405089 -0.0329684484164 -7.93283429781e-22)
(0.00195053220429 -0.0319714064698 -3.30105673322e-22)
(0.027330901913 -0.0134144831759 2.52510731202e-24)
(0.0264840684837 -0.015763963617 1.7632824139e-24)
(0.0254845029149 -0.0180591485148 4.5797714482e-24)
(0.0243290804424 -0.0202866346033 2.92536539699e-24)
(0.0230156739278 -0.0224313507746 2.33029931072e-24)
(0.0215436365783 -0.0244766724375 9.10514154959e-25)
(0.0199142810885 -0.0264046529531 8.82940473943e-24)
(0.0181313212004 -0.0281963765106 7.29700841849e-25)
(0.0162012439479 -0.0298324321738 5.06920849553e-24)
(0.0141335802623 -0.031293527671 4.35918691665e-24)
(0.0119410969465 -0.0325609171257 8.40913958595e-27)
(0.00963954521363 -0.033613544317 9.7787017397e-25)
(0.00724182907785 -0.0344388864327 5.02541210601e-23)
(0.00479670021857 -0.0353465776892 8.75313505454e-22)
(0.00215352309199 -0.0342874591826 -5.24199743739e-23)
(0.0317370408771 -0.00141551557092 1.2149946068e-24)
(0.0318041347219 -0.00385981109847 4.76765858495e-23)
(0.0305104529501 -0.0116639895401 2.71830433249e-24)
(0.0297771890998 -0.0142083483203 3.96976612376e-25)
(0.0288838516029 -0.0167146218452 2.72228165695e-25)
(0.0278249479266 -0.0191708007442 4.80753811655e-25)
(0.0265954476575 -0.0215627174135 5.10520289445e-24)
(0.0251913649827 -0.0238740051299 9.28917229885e-25)
(0.0236103701354 -0.0260862032757 2.61946527866e-24)
(0.0218524030967 -0.0281790095922 5.0771572728e-24)
(0.0199202518366 -0.0301306881242 -1.13819692599e-24)
(0.0178200528616 -0.0319186357761 3.62707506104e-24)
(0.0155616707166 -0.0335201318942 -5.98012850814e-24)
(0.0131589769808 -0.0349129042769 -8.59143279723e-25)
(0.010629556427 -0.036072038283 -3.31126127279e-25)
(0.00798834065606 -0.0369837275487 -1.65917367838e-23)
(0.00529153415308 -0.0379713337771 1.29015897249e-21)
(0.00237724763908 -0.0368463186866 -1.23992365041e-21)
(0.0344059596318 -0.00149365452766 -2.02721349468e-23)
(0.0344858933279 -0.0040733850266 6.9534016507e-23)
(0.0341915589817 -0.00685524063986 -1.34157423387e-23)
(0.0337471933143 -0.00960656030523 -1.20595413335e-24)
(0.0331470703858 -0.0123343132691 1.89308905816e-24)
(0.03238353875 -0.0150410746087 1.71881280817e-24)
(0.0314489795737 -0.0177161978642 2.49775360305e-24)
(0.0303355389518 -0.020347546162 -4.07706842385e-24)
(0.0290357075683 -0.0229202116911 4.4015908467e-24)
(0.0275430417064 -0.0254164235343 6.04773367173e-24)
(0.025852929868 -0.027815631351 -6.65187685619e-24)
(0.0239633777515 -0.0300947706849 1.03540833613e-23)
(0.0218757638222 -0.0322287282565 -7.87085093884e-24)
(0.019595511167 -0.0341910151871 4.89081842635e-24)
(0.017132617765 -0.0359546815633 -8.09530968314e-24)
(0.0145020607194 -0.0374930573255 -1.29341837571e-23)
(0.0117234597613 -0.0387764050304 1.03792601425e-23)
(0.00881411113756 -0.0397892811408 2.68000814011e-22)
(0.00583925414156 -0.0408683906217 9.99448221284e-22)
(0.00262525263943 -0.0396739810305 -1.17387110881e-21)
(0.0372205523818 -0.00157363584551 -2.44667757905e-23)
(0.0373160041778 -0.00429221374729 -5.35910852811e-23)
(0.0370160811756 -0.00722737115726 -1.24659226582e-23)
(0.0365625113619 -0.0101359934554 -1.82010627624e-24)
(0.0359474628562 -0.0130275674885 2.53852608019e-25)
(0.0351609935018 -0.0159064303414 -1.06324033015e-24)
(0.0341928075205 -0.018762615843 2.44225619143e-24)
(0.0330320536852 -0.0215840675385 -7.46115601603e-26)
(0.0316680330255 -0.024355210167 2.95425842821e-24)
(0.030091090531 -0.0270567794971 3.48619964985e-24)
(0.0282935669704 -0.0296658655789 -3.49029754879e-24)
(0.0262708000465 -0.0321561761003 3.21736244797e-24)
(0.0240221097232 -0.0344985566303 -1.33346787549e-23)
(0.0215516989447 -0.0366617832361 -3.41079970431e-24)
(0.0188693928871 -0.038613675336 -6.08604423905e-24)
(0.0159912234946 -0.040322055318 -6.87471058486e-24)
(0.0129390560439 -0.0417511287975 -3.97068406554e-25)
(0.00973296762366 -0.0428833158182 1.42095185071e-23)
(0.00644920145825 -0.0440678191881 -3.3585154997e-22)
(0.00290187086651 -0.0428010398215 4.72144102265e-24)
(0.0401833489733 -0.00165428128954 -1.93320833471e-23)
(0.0402975572563 -0.00451315751182 -2.22054020234e-24)
(0.0399967973605 -0.00760407209883 -1.09914829289e-25)
(0.0395410232446 -0.010674046655 -1.8264325589e-24)
(0.038919812687 -0.0137357528278 1.07951295988e-24)
(0.0381203911683 -0.0167957242892 2.45219248019e-24)
(0.0371291024508 -0.019845134587 2.77067749263e-25)
(0.0359313680714 -0.0228723183741 -1.83838099787e-24)
(0.0345124338002 -0.0258611732679 6.469370017e-24)
(0.0328584828109 -0.0287908890261 4.98752907964e-25)
(0.030957830114 -0.0316359226335 -3.95292694608e-24)
(0.0288021886145 -0.0343662303584 1.22279683043e-23)
(0.026387950149 -0.0369478324264 -1.80382138687e-23)
(0.0237173916727 -0.0393437334539 3.76595866583e-24)
(0.0207997044604 -0.0415152697367 -1.46760682949e-23)
(0.0176518386501 -0.0434233387799 -1.42113687308e-23)
(0.0142981094367 -0.0450245000971 -1.25726516333e-24)
(0.0107618847564 -0.0462983320019 -4.27624230647e-24)
(0.00713287979876 -0.0476050660101 -7.51038674715e-22)
(0.00321244669199 -0.0462637469809 1.3290689616e-22)
(0.0432944549395 -0.00173405864614 -2.78176621179e-23)
(0.0434313259848 -0.00473211103846 3.47537639702e-23)
(0.0431359173358 -0.00797865129069 1.92521707613e-23)
(0.0426870177498 -0.0112117526159 6.62315796721e-25)
(0.0420711008822 -0.0144481202345 1.46547348046e-24)
(0.0412719545587 -0.0176971413004 1.29718363161e-24)
(0.0402718529964 -0.0209516421784 2.76610996773e-24)
(0.0390514770879 -0.024200739032 4.49372726345e-24)
(0.0375909405655 -0.0274280987964 3.75776296819e-24)
(0.0358711625347 -0.0306113872626 3.19167364667e-24)
(0.033875170079 -0.0337221646897 9.49036559923e-25)
(0.0315898032339 -0.0367260618862 1.0779315144e-23)
(0.0290073613517 -0.0395833588898 -8.2454165048e-26)
(0.0261272136604 -0.0422500311393 1.38515911001e-23)
(0.022957230423 -0.0446793668929 9.86604428975e-24)
(0.0195150030839 -0.0468235237942 -7.946693655e-25)
(0.0158274657922 -0.0486293567899 4.55593631666e-24)
(0.0119218954462 -0.0500726042548 5.72820049514e-23)
(0.00790459180536 -0.051522208506 7.9968340696e-22)
(0.00356363652888 -0.0501053855364 -1.91092596708e-23)
(0.0465508285766 -0.00181099995477 -2.00283389466e-23)
(0.0467150515602 -0.00494377821278 2.31728680687e-24)
(0.0464328995702 -0.00834244514057 5.4781800846e-25)
(0.0460025255665 -0.0117375404684 -4.02935053848e-24)
(0.0454066713306 -0.0151507398568 7.54234443006e-26)
(0.0446250270673 -0.0185949810848 1.17676172613e-25)
(0.0436349373673 -0.0220656253445 3.39656194963e-25)
(0.0424112922138 -0.0255532448524 8.31698287117e-25)
(0.0409277963528 -0.0290415000569 8.29275333393e-24)
(0.0391584646249 -0.0325066712728 1.38821915087e-24)
(0.0370796367751 -0.0359172937483 5.67277120373e-24)
(0.034671626582 -0.0392340506798 1.90524588729e-23)
(0.0319210804897 -0.0424104313365 -5.01908095919e-24)
(0.0288230959268 -0.0453938685113 1.99099703536e-23)
(0.025383205425 -0.0481276524233 -1.82816114109e-23)
(0.0216191397231 -0.0505528724243 -1.30787465684e-23)
(0.0175605330038 -0.0526039974803 -1.01032902538e-24)
(0.0132393076025 -0.0542515097052 -5.52279979223e-23)
(0.00878229474146 -0.0558695792663 2.14520514372e-23)
(0.00396381458321 -0.0543780647772 -1.38318307882e-21)
(0.0499454141016 -0.00188262358774 -3.79551657362e-23)
(0.0501425815068 -0.00514147530957 4.36125990123e-23)
(0.0498836127855 -0.00868445736035 -1.06353221189e-23)
(0.0494864789082 -0.0122365564434 -3.85973680116e-24)
(0.0489295156159 -0.015825552747 -2.7846255822e-25)
(0.0481875422582 -0.0194689013532 1.02739508605e-25)
(0.0472319175671 -0.0231654058642 1.51383652241e-24)
(0.0460305743139 -0.0269079102641 -1.81542883055e-24)
(0.0445493405265 -0.0306809564192 1.24698226692e-24)
(0.0427535911515 -0.0344595727282 5.96469191731e-24)
(0.0406106719592 -0.0382090260286 -2.25861330468e-24)
(0.0380925331039 -0.0418846392494 1.38239964703e-23)
(0.0351780395891 -0.0454319054144 -5.01354933742e-24)
(0.0318561201289 -0.0487879136075 3.34867594599e-23)
(0.0281284721003 -0.0518835382328 -1.40908093963e-23)
(0.0240121064807 -0.0546458114406 -8.7754754167e-24)
(0.019539258195 -0.0569933059255 8.73956913724e-24)
(0.0147473476424 -0.0588892315694 1.32076450027e-22)
(0.0097887652396 -0.0607078866245 1.14025567236e-21)
(0.00442362858107 -0.0591450936729 -1.36748582361e-21)
)
;

boundaryField
{
    back
    {
        type            noSlip;
    }
    sides
    {
        type            noSlip;
    }
    bottom
    {
        type            noSlip;
    }
    front
    {
        type            noSlip;
    }
    atmosphere
    {
        type            pressureInletOutletVelocity;
        value           nonuniform List<vector> 9((0 -0.0319714064698 0) (0 -0.0342874591826 0) (0 -0.0368463186866 0) (0 -0.0396739810305 0) (0 -0.0428010398215 0) (0 -0.0462637469809 0) (0 -0.0501053855364 0) (0 -0.0543780647772 0) (0 -0.0591450936729 0));
    }
    floatingObject
    {
        type            movingWallVelocity;
        value           nonuniform List<vector> 0();
    }
    procBoundary0to1
    {
        type            processor;
        value           nonuniform List<vector> 10((0.0178621074306 -0.0216075237538 -5.30526893835e-24) (0.0164778948225 -0.0232597094281 -2.51814482516e-25) (0.0149735090628 -0.0247864962644 -5.54012648741e-24) (0.0133554368693 -0.0261732649199 -1.14094866712e-24) (0.0116322091082 -0.0274057831071 -3.47918511674e-24) (0.00981448978188 -0.0284704403048 -3.2676277554e-24) (0.00791489859896 -0.0293517790641 2.57220602794e-25) (0.00594304344077 -0.0300391669179 3.23221352615e-23) (0.00393637961703 -0.0308149107147 -9.56156634252e-23) (0.00176534477739 -0.0298759459815 1.21831136986e-23));
    }
    procBoundary0to2
    {
        type            processor;
        value           nonuniform List<vector> 
14
(
(0.0212561969807 -0.016042463087 3.16873810765e-25)
(0.0202534068689 -0.0179849701748 2.75505760076e-24)
(0.0191215691593 -0.0198445316877 3.92626380001e-24)
(0.0250336248576 -0.0126637705732 3.38640390926e-24)
(0.0242367765584 -0.0148682296365 3.05742597865e-24)
(0.0242367765584 -0.0148682296365 3.05742597865e-24)
(0.0292094223829 -0.00134010437998 -1.90949558266e-24)
(0.0292658811084 -0.0036538568206 2.3642668906e-23)
(0.0280286547035 -0.0110224467644 3.05284426677e-24)
(0.0280286547035 -0.0110224467644 3.05284426677e-24)
(0.031518990273 -0.00649281220405 1.17584637864e-24)
(0.031518990273 -0.00649281220405 1.17584637864e-24)
(0.0310891267238 -0.00909254745442 6.45308535531e-26)
(0.0310891267238 -0.00909254745442 6.45308535531e-26)
)
;
    }
    procBoundary0to4
    {
        type            processor;
        value           nonuniform List<vector> 8((0.0534661256601 -0.00194584167785 -2.881202256e-24) (0.0537028587109 -0.00531686998964 -2.6396655631e-23) (0.0534793805755 -0.00899092717337 -1.36484366327e-23) (0.0531338031819 -0.0126901082194 -5.48989989587e-24) (0.0526393356956 -0.0164496255565 -6.45546719937e-25) (0.0519651176435 -0.0202926322311 -1.86283964514e-25) (0.0510754344695 -0.0242226510149 1.95694899171e-25) (0.0499297626742 -0.0282358768444 2.36176553953e-25));
    }
    procBoundary0to5
    {
        type            processor;
        value           nonuniform List<vector> 
12
(
(0.0484842511405 -0.0323185372283 4.33022230981e-24)
(0.0466937358459 -0.0364453896072 6.49255185215e-25)
(0.0445140285492 -0.0405783933779 -4.84355643538e-24)
(0.0419056666566 -0.0446667176438 -9.74822149278e-25)
(0.0388372462546 -0.0486468693642 -2.43291034919e-23)
(0.0352888506708 -0.0524434480397 -7.25320492388e-24)
(0.0312561421301 -0.0559719361851 -2.14858813516e-23)
(0.0267539907168 -0.0591414757995 -2.36162477289e-23)
(0.0218167937224 -0.0618501288475 1.05356010415e-24)
(0.0164884076897 -0.0640509543937 9.10922408063e-23)
(0.0109532068207 -0.0661110072473 4.17323551437e-22)
(0.00495677325107 -0.0644841549866 -1.01041627035e-21)
)
;
    }
}


// ************************************************************************* //
