/*--------------------------------*- C++ -*----------------------------------*\
| =========                 |                                                 |
| \\      /  F ield         | OpenFOAM: The Open Source CFD Toolbox           |
|  \\    /   O peration     | Version:  v2012                                 |
|   \\  /    A nd           | Website:  www.openfoam.com                      |
|    \\/     M anipulation  |                                                 |
\*---------------------------------------------------------------------------*/
FoamFile
{
    version     2.0;
    format      ascii;
    class       volScalarField;
    location    "4.4";
    object      ddt0(k);
}
// * * * * * * * * * * * * * * * * * * * * * * * * * * * * * * * * * * * * * //

dimensions      [0 2 -3 0 0 0 0];


internalField   nonuniform List<scalar> 
164
(
-0.000665935610738
-0.000830296216035
-0.000887480620127
-0.000911740376579
-0.000923170070033
-0.000927128299095
-0.000909490230383
-0.000848585150757
-0.000825536891329
-0.000804449925173
-0.000830067712095
-0.000771806841015
-0.000706065829789
-0.00073386587645
-0.000669429562198
-0.000833267194122
-0.00089095983989
-0.00091586249768
-0.000928258986417
-0.000934544489278
-0.000934340569266
-0.000925939228505
-0.00091272414345
-0.000926549387105
-0.000909974752366
-0.000872671660984
-0.000799274203027
-0.000774308064569
-0.000673490333613
-0.000837170713574
-0.000895288119937
-0.00092045300038
-0.00093316237544
-0.000941175233164
-0.000946700006729
-0.000949509000024
-0.000951461083942
-0.000953605719014
-0.000952605247473
-0.000935978978831
-0.000894148298118
-0.000826239426218
-0.000677623668222
-0.000841643711485
-0.000900133364126
-0.00092539974593
-0.000938040609196
-0.000946251121237
-0.00095322086646
-0.000959673392844
-0.000965572185187
-0.000970102697545
-0.0009712052718
-0.000962563384577
-0.00093149806206
-0.000835355843354
-0.000681657686817
-0.000846329218841
-0.000905167013085
-0.00093043765753
-0.000942836788849
-0.000950692505213
-0.00095743494692
-0.000964277328392
-0.000971125585464
-0.000976984247482
-0.000979692025784
-0.000973609040264
-0.000942016113319
-0.000826606962604
-0.000685349681782
-0.000850946254335
-0.000910110989136
-0.000935291971251
-0.000947376019622
-0.000954759095104
-0.000960907581538
-0.000967188690604
-0.000973773587629
-0.000979864710973
-0.000983255250615
-0.000977929789371
-0.000945337623923
-0.000820677279749
-0.000688532886956
-0.000855275713891
-0.000914730667637
-0.000939762841062
-0.000951482750174
-0.00095839338544
-0.000963963064219
-0.000969577332241
-0.000975537753055
-0.000981174134369
-0.000984175707593
-0.000978098890982
-0.000944506471657
-0.00081765419387
-0.000691133534469
-0.000859177968025
-0.000918865758439
-0.000943695659729
-0.000955042221554
-0.00096148925764
-0.000966535436107
-0.000971541363085
-0.000976826721294
-0.000981686083407
-0.000983502355714
-0.000975318051825
-0.000939050579171
-0.000811142287085
-0.000693199563297
-0.00086253316319
-0.000922416600609
-0.000947008601246
-0.000957964480322
-0.000963973193101
-0.000968530522188
-0.000972981402571
-0.000977597004974
-0.000981549169899
-0.000981770288057
-0.000970582161611
-0.00093080785858
-0.000805662684204
-0.000694578268971
-0.000865281089356
-0.000925323908825
-0.00094964943429
-0.000960207789909
-0.000965794919098
-0.000969906104101
-0.000973851969356
-0.000977860644587
-0.000980982616835
-0.000979721798399
-0.000965453385181
-0.000921429424493
-0.000799578769307
-0.00069541288522
-0.00086738213131
-0.000927549022345
-0.000951599567461
-0.000961769856637
-0.000966959631134
-0.00097066618126
-0.000974162452044
-0.000977660644117
-0.000980166270024
-0.000977864491846
-0.000961319106681
-0.000912994233923
-0.000790455864559
-0.000976997807258
-0.000979004801859
-0.00097609281131
-0.000957983097605
-0.000905565042628
-0.000777328462686
-0.000955465407304
-0.000900455302052
-0.000765500513714
-0.000761966541152
)
;

boundaryField
{
    back
    {
        type            calculated;
        value           nonuniform List<scalar> 
164
(
-0.000665935610738
-0.000830296216035
-0.000887480620127
-0.000911740376579
-0.000923170070033
-0.000927128299095
-0.000909490230383
-0.000848585150757
-0.000825536891329
-0.000804449925173
-0.000830067712095
-0.000771806841015
-0.000706065829789
-0.00073386587645
-0.000669429562198
-0.000833267194122
-0.00089095983989
-0.00091586249768
-0.000928258986417
-0.000934544489278
-0.000934340569266
-0.000925939228505
-0.00091272414345
-0.000926549387105
-0.000909974752366
-0.000872671660984
-0.000799274203027
-0.000774308064569
-0.000673490333613
-0.000837170713574
-0.000895288119937
-0.00092045300038
-0.00093316237544
-0.000941175233164
-0.000946700006729
-0.000949509000024
-0.000951461083942
-0.000953605719014
-0.000952605247473
-0.000935978978831
-0.000894148298118
-0.000826239426218
-0.000677623668222
-0.000841643711485
-0.000900133364126
-0.00092539974593
-0.000938040609196
-0.000946251121237
-0.00095322086646
-0.000959673392844
-0.000965572185187
-0.000970102697545
-0.0009712052718
-0.000962563384577
-0.00093149806206
-0.000835355843354
-0.000681657686817
-0.000846329218841
-0.000905167013085
-0.000930437657529
-0.000942836788849
-0.000950692505213
-0.00095743494692
-0.000964277328392
-0.000971125585464
-0.000976984247482
-0.000979692025784
-0.000973609040264
-0.000942016113319
-0.000826606962604
-0.000685349681782
-0.000850946254335
-0.000910110989136
-0.000935291971251
-0.000947376019622
-0.000954759095104
-0.000960907581538
-0.000967188690604
-0.000973773587629
-0.000979864710973
-0.000983255250615
-0.000977929789371
-0.000945337623923
-0.000820677279749
-0.000688532886956
-0.000855275713891
-0.000914730667637
-0.000939762841062
-0.000951482750174
-0.00095839338544
-0.000963963064219
-0.000969577332241
-0.000975537753055
-0.000981174134369
-0.000984175707593
-0.000978098890982
-0.000944506471657
-0.00081765419387
-0.000691133534469
-0.000859177968025
-0.000918865758439
-0.000943695659729
-0.000955042221554
-0.00096148925764
-0.000966535436107
-0.000971541363085
-0.000976826721294
-0.000981686083407
-0.000983502355714
-0.000975318051825
-0.000939050579171
-0.000811142287085
-0.000693199563297
-0.00086253316319
-0.000922416600609
-0.000947008601246
-0.000957964480322
-0.000963973193101
-0.000968530522188
-0.000972981402571
-0.000977597004974
-0.000981549169899
-0.000981770288057
-0.000970582161611
-0.00093080785858
-0.000805662684204
-0.000694578268971
-0.000865281089356
-0.000925323908825
-0.00094964943429
-0.000960207789909
-0.000965794919097
-0.000969906104102
-0.000973851969356
-0.000977860644587
-0.000980982616835
-0.000979721798399
-0.000965453385181
-0.000921429424493
-0.000799578769307
-0.00069541288522
-0.000867382131309
-0.000927549022345
-0.000951599567461
-0.000961769856637
-0.000966959631134
-0.00097066618126
-0.000974162452044
-0.000977660644117
-0.000980166270024
-0.000977864491846
-0.000961319106681
-0.000912994233923
-0.000790455864559
-0.000976997807258
-0.000979004801859
-0.00097609281131
-0.000957983097605
-0.000905565042628
-0.000777328462686
-0.000955465407304
-0.000900455302052
-0.000765500513714
-0.000761966541152
)
;
    }
    sides
    {
        type            calculated;
        value           nonuniform List<scalar> 0();
    }
    bottom
    {
        type            calculated;
        value           nonuniform List<scalar> 
11
(
-0.000665935610738
-0.000669429562198
-0.000673490333613
-0.000677623668222
-0.000681657686817
-0.000685349681782
-0.000688532886956
-0.000691133534469
-0.000693199563297
-0.000694578268971
-0.00069541288522
)
;
    }
    front
    {
        type            calculated;
        value           nonuniform List<scalar> 
164
(
-0.000665935610738
-0.000830296216035
-0.000887480620127
-0.000911740376579
-0.000923170070033
-0.000927128299095
-0.000909490230383
-0.000848585150757
-0.000825536891329
-0.000804449925173
-0.000830067712095
-0.000771806841015
-0.000706065829789
-0.00073386587645
-0.000669429562198
-0.000833267194122
-0.00089095983989
-0.00091586249768
-0.000928258986417
-0.000934544489278
-0.000934340569266
-0.000925939228505
-0.00091272414345
-0.000926549387105
-0.000909974752366
-0.000872671660984
-0.000799274203027
-0.000774308064569
-0.000673490333613
-0.000837170713574
-0.000895288119937
-0.00092045300038
-0.00093316237544
-0.000941175233164
-0.000946700006729
-0.000949509000024
-0.000951461083942
-0.000953605719014
-0.000952605247473
-0.000935978978831
-0.000894148298118
-0.000826239426218
-0.000677623668222
-0.000841643711485
-0.000900133364126
-0.00092539974593
-0.000938040609196
-0.000946251121237
-0.00095322086646
-0.000959673392844
-0.000965572185187
-0.000970102697545
-0.0009712052718
-0.000962563384577
-0.00093149806206
-0.000835355843354
-0.000681657686817
-0.000846329218841
-0.000905167013085
-0.000930437657529
-0.000942836788849
-0.000950692505213
-0.00095743494692
-0.000964277328392
-0.000971125585464
-0.000976984247482
-0.000979692025784
-0.000973609040264
-0.000942016113319
-0.000826606962604
-0.000685349681782
-0.000850946254335
-0.000910110989136
-0.000935291971251
-0.000947376019622
-0.000954759095104
-0.000960907581538
-0.000967188690604
-0.000973773587629
-0.000979864710973
-0.000983255250615
-0.000977929789371
-0.000945337623923
-0.000820677279749
-0.000688532886956
-0.000855275713891
-0.000914730667637
-0.000939762841062
-0.000951482750174
-0.00095839338544
-0.000963963064219
-0.000969577332241
-0.000975537753055
-0.000981174134369
-0.000984175707593
-0.000978098890982
-0.000944506471657
-0.00081765419387
-0.000691133534469
-0.000859177968025
-0.000918865758439
-0.000943695659729
-0.000955042221554
-0.00096148925764
-0.000966535436107
-0.000971541363085
-0.000976826721294
-0.000981686083407
-0.000983502355714
-0.000975318051825
-0.000939050579171
-0.000811142287085
-0.000693199563297
-0.00086253316319
-0.000922416600609
-0.000947008601246
-0.000957964480322
-0.000963973193101
-0.000968530522188
-0.000972981402571
-0.000977597004974
-0.000981549169899
-0.000981770288057
-0.000970582161611
-0.00093080785858
-0.000805662684204
-0.000694578268971
-0.000865281089356
-0.000925323908825
-0.00094964943429
-0.000960207789909
-0.000965794919097
-0.000969906104102
-0.000973851969356
-0.000977860644587
-0.000980982616835
-0.000979721798399
-0.000965453385181
-0.000921429424493
-0.000799578769307
-0.00069541288522
-0.000867382131309
-0.000927549022345
-0.000951599567461
-0.000961769856637
-0.000966959631134
-0.00097066618126
-0.000974162452044
-0.000977660644117
-0.000980166270024
-0.000977864491846
-0.000961319106681
-0.000912994233923
-0.000790455864559
-0.000976997807258
-0.000979004801859
-0.00097609281131
-0.000957983097605
-0.000905565042628
-0.000777328462686
-0.000955465407304
-0.000900455302052
-0.000765500513714
-0.000761966541152
)
;
    }
    atmosphere
    {
        type            calculated;
        value           nonuniform List<scalar> 0();
    }
    floatingObject
    {
        type            calculated;
        value           nonuniform List<scalar> 4(-0.000825536891329 -0.000804449925173 -0.000830067712095 -0.000771806841015);
    }
    procBoundary8to3
    {
        type            processor;
        value           nonuniform List<scalar> 8(-0.000663148011093 -0.000828235373197 -0.000885212553132 -0.000908861918323 -0.000917342463548 -0.000910692770501 -0.000875426953666 -0.000775884493307);
    }
    procBoundary8to6
    {
        type            processor;
        value           nonuniform List<scalar> 
16
(
-0.000727397430112
-0.000853697502347
-0.000593731057817
-0.000564269519327
-0.000543923460114
-0.000489004376001
-0.000420479378534
-0.00037037423692
-0.000343450479239
-0.000330231485506
-0.00034032855699
-0.000361818960545
-0.000374789897004
-0.00036781245023
-0.000351749839557
-0.000345324247822
)
;
    }
    procBoundary8to7
    {
        type            processor;
        value           nonuniform List<scalar> 
17
(
-0.000695640973775
-0.000868841153784
-0.000929086860394
-0.000952853505361
-0.000962651437233
-0.000967474973941
-0.000970823585188
-0.000973937792411
-0.000973937792411
-0.000975887283029
-0.000977524419845
-0.000974214365478
-0.000974214365478
-0.000954408457619
-0.000899561600049
-0.000899561600049
-0.000770630240637
)
;
    }
}


// ************************************************************************* //
