/*--------------------------------*- C++ -*----------------------------------*\
| =========                 |                                                 |
| \\      /  F ield         | OpenFOAM: The Open Source CFD Toolbox           |
|  \\    /   O peration     | Version:  v2012                                 |
|   \\  /    A nd           | Website:  www.openfoam.com                      |
|    \\/     M anipulation  |                                                 |
\*---------------------------------------------------------------------------*/
FoamFile
{
    version     2.0;
    format      ascii;
    class       volScalarField;
    location    "4.4";
    object      epsilon;
}
// * * * * * * * * * * * * * * * * * * * * * * * * * * * * * * * * * * * * * //

dimensions      [0 2 -3 0 0 0 0];


internalField   nonuniform List<scalar> 
164
(
0.000758468136108
0.000797426274795
0.000878068122515
0.000910425801535
0.00092083206489
0.000912839394239
0.000876476200052
0.000804353219719
0.000954393734805
0.000959231094464
0.00100896501442
0.00118443459926
0.00112745261883
0.00149599430057
0.000765256593885
0.000802904321331
0.00088409487399
0.000917926110062
0.000932570735357
0.000936856564421
0.000932331105945
0.000921572043492
0.000917008170084
0.00093299242751
0.000954484733621
0.000994813965523
0.00111396254397
0.00137342149011
0.000772598058982
0.000809069140346
0.000890700791086
0.000925347208005
0.000942185072288
0.000951966570677
0.000958492556445
0.000964313627502
0.000974124670456
0.000990373687443
0.00101003824672
0.00104054552481
0.0011163273581
0.00131610633012
0.000780154650413
0.000815696888883
0.000897691509318
0.000932644350233
0.000950204301972
0.000961740919263
0.000971554701466
0.000981578647494
0.000993695646701
0.00100889257144
0.00102761349982
0.00105560380241
0.00111625867721
0.00128175757264
0.000787773160967
0.000822527802427
0.000904845565245
0.000939817205525
0.000957366554814
0.000969092928464
0.000979448890166
0.000990156754089
0.00100213297595
0.00101604803161
0.00103307395181
0.00105844546328
0.00111175748548
0.00125859668186
0.000795197239589
0.000829347215938
0.000911972341689
0.000946802900951
0.000964040973674
0.000975388696447
0.000985344644338
0.000995606510741
0.00100685968001
0.0010196356438
0.00103524273341
0.00105882624323
0.00110866698799
0.00124526162545
0.000802213767182
0.000835971758311
0.000918898666776
0.000953520012347
0.000970314118835
0.000981119828944
0.000990439408022
0.000999978075365
0.00101039886049
0.00102224106717
0.00103702824191
0.00106029133597
0.00111052546069
0.00124517864721
0.000808695878212
0.000842258116156
0.000925482221662
0.000959868470226
0.000976189388974
0.000986411100829
0.000995086831335
0.001003909728
0.0010135669643
0.00102468108188
0.00103908521448
0.00106313912216
0.00111665993577
0.00125636342787
0.000814706492084
0.000848123683894
0.000931640095361
0.000965783365308
0.000981637400392
0.000991300041877
0.000999367946929
0.0010075517189
0.0010165508045
0.00102706879475
0.00104121060559
0.00106609526428
0.00112267963083
0.00126639339377
0.000820060963728
0.00085350445816
0.000937308725556
0.000971212969916
0.000986621213626
0.000995768204085
0.00100328826053
0.00101090560346
0.00101932475373
0.00102926360247
0.00104291648934
0.00106763281776
0.00112458710209
0.00126696238535
0.00082487893303
0.000858366983499
0.000942445891926
0.000976122533028
0.000991112853114
0.000999788825776
0.00100682090424
0.0010139361871
0.00102184174098
0.00103122263726
0.00104420956208
0.00106800827409
0.00112348839353
0.00126216242605
0.00102405380379
0.00103294419241
0.00104530019285
0.00106812535738
0.00112198723383
0.00125777436064
0.0010678497037
0.00111941860254
0.00125052023109
0.00123504270427
)
;

boundaryField
{
    back
    {
        lowReCorrection 0;
        blending        stepwise;
        n               2;
        type            epsilonWallFunction;
        value           nonuniform List<scalar> 
164
(
0.000758468136108
0.000797426274795
0.000878068122515
0.000910425801535
0.00092083206489
0.000912839394239
0.000876476200052
0.000804353219719
0.000954393734805
0.000959231094464
0.00100896501442
0.00118443459926
0.00112745261883
0.00149599430057
0.000765256593885
0.000802904321331
0.00088409487399
0.000917926110062
0.000932570735357
0.000936856564421
0.000932331105945
0.000921572043492
0.000917008170084
0.00093299242751
0.000954484733621
0.000994813965523
0.00111396254397
0.00137342149011
0.000772598058982
0.000809069140346
0.000890700791086
0.000925347208005
0.000942185072288
0.000951966570677
0.000958492556445
0.000964313627502
0.000974124670456
0.000990373687443
0.00101003824672
0.00104054552481
0.0011163273581
0.00131610633012
0.000780154650413
0.000815696888883
0.000897691509318
0.000932644350233
0.000950204301972
0.000961740919263
0.000971554701466
0.000981578647494
0.000993695646701
0.00100889257144
0.00102761349982
0.00105560380241
0.00111625867721
0.00128175757264
0.000787773160967
0.000822527802427
0.000904845565245
0.000939817205525
0.000957366554814
0.000969092928464
0.000979448890166
0.000990156754089
0.00100213297595
0.00101604803161
0.00103307395181
0.00105844546328
0.00111175748548
0.00125859668186
0.000795197239589
0.000829347215938
0.000911972341689
0.000946802900951
0.000964040973674
0.000975388696447
0.000985344644338
0.000995606510741
0.00100685968001
0.0010196356438
0.00103524273341
0.00105882624323
0.00110866698799
0.00124526162545
0.000802213767182
0.000835971758311
0.000918898666776
0.000953520012347
0.000970314118835
0.000981119828944
0.000990439408022
0.000999978075365
0.00101039886049
0.00102224106717
0.00103702824191
0.00106029133597
0.00111052546069
0.00124517864721
0.000808695878212
0.000842258116156
0.000925482221662
0.000959868470226
0.000976189388974
0.000986411100829
0.000995086831335
0.001003909728
0.0010135669643
0.00102468108188
0.00103908521448
0.00106313912216
0.00111665993577
0.00125636342787
0.000814706492084
0.000848123683894
0.000931640095361
0.000965783365308
0.000981637400392
0.000991300041877
0.000999367946929
0.0010075517189
0.0010165508045
0.00102706879475
0.00104121060559
0.00106609526428
0.00112267963083
0.00126639339377
0.000820060963728
0.00085350445816
0.000937308725556
0.000971212969916
0.000986621213626
0.000995768204085
0.00100328826053
0.00101090560346
0.00101932475373
0.00102926360247
0.00104291648934
0.00106763281776
0.00112458710209
0.00126696238535
0.00082487893303
0.000858366983499
0.000942445891926
0.000976122533028
0.000991112853114
0.000999788825776
0.00100682090424
0.0010139361871
0.00102184174098
0.00103122263726
0.00104420956208
0.00106800827409
0.00112348839353
0.00126216242605
0.00102405380379
0.00103294419241
0.00104530019285
0.00106812535738
0.00112198723383
0.00125777436064
0.0010678497037
0.00111941860254
0.00125052023109
0.00123504270427
)
;
    }
    sides
    {
        lowReCorrection 0;
        blending        stepwise;
        n               2;
        type            epsilonWallFunction;
        value           nonuniform List<scalar> 0();
    }
    bottom
    {
        lowReCorrection 0;
        blending        stepwise;
        n               2;
        type            epsilonWallFunction;
        value           nonuniform List<scalar> 
11
(
0.000758468136108
0.000765256593885
0.000772598058982
0.000780154650413
0.000787773160967
0.000795197239589
0.000802213767182
0.000808695878212
0.000814706492084
0.000820060963728
0.00082487893303
)
;
    }
    front
    {
        lowReCorrection 0;
        blending        stepwise;
        n               2;
        type            epsilonWallFunction;
        value           nonuniform List<scalar> 
164
(
0.000758468136108
0.000797426274795
0.000878068122515
0.000910425801535
0.00092083206489
0.000912839394239
0.000876476200052
0.000804353219719
0.000954393734805
0.000959231094464
0.00100896501442
0.00118443459926
0.00112745261883
0.00149599430057
0.000765256593885
0.000802904321331
0.00088409487399
0.000917926110062
0.000932570735357
0.000936856564421
0.000932331105945
0.000921572043492
0.000917008170084
0.00093299242751
0.000954484733621
0.000994813965523
0.00111396254397
0.00137342149011
0.000772598058982
0.000809069140346
0.000890700791086
0.000925347208005
0.000942185072288
0.000951966570677
0.000958492556445
0.000964313627502
0.000974124670456
0.000990373687443
0.00101003824672
0.00104054552481
0.0011163273581
0.00131610633012
0.000780154650413
0.000815696888883
0.000897691509318
0.000932644350233
0.000950204301972
0.000961740919263
0.000971554701466
0.000981578647494
0.000993695646701
0.00100889257144
0.00102761349982
0.00105560380241
0.00111625867721
0.00128175757264
0.000787773160967
0.000822527802427
0.000904845565245
0.000939817205525
0.000957366554814
0.000969092928464
0.000979448890166
0.000990156754089
0.00100213297595
0.00101604803161
0.00103307395181
0.00105844546328
0.00111175748548
0.00125859668186
0.000795197239589
0.000829347215938
0.000911972341689
0.000946802900951
0.000964040973674
0.000975388696447
0.000985344644338
0.000995606510741
0.00100685968001
0.0010196356438
0.00103524273341
0.00105882624323
0.00110866698799
0.00124526162545
0.000802213767182
0.000835971758311
0.000918898666776
0.000953520012347
0.000970314118835
0.000981119828944
0.000990439408022
0.000999978075365
0.00101039886049
0.00102224106717
0.00103702824191
0.00106029133597
0.00111052546069
0.00124517864721
0.000808695878212
0.000842258116156
0.000925482221662
0.000959868470226
0.000976189388974
0.000986411100829
0.000995086831335
0.001003909728
0.0010135669643
0.00102468108188
0.00103908521448
0.00106313912216
0.00111665993577
0.00125636342787
0.000814706492084
0.000848123683894
0.000931640095361
0.000965783365308
0.000981637400392
0.000991300041877
0.000999367946929
0.0010075517189
0.0010165508045
0.00102706879475
0.00104121060559
0.00106609526428
0.00112267963083
0.00126639339377
0.000820060963728
0.00085350445816
0.000937308725556
0.000971212969916
0.000986621213626
0.000995768204085
0.00100328826053
0.00101090560346
0.00101932475373
0.00102926360247
0.00104291648934
0.00106763281776
0.00112458710209
0.00126696238535
0.00082487893303
0.000858366983499
0.000942445891926
0.000976122533028
0.000991112853114
0.000999788825776
0.00100682090424
0.0010139361871
0.00102184174098
0.00103122263726
0.00104420956208
0.00106800827409
0.00112348839353
0.00126216242605
0.00102405380379
0.00103294419241
0.00104530019285
0.00106812535738
0.00112198723383
0.00125777436064
0.0010678497037
0.00111941860254
0.00125052023109
0.00123504270427
)
;
    }
    atmosphere
    {
        type            inletOutlet;
        inletValue      nonuniform List<scalar> 0();
        value           nonuniform List<scalar> 0();
    }
    floatingObject
    {
        lowReCorrection 0;
        blending        stepwise;
        n               2;
        type            epsilonWallFunction;
        value           nonuniform List<scalar> 4(0.000954393734805 0.000959231094464 0.00100896501442 0.00118443459926);
    }
    procBoundary8to3
    {
        type            processor;
        value           nonuniform List<scalar> 8(0.000752522520573 0.000792899948291 0.000873060099257 0.000903767550868 0.000910160036308 0.000894059068909 0.000837805103015 0.0008849219612);
    }
    procBoundary8to6
    {
        type            processor;
        value           nonuniform List<scalar> 
16
(
0.00151700371073
0.00171980746481
0.00218342021149
0.0019832052524
0.00186490952156
0.00178347517317
0.00172325339788
0.0016749930929
0.0016520984722
0.00165579883842
0.00165383006909
0.00163572642621
0.00161450487832
0.00160062106919
0.00158175471169
0.00154456635573
)
;
    }
    procBoundary8to7
    {
        type            processor;
        value           nonuniform List<scalar> 
17
(
0.000829081558212
0.000862692042255
0.000947031397373
0.00098049479176
0.000995097576323
0.00100334619728
0.00100994372136
0.00101661299378
0.00101661299378
0.00102594700361
0.0010343764468
0.00104612930621
0.00104612930621
0.00106659094294
0.00111391007794
0.00111391007794
0.00121205496827
)
;
    }
}


// ************************************************************************* //
