/*--------------------------------*- C++ -*----------------------------------*\
| =========                 |                                                 |
| \\      /  F ield         | OpenFOAM: The Open Source CFD Toolbox           |
|  \\    /   O peration     | Version:  v2012                                 |
|   \\  /    A nd           | Website:  www.openfoam.com                      |
|    \\/     M anipulation  |                                                 |
\*---------------------------------------------------------------------------*/
FoamFile
{
    version     2.0;
    format      ascii;
    class       surfaceScalarField;
    location    "2.4";
    object      alphaPhi0.water;
}
// * * * * * * * * * * * * * * * * * * * * * * * * * * * * * * * * * * * * * //

dimensions      [0 3 -1 0 0 0 0];
oriented        oriented;


internalField   nonuniform List<scalar> 
293
(
-0.00033817651547
-0.00047947758592
-0.000542552724683
-0.000305693643667
-0.000691649196014
-0.000272367595787
-0.000813427524304
-0.000314952504674
-0.000959984525565
-0.000317360405078
-3.63844900546e-05
-7.24956288111e-05
-2.84415104067e-06
-1.63916276324e-05
-4.42208990223e-10
-0.000479517435304
-5.41251896162e-09
-0.000785240810588
-2.15891275694e-08
-0.00105760867223
-5.40547804275e-08
-0.00137243335302
-1.13778010894e-07
-0.00157772069598
-1.66207373564e-07
0.0001470904806
-9.32610079141e-08
-8.55828977086e-06
1.13267321758e-08
-4.37404571891e-10
-0.000479541552014
0.000479490926817
-0.000785297472464
0.000305688520979
-0.0010577309355
0.000272334217641
-0.0013727613329
0.00031492922987
-0.00157859542956
0.00031740833402
0.000146816413507
7.25627040947e-05
-8.58939947304e-06
1.65088434601e-05
4.3146999922e-10
-0.000338261615013
-0.000542695798287
-0.000691868354764
0.000421461015324
-0.000813737915046
0.000436766993881
-0.000960413124381
0.000466708686316
-3.66808616071e-05
0.000264018164987
-2.84914031445e-06
2.22610981184e-06
1.52448166931e-10
-0.000545876260358
0.00046927300072
-0.000593271034138
0.000484100479747
-0.000614898994099
0.000488360644401
-1.26614938886e-06
0.000255723908783
-3.34236972467e-10
3.93102898767e-08
-9.2982211257e-11
-0.000447923591095
0.000473609052085
-0.000433428171908
0.000469563341216
-0.000316175321048
0.000378402953143
-4.4892077442e-07
0.000123626538382
-3.41096489178e-09
3.09408662289e-09
-1.38755479185e-11
-0.000357683043379
0.000474656274156
-0.000380957499148
0.000492807214726
-0.000374875250594
0.000410001571185
-2.83964387866e-08
0.00011101309676
-2.08775888046e-07
-4.44450693199e-09
-2.78377567966e-09
-0.000324801356425
0.000489360772125
-0.000363702393107
0.000531682465057
-0.000382553845219
0.000490145125098
-1.42416146936e-06
0.000151079009102
-9.41707166382e-07
-1.97691687487e-08
-2.07938336705e-08
-0.000259918079177
0.000489689301629
-0.000282097597806
0.000553846156953
-0.000321148300583
0.000588361923047
-1.53397504692e-06
0.000231755090519
-1.63581396566e-06
-3.66053711559e-09
2.85642377146e-08
-0.000185915459345
0.000473714308744
-0.000185467237075
0.000553398331884
-0.000197044272241
0.000638706222298
-3.9672050436e-08
0.000288028056326
-2.85642503584e-08
1.34238717507e-10
8.72045022662e-18
-0.000139181329239
0.000452887212918
-0.000113910254304
0.000528146581234
-7.88003221848e-05
0.000617951139978
-2.29538545347e-09
0.000298654420176
-7.87604551561e-18
-4.06907311444e-09
8.28316406103e-20
-9.37719143868e-05
0.000429020659882
-6.60313307322e-05
0.000500424700584
-1.61400298473e-05
0.00057192050929
3.47292681684e-06
0.000264249618454
3.88963245647e-08
2.00043951561e-07
3.89162621616e-08
-9.65248630894e-05
0.000412003950637
-4.65311673953e-05
0.000450449139375
1.79982373552e-05
0.000499429502026
2.34528217809e-06
0.000277936447383
-6.83229176892e-08
2.73395213443e-06
1.99971158617e-09
-6.39369354404e-05
0.000395179023913
-3.12827502186e-05
0.000417811559537
2.0575644924e-05
0.000445643655388
8.2722695665e-06
0.000247835253774
-4.80211960519e-08
3.79629294641e-06
-1.29633329233e-09
-3.02444112684e-05
0.000372642997059
2.50312037588e-06
0.000385079240961
5.13587227192e-05
0.000384909952594
9.20106801723e-06
0.00017617652563
-1.59832931013e-07
8.75355487132e-07
-1.82143508914e-08
-2.96216091547e-05
0.00035582526539
3.78628488503e-06
0.000351686959596
4.46918239301e-05
0.000328965632989
-4.38507308764e-07
0.000115748870052
1.93180235795e-08
3.74845545434e-07
-3.73553130274e-10
-4.40552356587e-05
0.000347125464591
-1.86382038734e-05
0.000326285701809
1.41364486737e-05
0.000284918980011
5.79820905763e-07
9.74274077505e-05
1.29079774087e-08
9.45222607054e-07
1.69890164272e-09
-5.73275124959e-05
0.000356984655732
-5.92533666873e-05
0.000328228824144
-2.39698573993e-05
0.00025840746208
-9.64654358153e-07
8.12459718738e-05
-4.80764691411e-08
2.87039897695e-08
7.74785870601e-10
-5.39840843317e-05
0.000375311955341
-7.62602446482e-05
0.00035051774065
-6.99328178262e-05
0.000267410826134
-1.89906960802e-07
7.71229609201e-05
-1.6212748036e-07
9.23888606307e-10
7.97908317271e-10
-2.07737725054e-05
0.000383973785278
-3.88756965527e-05
0.000368628862345
-5.79236231466e-05
0.000296773038489
-1.6320291417e-09
0.000100646319478
-7.18846124518e-10
9.69779782406e-12
7.89708801483e-11
2.20201772202e-05
0.000379048433346
1.66341722318e-05
0.000374023691088
-7.17814912562e-06
0.000322916728418
-7.62311594114e-10
0.000131191842368
-7.34329593616e-11
-6.75854153979e-10
5.88038821595e-12
5.17430334435e-05
0.000366599008736
5.87434068973e-05
0.000367031985926
3.63754909511e-05
0.000335893711425
4.01328020929e-07
0.000145603152053
-9.23391174541e-10
-4.43057288557e-08
-3.15496802992e-10
6.51438077294e-05
0.000354715788169
7.45733103471e-05
0.000357612104415
6.09167959347e-05
0.000333667655689
2.47296147036e-06
0.000152159736394
4.15014207517e-10
-5.52251805309e-08
2.41480575636e-10
7.06832554764e-05
7.67162167541e-05
6.9654199652e-05
0.000331476371502
3.38976651996e-06
0.00015719262248
1.79238141984e-09
7.70342132858e-08
1.55120233368e-09
6.51607765244e-05
0.000338892998432
4.10771428247e-06
0.000162201742623
1.9412281943e-08
6.37500594884e-08
4.82009069583e-09
6.15925827004e-05
0.000356150433049
5.10462747227e-06
0.00017119599527
-3.52522809431e-09
-1.0779935233e-06
-2.90145807483e-10
8.33292001617e-05
6.27559749532e-06
2.89488738633e-10
)
;

boundaryField
{
    back
    {
        type            calculated;
        value           uniform 0;
    }
    sides
    {
        type            calculated;
        value           nonuniform List<scalar> 0();
    }
    bottom
    {
        type            calculated;
        value           nonuniform List<scalar> 0();
    }
    front
    {
        type            calculated;
        value           uniform 0;
    }
    atmosphere
    {
        type            calculated;
        value           nonuniform List<scalar> 
27
(
-2.843844841e-06
-5.58740620209e-06
-5.60937895682e-06
-2.84886081276e-06
-8.91927092311e-11
-3.49696837668e-09
-2.06005985248e-07
-9.23697108109e-07
-1.68517204261e-06
-1.19236517858e-51
-1.43093439026e-52
-1.99463357639e-11
-3.13796701024e-08
-4.41304214863e-08
-1.40347128961e-07
9.26302535989e-10
1.08355292527e-08
-4.71579199876e-08
-1.62146153678e-07
-7.98426556685e-42
0
-6.51267857353e-10
2.29936778094e-35
-2.77971215213e-09
1.8601197198e-09
1.58889749501e-09
-1.03387930599e-12
)
;
    }
    floatingObject
    {
        type            calculated;
        value           uniform 0;
    }
    procBoundary6to3
    {
        type            processor;
        value           nonuniform List<scalar> 8(0.000817591857492 0.00051000335635 0.000421399245127 0.000436679041788 0.000466570688819 0.000263943838163 2.21156347613e-06 1.47381190752e-10);
    }
    procBoundary6to7
    {
        type            processor;
        value           nonuniform List<scalar> 
11
(
3.56763330068e-05
1.21357383305e-05
-1.70700077884e-05
-3.9267080051e-05
-5.32358214724e-05
-6.26744902449e-05
0.000346731592804
0.000351587706166
-7.5258282964e-05
-8.02439255057e-05
-9.61670370328e-05
)
;
    }
    procBoundary6to8
    {
        type            processor;
        value           nonuniform List<scalar> 
16
(
0.000817703496534
0.000510077047089
0.000497999860838
0.000443537675281
0.000356602106056
0.000310071001197
0.000259576923442
0.000201900174511
0.000160026723287
0.000117658842273
0.000113562991834
8.07818813574e-05
5.2800949821e-05
4.64544057344e-05
5.27700707571e-05
4.7491149651e-05
)
;
    }
    procBoundary6to9
    {
        type            processor;
        value           nonuniform List<scalar> 4(0.000368988862341 0.000196665320265 -2.80175065354e-06 3.767479582e-13);
    }
}


// ************************************************************************* //
