/*--------------------------------*- C++ -*----------------------------------*\
| =========                 |                                                 |
| \\      /  F ield         | OpenFOAM: The Open Source CFD Toolbox           |
|  \\    /   O peration     | Version:  v2012                                 |
|   \\  /    A nd           | Website:  www.openfoam.com                      |
|    \\/     M anipulation  |                                                 |
\*---------------------------------------------------------------------------*/
FoamFile
{
    version     2.0;
    format      ascii;
    class       surfaceVectorField;
    location    "3.3";
    object      Uf_0;
}
// * * * * * * * * * * * * * * * * * * * * * * * * * * * * * * * * * * * * * //

dimensions      [0 1 -1 0 0 0 0];


internalField   nonuniform List<vector> 
293
(
(0.0155006071431 0.0168648011829 6.17849953313e-18)
(-0.00427620427915 0.000657724989155 5.63245076694e-18)
(0.0239940350028 0.0327678585441 4.42761779497e-18)
(0.00982785490704 0.015322686778 4.83322894255e-18)
(0.0300038843726 0.0467630653044 2.80071089926e-18)
(0.0163952257043 0.0240656208001 3.21556140086e-18)
(0.0322745061484 0.0600626966055 1.89143967165e-18)
(0.0235523750781 0.045963868559 2.29484784653e-18)
(0.0268980398804 0.0748757386756 1.48444179763e-18)
(0.0212058840045 0.0611200247621 1.75698504079e-18)
(0.0145043202383 0.0893299969582 1.37586642202e-18)
(0.0157345127112 0.0858040592746 1.63151349225e-18)
(-0.040081214306 0.0857030439983 1.23101106766e-18)
(0.010321566339 0.0905785732206 1.56416850571e-18)
(-0.0183231850814 0.045111801234 1.36175697191e-18)
(-0.00734516354512 -0.00412190391585 4.28718017636e-18)
(-0.000153097363539 -0.0116153346819 4.38940193956e-18)
(0.00539253988566 0.00592005060179 3.62117254844e-18)
(-0.000213026692756 0.00376542801161 4.20120887218e-18)
(0.0129105822755 0.0227285149696 2.70969834813e-18)
(-0.00041236568825 0.0103802920079 3.07306030722e-18)
(0.0153475910372 0.0470997386305 2.16039321567e-18)
(-0.000818383969939 0.0355444701447 2.39228013925e-18)
(0.0123093107426 0.0700421660638 1.90405673541e-18)
(-0.00173649927685 0.0571703494706 1.98409630193e-18)
(0.0116775065671 0.0849624095539 1.81981557594e-18)
(0.00081397033533 0.0843770643539 1.89561523755e-18)
(0.0421300405984 0.0783532320653 1.69491440996e-18)
(0.0169561937784 0.0841380621321 1.82051170752e-18)
(0.109850555201 -0.0677198923013 1.60315761304e-18)
(0.0070017483816 -0.00423561220858 4.30343063537e-18)
(0.00408292512296 0.000532372338063 5.64975296307e-18)
(-0.00597410005058 0.00568117454825 3.65309663096e-18)
(-0.0101294291242 0.0149952966509 4.85776807192e-18)
(-0.0140619783239 0.0222788720279 2.75564209835e-18)
(-0.0170099396396 0.0234237864725 3.25239050507e-18)
(-0.017769104105 0.0463751816518 2.21598322551e-18)
(-0.0249147287686 0.0447575622298 2.33410575877e-18)
(-0.0130657403238 0.0688659992063 1.97565480407e-18)
(-0.0242275006201 0.0593797943675 1.80140557679e-18)
(0.00654283173722 0.0847653156266 1.89631136913e-18)
(-0.0150855839683 0.0835321730175 1.68741704056e-18)
(0.168063190373 0.0753317013758 1.7287549106e-18)
(0.0264358390091 0.0848528719058 1.6240634841e-18)
(0.530682116371 -0.123084132956 1.45627772454e-18)
(-0.0155728095664 0.0165590306606 6.20409039962e-18)
(-0.0242048809095 0.032123772771 4.45706194604e-18)
(-0.0305598341666 0.0455243069242 2.83085416549e-18)
(-0.0304107564147 0.0537813433887 3.30146942336e-18)
(-0.0336524896749 0.0577665599126 1.91952811004e-18)
(-0.0371572343896 0.064075660877 2.011854083e-18)
(-0.0273735164385 0.0706258343392 1.51316781328e-18)
(-0.0370869418705 0.0666831433245 1.33565395058e-18)
(0.00291524944873 0.0860853755718 1.41516915553e-18)
(-0.030545072211 0.0828136779733 1.15631397388e-18)
(0.4836294402 0.104358368321 1.35158629804e-18)
(0.00814729811809 0.0873439382884 1.06782261916e-18)
(0.938489852556 0.311951906872 1.01480645397e-18)
(-0.0352083962602 0.0714318321741 2.48246934086e-18)
(-0.0275831542934 0.0755915254213 2.90851440225e-18)
(-0.0398213160526 0.0720552474755 1.42797992354e-18)
(-0.037780710234 0.0799065386239 1.42246828406e-18)
(-0.0383717963892 0.0755063500413 9.78800111179e-19)
(-0.0405380069462 0.0765755205765 8.15534882066e-19)
(-0.0223510387793 0.0817536230039 8.0896743751e-19)
(-0.036791363869 0.0868865346152 6.40632224029e-19)
(0.0979709636034 0.116709651484 7.31042775093e-19)
(-0.0268902719521 0.0952103151608 5.42341172613e-19)
(-0.254353778387 0.611089450746 5.08832269035e-19)
(-0.031731249894 0.0818261702118 1.84851334545e-18)
(-0.0286537490644 0.0830805294954 1.77913109447e-18)
(-0.0399741277296 0.0834151060575 8.1002324259e-19)
(-0.0393691430049 0.08969608351 7.0053006534e-19)
(-0.0419997905858 0.0855749379049 4.77366994915e-19)
(-0.0426975091531 0.0851946893008 3.53009909356e-19)
(-0.0494117347209 0.0932543085441 3.74005959131e-19)
(-0.0444700901073 0.0945897283796 2.57353636581e-19)
(-0.312597451244 0.131579047823 3.20130666555e-19)
(-0.0652817198857 0.104292315701 2.19282987918e-19)
(-0.978740026636 0.115936222575 2.20724735475e-19)
(-0.0359583868618 0.0882056229475 6.31147814362e-19)
(-0.033775910873 0.0870504544768 5.47770799588e-19)
(-0.0420861436716 0.0910071530179 2.43516732106e-19)
(-0.0421694246044 0.0952561996333 1.79634855326e-19)
(-0.0459691815448 0.0928968228961 1.32996551022e-19)
(-0.0445865963449 0.0902190422132 7.74330367507e-20)
(-0.0587780941454 0.0998596164298 1.02630665367e-19)
(-0.0514329697158 0.0994517995746 4.75325674395e-20)
(-0.402353567487 0.105655517256 1.19877056838e-19)
(-0.0710638550398 0.10171348316 3.36377122131e-20)
(-0.259346186313 -0.250017661241 7.4198327754e-20)
(-0.040650363257 0.0911592331291 9.62578405518e-20)
(-0.0404230170766 0.0879400289618 8.77878031667e-20)
(-0.0444828647687 0.0950519215946 1.35511599699e-20)
(-0.0460601405313 0.0978618897424 4.52878650335e-21)
(-0.0481645512553 0.0963385490605 -8.03094683154e-21)
(-0.0458723701084 0.0934369005079 -1.94790742486e-20)
(-0.0531321670967 0.0966156488823 -2.14603857147e-20)
(-0.0517099068319 0.103047231122 -2.47880233207e-20)
(-0.0494909708037 0.063732912678 -1.20410168704e-20)
(-0.0381645906549 0.10035176142 -4.46558840399e-20)
(0.260766810216 -0.268359723377 4.15134673444e-21)
(-0.0467216504198 0.091662556909 -3.94125088169e-21)
(-0.04880976149 0.0866195831076 4.01721365275e-21)
(-0.0481173415313 0.0976813943669 -2.85014477151e-20)
(-0.052076437529 0.0982237912401 -2.22624334626e-20)
(-0.0499682230359 0.101292724374 -3.62361507378e-20)
(-0.0494826101392 0.0963077631845 -4.2151674962e-20)
(-0.0325870496228 0.104497306508 -4.7983521646e-20)
(-0.0549141027002 0.106384832183 -4.87179006471e-20)
(0.351421280977 0.0605933900264 -2.84635204351e-20)
(0.00573878429951 0.109080473075 -5.87494330122e-20)
(0.953068752148 0.204167191572 -2.70977290169e-20)
(-0.0550292588314 0.0902056091823 -1.43039689281e-20)
(-0.058413403194 0.0832645422459 -8.75560858888e-21)
(-0.0548907479845 0.0981397372346 -3.59126607095e-20)
(-0.0600076029817 0.0956426774354 -3.70038338569e-20)
(-0.0571205922386 0.106265653439 -5.46334248714e-20)
(-0.0576072422366 0.0973661725959 -6.67968046195e-20)
(-0.0246662210182 0.119258697418 -5.94838120134e-20)
(-0.0679057676455 0.106688170787 -7.83412278755e-20)
(0.187639544922 0.141080237764 -5.73836415941e-20)
(-0.016172705801 0.118233009541 -3.18050159985e-20)
(-0.192036667069 0.722531402294 -7.61787725357e-20)
(-0.0641621831328 0.0857521476328 -3.14554735176e-20)
(-0.0681543401895 0.0775689445024 -1.68689906563e-20)
(-0.0642505961578 0.0956848707291 -6.78879777668e-20)
(-0.0699370537791 0.0899136811581 -6.569671699e-20)
(-0.0708151691594 0.108171907581 -9.05046076236e-20)
(-0.0700929197783 0.0947575686207 -1.11814852878e-19)
(-0.0603745093799 0.128989403266 -5.06624318606e-20)
(-0.0887223369763 0.101572526977 -1.38563618058e-19)
(-0.317163767803 0.202765491982 -5.06001469402e-20)
(-0.0899959995641 0.118786185874 -9.86397767506e-20)
(-1.15553635081 0.254485578467 -1.55707086666e-19)
(-0.0740930931287 0.0788737458782 -5.11102341287e-20)
(-0.0772993939097 0.070029954313 -2.69978514542e-20)
(-0.0757920340699 0.0897832291442 -1.09623592101e-19)
(-0.0808431632139 0.081931302774 -8.7130099751e-20)
(-0.0865369434787 0.103433859857 -1.59873863312e-19)
(-0.0837422340079 0.0882959402971 -1.68247520747e-19)
(-0.0950514814031 0.119165772958 -1.86540962948e-19)
(-0.104453642265 0.0914996246716 -2.13360263682e-19)
(-0.524136825574 0.113117778026 -2.03746716477e-19)
(-0.083969577102 0.110859289617 -2.21805600654e-19)
(-0.499471585176 -0.0989246755697 -2.08295010883e-19)
(-0.0838903241942 0.0705337776168 -6.30177170765e-20)
(-0.0858417294095 0.0616744603046 -2.76590100555e-20)
(-0.0879421294285 0.0816871790811 -1.45754028397e-19)
(-0.0919932748803 0.0723756449797 -9.62046318049e-20)
(-0.0999867629406 0.0943334944533 -2.21733921117e-19)
(-0.0963873716058 0.0782437175409 -1.92209157834e-19)
(-0.0992932451832 0.10695370292 -2.48624901389e-19)
(-0.117073498689 0.0779416511453 -2.35123719878e-19)
(-0.258792254434 0.11820435906 -2.26353895061e-19)
(-0.0952137107021 0.100126409761 -2.39555019282e-19)
(-0.326081214885 0.0350117920949 -1.42830075853e-19)
(-0.0932506017712 0.0613552272907 -6.08459247838e-20)
(-0.0930625767278 0.0526286776181 -2.2657874743e-20)
(-0.0993002607826 0.070909879648 -1.42659761242e-19)
(-0.101544947722 0.0607669770954 -7.81745774691e-20)
(-0.111170341366 0.0805826034731 -2.05598956595e-19)
(-0.106059096206 0.0647423214462 -1.6365835944e-19)
(-0.110220191905 0.0894534015843 -2.26053837771e-19)
(-0.125944388511 0.0633570493604 -2.05300818884e-19)
(-0.206191804435 0.105191243034 -1.56031200074e-19)
(-0.110920900528 0.0845287185502 -2.11576434027e-19)
(-0.229327653761 0.0428406314888 -1.45280006876e-19)
(-0.100656775189 0.0503801070143 -3.99865274282e-20)
(-0.0981216338608 0.0422417146285 -1.87786709658e-20)
(-0.107930389922 0.0570803507307 -9.91731756674e-20)
(-0.108242742405 0.047218994299 -5.03643499495e-20)
(-0.120130304659 0.0653157248696 -1.6336022173e-19)
(-0.114293677222 0.0498261120181 -1.09451417725e-19)
(-0.120953661892 0.0733690848945 -1.9082341514e-19)
(-0.13399754503 0.0502625835327 -1.44657671704e-19)
(-0.154577612278 0.0801960839041 -2.00825240829e-19)
(-0.117738196684 0.0663953973843 -1.52136598715e-19)
(-0.150745806724 0.0229232209815 -1.02161841508e-19)
(-0.10500428549 0.0381795018448 -2.91564934871e-20)
(-0.100951682812 0.03149182487 -1.19380180382e-20)
(-0.114253546782 0.0423026720447 -6.06425920067e-20)
(-0.11236411047 0.0341797239574 -2.97304329439e-20)
(-0.128049347073 0.0506960992771 -9.07488676992e-20)
(-0.122686538239 0.0360496308406 -5.83023599798e-20)
(-0.124980414705 0.0575817552324 -1.05970855279e-19)
(-0.140882960734 0.0384076168794 -7.92695113232e-20)
(-0.114777629535 0.0454323157438 -5.34731993947e-20)
(-0.105586905871 0.0487420661159 -8.18192902551e-20)
(-0.0988591744756 0.00641851831969 -8.24379220584e-21)
(-0.107720452681 0.0269971483322 -1.25119574951e-20)
(-0.102070656734 0.0220498357028 -5.66556586811e-21)
(-0.120211107508 0.0298411198729 -2.73902009171e-20)
(-0.115206852795 0.0234150933417 -1.29260440353e-20)
(-0.134769845329 0.0373075935784 -4.68230036038e-20)
(-0.130152635223 0.0241369677371 -3.01125284032e-20)
(-0.119418058758 0.0413525891137 -5.5117946299e-20)
(-0.144927705677 0.0264150906253 -4.53128964493e-20)
(-0.0885383953396 0.019638808342 -3.65898830662e-20)
(-0.0838732068615 0.0328132657261 -4.17749971504e-20)
(-0.0759733442073 -0.0100703377195 -1.55835924645e-20)
(-0.109011135149 0.0177528327406 -6.07965240834e-21)
(-0.101743106994 0.0144299760177 -4.93012123474e-21)
(-0.124483403974 0.019184457766 -1.56483715214e-20)
(-0.116637677603 0.0147563966649 -1.09160839598e-20)
(-0.139613063131 0.02416082947 -2.86024212487e-20)
(-0.13512876556 0.0135260395359 -1.91657983921e-20)
(-0.107971140177 0.0279025422527 -3.19699473007e-20)
(-0.148669088671 0.0139576565362 -3.21256346899e-20)
(-0.0724527888522 -0.00585853793537 -2.07687065487e-20)
(-0.0501118791534 0.0194362223322 -2.96415381808e-20)
(-0.0682791956254 -0.0148389202257 -2.04955972689e-20)
(-0.108837028356 0.0106618761281 -9.76655278617e-21)
(-0.100691109708 0.00828901005612 -7.62708606645e-21)
(-0.126228454828 0.00991946517684 -1.44335108304e-20)
(-0.115894713698 0.00790477779146 -1.08244709136e-20)
(-0.142960573613 0.0109312854535 -2.26890118333e-20)
(-0.13614040483 0.00382276946477 -1.08267233644e-20)
(-0.0953934833521 0.0138229405458 -2.979722557e-20)
(-0.151560897275 0.00141248521446 -1.99283983181e-20)
(-0.0521286508407 -0.00663356040359 -2.93684289009e-20)
(-0.0296533974622 0.0105608955281 -2.08483442376e-20)
(-0.0754600822644 0.0369182289945 -6.36348671415e-20)
(-0.107048957281 0.00476201571479 -8.68500419383e-21)
(-0.0993554914264 0.00265111119276 -6.34640554079e-21)
(-0.124560323507 0.00222198557519 -7.21768344754e-21)
(-0.11335423179 0.00168519807585 -9.97913043772e-21)
(-0.143471089817 -0.000817638756065 -8.06610984922e-21)
(-0.133100664713 -0.00539083668942 -7.4231879344e-21)
(-0.102027204011 0.000380602989791 -1.09795169857e-20)
(-0.152756241591 -0.0101868244836 -1.01710156358e-20)
(-0.0692363510551 0.0574929813306 -5.51147824782e-20)
(-0.0867744952916 0.00153660363607 -1.07996598403e-20)
(-0.0822554455847 0.0661956266081 1.71253389339e-20)
(-0.104964635041 -0.0013472718854 -7.64053178468e-21)
(-0.0977014143697 -0.00360610876313 -3.36279997066e-21)
(-0.121201386941 -0.00436695618227 -1.01846349246e-20)
(-0.11033411405 -0.00567890628404 -6.7476398117e-21)
(-0.14170399889 -0.00917425804436 -9.52809372094e-21)
(-0.128293224201 -0.0149092251855 -8.96736528986e-21)
(-0.1320442425 -0.0105313738809 -9.99115849044e-21)
(-0.151398332212 -0.0201024061306 -1.72920066312e-20)
(-0.103468425737 0.0329642380751 6.14404615718e-20)
(-0.130269120998 -0.0134262292956 -1.79494338399e-20)
(-0.0861013655036 0.0104623821333 5.19431335947e-20)
(-0.102217478098 -0.00862505615612 -2.46990799768e-21)
(-0.0950794086797 -0.0105104681072 -2.47141796099e-21)
(-0.116435549063 -0.0131336500943 -5.53037017697e-21)
(-0.105824966234 -0.0142975505313 -3.41645879386e-21)
(-0.136773687788 -0.020076665063 -1.67312782001e-20)
(-0.121350035302 -0.0249367861077 -1.12270906847e-20)
(-0.14005324394 -0.0259572790474 -2.52502819806e-20)
(-0.145517480126 -0.0287434736504 -2.34086348266e-20)
(-0.101219421374 -0.0259344056844 -2.74467618169e-20)
(-0.13029187052 -0.0302065275133 -2.36784424197e-20)
(-0.0788754459349 -0.0454414647231 -1.70056938924e-20)
(-0.0980549482616 -0.0163028262747 -3.41796875717e-21)
(-0.0911888750965 -0.0172454143833 -2.46573269704e-21)
(-0.10988230882 -0.022289812042 -9.11317930162e-21)
(-0.0998373636053 -0.0228435102109 -5.95362629593e-21)
(-0.128557071134 -0.0312696895004 -1.79044473112e-20)
(-0.112369920463 -0.0340970612838 -1.0114399616e-20)
(-0.136919430087 -0.0415736983017 -2.18367952657e-20)
(-0.135213952633 -0.0359620073978 -2.11174906436e-20)
(-0.106437341282 -0.0508562259401 -1.32373744952e-20)
(-0.121008448089 -0.0425209746827 -2.14548917497e-20)
(-0.075174819114 -0.0700212712433 -5.20906560625e-21)
(-0.0926073037754 -0.0233205334108 -5.0013902358e-21)
(-0.101800382113 -0.0303250708372 -6.95484661027e-21)
(-0.117712172992 -0.0403881864811 -1.33274429483e-20)
(-0.102306510473 -0.0409572274342 -3.3837351414e-21)
(-0.120006693628 -0.054132194651 -2.07355871276e-20)
(-0.121470567503 -0.040960283383 -1.57349958184e-20)
(-0.0907655451599 -0.0572300920332 -1.34265828607e-20)
(-0.117909382776 -0.0492202615884 -1.87166482124e-20)
(-0.0629005011466 -0.085608047824 -3.33936286608e-21)
(-0.105269195489 -0.0464858905663 -5.79128801152e-21)
(-0.0920795649038 -0.045066358549 3.39750717467e-22)
(-0.113865202923 -0.0620206512055 -1.37160569032e-20)
(-0.105935033811 -0.0435720444046 -6.99595196763e-21)
(-0.0833248762295 -0.0649973476268 -8.62942821773e-21)
(-0.114932594774 -0.0572028734322 -9.31383378549e-21)
(-0.0441460598038 -0.100575240652 -2.28310336696e-21)
(-0.0926890944744 -0.0496194541626 -8.64913238645e-22)
(-0.0824212133463 -0.0469962126267 5.25516245642e-21)
(-0.105410701632 -0.0651373313295 -2.59372884993e-21)
(-0.090415986289 -0.0445467122864 -1.00581478557e-21)
(-0.0761992404431 -0.086227979321 -2.96750893473e-21)
(-0.0938418903 -0.0669824132539 1.8002614022e-21)
(-0.0296628045942 -0.113448541125 5.15087685915e-21)
(-0.0804256987276 -0.0507040790987 5.1142609095e-21)
(-0.0800306155047 -0.0653402941288 3.38817546656e-21)
(-0.0500226380414 -0.0988689271446 9.91864719608e-21)
)
;

boundaryField
{
    back
    {
        type            calculated;
        value           uniform (0 0 0);
    }
    sides
    {
        type            calculated;
        value           nonuniform List<vector> 0();
    }
    bottom
    {
        type            calculated;
        value           nonuniform List<vector> 0();
    }
    front
    {
        type            calculated;
        value           uniform (0 0 0);
    }
    atmosphere
    {
        type            calculated;
        value           nonuniform List<vector> 
27
(
(-0.0861288166779 0.0498747829851 1.1181230105e-18)
(0 -0.0498441847769 0)
(0 -0.345555384442 0)
(0 -0.303502176113 0)
(0.204702106593 1.30973115304 7.17981751629e-19)
(-0.568396017724 0.85606680906 2.99682786442e-19)
(0 -0.61381009334 0)
(0 -0.456402651917 0)
(0 -0.63177738001 0)
(0.363911036049 1.28636408466 -5.58681805034e-20)
(-0.591608855852 1.1663496636 -9.64893645681e-20)
(0 -0.54299077514 0)
(0 -0.0551735792883 0)
(-0.31280517358 0.00838869016882 -8.39949387047e-20)
(-0.197178444034 0.00160386891182 -2.06565075047e-19)
(0 -0.00645117440426 0)
(0 -0.00324468201705 0)
(0 -0.0135524623696 0)
(-0.0634927271169 0.000546998928991 -2.85529860513e-20)
(-0.0866543908401 0.0642921619241 -9.87167482317e-20)
(-0.0954879712178 0.0368103167765 1.329674261e-19)
(0 -0.0331601466757 0)
(0 -0.0545566130269 0)
(0 -0.0695040935776 0)
(0 -0.0837511673694 0)
(0 -0.100710496923 0)
(0 -0.107223610475 0)
)
;
    }
    floatingObject
    {
        type            calculated;
        value           nonuniform List<vector> 4((0 0 0) (0 0 0) (-1.30104260698e-16 0 0) (0 0 0));
    }
    procBoundary6to3
    {
        type            processor;
        value           nonuniform List<vector> 8((0.0125862152636 0.0488453909813 9.22312148882e-18) (0.0257280964981 0.0528704056582 6.17081429032e-18) (0.0303877309402 0.0547807574379 3.28056806476e-18) (0.0368500247807 0.0660951747167 2.02012372675e-18) (0.0360179896411 0.0703848023803 1.3442663267e-18) (0.0301889916265 0.0890020234947 1.18271002133e-18) (0.00669392235549 0.0998353212013 1.14042678227e-18) (-0.0541853321302 0.112110542796 1.0612783962e-18));
    }
    procBoundary6to7
    {
        type            processor;
        value           nonuniform List<vector> 
11
(
(-0.0963231080825 0.0117125272367 -4.82715356345e-21)
(-0.0952645095797 0.00609666934683 -5.8303743512e-21)
(-0.0941866127734 0.000305872375606 -2.76063575356e-21)
(-0.0925852550916 -0.00600415890409 -1.68881448616e-21)
(-0.0898714445665 -0.0124136456425 -1.55470891749e-21)
(-0.086027617896 -0.0183109686176 -1.59041749593e-21)
(-0.0861779492288 -0.023065815696 -2.41838079573e-21)
(-0.0928320880474 -0.030033209469 -7.19294945005e-21)
(-0.093097868926 -0.0362597442803 -3.62183798119e-21)
(-0.0843942397045 -0.0399619023129 -1.68266011023e-21)
(-0.0762084076501 -0.0417591381803 4.27146915159e-21)
)
;
    }
    procBoundary6to8
    {
        type            processor;
        value           nonuniform List<vector> 
16
(
(-0.0124762672654 0.0485862523594 9.24237084492e-18)
(-0.0256944716837 0.0523739214754 6.19391201849e-18)
(-0.028048572 0.0742597118736 5.03831949581e-18)
(-0.0205897527467 0.0807546375625 3.71660746001e-18)
(-0.0276504429934 0.0830806329154 1.42842140901e-18)
(-0.0352154980109 0.0845073200385 2.71600426751e-19)
(-0.0430817206073 0.0832694141553 2.72712563412e-20)
(-0.0522692963054 0.0805945020693 -1.12607870848e-21)
(-0.0615177471329 0.0760030547303 -7.18976083592e-21)
(-0.0707499099696 0.0697201614362 -1.35115408319e-20)
(-0.0785805278087 0.0619828880502 -1.8835159472e-20)
(-0.0854070828718 0.0541263524786 -1.46884634394e-20)
(-0.0912472776455 0.0453142391691 -1.44557342785e-20)
(-0.0950290689502 0.0353443196528 -1.04766932337e-20)
(-0.0966775851731 0.0258746694071 -5.46285657785e-21)
(-0.0969467751005 0.0180783762465 -2.49144637332e-21)
)
;
    }
    procBoundary6to9
    {
        type            processor;
        value           nonuniform List<vector> 4((-0.0734755381194 -0.0477597936353 7.88051886434e-23) (-0.0757785974171 -0.0449631289727 -4.76250275999e-21) (-0.060313008558 -0.0662485412286 -1.63864280588e-21) (-0.0213073594616 -0.101870052519 6.65079124858e-21));
    }
}


// ************************************************************************* //
