/*--------------------------------*- C++ -*----------------------------------*\
| =========                 |                                                 |
| \\      /  F ield         | OpenFOAM: The Open Source CFD Toolbox           |
|  \\    /   O peration     | Version:  v2012                                 |
|   \\  /    A nd           | Website:  www.openfoam.com                      |
|    \\/     M anipulation  |                                                 |
\*---------------------------------------------------------------------------*/
FoamFile
{
    version     2.0;
    format      ascii;
    class       volVectorField;
    location    "3";
    object      ddt0(rho,U);
}
// * * * * * * * * * * * * * * * * * * * * * * * * * * * * * * * * * * * * * //

dimensions      [1 -2 -2 0 0 0 0];


internalField   nonuniform List<vector> 
167
(
(-36.9304211925 -45.2390612865 -1.41710698835e-21)
(-30.3762209175 -46.2366228102 -3.54025031422e-19)
(-22.0734764526 -45.3437913199 -1.56878485247e-18)
(-11.7187494642 -41.4280857048 -1.37917841184e-18)
(0.129138027876 -38.7869998765 -5.06099084014e-18)
(10.3756295655 -19.7828783856 1.96588218353e-17)
(18.3752091803 -4.45108596028 4.03580205792e-18)
(38.3518448082 18.8618090749 4.02966283352e-18)
(0.111195861502 0.104668584738 1.15632601311e-20)
(-30.8100628572 -39.7962098374 -2.9841794121e-19)
(-24.5960602187 -37.4677917241 -8.40566975564e-19)
(-17.3586869779 -32.3209677462 -1.01760684875e-18)
(-10.5245920728 -27.5387634878 5.27022573715e-18)
(-7.2546393822 -11.0013096271 3.16125717362e-17)
(3.10928797432 3.74917517662 1.3323555929e-17)
(36.7809892024 23.0138056748 1.2194420076e-17)
(0.0840806338919 0.11336577177 3.30844671413e-20)
(-32.2545931795 -35.2259311648 -3.10415678854e-19)
(-28.2842245511 -32.228305581 -1.38264303012e-18)
(-24.0585971946 -26.8331952351 -1.73541735482e-18)
(-19.9778718715 -21.6482277561 -6.98159950383e-18)
(-19.2125438715 -12.7865163331 -4.37920189934e-18)
(-6.01460057446 -5.9130011608 1.79071905653e-17)
(29.5006763161 25.2708075461 3.43397924621e-18)
(0.0761718874236 0.0832412702614 2.43613364246e-20)
(-35.8875298038 -33.5879592893 -5.59096743424e-20)
(-34.0123483337 -32.6237566053 -2.58909932941e-19)
(-32.2240240782 -29.5999442059 -6.96136778561e-20)
(-30.9349959102 -24.3822170258 -2.22170663544e-18)
(-29.0506538505 -20.2974016924 -5.53616786658e-18)
(-24.092186585 -11.1008479303 6.6399393343e-18)
(-4.09627794363 0.219918700452 2.5524972251e-17)
(21.8123521975 26.8320825237 -9.64255198558e-18)
(0.0459782564128 -0.0524712457199 -2.95474947387e-20)
(-36.0154893945 -32.438787454 -4.8905415521e-20)
(-35.5383354947 -31.7682680723 -4.18430744718e-19)
(-35.6063856579 -29.2263280778 -9.06927095758e-19)
(-36.8379320802 -24.4896269737 -6.44501052541e-18)
(-38.2956318035 -22.5024673558 3.21107602307e-18)
(-33.0236476325 -10.000919131 4.4037091862e-17)
(-2.94916729355 5.59595440347 4.75064755049e-18)
(20.6518596171 30.7186168014 -5.08274077653e-17)
(0.0249547346817 -0.0344745536604 -2.7307999742e-19)
(-35.7685373967 -32.4229561224 -1.26290860904e-19)
(-36.4323813229 -32.3651053677 -5.82868044022e-19)
(-37.9844104496 -30.7843089108 -1.94048277337e-18)
(-41.226746584 -26.7505255884 1.10552681637e-18)
(-46.0069799298 -26.8549720008 -3.11720615133e-18)
(-46.5387269619 -12.3092886106 -8.5646402505e-18)
(-19.2426076991 0.995636743042 3.05926227438e-18)
(17.5441296048 39.2611877587 1.88115265686e-17)
(0.00632617241573 0.191871583704 1.77466590143e-20)
(-34.1573937532 -31.8737523946 1.93229464782e-19)
(-34.8945128184 -33.2857942381 -7.57114001951e-19)
(-36.3669408735 -34.082356583 -5.9988146428e-19)
(-38.957051695 -33.9201209545 -1.83419720376e-18)
(-43.6368935262 -31.2562115006 2.39363513577e-18)
(-51.0126370806 -34.5990245994 1.98720682186e-18)
(-60.535024278 -25.0596313868 1.61259332676e-17)
(-48.5247501718 -11.4236033468 7.86333171361e-18)
(2.83124049131 40.1541951127 7.74261003543e-17)
(-0.0138763503108 0.241591728554 1.37069788779e-19)
(-31.576538312 -30.2626597758 4.12476742327e-20)
(-32.1506218544 -32.6141531232 -7.18697031261e-20)
(-33.2432160698 -34.7063445796 -3.50609660592e-19)
(-35.0923873532 -36.5166618499 -1.07536528901e-18)
(-38.1098727288 -38.0792634609 -1.04195124583e-18)
(-43.4555102244 -37.6904833813 -1.67772019522e-18)
(-51.1115927729 -45.9517096193 4.86097180709e-18)
(-64.4702069895 -48.7493711703 -1.38599552209e-19)
(-61.5182040187 -35.7628328527 -3.01717869691e-18)
(-15.5908392539 33.2734318853 5.10139065511e-17)
(-0.0376826280032 0.0946785944021 3.27232362003e-20)
(-28.9082636632 -30.7781729117 -1.49911111964e-19)
(-29.5898136705 -33.5676406376 -3.78335870896e-20)
(-30.7422246957 -36.3062517094 -3.90120832114e-20)
(-32.6031677474 -39.0653410404 -7.19688801664e-19)
(-35.3697658697 -42.3588404045 -1.59820307644e-18)
(-40.1461052981 -44.3228469337 -5.41267570588e-18)
(-45.2049770093 -56.1933447874 -6.74363730944e-18)
(-54.9476565391 -65.7717152399 -2.19007990018e-18)
(-54.287980707 -54.8302894776 -2.14977918994e-18)
(-31.2552573255 23.0517743838 2.31445391558e-17)
(-0.076314528902 0.0111555819069 5.06845127211e-20)
(-26.5626811932 -34.4854415519 -1.00879827147e-19)
(-27.5754934618 -37.7948545184 -2.47702753587e-19)
(-29.1011689895 -41.3048742891 -6.08535086375e-19)
(-31.0506397847 -45.6733745547 -2.74107390873e-19)
(-34.6055019355 -49.4050526866 -5.67286435429e-18)
(-36.5726410492 -61.9058775963 -6.2416483925e-18)
(-41.1864329235 -72.4759871543 -3.40122887002e-18)
(-35.3061066281 -62.2810489901 -2.04574475839e-18)
(-38.7461147937 12.700390419 2.18727669841e-17)
(-0.111003410248 -0.087793423077 1.78624178238e-20)
(-23.1521439338 -35.2700828717 -2.46882814483e-20)
(-23.9324840682 -38.9025083693 -1.73357944679e-19)
(-24.9035807256 -42.773667884 -4.27686828469e-19)
(-26.0088347553 -47.8219003987 -3.68958643966e-19)
(-28.352105058 -52.3156777698 -1.71250063648e-18)
(-28.0870374738 -63.5894106121 -2.90298143091e-18)
(-28.8697716639 -72.4889607466 -2.02006712162e-18)
(-19.470117467 -57.4417445716 -4.3154228094e-18)
(-37.2805617726 5.5402760555 6.19372979244e-18)
(-0.116710136827 -0.0791070590991 4.46124150204e-21)
(-19.5426188383 -35.7996930945 -1.29736038834e-20)
(-20.0158631925 -39.57893488 1.0235375516e-19)
(-20.5002423686 -43.6794005589 -7.51867253309e-19)
(-21.0174801368 -48.9386107399 -1.72564193402e-18)
(-21.9028619523 -53.534563056 -7.2607667569e-19)
(-20.4603913572 -63.4995191315 3.57944680741e-19)
(-19.6118983488 -67.4845630359 1.35862136882e-17)
(-15.363437023 -49.0246994673 -2.39130940501e-18)
(-33.323851402 1.41071010882 6.82033803449e-18)
(-0.118292326493 -0.0291021641307 2.41916255471e-20)
(-15.8934466749 -36.0719893947 1.86180877609e-20)
(-16.079984625 -39.8607478942 4.68136953433e-19)
(-16.326254266 -44.0702573864 -9.56114751056e-19)
(-16.1940911362 -49.0524311686 -5.28725905556e-19)
(-15.8295648967 -53.6364495188 -1.26747832694e-18)
(-13.595649788 -62.8545404803 1.65859318774e-18)
(-12.468633265 -61.9514968999 8.58167500675e-19)
(-16.9304798535 -41.5975050745 5.17592559067e-19)
(-28.6989640951 -2.03544819323 1.07908359594e-17)
(-0.139981412556 -0.0839264604987 4.97085448842e-20)
(-12.2576486805 -36.137839759 1.04738261668e-19)
(-12.2628968031 -39.9582639305 -1.61833618265e-20)
(-12.2848873891 -43.9932721429 -7.00809872649e-19)
(-11.6540018672 -48.3766584892 -1.61138843013e-18)
(-10.5994476386 -52.7074648429 -3.14208291265e-18)
(-7.55117110233 -60.6120745627 6.41716924955e-18)
(-6.24419646907 -55.6677992914 3.39118126924e-18)
(-12.5435815733 -34.626969365 4.99380163818e-19)
(-20.9862384923 -4.48917786625 8.00131616439e-18)
(-0.157578460355 -0.239092386984 8.02823246215e-20)
(-8.55379822418 -32.5523576914 1.57912147579e-19)
(-8.60236244812 -36.0922203959 7.64669223367e-20)
(-8.62165158628 -39.8002318285 1.39620201808e-19)
(-8.42436967947 -43.5869141716 -5.07867163014e-19)
(-7.81803337157 -47.4041715793 3.75036618498e-19)
(-6.54792035355 -51.2529675217 -4.58786985447e-18)
(-3.40736859315 -56.5220908384 3.60667149731e-18)
(-3.76146742685 -44.121329645 -1.02206441942e-17)
(-7.35240948195 -22.4489390645 6.88369768147e-18)
(-10.563877107 -5.9077153658 -6.80114575137e-18)
(-0.0798414389648 -0.291192491116 -7.01102681486e-20)
(-5.0350770086 -32.6793283084 1.84722888233e-19)
(-5.04400291312 -36.2750583583 3.76079159794e-20)
(-5.10641042984 -39.8896801337 -3.49644437116e-19)
(-4.94228644481 -43.4581279996 -4.1433373858e-19)
(-4.75626886948 -46.8388481105 5.05944001626e-19)
(-4.14680041978 -49.9318941415 -2.30983883405e-18)
(-2.94832262591 -53.5784602836 -9.72659806652e-18)
(-10.3998071681 -37.8445720636 9.21562373395e-19)
(-5.1505093405 -14.2727388531 4.91720567946e-18)
(1.04794245373 -4.13418893994 8.15121861739e-19)
(0.0115868748836 -0.19040962832 1.6325405943e-20)
(-1.80990935312 -32.6039952192 9.26628140476e-20)
(-1.74769181691 -36.2578613165 6.686312435e-20)
(-1.71840204024 -39.8823038417 -5.4255690793e-20)
(-1.50401909295 -43.4917342724 -1.0810353833e-18)
(-1.44240305087 -47.1376899918 1.54340069443e-18)
(-1.06021087409 -50.4564739787 -3.0954752573e-18)
(-0.153712372817 -59.1177321359 5.94147048361e-18)
(-6.61085102014 -55.7960701291 -7.38162609536e-18)
(-4.30716830794 -30.2296121356 -2.85768954645e-18)
(3.92113026702 -6.48098057588 -1.80362512059e-17)
(-0.00589097291395 -0.0317791817768 -1.27405438539e-19)
)
;

boundaryField
{
    back
    {
        type            calculated;
        value           uniform (0 0 0);
    }
    sides
    {
        type            calculated;
        value           uniform (0 0 0);
    }
    bottom
    {
        type            calculated;
        value           nonuniform List<vector> 0();
    }
    front
    {
        type            calculated;
        value           uniform (0 0 0);
    }
    atmosphere
    {
        type            calculated;
        value           nonuniform List<vector> 
17
(
(-0.00317961553869 0.104771658967 -1.13207309043e-23)
(-0.000756043405786 0.113720020488 -1.16757435775e-23)
(0.00038577746611 0.0832412702564 -1.74808114596e-23)
(-0.0162232904118 -0.05247124479 1.24081284882e-21)
(-0.00187044774965 -0.0344745536607 -4.06900376214e-21)
(0.00587573499365 0.191871583704 1.4111131212e-20)
(0.00746194948373 0.241591728554 2.55431020036e-21)
(-0.00889926472866 0.0938016447408 -2.56688921444e-20)
(-0.0105336560506 0.011155533957 -1.97910001417e-20)
(0.00205840909024 -0.0877934177433 1.36573806901e-21)
(3.3607578988e-07 -0.0791070581302 -2.04106217662e-26)
(3.50753022259e-07 -0.0291021635287 -1.1186533057e-26)
(-0.256197963329 -0.0839264604723 1.91517786882e-19)
(-0.167652527272 -0.239091127658 1.32211917673e-19)
(-0.0811892204725 -0.291192020223 -1.0045876468e-19)
(0.00604811279608 -0.190388282988 2.90423810037e-20)
(6.37738516618e-06 -0.0317791817768 2.7493878782e-22)
)
;
    }
    floatingObject
    {
        type            calculated;
        value           nonuniform List<vector> 0();
    }
    procBoundary11to9
    {
        type            processor;
        value           nonuniform List<vector> 9((-39.2186925886 -51.6610266511 5.46971264904e-20) (-31.5191163 -54.252461388 -1.94882748903e-19) (-21.5173320519 -55.6067279675 -3.62530008439e-19) (-8.34445633104 -53.9252172885 -3.7961351564e-18) (8.76605289342 -55.9387847519 -2.82488018764e-18) (25.6070885245 -39.548364727 1.09345016091e-17) (34.9309650227 -27.6043794976 1.2482447977e-18) (41.0824695615 14.9759371954 4.35863133855e-18) (0.154193088918 0.131543821378 7.43482753556e-21));
    }
    procBoundary11to10
    {
        type            processor;
        value           nonuniform List<vector> 
23
(
(-42.1970235994 -43.1615797164 -8.16332372277e-21)
(-35.9179059257 -39.953622886 2.44778214135e-20)
(-35.9179059257 -39.953622886 2.44778214135e-20)
(-35.7159538088 -36.0556688714 -4.46632326e-20)
(-35.7159538088 -36.0556688714 -4.46632326e-20)
(-37.7341132855 -33.2676313421 -2.51116835219e-20)
(-36.7995134374 -31.9955581297 -4.26191445062e-21)
(-35.6705303446 -31.5926499182 1.49069630689e-20)
(-35.6705303446 -31.5926499182 1.49069630689e-20)
(-33.9070242894 -29.9806317076 -1.33111445028e-19)
(-33.9070242894 -29.9806317076 -1.33111445028e-19)
(-31.3599541113 -27.6928310764 -3.9643230811e-20)
(-28.5382759117 -27.9006668116 -5.82968648635e-20)
(-25.8964924414 -31.3266208981 3.3813915376e-21)
(-25.8964924414 -31.3266208981 3.3813915376e-21)
(-22.6251989811 -31.8431127365 -3.54965390447e-20)
(-19.1916459144 -32.1911751551 -1.07722278985e-20)
(-15.6732846241 -32.4300504774 3.2020900181e-20)
(-12.1411912699 -32.5340267135 1.69895366643e-19)
(-12.1411912699 -32.5340267135 1.69895366643e-19)
(-8.5080952679 -29.0155432891 -1.93821450852e-19)
(-5.04508541563 -29.1350726257 -1.85593513987e-19)
(-1.86663698172 -29.0270640386 -2.33871129593e-19)
)
;
    }
}


// ************************************************************************* //
