/*--------------------------------*- C++ -*----------------------------------*\
| =========                 |                                                 |
| \\      /  F ield         | OpenFOAM: The Open Source CFD Toolbox           |
|  \\    /   O peration     | Version:  v2012                                 |
|   \\  /    A nd           | Website:  www.openfoam.com                      |
|    \\/     M anipulation  |                                                 |
\*---------------------------------------------------------------------------*/
FoamFile
{
    version     2.0;
    format      ascii;
    class       volVectorField;
    location    "3";
    object      ddtCorrDdt0(U);
}
// * * * * * * * * * * * * * * * * * * * * * * * * * * * * * * * * * * * * * //

dimensions      [0 1 -2 0 0 0 0];


internalField   nonuniform List<vector> 
167
(
(-0.0369971340484 -0.0453207397254 -1.41968728573e-24)
(-0.0304313778538 -0.0463203180652 -3.54664477961e-22)
(-0.0221137109552 -0.0454260010046 -1.57162614664e-21)
(-0.0117401009585 -0.0415031071236 -1.38168608704e-21)
(0.000128705385863 -0.0388576603353 -5.07022809283e-21)
(0.0103924339911 -0.0198206499749 1.96938506071e-20)
(-0.0123854313139 -0.0343730805015 -5.95918197219e-21)
(0.11999165824 0.0204190385675 -3.74214670815e-20)
(0.112005417297 0.104458625476 1.16092768626e-20)
(-0.0308657426442 -0.0398680796431 -2.98956485088e-22)
(-0.0246404694107 -0.0375354335927 -8.42084514879e-22)
(-0.0173900082369 -0.0323792993796 -1.01944314269e-21)
(-0.0105436115299 -0.0275884975845 5.27973707092e-21)
(-0.00726801139291 -0.0110214929057 3.16695969484e-20)
(-0.0334125261686 -0.0277689814861 1.68361178611e-21)
(0.0581311506719 0.0177400535302 3.79630227483e-20)
(0.0861227066503 0.114563215736 3.33898243786e-20)
(-0.0323128560012 -0.035289538067 -3.10975454528e-22)
(-0.0283352791828 -0.0322864725363 -1.38513769801e-21)
(-0.024102019227 -0.0268816229481 -1.73854960112e-21)
(-0.020013971938 -0.0216873502256 -6.99420484215e-21)
(-0.0192475187225 -0.0128099657812 -4.38722135375e-21)
(-0.040459009202 -0.0420205109887 1.21701611714e-20)
(0.000998600625661 -0.0186886907447 1.51426486185e-20)
(0.0760518129205 0.0840200957325 2.43260538884e-20)
(-0.0359522606259 -0.0336485383496 -5.60106067549e-23)
(-0.0340737261055 -0.0326826326353 -2.59376709342e-22)
(-0.0322821719424 -0.0296533621468 -6.9739789445e-23)
(-0.030990818523 -0.0244262158728 -2.22571563684e-21)
(-0.0291031181726 -0.0203340951463 -5.54616113448e-21)
(-0.0241359923433 -0.0111213753179 6.65184734074e-21)
(-0.0331019653684 -0.0391590237427 2.65966566259e-20)
(-0.000882052602527 -0.0372956264933 -3.34329419622e-22)
(0.0456324949539 -0.0520451895434 -2.9576666673e-20)
(-0.0360803990463 -0.0324972679817 -4.89934507242e-23)
(-0.0356024362928 -0.0318255867129 -4.19184882745e-22)
(-0.035670624123 -0.0292790717118 -9.08563313451e-22)
(-0.0369043872773 -0.0245338032444 -6.4566372618e-21)
(-0.0383647485436 -0.022543126067 3.2168575036e-21)
(-0.033083566755 -0.0100195972224 4.41165483503e-20)
(-0.0274379112876 -0.0395804283975 1.11550158361e-20)
(0.0658444446632 -0.0285746495452 -2.86279158491e-19)
(0.0271827971617 -0.0491199753603 -2.74855730018e-19)
(-0.0358329656183 -0.0324813868524 -1.26517802005e-22)
(-0.0364980786784 -0.0324234997019 -5.83918710856e-22)
(-0.038052920444 -0.0308398423579 -1.94398279915e-21)
(-0.0413011023935 -0.026798773979 1.10751994111e-21)
(-0.046089961551 -0.0269034312991 -3.1228314898e-21)
(-0.0466229512369 -0.0123321895987 -8.58021213756e-21)
(-0.0434681442568 -0.0509773908198 -1.75728681611e-20)
(0.0530106658161 0.0235990229378 -2.11068530973e-20)
(0.00551096128323 0.189855886106 1.90558325012e-20)
(-0.0342188311214 -0.0319311084193 1.93576623958e-22)
(-0.034957361899 -0.0333457641195 -7.58477042942e-22)
(-0.0364325033664 -0.0341438385338 -6.00963819598e-22)
(-0.0390272976071 -0.0339812730427 -1.83750402259e-21)
(-0.0437155963167 -0.0313126178139 2.39794510809e-21)
(-0.0511046356757 -0.0346614545783 1.99078490963e-21)
(-0.0606444058574 -0.0251056850583 1.61549233682e-20)
(-0.0715020434643 -0.065749085864 -3.30342721803e-20)
(-0.090668017717 -0.0208035252594 8.73725535529e-20)
(-0.0189620757918 0.215484744257 1.50897655916e-19)
(-0.0316332866843 -0.0303170655393 4.13216628185e-23)
(-0.0322084749162 -0.0326728482655 -7.19989990942e-23)
(-0.0333030773315 -0.0347688567927 -3.51240988378e-22)
(-0.0351556269608 -0.0365824986368 -1.07730325967e-21)
(-0.0381786147268 -0.0381480072251 -1.0438365086e-21)
(-0.0435338734066 -0.0377584536251 -1.68074642004e-21)
(-0.0512037621935 -0.0460345811742 4.8697346382e-21)
(-0.0645865371012 -0.0488379525337 -1.38829755996e-22)
(-0.0764296141997 -0.0894980734247 -3.27148233503e-20)
(-0.18788602329 -0.112912177606 -5.97030646344e-20)
(-0.0273291683609 0.0894698658989 3.08431046424e-20)
(-0.0289602134575 -0.0308334850577 -1.50180383493e-22)
(-0.0296430401674 -0.033628030416 -3.79016536837e-23)
(-0.0307975705439 -0.0363716302508 -3.90825039765e-23)
(-0.0326619053016 -0.0391357488095 -7.2098530896e-22)
(-0.0354335385381 -0.0424352705494 -1.60108722256e-21)
(-0.0402185006687 -0.0444027803442 -5.42243711569e-21)
(-0.0452864932282 -0.0562946772946 -6.75579886774e-21)
(-0.0550467173715 -0.0658907940026 -2.1941521534e-21)
(-0.0575927036709 -0.103509144601 -2.121212311e-20)
(-0.213526583469 -0.153399454355 -7.72689536068e-20)
(-0.0757476517429 0.0113506988987 5.07848188778e-20)
(-0.0266104218388 -0.0345474387099 -1.01061099865e-22)
(-0.0276251294709 -0.037862900281 -2.48148611571e-22)
(-0.0291535838509 -0.0413792945192 -6.09631395083e-22)
(-0.0311066019567 -0.0457557475309 -2.74605210453e-22)
(-0.0346679093973 -0.0494941788302 -5.68309539879e-21)
(-0.0366385878052 -0.0620175153995 -6.25290467863e-21)
(-0.0412606487793 -0.0726069455574 -3.4073911496e-21)
(-0.0291096813447 -0.101733896042 -1.66838080054e-20)
(-0.223236358547 -0.135035224237 3.22631390239e-20)
(-0.110984562202 -0.0878024828021 1.78750676822e-20)
(-0.0231937617396 -0.0353334984057 -2.47326809104e-23)
(-0.0239755594623 -0.0389725405616 -1.73669931875e-22)
(-0.0249484241596 -0.0428507128501 -4.28457457856e-22)
(-0.0260556905005 -0.0479081153382 -3.69626611621e-22)
(-0.0284032369822 -0.0524100665401 -1.71559013219e-21)
(-0.0281376834735 -0.0637040827619 -2.90821670293e-21)
(-0.0289217864356 -0.07261980814 -2.02373269273e-21)
(-0.00983912636879 -0.0863977109526 -1.30613623116e-20)
(-0.208881183301 -0.0999992022047 -3.21885663355e-20)
(-0.11671013278 -0.0791070576421 4.46124204062e-21)
(-0.0195777567463 -0.0358640733208 -1.29969016954e-23)
(-0.0200518880397 -0.0396501807839 1.02537875001e-22)
(-0.0205371485969 -0.0437580569459 -7.53220993741e-22)
(-0.0210553277952 -0.0490268089304 -1.72875465245e-21)
(-0.0219423664155 -0.0536310911762 -7.27385760489e-22)
(-0.0204972873434 -0.063614024949 3.58589993139e-22)
(-0.0196472078315 -0.067606369984 1.36107147397e-20)
(-0.00800604920322 -0.0695760226409 -8.91004509708e-21)
(-0.235845727634 -0.0607044874118 -1.27519272969e-21)
(-0.118292311674 -0.0291021588314 2.41916263659e-20)
(-0.0159220280541 -0.0361368761645 1.86517288486e-23)
(-0.0161089241655 -0.0399324976873 4.6897942814e-22)
(-0.0163556399769 -0.0441496007661 -9.57835869916e-22)
(-0.0162232423445 -0.049140806335 -5.29685830336e-22)
(-0.0158581180405 -0.0537331527812 -1.26976217954e-21)
(-0.0136201672197 -0.0629678801624 1.66158454916e-21)
(-0.0124910987503 -0.0620632475474 8.59715752981e-22)
(-0.0143481824994 -0.0564944798793 -4.62926818688e-21)
(-0.259272435745 -0.0498500927827 6.32631668293e-20)
(-0.139981282001 -0.0839264729731 4.9708529882e-20)
(-0.0122797027228 -0.0362028702017 1.04926917457e-22)
(-0.0122849667529 -0.0400301898687 -1.62122287108e-23)
(-0.0123069958886 -0.0440724648074 -7.02070894492e-22)
(-0.0116749745 -0.0484637926853 -1.61429213437e-21)
(-0.0106185623035 -0.0528025255144 -3.14775168002e-21)
(-0.00756478830938 -0.0607213711649 6.42874261157e-21)
(-0.00625546294813 -0.055768179189 3.39730132515e-21)
(-0.0123876354373 -0.0458734738659 -3.25313666112e-21)
(-0.215265136483 -0.055036907405 6.55469926307e-20)
(-0.157578503979 -0.239091297886 8.02831266886e-20)
(-0.00856919296122 -0.032610952158 1.58196626561e-22)
(-0.00861784795174 -0.0361571979397 7.66048779562e-23)
(-0.00863716851345 -0.0398718731673 1.39872056595e-22)
(-0.00843952887709 -0.043665366101 -5.08780650953e-22)
(-0.00783210083366 -0.0474895384468 3.75709445355e-22)
(-0.00655972928599 -0.0513453902115 -4.59614304189e-21)
(-0.0034135099766 -0.0566240220102 3.61316994479e-21)
(-0.00376825549601 -0.0442008881569 -1.02390716561e-20)
(-0.00806015785336 -0.0294074316046 6.85299434362e-21)
(-0.11371377738 -0.0636733031823 -7.36504210378e-20)
(-0.0784834254556 -0.286796825514 -7.09886218694e-20)
(-0.00504414337303 -0.0327381790683 1.85056225229e-22)
(-0.00505308301799 -0.036340365864 3.7676086842e-23)
(-0.00511560035889 -0.039961479001 -3.50272778906e-22)
(-0.00495117953876 -0.0435363432703 -4.15078743001e-22)
(-0.00476482653449 -0.0469231852481 5.06854033649e-22)
(-0.00415427899827 -0.0500219329288 -2.31400474261e-21)
(-0.00295363893093 -0.0536750780581 -9.74413778824e-21)
(-0.0104185579273 -0.0379128227632 9.23221820072e-22)
(-0.0064271249191 -0.0182383744043 6.15420385392e-21)
(0.0120901946784 -0.0445236042263 6.37492010504e-21)
(0.0115463768733 -0.190389276677 1.63261217831e-20)
(-0.00181317021067 -0.0326627409161 9.2830258963e-23)
(-0.00175084014349 -0.0363231805338 6.69839431726e-23)
(-0.00172149737574 -0.0399541482459 -5.43528997724e-23)
(-0.001506728146 -0.0435700805035 -1.08298218915e-21)
(-0.0014450011889 -0.0472226245329 1.54618001881e-21)
(-0.00106212288942 -0.0505474604335 -3.10105741903e-21)
(-0.000153989561078 -0.0592243381064 5.95218441442e-21)
(-0.00662277208045 -0.0558966862535 -7.39493730956e-21)
(-0.00549299373267 -0.038397160116 -4.82290907158e-21)
(0.0448978139179 -0.0703616812667 -2.26563362845e-19)
(-0.00578133706466 -0.0317054899221 -1.27320851949e-19)
)
;

boundaryField
{
    back
    {
        type            calculated;
        value           uniform (0 0 0);
    }
    sides
    {
        type            calculated;
        value           uniform (0 0 0);
    }
    bottom
    {
        type            calculated;
        value           nonuniform List<vector> 0();
    }
    front
    {
        type            calculated;
        value           uniform (0 0 0);
    }
    atmosphere
    {
        type            calculated;
        value           nonuniform List<vector> 
17
(
(-0.00302033598416 0.104458625476 4.71032743509e-25)
(0.00121515657012 0.114563215736 -5.23448912723e-24)
(0.000265702937138 0.0840200957325 -5.27633494911e-23)
(-0.0165690529577 -0.0520451895434 1.21164109859e-21)
(0.000357621585869 -0.0491199753603 -5.84473685318e-21)
(0.00699558915065 0.189855886106 1.52548913016e-20)
(0.00237622400276 0.215484744257 1.63821773374e-20)
(0.00333538155664 0.0894698658989 -2.2259650364e-20)
(-0.0105270979565 0.0113506988987 -1.97897374424e-20)
(0.00207691751661 -0.0878024828021 1.37829589256e-21)
(3.37681328625e-07 -0.0791070576421 -2.04711595153e-26)
(3.64626808562e-07 -0.0291021588314 -1.11971103975e-26)
(-0.256197927539 -0.0839264729731 1.91517784051e-19)
(-0.167652640098 -0.239091297886 1.32211918457e-19)
(-0.0798303135666 -0.286796825514 -1.01337334184e-19)
(0.00604673694853 -0.190389276677 2.9042389611e-20)
(0.000116013234451 -0.0317054899221 3.59525378315e-22)
)
;
    }
    floatingObject
    {
        type            calculated;
        value           nonuniform List<vector> 0();
    }
    procBoundary11to9
    {
        type            processor;
        value           nonuniform List<vector> 9((-0.0392896833845 -0.0517543383453 5.47956033418e-23) (-0.031576265033 -0.0543505295363 -1.95234998915e-22) (-0.0215565874437 -0.0557074519826 -3.63189449459e-22) (-0.00835990834689 -0.0540229585938 -3.80301088481e-21) (0.00878138168187 -0.0560402487282 -2.83006129742e-21) (0.0256519125541 -0.039621121487 1.09541463593e-20) (0.0115255732955 -0.0587251746542 -5.19808425961e-21) (0.193452401924 0.000265320340238 -7.898687308e-21) (0.154435768956 0.132231568803 7.41845508915e-21));
    }
    procBoundary11to10
    {
        type            processor;
        value           nonuniform List<vector> 
23
(
(-0.0422733231278 -0.04323951848 -8.17803466372e-24)
(-0.0359828498248 -0.040025784728 2.45218412767e-23)
(-0.0359828498248 -0.040025784728 2.45218412767e-23)
(-0.0357804132904 -0.0361207176373 -4.47437290222e-23)
(-0.0357804132904 -0.0361207176373 -4.47437290222e-23)
(-0.0378021085026 -0.0333275713413 -2.51569058146e-23)
(-0.0368657411666 -0.0320531354005 -4.26957890632e-24)
(-0.0357347063523 -0.0316494930445 1.49338234962e-23)
(-0.0357347063523 -0.0316494930445 1.49338234962e-23)
(-0.0339679671468 -0.0300345155118 -1.33350562541e-22)
(-0.0339679671468 -0.0300345155118 -1.33350562541e-22)
(-0.0314163327119 -0.0277426118094 -3.97144981003e-23)
(-0.0285896017623 -0.0279508484163 -5.84016448895e-23)
(-0.0259430167185 -0.0313829134231 3.38744010316e-24)
(-0.0259430167185 -0.0313829134231 3.38744010316e-24)
(-0.0226658855412 -0.0319003743389 -3.55603593631e-23)
(-0.0192261695573 -0.0322490847694 -1.07915802728e-23)
(-0.015701491143 -0.0324884097873 3.20785153416e-23)
(-0.0121630449369 -0.0325925922288 1.70201166984e-22)
(-0.0121630449369 -0.0325925922288 1.70201166984e-22)
(-0.00852341943095 -0.0290678067576 -1.94169955586e-22)
(-0.00505417531466 -0.0291875669668 -1.85927694281e-22)
(-0.00187000079785 -0.0290793751132 -2.34291964838e-22)
)
;
    }
}


// ************************************************************************* //
