/*--------------------------------*- C++ -*----------------------------------*\
| =========                 |                                                 |
| \\      /  F ield         | OpenFOAM: The Open Source CFD Toolbox           |
|  \\    /   O peration     | Version:  v2012                                 |
|   \\  /    A nd           | Website:  www.openfoam.com                      |
|    \\/     M anipulation  |                                                 |
\*---------------------------------------------------------------------------*/
FoamFile
{
    version     2.0;
    format      ascii;
    class       volScalarField;
    location    "2";
    object      ddt0(epsilon);
}
// * * * * * * * * * * * * * * * * * * * * * * * * * * * * * * * * * * * * * //

dimensions      [0 2 -4 0 0 0 0];


internalField   nonuniform List<scalar> 
166
(
-0.00613560043373
-0.00628415565122
-0.00673830312146
-0.00685700346376
-0.00688664324905
-0.00689921797115
-0.00691083822664
-0.00692417547884
-0.00693958152617
-0.00695725629594
-0.00697818872429
-0.00700837437446
-0.00707472192002
-0.00726899534339
-0.00784070512823
-0.00948117246687
-0.0150208036513
-0.0369424057906
-0.0916177290247
-0.0608036340119
-0.00613046377748
-0.00627281926943
-0.00672190095806
-0.00683814394706
-0.00686701016957
-0.00687945506706
-0.00689114288784
-0.00690467976863
-0.00692043735132
-0.00693866969266
-0.00696086200472
-0.00699459678882
-0.00707137486352
-0.00729288857228
-0.00791547938351
-0.00954546422532
-0.0145903658992
-0.0347022141494
-0.0892595479472
-0.0622170379027
-0.00612422847506
-0.0062605187955
-0.00670490332128
-0.00681878930242
-0.00684695060758
-0.00685930968563
-0.00687110858993
-0.00688481619667
-0.0069008446524
-0.00691958123414
-0.00694295759919
-0.00698002222773
-0.0070662408374
-0.00731115443992
-0.00797138434524
-0.00954207973297
-0.0138001750506
-0.0308322692378
-0.0819594067536
-0.059578776748
-0.00611295710636
-0.00624963327315
-0.00668800127204
-0.00679905473969
-0.00682656027497
-0.00683882784796
-0.00685072886296
-0.00686464662421
-0.00688088686467
-0.00689999961889
-0.00692441265634
-0.0069645781886
-0.00705971031534
-0.00732586784143
-0.0080199179563
-0.00954237893928
-0.0129754479975
-0.0263563780663
-0.0714721196295
-0.0540828891874
-0.00609650771498
-0.00623908399065
-0.0066722887257
-0.00678009133937
-0.0068062377281
-0.00681818766308
-0.00683009424441
-0.00684411192699
-0.00686056639907
-0.00688009131842
-0.00690532373515
-0.0069485015219
-0.00705242708572
-0.00734009639125
-0.00807389569782
-0.00959044025619
-0.0123625168125
-0.0220721212952
-0.0591349284517
-0.0465614852423
-0.00607984436856
-0.0062277699673
-0.00665591073465
-0.00676094743928
-0.00678578036111
-0.00679734285844
-0.00680921791768
-0.00682327163352
-0.00683975166786
-0.00685936917688
-0.00688537456022
-0.00693197687161
-0.00704636738368
-0.00735647085385
-0.00814165055166
-0.00972850561442
-0.0121742875339
-0.0185631071057
-0.0462549624286
-0.0369012000005
-0.00606289958899
-0.00621576077412
-0.00663939332453
-0.00674165170516
-0.00676520620159
-0.00677638575413
-0.00678821755912
-0.00680226631232
-0.00681871868195
-0.00683825268794
-0.0068645492415
-0.00691286993267
-0.00703741525817
-0.00738419206385
-0.00823103362269
-0.00999030399773
-0.0126391934732
-0.0172750303096
-0.0343080271521
-0.0157498931962
-0.0060464877234
-0.00620294923715
-0.00662264912889
-0.00672222323745
-0.00674458816635
-0.00675542399814
-0.00676717428272
-0.00678118498247
-0.00679752406392
-0.00681694910731
-0.0068432917916
-0.00689314453198
-0.00702417617682
-0.00740468166563
-0.00836218795352
-0.0103538244726
-0.013539332021
-0.0159306039941
-0.00578290052505
-0.322466482213
-0.0060300136164
-0.00618994261442
-0.00660584280258
-0.006014044276
-0.00599826361849
-0.00598263383052
)
;

boundaryField
{
    back
    {
        type            calculated;
        value           nonuniform List<scalar> 
166
(
-0.00613560043373
-0.00628415565122
-0.00673830312146
-0.00685700346376
-0.00688664324905
-0.00689921797115
-0.00691083822664
-0.00692417547884
-0.00693958152617
-0.00695725629594
-0.00697818872429
-0.00700837437446
-0.00707472192002
-0.00726899534339
-0.00784070512823
-0.00948117246687
-0.0150208036513
-0.0369424057906
-0.0916177290247
-0.0608036340119
-0.00613046377748
-0.00627281926943
-0.00672190095806
-0.00683814394706
-0.00686701016957
-0.00687945506706
-0.00689114288784
-0.00690467976863
-0.00692043735132
-0.00693866969266
-0.00696086200472
-0.00699459678882
-0.00707137486352
-0.00729288857228
-0.00791547938351
-0.00954546422532
-0.0145903658992
-0.0347022141494
-0.0892595479472
-0.0622170379027
-0.00612422847506
-0.0062605187955
-0.00670490332128
-0.00681878930242
-0.00684695060758
-0.00685930968563
-0.00687110858993
-0.00688481619667
-0.0069008446524
-0.00691958123414
-0.00694295759919
-0.00698002222773
-0.0070662408374
-0.00731115443992
-0.00797138434524
-0.00954207973297
-0.0138001750506
-0.0308322692378
-0.0819594067536
-0.059578776748
-0.00611295710636
-0.00624963327315
-0.00668800127204
-0.00679905473969
-0.00682656027497
-0.00683882784796
-0.00685072886296
-0.00686464662421
-0.00688088686467
-0.00689999961889
-0.00692441265634
-0.0069645781886
-0.00705971031534
-0.00732586784143
-0.0080199179563
-0.00954237893928
-0.0129754479975
-0.0263563780663
-0.0714721196295
-0.0540828891874
-0.00609650771498
-0.00623908399065
-0.0066722887257
-0.00678009133937
-0.0068062377281
-0.00681818766308
-0.00683009424441
-0.00684411192699
-0.00686056639907
-0.00688009131842
-0.00690532373515
-0.0069485015219
-0.00705242708572
-0.00734009639125
-0.00807389569782
-0.00959044025619
-0.0123625168125
-0.0220721212952
-0.0591349284517
-0.0465614852423
-0.00607984436856
-0.0062277699673
-0.00665591073465
-0.00676094743928
-0.00678578036111
-0.00679734285844
-0.00680921791768
-0.00682327163352
-0.00683975166786
-0.00685936917688
-0.00688537456022
-0.00693197687161
-0.00704636738368
-0.00735647085385
-0.00814165055166
-0.00972850561442
-0.0121742875339
-0.0185631071057
-0.0462549624286
-0.0369012000005
-0.00606289958899
-0.00621576077412
-0.00663939332453
-0.00674165170516
-0.00676520620159
-0.00677638575413
-0.00678821755912
-0.00680226631232
-0.00681871868195
-0.00683825268794
-0.0068645492415
-0.00691286993267
-0.00703741525817
-0.00738419206385
-0.00823103362269
-0.00999030399773
-0.0126391934732
-0.0172750303096
-0.0343080271521
-0.0157498931962
-0.0060464877234
-0.00620294923715
-0.00662264912889
-0.00672222323745
-0.00674458816635
-0.00675542399814
-0.00676717428272
-0.00678118498247
-0.00679752406392
-0.00681694910731
-0.0068432917916
-0.00689314453198
-0.00702417617682
-0.00740468166563
-0.00836218795352
-0.0103538244726
-0.013539332021
-0.0159306039941
-0.00578290052505
-0.322466482213
-0.0060300136164
-0.00618994261442
-0.00660584280258
-0.006014044276
-0.00599826361849
-0.00598263383052
)
;
    }
    sides
    {
        type            calculated;
        value           nonuniform List<scalar> 0();
    }
    bottom
    {
        type            calculated;
        value           nonuniform List<scalar> 
12
(
-0.00613560043373
-0.00613046377748
-0.00612422847506
-0.00611295710636
-0.00609650771498
-0.00607984436856
-0.00606289958899
-0.0060464877234
-0.0060300136164
-0.006014044276
-0.00599826361849
-0.00598263383052
)
;
    }
    front
    {
        type            calculated;
        value           nonuniform List<scalar> 
166
(
-0.00613560043373
-0.00628415565122
-0.00673830312146
-0.00685700346376
-0.00688664324905
-0.00689921797115
-0.00691083822664
-0.00692417547884
-0.00693958152617
-0.00695725629594
-0.00697818872429
-0.00700837437446
-0.00707472192002
-0.00726899534339
-0.00784070512823
-0.00948117246687
-0.0150208036513
-0.0369424057906
-0.0916177290247
-0.0608036340119
-0.00613046377748
-0.00627281926943
-0.00672190095806
-0.00683814394706
-0.00686701016957
-0.00687945506706
-0.00689114288784
-0.00690467976863
-0.00692043735132
-0.00693866969266
-0.00696086200472
-0.00699459678882
-0.00707137486352
-0.00729288857228
-0.00791547938351
-0.00954546422532
-0.0145903658992
-0.0347022141494
-0.0892595479472
-0.0622170379027
-0.00612422847506
-0.0062605187955
-0.00670490332128
-0.00681878930242
-0.00684695060758
-0.00685930968563
-0.00687110858993
-0.00688481619667
-0.0069008446524
-0.00691958123414
-0.00694295759919
-0.00698002222773
-0.0070662408374
-0.00731115443992
-0.00797138434524
-0.00954207973297
-0.0138001750506
-0.0308322692378
-0.0819594067536
-0.059578776748
-0.00611295710636
-0.00624963327315
-0.00668800127204
-0.00679905473969
-0.00682656027497
-0.00683882784796
-0.00685072886296
-0.00686464662421
-0.00688088686467
-0.00689999961889
-0.00692441265634
-0.0069645781886
-0.00705971031534
-0.00732586784143
-0.0080199179563
-0.00954237893928
-0.0129754479975
-0.0263563780663
-0.0714721196295
-0.0540828891874
-0.00609650771498
-0.00623908399065
-0.0066722887257
-0.00678009133937
-0.0068062377281
-0.00681818766308
-0.00683009424441
-0.00684411192699
-0.00686056639907
-0.00688009131842
-0.00690532373515
-0.0069485015219
-0.00705242708572
-0.00734009639125
-0.00807389569782
-0.00959044025619
-0.0123625168125
-0.0220721212952
-0.0591349284517
-0.0465614852423
-0.00607984436856
-0.0062277699673
-0.00665591073465
-0.00676094743928
-0.00678578036111
-0.00679734285844
-0.00680921791768
-0.00682327163352
-0.00683975166786
-0.00685936917688
-0.00688537456022
-0.00693197687161
-0.00704636738368
-0.00735647085385
-0.00814165055166
-0.00972850561442
-0.0121742875339
-0.0185631071057
-0.0462549624286
-0.0369012000005
-0.00606289958899
-0.00621576077412
-0.00663939332453
-0.00674165170516
-0.00676520620159
-0.00677638575413
-0.00678821755912
-0.00680226631232
-0.00681871868195
-0.00683825268794
-0.0068645492415
-0.00691286993267
-0.00703741525817
-0.00738419206385
-0.00823103362269
-0.00999030399773
-0.0126391934732
-0.0172750303096
-0.0343080271521
-0.0157498931962
-0.0060464877234
-0.00620294923715
-0.00662264912889
-0.00672222323745
-0.00674458816635
-0.00675542399814
-0.00676717428272
-0.00678118498247
-0.00679752406392
-0.00681694910731
-0.0068432917916
-0.00689314453198
-0.00702417617682
-0.00740468166563
-0.00836218795352
-0.0103538244726
-0.013539332021
-0.0159306039941
-0.00578290052505
-0.322466482213
-0.0060300136164
-0.00618994261442
-0.00660584280258
-0.006014044276
-0.00599826361849
-0.00598263383052
)
;
    }
    atmosphere
    {
        type            calculated;
        value           nonuniform List<scalar> 8(0 0 0 0 0 0 0 -0.204122262596);
    }
    floatingObject
    {
        type            calculated;
        value           nonuniform List<scalar> 0();
    }
    procBoundary9to6
    {
        type            processor;
        value           nonuniform List<scalar> 4(-0.0148341036253 -0.0365612222531 -0.0921403496965 -0.0667651972279);
    }
    procBoundary9to7
    {
        type            processor;
        value           nonuniform List<scalar> 
16
(
-0.0061390351276
-0.00629454065322
-0.00675412733675
-0.00687544940324
-0.00690591974129
-0.00691864690793
-0.00693020020959
-0.00694337382439
-0.00695849092425
-0.0069756036425
-0.00699525062729
-0.00702171166869
-0.00707668364309
-0.00723898271522
-0.00773714506356
-0.00926772608606
)
;
    }
    procBoundary9to10
    {
        type            processor;
        value           nonuniform List<scalar> 
15
(
-0.00670283214673
-0.00672406384985
-0.00673457627416
-0.00674626428867
-0.00676022440515
-0.00677645237281
-0.00679563526618
-0.00682213570052
-0.00617686809557
-0.00670283214673
-0.00658911252526
-0.00617686809557
-0.00616360045474
-0.00615051418246
-0.0059672617171
)
;
    }
    procBoundary9to11
    {
        type            processor;
        value           nonuniform List<scalar> 9(-0.00687338375353 -0.00701044675799 -0.00740694586341 -0.00846469724301 -0.0107442762807 -0.0145209599392 -0.0188973655648 -0.0182327406422 -0.00208030644005);
    }
}


// ************************************************************************* //
