/*--------------------------------*- C++ -*----------------------------------*\
| =========                 |                                                 |
| \\      /  F ield         | OpenFOAM: The Open Source CFD Toolbox           |
|  \\    /   O peration     | Version:  v2012                                 |
|   \\  /    A nd           | Website:  www.openfoam.com                      |
|    \\/     M anipulation  |                                                 |
\*---------------------------------------------------------------------------*/
FoamFile
{
    version     2.0;
    format      ascii;
    class       volVectorField;
    location    "2";
    object      ddtCorrDdt0(U);
}
// * * * * * * * * * * * * * * * * * * * * * * * * * * * * * * * * * * * * * //

dimensions      [0 1 -2 0 0 0 0];


internalField   nonuniform List<vector> 
166
(
(0.0989958906379 0.00325590855505 2.95025297601e-22)
(0.103045401705 0.00875102461733 -2.29994228708e-22)
(0.103653410041 0.0148675998626 -2.09929670745e-22)
(0.104971069641 0.0213476767638 -5.62097953983e-23)
(0.106964945691 0.0280439352086 1.14978392591e-23)
(0.109614627279 0.0351835161834 -4.86818630256e-23)
(0.112972060343 0.0428989515696 3.39009047078e-25)
(0.117143311301 0.0513058787747 4.41610534029e-25)
(0.122313705098 0.0605743378928 1.61591384184e-22)
(0.128709974942 0.0709036917511 1.47076448148e-23)
(0.136662895187 0.082518310773 -1.1007173725e-22)
(0.146646238407 0.0957534166933 4.55913960523e-23)
(0.159321564984 0.110965758025 -1.20963213042e-21)
(0.17554111664 0.128252855921 1.02117064369e-21)
(0.19629928908 0.14805374567 5.73609837426e-22)
(0.220132052585 0.17755475854 4.60363039928e-21)
(0.250648134276 0.250560073434 3.63613940872e-21)
(0.30150236346 0.317485467627 -5.06000423339e-22)
(0.235799406586 0.291905001881 -1.32254222204e-20)
(0.0546432870534 0.315559738283 2.6837607381e-21)
(0.0930267303174 0.00362865926328 1.67797264287e-22)
(0.0970386254073 0.00933193091645 -4.0204854716e-22)
(0.0970799230588 0.015902833927 -1.26480576836e-22)
(0.0983262274716 0.0230363572567 1.03701100402e-23)
(0.0998832682471 0.0301935060829 1.26921905171e-22)
(0.101961590684 0.0379000434435 5.48419166505e-23)
(0.104617706699 0.0462917225977 8.61838919585e-23)
(0.107927103891 0.0555470256166 -6.37352932322e-23)
(0.112034081835 0.0658520210686 1.35981237714e-22)
(0.117117195925 0.0774397520083 2.45236914247e-22)
(0.123430847013 0.090672643075 -1.07064666078e-23)
(0.131321424985 0.105997307803 3.83367645017e-22)
(0.141226036738 0.123893478323 -1.49062632393e-22)
(0.153702474064 0.144707707576 1.07633200608e-21)
(0.169507744961 0.167112994678 2.84737388898e-21)
(0.186102536871 0.203247427912 6.4496493617e-21)
(0.210827858376 0.294876083229 1.02659451941e-20)
(0.247857749131 0.39135249537 -1.4655140805e-20)
(0.20609796262 0.282612726101 -1.89508394453e-21)
(0.0159681000801 0.371984574176 1.64850064328e-20)
(0.0869227199856 0.00411802011587 2.04898833446e-22)
(0.090471787906 0.00958365450344 -4.23244857527e-22)
(0.0896440733979 0.0165757390855 1.50171501575e-22)
(0.0914806169632 0.0245133560147 1.32637848543e-22)
(0.0923186273247 0.0317969691649 3.44032914264e-23)
(0.0937176365807 0.0399506091112 3.4405671066e-23)
(0.0955815561634 0.0488706632209 1.17733346439e-23)
(0.097915481854 0.0587198254743 1.37971875119e-22)
(0.100778042228 0.0697681412058 5.89352588465e-25)
(0.104292247709 0.0823125763814 -8.53472307238e-24)
(0.108615185759 0.096739506637 -3.93627947238e-24)
(0.113973659934 0.113551467996 1.66281118163e-22)
(0.120619121983 0.133278763293 -2.83075982108e-22)
(0.128894709299 0.156547985512 -4.61472957262e-22)
(0.139264944216 0.181220378662 4.40033716718e-21)
(0.152219386944 0.228059872474 3.53216482256e-21)
(0.176842276644 0.318909498793 -9.3045758678e-21)
(0.179454528498 0.420464242283 -1.68690084012e-20)
(0.1608589638 0.318682537345 -2.00402252821e-20)
(-0.0161314051092 0.426815491687 -3.50088880262e-22)
(0.0801420260505 0.0040106290246 2.50885144949e-22)
(0.0829957816868 0.00892917016296 -6.07603879989e-23)
(0.08358076998 0.0173626567498 3.52441411083e-22)
(0.0836859622992 0.0260580509769 2.31607324135e-22)
(0.0842406166088 0.0325382724866 -7.28314461235e-24)
(0.0850642204189 0.041185878694 -9.7096700714e-24)
(0.0860954120697 0.0505054389572 1.66763918126e-23)
(0.0873510942758 0.0607593576442 -2.05326241679e-23)
(0.0888656460588 0.0722284960302 1.56987342344e-22)
(0.0906759967403 0.0852740202186 7.19773038994e-23)
(0.0927999283304 0.100358642239 -1.16515470206e-22)
(0.095402468523 0.117988109151 1.31232584076e-22)
(0.0985428962036 0.1387648538 -3.11415721093e-22)
(0.102438302711 0.163405461302 -1.01932352431e-21)
(0.10753556162 0.190895363289 -1.70862266397e-21)
(0.116042719462 0.248582730792 3.49320533127e-21)
(0.12889073584 0.323416908965 -2.81867633993e-20)
(0.106362701084 0.40973760134 -4.05326849548e-20)
(0.106269460896 0.360404767624 -2.68051079234e-20)
(-0.0449549594609 0.475772722773 1.58152122768e-20)
(0.0730103758423 0.00376943041541 3.4725207871e-22)
(0.0757904511828 0.00987632339826 -4.80094067711e-22)
(0.0772093766979 0.0176854418742 2.46316081563e-22)
(0.0757179458394 0.0255155305286 -4.82616576998e-23)
(0.0760001061134 0.0332888896049 -1.02014828611e-22)
(0.0762269561018 0.0418282147446 6.38896613367e-24)
(0.076400742691 0.0511575729971 -1.11379167692e-23)
(0.076554180565 0.0614865219707 -3.55383813056e-23)
(0.0766603752385 0.0730995449415 4.4568056984e-24)
(0.0766969041285 0.0862553084191 3.47389847941e-23)
(0.0766245869091 0.101457874582 -6.93238782691e-23)
(0.0763826956792 0.11924721796 6.03077234792e-23)
(0.0759528637041 0.140154051483 -2.92734934568e-22)
(0.0753620720766 0.164954506747 -4.48582681201e-22)
(0.0745327028693 0.194154390663 -8.56684142678e-21)
(0.0764496684586 0.256057948333 1.1831971199e-20)
(0.0712167672594 0.311992735824 -6.34405015007e-20)
(0.0300600116777 0.380796967513 6.54088183563e-21)
(0.0483783426947 0.375637785672 -4.00539799204e-20)
(-0.0683405364447 0.49369240694 2.30963012752e-20)
(0.0661474110073 0.0037709587589 -6.7511900775e-23)
(0.0690562244111 0.0100977273854 1.61548986669e-22)
(0.0691225021031 0.0177065781875 -6.94661016557e-23)
(0.0683390705521 0.0251678940586 -9.9700936347e-23)
(0.0679013680082 0.0331438207691 3.15926221033e-23)
(0.067391358068 0.0416052786408 2.36809985531e-23)
(0.0667153826005 0.0508261293762 -1.50042860994e-23)
(0.0657892200336 0.0610087020087 2.30302151292e-23)
(0.0645304896776 0.0723702938026 -7.09293206763e-23)
(0.0628384304606 0.085238344504 -4.07353980092e-23)
(0.0606230333136 0.10003319562 2.12657708976e-23)
(0.0576147356083 0.117250392556 -1.80365411839e-23)
(0.0536934913621 0.137495406946 -2.5867076229e-23)
(0.0486885834976 0.161567421843 -5.24072776055e-22)
(0.0425251447419 0.190821594015 -3.66506129067e-21)
(0.0370950028826 0.249020687095 1.06362682574e-20)
(0.0141934579813 0.287101194611 -3.55512664027e-21)
(-0.042171219419 0.339220906747 -6.35930224998e-20)
(-0.0078621988341 0.362562817607 -1.57499360622e-20)
(-0.0820168743653 0.462479107242 -1.22396126402e-20)
(0.0592791975758 0.00375127830663 -2.5141794172e-23)
(0.0620866971437 0.00996783540807 -9.56153491629e-22)
(0.0616109725933 0.0174281979356 -9.33009860431e-22)
(0.0607521172685 0.0246063315805 1.07921795911e-22)
(0.0598666885779 0.0324232402855 4.9126147071e-23)
(0.0587349130514 0.0406532433803 1.27173105482e-23)
(0.0572725637647 0.049562093942 -9.57377484925e-24)
(0.0553393608341 0.0593107814889 -2.53424384754e-25)
(0.0528157680447 0.0701447120432 -1.63075282579e-23)
(0.0495447268132 0.0823331448594 -3.24225973809e-23)
(0.0452923478645 0.0962085089496 -4.88734892244e-23)
(0.0397960587794 0.112236810927 -5.91713226114e-23)
(0.0326455840816 0.131004841221 -6.54628797013e-23)
(0.0234823904456 0.153321302941 -1.99191281959e-22)
(0.0118428673975 0.180994361962 -7.27488640567e-23)
(-0.000750561182167 0.229992311968 1.54954994015e-20)
(-0.0354246881909 0.254957036576 9.26816644726e-21)
(-0.106072000774 0.298207039908 1.08790515432e-21)
(-0.0582590348538 0.332048403587 -2.73065769376e-20)
(-0.10572777313 0.383454479197 3.54926840746e-21)
(0.0526298159835 0.00370684629537 2.34424951362e-22)
(0.0552424960904 0.00962843278441 -7.75426642843e-22)
(0.054508508799 0.0168393524147 2.05899633563e-22)
(0.0533914898407 0.0237393549385 1.55999615423e-22)
(0.052099166536 0.0312193264017 -6.57928706013e-23)
(0.0504362113182 0.0390268404473 -5.12351283101e-23)
(0.048263077498 0.0474263734895 -2.9953739184e-23)
(0.0454524444088 0.056544856655 -3.28460675696e-23)
(0.0418460440915 0.0665723392571 -1.02698675743e-22)
(0.0372000380335 0.0777072903571 -2.541457415e-23)
(0.0312418825444 0.09026243118 -4.81841326834e-23)
(0.0235853652172 0.104538777941 -2.36942382447e-22)
(0.0137013873213 0.120976202268 -3.53148693917e-22)
(0.00101298986816 0.140233971758 -5.93527826242e-22)
(-0.0154142533502 0.164487237617 2.73772013541e-22)
(-0.0371942889734 0.203234128082 -1.01588513261e-20)
(-0.0720391960534 0.217970166679 -5.07533461798e-21)
(-0.136727067426 0.252845973535 -2.53181456546e-21)
(-0.0803261679092 0.279125970474 -2.19807593526e-21)
(-0.028884366512 0.189483143062 -1.30063168248e-20)
(0.0462678075604 0.00358296645399 3.02019024862e-22)
(0.0486616301888 0.00914693182141 -6.58360896497e-22)
(0.0477657261467 0.0160349328126 4.3562746564e-22)
(0.0401888107869 0.00344447968801 1.99664628849e-22)
(0.0345211674527 0.00327528890341 -3.74728485739e-22)
(0.029324794569 0.00308576276991 2.77400625628e-22)
)
;

boundaryField
{
    back
    {
        type            calculated;
        value           uniform (0 0 0);
    }
    sides
    {
        type            calculated;
        value           nonuniform List<vector> 0();
    }
    bottom
    {
        type            calculated;
        value           uniform (0 0 0);
    }
    front
    {
        type            calculated;
        value           uniform (0 0 0);
    }
    atmosphere
    {
        type            calculated;
        value           nonuniform List<vector> 8((0 0.315559738283 0) (0 0.371984574176 0) (0 0.426815491687 0) (0 0.475772722773 0) (0 0.49369240694 0) (0 0.462479107242 0) (0 0.383454479197 0) (1.20256265313 0.189483143062 -1.16778725167e-19));
    }
    floatingObject
    {
        type            calculated;
        value           nonuniform List<vector> 0();
    }
    procBoundary9to6
    {
        type            processor;
        value           nonuniform List<vector> 4((0.289244824227 0.192835602026 -3.54903717918e-20) (0.334197391056 0.24134078089 1.35512767102e-20) (0.263424424699 0.132235127863 8.3810687418e-21) (0.0648468233966 0.144350650487 -4.49154205603e-20));
    }
    procBoundary9to7
    {
        type            processor;
        value           nonuniform List<vector> 
16
(
(0.104567603364 0.00289222706192 3.05782699949e-22)
(0.108668435129 0.00800928318251 -1.13920086673e-22)
(0.109570960898 0.0135883546496 1.50845113051e-23)
(0.111104162698 0.0193794066782 -9.51628064306e-23)
(0.113452948566 0.0254414974316 1.1876761225e-23)
(0.116577924508 0.0318726905005 1.00863606071e-22)
(0.120522988773 0.0387622986026 1.01173366861e-22)
(0.12539994132 0.0461974181729 6.61208367092e-23)
(0.131380385834 0.0542712204507 2.06690695944e-22)
(0.138745314141 0.0630810353578 1.58419278825e-22)
(0.147869009356 0.0727272594953 4.34190994632e-23)
(0.159304429084 0.0833618755168 2.71845800672e-22)
(0.17387657381 0.095118599336 1.11657271815e-22)
(0.19268470901 0.107715134126 6.38574810089e-22)
(0.217013938385 0.121556996171 -1.20123840635e-21)
(0.248143178381 0.137988682061 -4.49389827085e-21)
)
;
    }
    procBoundary9to10
    {
        type            processor;
        value           nonuniform List<vector> 
15
(
(0.0463910464811 0.0225077328101 1.73682255568e-22)
(0.0447430488279 0.0295527151988 4.41314735304e-23)
(0.0426191186012 0.0368285515916 -2.21547676626e-23)
(0.0398793045555 0.0445736492033 -1.00379471991e-23)
(0.0363684648538 0.0528874712526 -3.38061467406e-23)
(0.0318877690447 0.0618830776267 -4.2407369513e-23)
(0.0261661121505 0.0717168758045 -1.27003407376e-23)
(0.0189030984653 0.0825677983067 4.60384659694e-23)
(0.0424182176782 0.00854410879581 -1.68642072215e-22)
(0.0463910464811 0.0225077328101 1.73682255568e-22)
(0.0413519739719 0.0150357504494 6.42084361976e-22)
(0.0424182176782 0.00854410879581 -1.68642072215e-22)
(0.0365652248551 0.0078455340518 2.38474871157e-22)
(0.0312203706184 0.00710753644179 -1.10073898755e-21)
(0.0246386291477 0.00290764529897 -6.71255213649e-22)
)
;
    }
    procBoundary9to11
    {
        type            processor;
        value           nonuniform List<vector> 9((0.00958150451587 0.0946279236188 -5.99700412576e-23) (-0.00229861079248 0.108225892142 -1.14602747132e-22) (-0.0174806684945 0.123718365694 -7.27730199851e-22) (-0.0369966904206 0.140686171525 -1.99926490003e-21) (-0.0622452083969 0.168867617365 2.79721045047e-21) (-0.0904004658839 0.175259296145 3.19656805122e-21) (-0.137156420719 0.194256079108 4.53486963362e-21) (-0.0812513481294 0.202282833917 2.22925641327e-21) (0.0550399200778 0.141146932551 1.73706348775e-21));
    }
}


// ************************************************************************* //
