/*--------------------------------*- C++ -*----------------------------------*\
| =========                 |                                                 |
| \\      /  F ield         | OpenFOAM: The Open Source CFD Toolbox           |
|  \\    /   O peration     | Version:  v2012                                 |
|   \\  /    A nd           | Website:  www.openfoam.com                      |
|    \\/     M anipulation  |                                                 |
\*---------------------------------------------------------------------------*/
FoamFile
{
    version     2.0;
    format      ascii;
    class       surfaceVectorField;
    location    "2";
    object      ddtCorrDdt0(Uf);
}
// * * * * * * * * * * * * * * * * * * * * * * * * * * * * * * * * * * * * * //

dimensions      [0 1 -2 0 0 0 0];


internalField   nonuniform List<vector> 
300
(
(0.101020646171 0.00588739299925 3.25155344461e-23)
(0.0960599133094 0.00344228390917 2.31411280944e-22)
(0.103349405873 0.0117864479721 -2.19961949726e-22)
(0.100107501287 0.00904147776689 -3.16021387934e-22)
(0.104312239841 0.0181223522928 -1.33069733071e-22)
(0.100447116258 0.0153852168948 -1.6820512379e-22)
(0.105968007666 0.0246465324136 -2.23559780696e-23)
(0.101666948161 0.0221920170102 -2.29198426791e-23)
(0.108289786485 0.0315443797141 -1.85920118832e-23)
(0.103472061472 0.0291187206457 6.92098722152e-23)
(0.111293343811 0.0389571554425 -2.41714269892e-23)
(0.105864148306 0.0365417798134 3.0800268125e-24)
(0.115057685822 0.0470192537653 3.90309790554e-25)
(0.108901221779 0.0445953370836 4.32614505028e-23)
(0.119728508199 0.0558177297623 8.10164973588e-23)
(0.112747139142 0.0534264521956 -3.16468413491e-23)
(0.12551184002 0.0656173062909 8.81495144992e-23)
(0.117392624334 0.0632131794807 1.48786310949e-22)
(0.132686435064 0.0765719084226 -4.76820462174e-23)
(0.123224750508 0.0741717218797 1.29972279531e-22)
(0.141654566797 0.0889659052699 -3.22401705987e-23)
(0.130477682572 0.086595476924 -6.03891019287e-23)
(0.152983901695 0.103188167138 -5.82020367182e-22)
(0.139566673151 0.100875362248 2.14479520535e-22)
(0.167431340812 0.11978963976 -9.42307433653e-23)
(0.151088442467 0.117429618174 -6.79347381404e-22)
(0.18592020286 0.139807175238 7.97390240556e-22)
(0.165572292868 0.136480281748 1.04875132488e-21)
(0.208215670833 0.16445339658 2.58862011835e-21)
(0.184030900276 0.157583370174 1.7104918632e-21)
(0.235390093431 0.198923057745 4.119884904e-21)
(0.202954088071 0.190401093226 5.52663988049e-21)
(0.276075248868 0.250384886679 1.56506949269e-21)
(0.225098154542 0.272718078332 6.95104230141e-21)
(0.268650885023 0.294306907579 -6.86571132187e-21)
(0.278652220958 0.354418981499 -7.58057061415e-21)
(0.14522134682 0.307916107265 -5.27083074116e-21)
(0.22745210404 0.287258863991 -7.56025308247e-21)
(0.0337373237088 0.343772156229 9.58438358546e-21)
(0.0950326778624 0.00629357702341 -1.17125641437e-22)
(0.0898292175386 0.00387333968958 1.86348048867e-22)
(0.0970592742331 0.0126066958335 -2.64264561998e-22)
(0.0938593524764 0.00945779270994 -4.12646702344e-22)
(0.0977030752652 0.0196006183109 -5.8055233398e-23)
(0.0935182256551 0.0162392865063 1.18454623696e-23)
(0.0991047478593 0.0265319921471 6.86460076057e-23)
(0.0947999139384 0.0237748566357 7.15039792915e-23)
(0.100922429466 0.0339495461787 9.08819109109e-23)
(0.0961180776146 0.0309952376239 8.06625982989e-23)
(0.103289648692 0.0419842243755 7.05129043045e-23)
(0.0978929373787 0.0389253262773 4.46237938583e-23)
(0.106272405295 0.0507662939831 1.12242993631e-23)
(0.100184250786 0.0475811929093 4.89786133012e-23)
(0.109980592863 0.0605405995786 3.61229722409e-23)
(0.103042328978 0.0571334255454 3.71182909436e-23)
(0.11457563888 0.0714414019864 1.90609075981e-22)
(0.106568811461 0.0678100811372 6.82852951512e-23)
(0.120274021469 0.0837934047759 1.1726522382e-22)
(0.110959149394 0.0798761641948 1.18351095587e-22)
(0.127376135999 0.0980157154582 1.86330589205e-22)
(0.116350281492 0.093706074856 -7.32137304007e-24)
(0.136273730862 0.114581586952 1.17152506312e-22)
(0.123099667019 0.109774387899 2.7482438159e-22)
(0.147464255401 0.13424153604 4.63634686845e-22)
(0.131524281949 0.128586120808 -2.16069307251e-22)
(0.161605109513 0.157864896861 1.96185294753e-21)
(0.142035561238 0.150627846544 3.07429524411e-22)
(0.177805140916 0.186634745961 4.64851162534e-21)
(0.155329706833 0.17416668667 3.62385552808e-21)
(0.198465197624 0.219527841003 8.3577972779e-21)
(0.170103148597 0.215653650193 4.99090709213e-21)
(0.229342803753 0.246960036651 -2.19459780543e-21)
(0.197680890555 0.306892791011 4.80684663147e-22)
(0.226977855875 0.309682748177 -8.27511237475e-21)
(0.215459278814 0.405908368827 -1.57620746031e-20)
(0.11103303135 0.354346241081 7.29496124415e-21)
(0.18301125389 0.300647631723 -1.09676546133e-20)
(0.000809163084053 0.399400032932 8.06745877628e-21)
(0.0886972539458 0.00608127484693 -1.09173012041e-22)
(0.0838008320011 0.00406432457024 2.27891989197e-22)
(0.090057930652 0.0130985487972 -1.36536677976e-22)
(0.086896038814 0.0092564123332 -2.42002622763e-22)
(0.0905623451806 0.0210815578767 1.41404675059e-22)
(0.0855896053959 0.0169691979177 2.51306456329e-22)
(0.091899622144 0.027934167727 8.35205699847e-23)
(0.0880024118383 0.0252857034958 1.82122586339e-22)
(0.0930181319527 0.0357451320141 3.44044812462e-23)
(0.0883636430487 0.0321676208258 1.3560073407e-23)
(0.094649596372 0.0442962592249 2.3089502855e-23)
(0.0894008578531 0.0405682439026 1.23480004973e-23)
(0.0967485190087 0.0536016696662 7.48726048817e-23)
(0.0909422519692 0.0496880510891 1.42248632283e-23)
(0.0993467620411 0.0640281160919 6.9280613854e-23)
(0.0926860099365 0.0597395915593 5.87196254758e-23)
(0.102535144969 0.0757572240075 -3.97268524196e-24)
(0.0949188389405 0.070998318618 7.87883474662e-23)
(0.106453716734 0.089177875602 -6.23550127238e-24)
(0.0976274641797 0.0837932983 3.17212904135e-23)
(0.111294422847 0.104687447917 8.11724193454e-23)
(0.100937695509 0.098549074438 -6.02258748391e-23)
(0.117296390959 0.122926175031 -5.83974319724e-23)
(0.104960957637 0.115769788574 1.48756851119e-22)
(0.124756915641 0.144451144295 -3.72274469685e-22)
(0.11009536603 0.136021808546 -2.97245851601e-22)
(0.134079826758 0.170360765243 1.96943210496e-21)
(0.116211026715 0.159976723407 -7.40398240785e-22)
(0.14574216558 0.201673275334 3.96625099487e-21)
(0.124083368408 0.186057870975 1.3458572516e-21)
(0.164530831794 0.235517639503 -2.88620552262e-21)
(0.136297481504 0.238321301633 3.51268507691e-21)
(0.178148402571 0.274745490842 -1.30867921345e-20)
(0.158467079614 0.321163203879 -1.87456696335e-20)
(0.170156746149 0.345297690297 -1.84546168416e-20)
(0.144406834492 0.415100921812 -2.8700846678e-20)
(0.0723637793452 0.398398887885 -1.01951570812e-20)
(0.130225042359 0.339543652485 -2.34226666027e-20)
(-0.031191204407 0.45129410723 7.73256169826e-21)
(0.0815689038687 0.00750771621242 9.50623784749e-23)
(0.0763344884037 0.00389002972001 2.9906861183e-22)
(0.0832882758334 0.0155072566125 1.45840511542e-22)
(0.0789380128581 0.00940274678061 -2.70427227855e-22)
(0.0836333661396 0.0196758353999 2.92024367609e-22)
(0.0814631292642 0.017524049312 2.99378746323e-22)
(0.083963289454 0.0284177174389 1.12162089761e-22)
(0.0793042579979 0.0257867907528 9.16728332178e-23)
(0.0846524185138 0.0368521941318 -8.49640734188e-24)
(0.0799758221534 0.0329135810458 -5.46489866119e-23)
(0.0855798162443 0.0457064240143 3.4833608706e-24)
(0.0805975792906 0.0415070467193 -1.66035196887e-24)
(0.0867232531728 0.0554790148665 -1.92811617767e-24)
(0.081226803781 0.0508315059772 2.76923752169e-24)
(0.0881083701673 0.066284689276 6.8227359088e-23)
(0.0819456419946 0.0611229398074 -2.80355027368e-23)
(0.0897708213996 0.0784008412684 1.14482323122e-22)
(0.0828778424755 0.0726640204858 8.07220740212e-23)
(0.0917379625353 0.0923801932297 -2.22690831532e-23)
(0.0837331002633 0.0857646643188 5.33581443468e-23)
(0.0941011984267 0.10864727815 7.35855693484e-24)
(0.0847630426654 0.100908258411 -9.29196742375e-23)
(0.0969726823633 0.127678052916 -9.00915685088e-23)
(0.0860248890203 0.118617663556 9.57701537774e-23)
(0.100490599457 0.15041231895 -6.653696227e-22)
(0.0874513114555 0.139459452642 -3.02075327831e-22)
(0.104986932166 0.177546922435 -1.36397309414e-21)
(0.0891547515789 0.164179984024 -7.33953102754e-22)
(0.111789140541 0.210248161026 8.92291333651e-22)
(0.0914416949444 0.192524876976 -5.13773204538e-21)
(0.122466727651 0.248921830971 -1.2346779034e-20)
(0.0976570178004 0.252320339563 7.66258826514e-21)
(0.117626718462 0.305561482791 -3.4359724177e-20)
(0.101839447561 0.317704822395 -4.581363245e-20)
(0.10631608099 0.380097579738 -3.36688964391e-20)
(0.0693823341868 0.395267284427 -1.69959015596e-20)
(0.0306572507177 0.434602497176 -5.49494782331e-21)
(0.0760308032912 0.368021276648 -3.34295439219e-20)
(-0.0574048094239 0.484732564857 1.9455756776e-20)
(0.0744004135126 0.00688937883374 -6.64209945004e-23)
(0.069472969023 0.00377019458716 1.39870088968e-22)
(0.0764999139404 0.0133948538382 -1.16888993074e-22)
(0.0724600738416 0.00998702539183 -1.59272540521e-22)
(0.0764636612687 0.0220306287085 9.90272119315e-23)
(0.0728558919401 0.0176960100309 8.84249899536e-23)
(0.0758590259764 0.0292984159495 -7.51382431556e-23)
(0.0720668712429 0.0253417122936 -7.39812970234e-23)
(0.0761135311076 0.0374110845927 -4.78129312389e-23)
(0.071896800114 0.033216355187 -3.5211103254e-23)
(0.0763138493964 0.0463078523191 -2.37447531778e-24)
(0.0717391611201 0.0417167466927 1.50349823434e-23)
(0.076477461628 0.056088695319 -2.33381490374e-23)
(0.0714908619974 0.0509918511867 -1.30711014343e-23)
(0.0766072779017 0.0669862719934 -1.55407878036e-23)
(0.0711012419538 0.0612476119897 -6.25408308821e-24)
(0.0766786396835 0.0794090492746 1.95978952463e-23)
(0.0705178072496 0.072734919372 -3.32362574889e-23)
(0.0766607455188 0.0935199393937 -1.72924467375e-23)
(0.069694125474 0.0857468264615 -2.99820660755e-24)
(0.0765036412942 0.109769747198 -4.50807739492e-24)
(0.0685918651855 0.100745535101 -2.40290536858e-23)
(0.0761677796917 0.128913970141 -1.16213605545e-22)
(0.0669613014377 0.118248805258 2.11355911477e-23)
(0.0756574678903 0.151649091832 -3.70658807885e-22)
(0.0647927694523 0.138824729215 -1.59301005399e-22)
(0.0749473874729 0.17873763227 -4.50771205399e-21)
(0.0621310607013 0.163260964295 -4.86327728628e-22)
(0.0754911856639 0.2113999781 1.63256488612e-21)
(0.0588270425972 0.192487992339 -6.11595135873e-21)
(0.073833217859 0.252001345273 -2.58042651508e-20)
(0.057080411272 0.252539317714 1.12341197282e-20)
(0.0506383894686 0.311275766758 -2.84498098325e-20)
(0.0425740178354 0.299546965217 -3.34978140705e-20)
(0.0392191771862 0.387584664807 -1.67565490424e-20)
(-0.00738551933552 0.36000893713 -2.85260703321e-20)
(-0.00998109687503 0.444880952723 -8.47883932259e-21)
(0.0189880909718 0.369100301639 -2.79019579913e-20)
(-0.0773046672124 0.478085757091 5.42834431748e-21)
(0.0676018177092 0.00684797341096 4.70185429471e-23)
(0.062639557601 0.00376111853277 -4.63268474735e-23)
(0.0690893632571 0.0138280387525 4.60414425068e-23)
(0.0654949451632 0.0100327813967 -3.9730225248e-22)
(0.0687307863276 0.021480525027 -8.45835190014e-23)
(0.0652194699905 0.0175673880616 -5.01237981043e-22)
(0.0681202192801 0.0291048645611 -3.40541571219e-23)
(0.0644555846543 0.0248871128195 4.11042978195e-24)
(0.0676463630381 0.0372335698204 2.76368103282e-23)
(0.0637828002335 0.0327835305273 4.03593845871e-23)
(0.0670533703343 0.0460291999238 4.33835622689e-24)
(0.0629616127604 0.0411292610105 1.81991545507e-23)
(0.066252301317 0.0556743414603 4.01296451492e-24)
(0.0618696613784 0.0501941116591 -1.22890304743e-23)
(0.0651598548556 0.0663792291642 -2.39495527735e-23)
(0.0604270197332 0.0601597417488 1.13883953722e-23)
(0.0636844600691 0.0784090250745 -5.58323593427e-23)
(0.0585275463947 0.0712575029229 -4.36184244671e-23)
(0.0617307318871 0.0921253598456 -9.73481355584e-24)
(0.0560258208774 0.0837857446817 -3.65789976951e-23)
(0.059118884461 0.108007236504 1.61461485685e-24)
(0.0527680106761 0.0981208522847 -1.38038591634e-23)
(0.0556541134852 0.126540096954 -2.19518087064e-23)
(0.0484812045584 0.114743601742 -3.86039318976e-23)
(0.0511910374298 0.148468844144 -2.74969926142e-22)
(0.0429122293334 0.134250124084 -4.56649779651e-23)
(0.0456068641198 0.174798901366 -2.09456703336e-21)
(0.0358400340313 0.157444362392 -3.61632029007e-22)
(0.0398100738122 0.206459755569 3.48560348336e-21)
(0.0271921369114 0.185907977989 -1.86890507736e-21)
(0.0256442304319 0.24535802054 3.54057080856e-21)
(0.0181915843805 0.239506499531 1.30658838295e-20)
(-0.0139888807188 0.30065291823 -3.35740745701e-20)
(-0.0127184442901 0.271029115593 2.8565199035e-21)
(-0.0250167091265 0.367558033487 -3.9671479281e-20)
(-0.0747219431833 0.318713973328 -3.12525586728e-20)
(-0.0449395365997 0.418831122164 -1.39947743512e-20)
(-0.0322679424068 0.347305610597 -2.15282564999e-20)
(-0.086982141624 0.42296679322 -4.34517211638e-21)
(0.0606829473598 0.0067596634389 -4.906476429e-22)
(0.0558852748225 0.003729062301 1.04641578595e-22)
(0.0618488348685 0.0137182031146 -9.4458167603e-22)
(0.0585381391639 0.00979813409624 -8.65790067236e-22)
(0.0611815449309 0.0209637529584 -4.1254403226e-22)
(0.0579608211236 0.0171337751752 -3.63555113434e-22)
(0.0603094029232 0.028458992096 7.8523971491e-23)
(0.05695190933 0.0241728432595 1.31960705667e-22)
(0.0593008008147 0.0363983028644 3.09217288096e-23)
(0.0558342801027 0.0318212833436 -8.33336176519e-24)
(0.0580037384081 0.0449287132607 1.57176784947e-24)
(0.0544252985993 0.0398400419138 -1.9258908881e-23)
(0.0563059622994 0.0542083411155 -4.913599617e-24)
(0.0525859651292 0.0484942337158 -1.97637570166e-23)
(0.0540775644394 0.0644380919516 -8.28047632132e-24)
(0.0502004549261 0.0579278190719 -1.65497459772e-23)
(0.0511802474289 0.0758745348776 -2.43650628194e-23)
(0.0471010577858 0.0683585256502 -5.95031020007e-23)
(0.0474185373389 0.0888264890634 -4.06480433027e-23)
(0.0430995143415 0.0800202176083 -2.89185857654e-23)
(0.042544203322 0.103635416454 -5.40224059179e-23)
(0.0379653995599 0.0932354700648 -4.85288109539e-23)
(0.0362208214305 0.120844936197 -6.23171011564e-23)
(0.0312911398544 0.108387794434 -1.48056852529e-22)
(0.0280639872636 0.14106125007 -1.3232708083e-22)
(0.022710554486 0.125990521745 -2.09305786809e-22)
(0.0176626289216 0.165348536462 -1.35970073008e-22)
(0.0115647939531 0.146777637349 -3.963595541e-22)
(0.00554615310769 0.195380870406 7.71137526873e-21)
(-0.00284456864452 0.17274079979 1.00511574742e-22)
(-0.0180876246865 0.23279290628 1.23818329244e-20)
(-0.0192256844724 0.216613220025 2.66832403771e-21)
(-0.0707483444823 0.276545971286 5.17803580079e-21)
(-0.0564744711527 0.236463601628 2.09641591464e-21)
(-0.0821655178138 0.330659716163 -1.31093358917e-20)
(-0.129307231833 0.275526506722 -7.21954705568e-22)
(-0.0819934039918 0.361289499228 -1.18786542651e-20)
(-0.0632281285476 0.305587187031 -1.47523264364e-20)
(-0.0788872984134 0.28646881113 -4.72852420868e-21)
(0.0539361560369 0.00655419755923 -2.70500845741e-22)
(0.049313533947 0.00364490637468 2.68221988112e-22)
(0.0548755024447 0.0132759211245 -2.8476350464e-22)
(0.0517907931985 0.00938768230291 -7.1689376967e-22)
(0.0539499993198 0.0202285360885 1.80949624493e-22)
(0.0509901964095 0.0164371426137 3.20763549601e-22)
(0.0527453281883 0.0274242450158 4.51033724108e-23)
(0.0512676889271 0.0349970058819 -5.85139994557e-23)
(0.0493496444081 0.0430722647267 -4.0594433747e-23)
(0.0468577609534 0.0517859038255 -3.13999033768e-23)
(0.0436492442501 0.061315395922 -6.77723716565e-23)
(0.0395230410625 0.0718520927152 -6.40566249467e-23)
(0.0342209602889 0.0835959739616 -3.67993534167e-23)
(0.0274136238808 0.0969357936033 -1.42563257565e-22)
(0.0186433762693 0.112178116865 -2.95045538182e-22)
(0.00735718859475 0.129865905016 -4.73338260079e-22)
(-0.00720063174102 0.150537216094 -1.5987790635e-22)
(-0.0263042711618 0.175013509749 -4.94253965628e-21)
(-0.0546167425134 0.209959943494 -7.61709297205e-21)
(-0.10438313174 0.240619996324 -3.80357459172e-21)
(-0.108526617668 0.252361818586 -2.36494525036e-21)
(-0.0546052672106 0.272878072789 -7.60219638004e-21)
(0.0474647188746 0.00623352330419 -1.78170935818e-22)
(0.0430615241453 0.003513723071 2.50841826856e-22)
(0.0482136781678 0.0126327220504 -1.11366715429e-22)
(0.0371926681989 0.00335988429571 -8.7531928445e-23)
(0.0317360259494 0.00318052583666 -4.86639300554e-23)
)
;

boundaryField
{
    back
    {
        type            calculated;
        value           uniform (0 0 0);
    }
    sides
    {
        type            calculated;
        value           nonuniform List<vector> 0();
    }
    bottom
    {
        type            calculated;
        value           uniform (0 0 0);
    }
    front
    {
        type            calculated;
        value           uniform (0 0 0);
    }
    atmosphere
    {
        type            calculated;
        value           nonuniform List<vector> 8((0 0.326606349821 0) (0 0.3871892515 0) (0 0.430323113629 0) (0 0.460730618283 0) (0 0.464667136992 0) (0 0.428233004424 0) (0 0.352835551224 0) (1.20256265313 0.17909077499 -1.16778725167e-19));
    }
    floatingObject
    {
        type            calculated;
        value           nonuniform List<vector> 0();
    }
    procBoundary9to6
    {
        type            processor;
        value           nonuniform List<vector> 4((0.27653278178 0.22169783773 -1.59271161915e-20) (0.323064170654 0.279413124259 6.52263814341e-21) (0.241208532199 0.212070064872 -2.4221767393e-21) (0.0527543668219 0.229955194385 -2.11158299111e-20));
    }
    procBoundary9to7
    {
        type            processor;
        value           nonuniform List<vector> 
16
(
(0.101831632767 0.00307406780849 3.00403998775e-22)
(0.105886615641 0.00838015389992 -1.71957157691e-22)
(0.106664129937 0.0142279772561 -9.74225797197e-23)
(0.108076298231 0.020363541721 -7.56863009145e-23)
(0.110260773476 0.0267427163201 1.1687300242e-23)
(0.113173622443 0.0335281033419 2.60908715227e-23)
(0.11686394187 0.0408306250861 5.0756187954e-23)
(0.121445680924 0.0487516484738 3.32812236216e-23)
(0.127085689152 0.0574227791718 1.84141040064e-22)
(0.134060958966 0.0669923635544 8.65634618199e-23)
(0.1427400246 0.0776227851341 -3.33263188932e-23)
(0.15364901827 0.089557646105 1.58718598362e-22)
(0.167551998023 0.10304217868 -5.48987429301e-22)
(0.185462743827 0.117983995024 8.29872726887e-22)
(0.208575931562 0.13480537092 -3.1381428446e-22)
(0.237346618619 0.1577717203 5.48660642143e-23)
)
;
    }
    procBoundary9to10
    {
        type            processor;
        value           nonuniform List<vector> 
15
(
(0.0497247426823 0.0231235438743 1.64840935495e-22)
(0.0482353371047 0.0303860208003 -1.08306985354e-23)
(0.0463231800488 0.0379276960194 -3.66949479864e-23)
(0.043849657918 0.0460000113464 -1.99958431915e-23)
(0.040650656544 0.0547161639538 -3.33261071551e-23)
(0.0365548592598 0.0642277084419 -7.25530226282e-23)
(0.0313266461207 0.0747120830808 -1.90574574438e-23)
(0.0246255904275 0.0864151147433 -1.07283335698e-24)
(0.0453666298976 0.00884552030861 -4.13501484356e-22)
(0.0470783863139 0.0192150910037 3.04654860604e-22)
(0.0443684593361 0.015535341631 5.38855913808e-22)
(0.0413035142326 0.00584874543066 1.55112783172e-23)
(0.0355431961539 0.00538707673906 -6.81268072913e-23)
(0.0302725825937 0.00490753538094 -4.11669180961e-22)
(0.0268007620521 0.00299670403444 -1.9692729401e-22)
)
;
    }
    procBoundary9to11
    {
        type            processor;
        value           nonuniform List<vector> 9((0.0160091232934 0.0995833507801 -1.48456211852e-22) (0.00500872753329 0.114601047205 -2.33875720524e-22) (-0.00913282262122 0.131976168726 -6.60629013047e-22) (-0.0273426856526 0.152586704571 -8.62746443244e-22) (-0.0541960461106 0.186050872723 -3.68082043782e-21) (-0.0871448861909 0.196614731412 -9.39383283381e-22) (-0.141650476654 0.223551026321 1.00152753408e-21) (-0.0841124444917 0.240704402196 1.55902390065e-23) (0.014491899706 0.165315037807 -5.63462666854e-21));
    }
}


// ************************************************************************* //
