/*--------------------------------*- C++ -*----------------------------------*\
| =========                 |                                                 |
| \\      /  F ield         | OpenFOAM: The Open Source CFD Toolbox           |
|  \\    /   O peration     | Version:  v2012                                 |
|   \\  /    A nd           | Website:  www.openfoam.com                      |
|    \\/     M anipulation  |                                                 |
\*---------------------------------------------------------------------------*/
FoamFile
{
    version     2.0;
    format      ascii;
    class       volVectorField;
    location    "2";
    object      U_0;
}
// * * * * * * * * * * * * * * * * * * * * * * * * * * * * * * * * * * * * * //

dimensions      [0 1 -1 0 0 0 0];


internalField   nonuniform List<vector> 
166
(
(0.0571501567342 -0.000420869388473 -8.10117414491e-22)
(0.0544817494616 -0.000556632782949 -1.24792919146e-22)
(0.0535991048708 -0.00126142126521 -1.88056813837e-22)
(0.0538529740804 -0.00180844377419 5.51951632736e-23)
(0.0545897936402 -0.00237306886672 3.21058499581e-25)
(0.0555772562873 -0.00292547549464 -1.23897055227e-23)
(0.0567567770725 -0.00345009098128 -1.198271399e-23)
(0.0581117438411 -0.00392356283952 -1.16660584239e-23)
(0.0596135773033 -0.0043332776753 -1.77273953078e-24)
(0.0612482978547 -0.00465538780653 -1.28234952998e-23)
(0.0629871625586 -0.00484191215081 -1.2547010901e-23)
(0.0647888282699 -0.00484789656178 -3.01680110596e-23)
(0.0666171024347 -0.00459047345518 -5.37273027412e-23)
(0.0685135572605 -0.00388635287443 1.23157547646e-22)
(0.0706071553443 -0.00263473807145 -2.77708077503e-22)
(0.0726904823953 -0.000681888873504 -2.32507041085e-21)
(0.0747045039652 0.00099236536361 -5.02824204192e-21)
(0.0741891367422 0.000567540726004 -1.44813650739e-20)
(0.0712753965215 0.00609817225539 -1.43179760151e-20)
(-0.00390806653287 -0.00259148331013 -1.62216404658e-21)
(0.0574912238988 -0.000307933155562 -9.26805642687e-22)
(0.0549267815123 -0.00023830595287 -5.37235169206e-23)
(0.0540680767422 -0.000782429166715 -2.62015410514e-23)
(0.0543362073793 -0.00111151209452 2.63099467135e-23)
(0.0550665731125 -0.00148434088627 1.53870430254e-25)
(0.0560368008325 -0.00185531176522 1.04316655209e-23)
(0.0571874881896 -0.00220657107952 7.13845696923e-24)
(0.0585054245253 -0.00253764152113 -2.51106435818e-24)
(0.05994365803 -0.00282908948866 -1.7901791432e-23)
(0.0614880035457 -0.00304871466204 -8.76436075367e-25)
(0.0630910191627 -0.00317820981436 -3.6875360533e-24)
(0.0647046585158 -0.00318417975003 -7.49768941357e-24)
(0.0662703039035 -0.0030003690533 -5.02298973684e-23)
(0.067803470749 -0.00248628707386 -4.48585952832e-22)
(0.0694135016891 -0.00160811461061 -2.95635721537e-21)
(0.0710057672061 0.000204733236838 -6.34469907949e-21)
(0.0731091007308 -0.000749084971819 -1.15933941021e-20)
(0.0740765850461 -0.00126463341009 -1.74483205294e-20)
(0.0744802564262 0.00381007436256 -1.71436418847e-20)
(-0.000210416531676 -0.00602316747396 -4.10922019951e-21)
(0.0576115565949 -0.000196840055961 -7.96298960039e-22)
(0.055153149126 8.48373108498e-05 2.17729682212e-22)
(0.0543233760661 -0.000288506704493 -5.01263308272e-23)
(0.0546294465793 -0.000408484159732 -7.82463925769e-23)
(0.0553629188684 -0.000604012331375 -3.71815785695e-23)
(0.0563307704371 -0.00080655188466 -7.21985357914e-24)
(0.0574747574153 -0.000997462946254 -3.32943577081e-24)
(0.05875566499 -0.00118637750641 -8.09149244435e-24)
(0.0601635031001 -0.0013701379249 -1.57422928913e-23)
(0.0616662626804 -0.00152916123196 9.26657351828e-25)
(0.0631969287361 -0.00165181163792 6.86500128262e-25)
(0.0646986672709 -0.00171934237399 2.05013178252e-24)
(0.066108967523 -0.0016846027076 -9.39534875893e-23)
(0.0674078102452 -0.00147587292152 -9.29723399875e-22)
(0.068730233365 -0.00113191270734 -4.24258169552e-21)
(0.0702723508258 0.000265063956788 -9.00392493371e-21)
(0.07293248384 -0.00325483610744 -1.22698542895e-20)
(0.075885488221 -0.00501974644555 -9.16801533075e-21)
(0.0775723846708 0.000551615441948 -9.05787975533e-21)
(0.00438345658614 -0.0118886451446 -1.74165871351e-21)
(0.0575425493421 -7.80809736592e-05 -7.95686347547e-22)
(0.0551839890485 0.000388589442725 -6.79344203925e-23)
(0.0544132625561 0.000198965060878 -2.44161421187e-22)
(0.0547536226364 0.000312697148503 -1.11411760673e-22)
(0.0554839608566 0.000284709469791 -4.40871809748e-23)
(0.0564560764381 0.000257425226777 -1.6116766073e-23)
(0.0576108224717 0.00020724771164 -3.32178651482e-23)
(0.0589029219513 0.000136059433622 -1.2910961393e-23)
(0.0603212668411 6.26725357402e-05 2.34919139826e-23)
(0.0618086383558 -3.65151033664e-05 -2.17048288272e-24)
(0.0633298377396 -0.000171696607372 2.12030226911e-25)
(0.0648099097182 -0.000325378230168 -2.2433967383e-23)
(0.0661812655845 -0.000502004276885 -6.9772433836e-23)
(0.0674048811257 -0.000662681894739 -7.60527307091e-22)
(0.0686716388693 -0.000854458572359 -3.61065277658e-21)
(0.0704669993865 -0.000189265859692 -8.34173745802e-21)
(0.0741355741475 -0.00566900687386 -1.09901157869e-20)
(0.079662833746 -0.00895061230892 -1.24235770278e-20)
(0.081319413128 -0.00279621194047 -1.17987327508e-20)
(0.00995406779901 -0.0185526040585 -4.33339386206e-21)
(0.0572616032058 2.99420749756e-05 -8.93627797046e-22)
(0.0549995211141 0.00071146805882 1.75533294188e-22)
(0.0543092591676 0.000722769723036 -6.1778399494e-22)
(0.054668106027 0.00103039715712 -1.93523394273e-22)
(0.0554184742301 0.00116633577648 -5.82652492373e-23)
(0.0564093816674 0.00132340307606 -7.01183330169e-24)
(0.0575868544392 0.00143891150248 -1.50255961241e-23)
(0.0589224042019 0.00151029540556 1.82384757726e-23)
(0.0603886585014 0.00152182683603 -3.36957629103e-23)
(0.0619269179251 0.00146271672937 -2.51740219823e-23)
(0.0635056227111 0.001326076085 3.00017664576e-24)
(0.065056967018 0.00107656811784 -6.22191656957e-23)
(0.0665003633145 0.000683534113608 -6.06363905636e-24)
(0.0678327164487 0.000153677622188 -5.88713564848e-22)
(0.0692503340508 -0.000595102795495 -1.92968731561e-21)
(0.0714940728794 -0.000897847667108 -6.52927008297e-21)
(0.0764957994798 -0.00732424161901 -8.66874341263e-21)
(0.0850159789717 -0.0118262218892 -1.99825294083e-20)
(0.0860770430264 -0.0055104766102 -2.03130732404e-20)
(0.0171045539489 -0.0247673949283 -4.34145818452e-21)
(0.0567603276225 0.000142152985342 -7.43653604049e-22)
(0.0546150270214 0.00103277127928 -3.87262783167e-22)
(0.0539826693616 0.00124444557261 -5.48742232497e-22)
(0.0543627991981 0.00176866848268 -8.25621614143e-23)
(0.0551602879754 0.00208965599988 -4.22756697215e-23)
(0.0561974066428 0.00243130128095 -6.53524038866e-24)
(0.0574218906278 0.00271416543675 -1.27013762147e-23)
(0.0588159695412 0.00292652933886 -1.14761460974e-23)
(0.0603525160005 0.00305228601858 -3.04204640787e-23)
(0.0620051120486 0.00306419039665 -1.71593608888e-23)
(0.0637204813801 0.00293523587703 -2.08354390327e-23)
(0.0654410691135 0.00261037516533 -8.58843407161e-23)
(0.0670958308168 0.00203483426579 -1.94496038484e-23)
(0.0686988490793 0.00116273743367 -1.94849479285e-22)
(0.0704680521988 -0.000116783430382 -5.50758903281e-22)
(0.0733091160563 -0.00154316371369 -3.08910836311e-21)
(0.0796037107755 -0.00802068683214 -2.73136887857e-21)
(0.0910513386626 -0.013082080771 -8.20965778895e-21)
(0.0915055602925 -0.0071242187294 -7.71492280206e-21)
(0.0266509341861 -0.0282989667041 -9.20760046455e-23)
(0.0560715598282 0.000263775709436 -4.28200369533e-22)
(0.0540300803768 0.00136455273171 2.76826691072e-22)
(0.0534812635093 0.00178276272436 2.90895377383e-22)
(0.0538860387678 0.00253372835081 8.5353359555e-23)
(0.0547158777643 0.00305818670831 -1.93535843241e-24)
(0.0558009869614 0.0035881568589 -2.16215855173e-23)
(0.0570886193632 0.00405052174656 -1.39317779342e-23)
(0.058572001157 0.00443167892564 -1.27873785382e-23)
(0.0602275494712 0.00469856203201 -1.47771824012e-23)
(0.0620326914798 0.00481472588864 -2.03748210102e-23)
(0.0639518281852 0.00473786738557 -1.12639048513e-23)
(0.0659259788026 0.00439112590757 -1.05619285844e-22)
(0.0679267774169 0.00369311955042 -4.36856584653e-23)
(0.0699592588482 0.00254622021886 -1.95957194518e-22)
(0.0722977499072 0.000756215916563 -1.28003612754e-21)
(0.0758949074509 -0.00197672112345 -4.90181347466e-21)
(0.0831255778397 -0.0079874516384 -3.33383665419e-21)
(0.0971722382421 -0.0131639305812 -5.16673389565e-21)
(0.0977631187251 -0.00582627240988 -5.10352990348e-21)
(0.0333998130708 -0.0204808343487 1.35465653346e-22)
(0.0551372431296 0.00036051090541 -3.44855229519e-22)
(0.0532144934653 0.00170587900416 6.90216742748e-22)
(0.052739990678 0.0023459280239 2.05977438316e-22)
(0.0531840992025 0.00331087626367 1.77018586011e-24)
(0.0540566725039 0.0040593791748 -5.22220005245e-23)
(0.0551970122202 0.00480761618683 -7.81298779948e-24)
(0.0565705804118 0.00547917741235 -3.03424895119e-25)
(0.0581632437603 0.0060553675945 -6.99031153987e-24)
(0.0599593244445 0.00650024537562 -1.44043976738e-23)
(0.0619554098901 0.00677380860967 -5.03615951183e-24)
(0.0641280832083 0.00680634226495 -1.07403370843e-23)
(0.0664453576517 0.00652364327405 -1.3923890185e-22)
(0.0689202565686 0.00581354032882 1.74666649917e-24)
(0.0715969516729 0.00449777357978 -5.67048655415e-22)
(0.0748372837579 0.0023781330778 -3.26456169178e-21)
(0.0795057476782 -0.00134835477513 -6.40709005172e-21)
(0.0865575337638 -0.00694770383727 -1.41606568534e-20)
(0.0986067513437 -0.0123046753827 -8.69909574368e-21)
(0.0977115884936 -0.00472741385119 -8.41541162942e-21)
(0.0450925379383 0.00601062910236 -4.34237327147e-21)
(0.0539368919491 0.000483709248971 -3.2059245327e-22)
(0.0521560072032 0.00206344164475 7.1368403491e-22)
(0.0517425112472 0.00293171917775 4.33108535993e-23)
(0.0525161827007 0.000617481414979 -3.70367944062e-22)
(0.0508592044906 0.000749625750768 1.27829905577e-22)
(0.048938883185 0.0008995084383 -9.92498315653e-23)
)
;

boundaryField
{
    back
    {
        type            noSlip;
    }
    sides
    {
        type            noSlip;
    }
    bottom
    {
        type            noSlip;
    }
    front
    {
        type            noSlip;
    }
    atmosphere
    {
        type            pressureInletOutletVelocity;
        value           nonuniform List<vector> 8((0 -0.00259148331013 0) (0 -0.00602316747396 0) (0 -0.0118886451446 0) (0 -0.0185526040585 0) (0 -0.0247673949283 0) (0 -0.0282989667041 0) (0 -0.0204808343487 0) (0.0450925379383 0.00601062910236 -4.34237327147e-21));
    }
    floatingObject
    {
        type            movingWallVelocity;
        value           nonuniform List<vector> 0();
    }
    procBoundary9to6
    {
        type            processor;
        value           nonuniform List<vector> 4((0.077166489211 0.000863826997334 -3.14902934386e-21) (0.075707609264 -0.000805825928975 -9.39788107811e-21) (0.0673877347161 0.00591366316787 -8.71061366241e-21) (-0.00792118783764 0.00016650967814 -9.01289809836e-22));
    }
    procBoundary9to7
    {
        type            processor;
        value           nonuniform List<vector> 
16
(
(0.0565862131697 -0.000509350635919 -6.61753349834e-22)
(0.0538263759013 -0.000881855028008 -8.8266449459e-23)
(0.0529279424352 -0.0017632287534 -3.01083980774e-22)
(0.0531758275133 -0.00251132416084 6.09044815169e-23)
(0.0539244825258 -0.00327270714564 -4.04716167289e-24)
(0.054935494461 -0.00401430747687 -9.58019250067e-24)
(0.0561510625902 -0.00472092453351 -8.49589679651e-24)
(0.0575580784192 -0.00537221065893 -1.46337293599e-23)
(0.0591537338442 -0.0059424971105 5.59522409255e-24)
(0.0609144142486 -0.00639791200571 6.83561986523e-25)
(0.0628250186385 -0.0066904236087 -7.53763917653e-24)
(0.0648642438377 -0.0067671433346 2.4112599386e-23)
(0.0670148608292 -0.00655257387869 3.3214336736e-22)
(0.0693491393217 -0.00582767321889 1.55285048099e-21)
(0.0720094230021 -0.00446871720035 8.17617503148e-22)
(0.0748281967124 -0.00270503002503 1.30247406766e-22)
)
;
    }
    procBoundary9to10
    {
        type            processor;
        value           nonuniform List<vector> 
15
(
(0.0522390391565 0.00413712378499 -3.33881977415e-23)
(0.0531679141503 0.00512057086243 -6.14324655491e-23)
(0.0543762980124 0.00610425524971 -7.44368105897e-24)
(0.0558375369918 0.00700994383935 4.07444601615e-24)
(0.0575436046881 0.00781152035212 2.72301898853e-24)
(0.059495560624 0.0084804727864 9.63722025004e-24)
(0.0617025188395 0.00897042990973 1.06462910975e-23)
(0.064151693452 0.00920489241472 2.28590374668e-23)
(0.0508647266599 0.00243647898262 6.69400522856e-22)
(0.0522390391565 0.00413712378499 -3.33881977415e-23)
(0.0505247237966 0.00354531020525 -3.87865113514e-22)
(0.0508647266599 0.00243647898262 6.69400522856e-22)
(0.0493402240099 0.00282230738872 1.05949944362e-22)
(0.0475445397781 0.0032138134198 8.19115756727e-22)
(0.046739467662 0.00103436575463 9.64604459704e-22)
)
;
    }
    procBoundary9to11
    {
        type            processor;
        value           nonuniform List<vector> 9((0.0668666417662 0.00911403761498 -2.50422268686e-23) (0.0698746989425 0.00856872601084 1.06724951636e-22) (0.073326016636 0.00739402309137 -2.93196902931e-22) (0.0776647929448 0.00556071212953 -1.94573800299e-21) (0.0832618446736 0.00213651958835 -7.92356589761e-21) (0.0894661397626 -0.00217391480335 -1.81617986682e-20) (0.0970245637881 -0.00800403672445 -1.24964682912e-20) (0.0897371265999 -0.00257136400161 -1.24338434446e-20) (0.0228418946862 0.0131991914542 -2.35422962467e-20));
    }
}


// ************************************************************************* //
