/*--------------------------------*- C++ -*----------------------------------*\
| =========                 |                                                 |
| \\      /  F ield         | OpenFOAM: The Open Source CFD Toolbox           |
|  \\    /   O peration     | Version:  v2012                                 |
|   \\  /    A nd           | Website:  www.openfoam.com                      |
|    \\/     M anipulation  |                                                 |
\*---------------------------------------------------------------------------*/
FoamFile
{
    version     2.0;
    format      ascii;
    class       surfaceVectorField;
    location    "2";
    object      Uf_0;
}
// * * * * * * * * * * * * * * * * * * * * * * * * * * * * * * * * * * * * * //

dimensions      [0 1 -1 0 0 0 0];


internalField   nonuniform List<vector> 
300
(
(0.0558159530979 -0.000440232599391 -4.67455166818e-22)
(0.0574004032759 -0.000364401272017 -8.68461528589e-22)
(0.0540404271662 -0.000966470692312 -1.56424866491e-22)
(0.0547347406901 -0.00039746936791 -8.9258218033e-23)
(0.0537260394756 -0.00153398757011 -6.64308252816e-23)
(0.0538947926096 -0.00102192521596 -1.07129177444e-22)
(0.0542213838603 -0.00210912751043 2.77581108866e-23)
(0.0541512727546 -0.00145997793435 4.07525549935e-23)
(0.0550835249638 -0.00267432132533 -6.03432351154e-24)
(0.0548829311932 -0.0019287048765 2.37464464918e-25)
(0.0561670166799 -0.00321811979892 -1.21862097563e-23)
(0.0558593788558 -0.00239039362993 -9.79020000858e-25)
(0.0574342604568 -0.00372960721068 -1.18243862069e-23)
(0.0570218918267 -0.0028283310304 -2.42212851039e-24)
(0.0588626605722 -0.00417108741763 -6.71939897732e-24)
(0.0583239083056 -0.00323060218032 -7.08856139102e-24)
(0.060430937579 -0.00455398708415 -7.29811741528e-24)
(0.0598151179319 -0.00358118358198 -9.83726548141e-24)
(0.0621177302066 -0.00482128815206 -1.26852531004e-23)
(0.06139260963 -0.00385205123429 -6.84996568758e-24)
(0.0638879954143 -0.00493238381393 -2.13575109803e-23)
(0.0630534804313 -0.00401006098258 -8.11727347714e-24)
(0.0657029653523 -0.00482432626754 -4.19476569004e-23)
(0.0647452817102 -0.00401603815591 -1.88328502366e-23)
(0.0675653298476 -0.0043945959285 3.47151224525e-23)
(0.0663995105742 -0.00379542125424 -5.19786000548e-23)
(0.0695603563024 -0.00355669942842 -7.72752649285e-23)
(0.0681063802138 -0.00318631997415 -1.62714202593e-22)
(0.0716488188698 -0.00212812092792 -1.30138924418e-21)
(0.0699058320507 -0.00212142634103 -1.61703264643e-21)
(0.0736974931803 3.78751495587e-05 -3.67665622638e-21)
(0.0716472796766 -0.000238577818333 -4.33488474517e-21)
(0.0744468203537 0.00245896513464 -9.75480355791e-21)
(0.0736163029168 0.000121640195895 -8.31081807201e-21)
(0.0727322666318 0.00362383820316 -1.43996705445e-20)
(0.0737069414866 -0.000348546342042 -1.59648428016e-20)
(0.0336836649943 9.69924993088e-05 -7.97007003084e-21)
(0.0731372658733 0.00495412330897 -1.57308089499e-20)
(-0.0023184043843 -0.00430732539204 -2.86569212304e-21)
(0.0562090027056 -0.000226658510684 -4.90264579804e-22)
(0.0576269452156 -0.000252386605762 -8.61552301363e-22)
(0.0544974291273 -0.000576193870937 -3.9962528986e-23)
(0.0550841430283 -7.67343210103e-05 8.20030826456e-23)
(0.0542021420607 -0.000932245362258 5.42028310055e-26)
(0.0542507092649 -0.000535467935604 -3.81639359393e-23)
(0.0547013902459 -0.00131249248753 1.32319085719e-23)
(0.0545313931378 -0.000759998127128 -2.59682229317e-23)
(0.0555516869725 -0.00169244089668 5.2927679756e-24)
(0.0552627695507 -0.00104417660882 -1.85138540696e-23)
(0.0566121445111 -0.00206042643293 8.78506124509e-24)
(0.0562272807409 -0.00133093182494 1.6059059709e-24)
(0.0578464563574 -0.00239941158536 2.31369630553e-24)
(0.0573608314256 -0.00160201701289 1.90451059921e-24)
(0.0592245412776 -0.00272947044415 -1.02064278951e-23)
(0.0586539725494 -0.00186200951377 -5.30127840127e-24)
(0.0607158307878 -0.00299001529776 -9.38911375371e-24)
(0.0600757315442 -0.00209961370678 -1.68220421617e-23)
(0.0622895113542 -0.00317435320148 -2.28198606433e-24)
(0.061577088024 -0.002288937947 2.51106382308e-26)
(0.0638978388393 -0.0032568985715 -5.59261273343e-24)
(0.0631362377523 -0.00241501072614 -1.50051796252e-24)
(0.0654874812096 -0.00318123919016 -2.8863793391e-23)
(0.0646698922557 -0.00245176106201 -2.72377881552e-24)
(0.0670368873263 -0.00288912741164 -2.494079251e-22)
(0.0661076994877 -0.00234248588045 -7.20916924789e-23)
(0.0686084862191 -0.00227780127098 -1.7024715841e-21)
(0.0674953508268 -0.00198107999769 -6.89154676354e-22)
(0.0702096344476 -0.00126901023296 -4.65052814743e-21)
(0.0688972935042 -0.00137001365898 -3.59946945545e-21)
(0.0720574339685 3.07799004424e-05 -8.9690465908e-21)
(0.0703476472831 0.000234898596813 -7.6743120066e-21)
(0.0735928428885 0.00101104433823 -1.45208573157e-20)
(0.0726360849806 -0.00200196053963 -1.19316241958e-20)
(0.0742784207361 0.000249849570788 -1.7295981207e-20)
(0.0744680031548 -0.00314218992782 -1.33081679301e-20)
(0.0371349199472 -0.00266676511632 -1.06264310421e-20)
(0.0760533709262 0.00218084490225 -1.310076082e-20)
(0.00199975276184 -0.00895590630929 -2.92543945651e-21)
(0.0563823528605 -2.06920357367e-05 -2.89284638914e-22)
(0.0576474985719 -0.00013746051481 -7.95992653793e-22)
(0.0547382625961 -0.000168420994383 8.38016756923e-23)
(0.0552317177821 0.000236713376787 7.48976309096e-23)
(0.0544764113227 -0.000320388192216 -6.41863617021e-23)
(0.0544025248599 -4.47708218072e-05 -1.47143876007e-22)
(0.0549961827239 -0.000519449071235 -5.77139855732e-23)
(0.0547303173428 -4.78935056147e-05 -9.4829076625e-23)
(0.0558468446528 -0.000723264473818 -2.22007160743e-23)
(0.0554664733969 -0.000159651430792 -4.06343797721e-23)
(0.0569027639262 -0.000930577542364 -5.27464467498e-24)
(0.0564345178738 -0.000274563328942 -1.16683098261e-23)
(0.0581152112026 -0.00111244601986 -5.71046410758e-24)
(0.0575426713199 -0.000395107617307 -1.82736504595e-23)
(0.059459584045 -0.00131486973805 -1.19168926678e-23)
(0.0588564264647 -0.000525159036392 -1.05012269187e-23)
(0.0609148828903 -0.00148644286407 -7.40781776973e-24)
(0.0602474034293 -0.00065373269458 3.87481054567e-24)
(0.0624315957083 -0.00164259849762 8.06578740045e-25)
(0.0617334150147 -0.000782838167663 -6.21912765448e-25)
(0.0639477980035 -0.00173937064761 1.36831595539e-24)
(0.0632332490159 -0.000911754122646 4.49265177587e-25)
(0.0654038173969 -0.00178015886415 -4.59516779034e-23)
(0.0647109702276 -0.00102236030208 -1.01919178002e-23)
(0.0667583888841 -0.00168552691824 -5.11838443732e-22)
(0.0660133795767 -0.00109330349224 -8.18629607127e-23)
(0.0680690218051 -0.00146119348244 -2.5861525477e-21)
(0.0672713168624 -0.00106927740813 -8.45125353483e-22)
(0.0695012920954 -0.00106727757463 -6.62325331462e-21)
(0.0685036246023 -0.000993185639849 -3.92661723605e-21)
(0.0716024173329 -0.000752901842388 -1.06368896116e-20)
(0.0700334216517 3.78990485476e-05 -8.67283119586e-21)
(0.0744089860305 -0.0012272573227 -1.07189348101e-20)
(0.073110484195 -0.00446192149065 -1.16299850382e-20)
(0.0767289364459 -0.00407265785962 -9.11294754304e-21)
(0.0773133358179 -0.00698517937724 -1.07957961793e-20)
(0.0409779206285 -0.00743267883113 -5.39976923442e-21)
(0.0794128743116 -0.00112229824926 -1.04283062531e-20)
(0.0069857173077 -0.0152206246015 -3.03752628779e-21)
(0.0563632691953 0.000174108437547 -4.3181038397e-22)
(0.0574732275871 -2.40694493418e-05 -8.44657072297e-22)
(0.0547986258023 0.000268649246527 -1.5604792079e-22)
(0.055137001526 0.000550028750772 5.37994368978e-23)
(0.0545834425962 0.000276927664419 -1.7778659093e-22)
(0.0543940780271 0.000460867391957 -4.30972708063e-22)
(0.0551187917465 0.000280265238505 -7.77494708239e-23)
(0.0547268326023 0.000671547152814 -1.52467577473e-22)
(0.0559700186474 0.000254847589661 -3.01019735239e-23)
(0.0554917765692 0.000725522623137 -5.1176215106e-23)
(0.0570334494549 0.00022163992413 -2.46673156106e-23)
(0.0564676547643 0.00079041415142 -1.15642996874e-23)
(0.0582568722115 0.000147098082193 -2.30644132706e-23)
(0.0576171982645 0.000823079607061 -2.41217306361e-23)
(0.0596120943962 6.98435565176e-05 5.2904762948e-24)
(0.058933732099 0.000823177419593 2.66375718977e-24)
(0.0610649525985 -7.65265347879e-06 1.06607155499e-23)
(0.0603250249259 0.000792249685883 -5.10192446383e-24)
(0.0625692380477 -0.000138043200761 -9.79226327907e-25)
(0.0618640053472 0.000713100813002 -1.36722524325e-23)
(0.0640698737289 -0.000291362934071 -1.1110968578e-23)
(0.0633868347134 0.000577189738814 1.60610343633e-24)
(0.0654955876513 -0.000449480283925 -4.61032006095e-23)
(0.0648693989984 0.000375594943838 -4.23265665393e-23)
(0.0667930733551 -0.000663203673335 -4.15149870463e-22)
(0.0662274298136 9.07649183617e-05 -3.79180364462e-23)
(0.0680382599975 -0.000862643137093 -2.18559004183e-21)
(0.0674710623493 -0.000254502136276 -6.74620435969e-22)
(0.0695693191279 -0.00111344511865 -5.9761951173e-21)
(0.0687546723279 -0.000724780683927 -2.77017004609e-21)
(0.072301286767 -0.00175749692373 -9.66592662247e-21)
(0.0706776203019 -0.0005435567634 -7.4355037705e-21)
(0.0768992039467 -0.00356815597015 -1.17068464074e-20)
(0.0749211850403 -0.00649662424643 -9.82942959978e-21)
(0.080491123437 -0.00822599495143 -1.21111548893e-20)
(0.0819711047117 -0.010388417099 -1.6203053218e-20)
(0.0456367404635 -0.0124580587591 -8.06606330643e-21)
(0.08364433426 -0.00415334427533 -1.60559029956e-20)
(0.0133104125026 -0.0216599994934 -4.33742602329e-21)
(0.05613056216 0.000394827451696 -3.59047251429e-22)
(0.0570782189207 8.60475301589e-05 -8.18640700548e-22)
(0.0546543901408 0.000677287245522 -2.21125350376e-22)
(0.0548543516124 0.000872119669052 -1.0586474449e-22)
(0.0544886825973 0.00088756523674 -4.05653694607e-22)
(0.0541836211414 0.000983607647822 -5.83263113719e-22)
(0.0550432901286 0.0010691596148 -1.25894321755e-22)
(0.0545450857594 0.0013995328199 -1.38042777844e-22)
(0.0559139279488 0.00123665927508 -3.26385412695e-23)
(0.0553241621139 0.00162799588818 -5.02704594794e-23)
(0.0569981180533 0.00137096163668 -1.10187147129e-23)
(0.0563332860916 0.00187735217851 -6.77353684517e-24)
(0.0582546293206 0.00146001340715 1.60643982424e-24)
(0.0575281407283 0.00207653846962 -1.38634861694e-23)
(0.0596555313517 0.00150937894492 -7.72864356886e-24)
(0.0588844308489 0.00221841237221 3.38116483761e-24)
(0.0611577882133 0.00146913262876 -2.94348924463e-23)
(0.0603654125353 0.0022870564273 -3.20581134945e-23)
(0.0627162703181 0.00137968901307 -1.10869226683e-23)
(0.0619536655794 0.00226345356301 -2.11666914356e-23)
(0.0642812948645 0.00118398874428 -2.9609494525e-23)
(0.0635828161829 0.00213065598101 -8.91763119348e-24)
(0.0657786651663 0.000864335140563 -3.4141402376e-23)
(0.0651893753706 0.00184347164159 -7.40517532059e-23)
(0.0671665398816 0.000379069896503 -2.97388601952e-22)
(0.0667130281621 0.0013591841897 -1.27566214524e-23)
(0.0685415252497 -0.000267920768214 -1.25920044023e-21)
(0.068118360212 0.000658207527928 -3.91781522066e-22)
(0.0703722034651 -0.00118626728416 -4.22947869929e-21)
(0.0696732614528 -0.000355943112938 -1.24022310944e-21)
(0.0739949361796 -0.0026531035492 -7.5990067478e-21)
(0.0721445990934 -0.0012205056904 -4.80918922304e-21)
(0.0807558892257 -0.00551708839562 -1.43256364105e-20)
(0.0777852083557 -0.00767246422557 -5.7000561456e-21)
(0.0855465109991 -0.0113646344826 -2.01478013244e-20)
(0.0878185466901 -0.0124541513301 -1.40960935986e-20)
(0.0515907984877 -0.0166007867643 -1.23272657125e-20)
(0.0888797255434 -0.0063173476698 -1.40139980213e-20)
(0.0216067363999 -0.0265331808162 -2.21676709458e-21)
(0.055687677322 0.000612087940272 -5.65458193608e-22)
(0.0564659411027 0.000202964347389 -5.85926986791e-22)
(0.0542988481915 0.00110133443015 -4.68002507832e-22)
(0.0543649115343 0.0011986620055 -5.52180460477e-23)
(0.0541727342798 0.00151834817839 -3.15652196956e-22)
(0.0537664295424 0.00151360414848 -1.28923427557e-22)
(0.0547615435867 0.00190090054012 -6.24189155679e-23)
(0.0541623659105 0.00215119841675 1.39559907036e-24)
(0.0556788473091 0.00225262742167 -2.44054550551e-23)
(0.0549723068944 0.0025739213541 -2.21055140769e-23)
(0.0568096486353 0.00256288624363 -9.61830830167e-24)
(0.0560229496404 0.00300972906992 -1.4078412953e-23)
(0.0581189300845 0.00281068300976 -1.2088761156e-23)
(0.0572803347336 0.00338234359166 -1.33165770745e-23)
(0.0595842427708 0.00298316938716 -2.0948305088e-23)
(0.0587120110364 0.00367910413225 -1.21317623178e-23)
(0.0611788140245 0.00305186748283 -2.37899124838e-23)
(0.060296867869 0.00387542402529 -2.25988232399e-23)
(0.0628627967143 0.00299491618617 -1.89973999608e-23)
(0.0620108535152 0.00393945814265 -1.87670909495e-23)
(0.0645807752468 0.00277099800528 -5.33598898744e-23)
(0.0638070412109 0.0038365516313 -1.6049671942e-23)
(0.0662684499652 0.0023245080363 -5.26669722822e-23)
(0.0656362228007 0.00350075053645 -9.575181328e-23)
(0.0678973399481 0.0016017901278 -1.07149541567e-22)
(0.0674361173531 0.0028639769081 -3.15676311568e-23)
(0.069583450639 0.000506978206159 -3.72804191283e-22)
(0.06921351529 0.00185447882626 -1.95403336901e-22)
(0.0718885841275 -0.00101841905541 -1.8199336332e-21)
(0.0711989278985 0.00031971624309 -9.15397515411e-22)
(0.0764564134159 -0.0032568646627 -2.91023862084e-21)
(0.0743832034184 -0.00175994241857 -3.99546091889e-21)
(0.085327524719 -0.00659782603607 -5.47051333376e-21)
(0.0811262142651 -0.00800406923527 -3.03260276638e-21)
(0.0912784494775 -0.0129514646128 -7.96229029551e-21)
(0.0941720254829 -0.0131230056761 -6.6881958423e-21)
(0.0590782472393 -0.0184161396574 -3.90349940335e-21)
(0.0943426251675 -0.00647524556964 -6.40922635277e-21)
(0.0318122300312 -0.0243899005264 2.16948243502e-23)
(0.0550508201025 0.000836083659974 -7.56868392304e-23)
(0.0556296726453 0.000312143307423 -3.86527799526e-22)
(0.0537556719431 0.00153509158139 2.83861034228e-22)
(0.0536657069459 0.00153521586794 4.8352171691e-22)
(0.0536836511386 0.00217505062776 1.88124368469e-22)
(0.0531262302405 0.00206434537413 2.48436407849e-22)
(0.0543009582661 0.00277189939612 4.17090005613e-23)
(0.0535653225991 0.00292230230724 4.35617727076e-23)
(0.0552584323628 0.00332174755729 -1.17784719749e-23)
(0.0544223013458 0.00355878294156 -2.70786794785e-23)
(0.0564448031623 0.00381470732302 -1.77766817258e-23)
(0.0555299030554 0.00419788652287 -1.47172866584e-23)
(0.0578303102601 0.00423653120765 -1.33595782362e-23)
(0.0568584907592 0.00476484957946 -7.11760141468e-24)
(0.0593997753141 0.00456321039835 -1.37822804697e-23)
(0.0583854113115 0.00524352326007 -9.88884503906e-24)
(0.0611301204755 0.00475589340856 -1.75760017057e-23)
(0.0601043596301 0.00559940370381 -1.45907900375e-23)
(0.0629922598325 0.00477110116281 -1.58193629308e-23)
(0.0619959205397 0.00579426724915 -1.2705490261e-23)
(0.0649389034939 0.00457028506541 -5.84415953476e-23)
(0.0640082578991 0.00577210482526 -1.10021209678e-23)
(0.0669263781098 0.00405436149255 -7.46524721546e-23)
(0.0661526072913 0.00545738459081 -1.22429093847e-22)
(0.0689430181325 0.00313975515434 -1.19821426492e-22)
(0.0683511797772 0.00475332993962 -2.09694959831e-23)
(0.0711285043777 0.00166235997401 -7.3799666103e-22)
(0.0706913054439 0.00352199689932 -3.81502924967e-22)
(0.074096328679 -0.000551182146531 -3.0909248011e-21)
(0.0734127832024 0.00156717449718 -2.27229890966e-21)
(0.0795102426453 -0.00364653285012 -4.11782506443e-21)
(0.0774787181751 -0.00166253794929 -5.65445176319e-21)
(0.0901489080409 -0.00689755143891 -4.25028527492e-21)
(0.0843772791919 -0.00746757773784 -8.74724675381e-21)
(0.0974676784836 -0.0103827916801 -5.13513189956e-21)
(0.0976566256854 -0.0127343029819 -6.93291481966e-21)
(0.0655814658979 -0.0142748461042 -2.48403212507e-21)
(0.098231454502 -0.00527684313054 -6.75947076645e-21)
(0.0393970771442 -0.00723510262315 -2.10345380906e-21)
(0.0541758682974 0.00105139310758 1.72680756615e-22)
(0.0545780535707 0.000422110077191 -3.32723841394e-22)
(0.0529772420717 0.00198861051215 4.48097090532e-22)
(0.0527282151043 0.00188466032446 7.01950388829e-22)
(0.0529620449403 0.00284551148883 1.03873812088e-22)
(0.0522691038226 0.00263882360082 1.24644145957e-22)
(0.0536203858532 0.00366364347136 -2.52259073322e-23)
(0.054626842362 0.00443441873406 -3.0017494162e-23)
(0.055883796316 0.00514092675906 -4.0582063473e-24)
(0.0573669120861 0.00576689265413 -3.64686821749e-24)
(0.0590612841024 0.00627405894496 -1.06973546068e-23)
(0.0609573671673 0.00662934814294 -9.7202785928e-24)
(0.0630417465492 0.00679550380471 -7.88824829806e-24)
(0.06528672043 0.00666445511735 -7.49896194671e-23)
(0.0676828071101 0.00616668709102 -6.87461176753e-23)
(0.0702586041208 0.00515305656836 -2.82650994458e-22)
(0.0732171177154 0.00342419365189 -1.9158051736e-21)
(0.077171515718 0.00067095186454 -4.83582587175e-21)
(0.083031640721 -0.00314646275077 -1.02838734526e-20)
(0.0925821425538 -0.00647968353529 -1.14298762986e-20)
(0.0981591699186 -0.00608911172328 -8.55725368655e-21)
(0.0714020632159 -0.00238749490135 -6.37889245045e-21)
(0.0530464495762 0.00129044975126 1.9654579082e-22)
(0.053287363926 0.000550595331975 -3.45480198666e-22)
(0.0519492592252 0.0024628964911 3.78497444255e-22)
(0.051745947431 0.000683553582873 -1.21269019242e-22)
(0.049949670594 0.000824567094534 1.4290037006e-23)
)
;

boundaryField
{
    back
    {
        type            calculated;
        value           uniform (0 0 0);
    }
    sides
    {
        type            calculated;
        value           nonuniform List<vector> 0();
    }
    bottom
    {
        type            calculated;
        value           uniform (0 0 0);
    }
    front
    {
        type            calculated;
        value           uniform (0 0 0);
    }
    atmosphere
    {
        type            calculated;
        value           nonuniform List<vector> 8((0 -0.0040103976781 0) (0 -0.0069851983925 0) (0 -0.0124189423387 0) (0 -0.0187831292709 0) (0 -0.0248976361985 0) (0 -0.0286229877615 0) (0 -0.0218614130533 0) (0.0450925379383 0.00561554229185 -4.34237327147e-21));
    }
    floatingObject
    {
        type            calculated;
        value           nonuniform List<vector> 0();
    }
    procBoundary9to6
    {
        type            processor;
        value           nonuniform List<vector> 4((0.0760372670872 0.000928096180472 -4.08863569289e-21) (0.0748720569756 -0.000119142601485 -1.1939623076e-20) (0.0696115968926 0.00600591771163 -1.15142948388e-20) (-0.00642499634813 -0.00121248681599 -1.26172692821e-21));
    }
    procBoundary9to7
    {
        type            processor;
        value           nonuniform List<vector> 
16
(
(0.0569603301504 -0.000465110012196 -7.35935382162e-22)
(0.0542086819438 -0.000719243905479 -1.06529684302e-22)
(0.0533274626132 -0.0015123250093 -2.44570397306e-22)
(0.0535763184147 -0.00215988396751 5.80498223952e-23)
(0.0543179120223 -0.00282288800618 -1.86305158665e-24)
(0.0553157304666 -0.00346989148575 -1.09849490117e-23)
(0.0565105113239 -0.0040855077574 -1.02393053933e-23)
(0.0578824691089 -0.00464788674922 -1.31498938919e-23)
(0.0594321686014 -0.0051378873929 1.91124228089e-24)
(0.0611251468551 -0.00552664990612 -6.06996665663e-24)
(0.062942101345 -0.00576616787975 -1.00423250387e-23)
(0.0648529457011 -0.00580751994819 -3.02770583683e-24)
(0.0668287731192 -0.00557152366694 1.39208032309e-22)
(0.0689437863273 -0.00485701304666 8.38004014317e-22)
(0.0713339578863 -0.0035517276359 2.69954712823e-22)
(0.0738129494611 -0.00169345944927 -1.09741150204e-21)
)
;
    }
    procBoundary9to10
    {
        type            processor;
        value           nonuniform List<vector> 
15
(
(0.0527469604043 0.00372400002433 -1.58090059407e-23)
(0.0536513708194 0.00458997501862 -5.68272330368e-23)
(0.0548232915842 0.00545593571827 -7.62833442922e-24)
(0.0562325116284 0.00624456062585 1.88551056052e-24)
(0.0578783170495 0.00693344397331 -2.13364627567e-24)
(0.0597492524251 0.00749035908101 -2.38358871187e-24)
(0.0618301184889 0.0078721192597 2.80506579282e-24)
(0.0641397576481 0.00800561733983 6.05935019125e-24)
(0.0515555551887 0.00224996031369 6.91542278883e-22)
(0.0519907752019 0.00355332659061 4.96132792893e-24)
(0.0511784339462 0.0032385146915 -1.72277129958e-22)
(0.0516904546803 0.00154123775338 1.49516289397e-22)
(0.0500997142502 0.00179620520812 1.1688992497e-22)
(0.0482417114815 0.00206281456753 3.59932962581e-22)
(0.0478867887622 0.000966937096465 4.32677314069e-22)
)
;
    }
    procBoundary9to11
    {
        type            processor;
        value           nonuniform List<vector> 9((0.0666509108806 0.00781884044451 -8.21405643592e-23) (0.0693652856629 0.00719113316983 5.42358090678e-23) (0.0724205930221 0.00594589833558 -4.30122779173e-22) (0.0761663201364 0.00396942260366 -2.60514984738e-21) (0.0812963034856 0.000394082406606 -7.16532797467e-21) (0.0877105347826 -0.00456080932031 -1.61612277608e-20) (0.0972650013657 -0.0101543560536 -1.05977820175e-20) (0.0945262947932 -0.0036493889264 -1.0424627537e-20) (0.0313920822067 0.0096049102783 -1.39423347591e-20));
    }
}


// ************************************************************************* //
