/*--------------------------------*- C++ -*----------------------------------*\
| =========                 |                                                 |
| \\      /  F ield         | OpenFOAM: The Open Source CFD Toolbox           |
|  \\    /   O peration     | Version:  v2012                                 |
|   \\  /    A nd           | Website:  www.openfoam.com                      |
|    \\/     M anipulation  |                                                 |
\*---------------------------------------------------------------------------*/
FoamFile
{
    version     2.0;
    format      ascii;
    class       volVectorField;
    location    "2.8";
    object      ddtCorrDdt0(U);
}
// * * * * * * * * * * * * * * * * * * * * * * * * * * * * * * * * * * * * * //

dimensions      [0 1 -2 0 0 0 0];


internalField   nonuniform List<vector> 
167
(
(-0.106459740361 -0.0304478310392 -4.20312389486e-23)
(-0.106877547034 -0.0396230183647 6.42232880191e-24)
(-0.107485923071 -0.0490570385023 5.69078453741e-24)
(-0.108262969691 -0.0589294024746 -1.1844814086e-24)
(-0.109309587597 -0.0692770902217 -2.40923886293e-24)
(-0.110723714779 -0.0801670670193 -1.24078123356e-22)
(-0.112632326071 -0.0916764267099 -2.41381260992e-24)
(-0.115172915855 -0.10387981666 5.7312683675e-23)
(-0.0973573539389 -0.0133717957368 -3.65530043841e-22)
(-0.0973268432764 -0.021560548002 1.40376677723e-22)
(-0.0974641334735 -0.0306816745898 4.80081317492e-23)
(-0.0975923237046 -0.0399337469268 -1.41685498304e-23)
(-0.0977836977895 -0.0495323485795 -4.90769316464e-23)
(-0.0980816084192 -0.0595943498676 -4.72251322228e-24)
(-0.0985408804169 -0.0702100499178 1.02149623099e-22)
(-0.0992732000017 -0.0814925911453 -9.34533607543e-23)
(-0.100395115408 -0.0935459635579 -4.02481045649e-24)
(-0.102096412266 -0.106451451356 2.66357846981e-22)
(-0.10455119328 -0.120275462725 -2.03927928444e-22)
(-0.0888127031426 -0.0131198764926 -5.04500407793e-25)
(-0.088557024987 -0.021581806978 2.72453367572e-22)
(-0.0884198420498 -0.0306412382049 6.45510593711e-23)
(-0.0882183481816 -0.0398922182118 2.2974412386e-23)
(-0.08796532406 -0.0495325077415 2.59068599788e-23)
(-0.0877071409767 -0.0596859147864 -1.85005403408e-24)
(-0.0875095435777 -0.0704728692913 5.68503990399e-24)
(-0.0874482054922 -0.0820309673328 -1.32927361043e-23)
(-0.0876546204192 -0.0945161528834 -2.2706751645e-24)
(-0.0883216859176 -0.108061710792 2.14252636434e-22)
(-0.08969928728 -0.122745851158 -1.24042206932e-22)
(-0.0803391749413 -0.0128262813883 -8.49215837677e-23)
(-0.0798445812475 -0.0213609349428 9.13445074596e-23)
(-0.0794292939919 -0.0302796685512 -4.85902501335e-23)
(-0.0788654449989 -0.039434010981 3.13604776714e-23)
(-0.0781370156394 -0.0490084021766 -9.78842229748e-23)
(-0.0772798567273 -0.0591388014492 7.06923942309e-25)
(-0.0763324545125 -0.0699574404951 1.18363468824e-23)
(-0.0753707433177 -0.0816502230177 -1.02917671973e-22)
(-0.0745081599155 -0.0944407678441 2.62819387382e-24)
(-0.0739562339755 -0.108533615376 -6.53946177143e-24)
(-0.0721559830093 -0.00435022086534 -6.60804536129e-23)
(-0.0719666201616 -0.012467334414 -4.24405171665e-22)
(-0.0712676286303 -0.0208508607554 -3.59647134488e-23)
(-0.0705734071895 -0.0296030529024 5.78149956752e-23)
(-0.0696442241116 -0.0385582779564 2.90342186903e-23)
(-0.068431025975 -0.047936371326 -1.85464914747e-23)
(-0.066947659528 -0.0578819874213 4.52009352376e-24)
(-0.0652041430135 -0.0685717226127 -6.32189381175e-23)
(-0.0632454624793 -0.0802234358653 6.33260873671e-23)
(-0.0611702887392 -0.093128272621 -1.53675149419e-22)
(-0.0591186357842 -0.107554816581 3.3204417422e-24)
(-0.0639797685649 -0.0042287713321 -1.39958499828e-22)
(-0.0637217779113 -0.0120490044142 -6.01342180552e-22)
(-0.0629176789204 -0.0201354880204 1.49613184173e-22)
(-0.0619760123438 -0.0286031385739 -2.59082589143e-23)
(-0.0606793795993 -0.0372518025095 -6.02536453957e-23)
(-0.0589888307678 -0.0463012767308 1.02995481007e-23)
(-0.056879024393 -0.0559135126878 -2.42653107957e-23)
(-0.0543272176271 -0.0662677172185 -1.03396913645e-23)
(-0.0513214874168 -0.0776404546745 -5.08883745768e-23)
(-0.047912718736 -0.0903429479141 -1.04677802534e-22)
(-0.0440935608906 -0.10472520949 -5.27581389584e-24)
(-0.0561471453401 -0.00403721212463 2.33921003303e-22)
(-0.0557815753001 -0.0115037963387 -4.3038645748e-22)
(-0.0548847981505 -0.0192604062748 3.1926553283e-22)
(-0.0537079095799 -0.0273161435883 4.65290005034e-23)
(-0.052090922275 -0.0355345996023 1.57641726156e-23)
(-0.0499599806148 -0.0441258175743 -2.44350196172e-23)
(-0.0472648620751 -0.0532237259006 -7.69143597277e-23)
(-0.0439233225458 -0.06302929531 2.97171130109e-23)
(-0.0399138450202 -0.0738296228118 -5.08685622633e-23)
(-0.0350766397931 -0.0859290909265 -5.34249670301e-23)
(-0.0486678028611 -0.00381947847301 1.98379313687e-22)
(-0.0482810585295 -0.0108710913045 -3.97836310096e-22)
(-0.0472501004446 -0.0182029988701 -3.7681131192e-23)
(-0.0458828233363 -0.025763769023 6.07293845934e-23)
(-0.0439997379021 -0.0334691489913 2.48577378006e-23)
(-0.0414947609359 -0.0414645029526 1.32371075084e-23)
(-0.038269325128 -0.0498801654074 4.35374901102e-24)
(-0.0342639871549 -0.0589265748318 5.202668919e-24)
(-0.0292927458362 -0.0688107515388 5.6666143476e-24)
(-0.041624410578 -0.00360359740862 3.68087819606e-24)
(-0.0412174818194 -0.0101578750646 -7.60462053355e-22)
(-0.0400970851641 -0.0169890715582 1.47629260904e-22)
(-0.038605573814 -0.0240233919321 1.05367650487e-22)
(-0.0365087296194 -0.0311126779836 3.77039080168e-23)
(-0.0337041985092 -0.0383854305207 6.01047529489e-23)
(-0.0300976539599 -0.0459917059764 -7.58374335801e-24)
(-0.0255384481629 -0.0540537470584 -1.94281452484e-24)
(-0.019805141739 -0.062764499526 1.53802863518e-25)
(-0.035078027315 -0.00336153501622 -8.05255138327e-23)
(-0.0346200072922 -0.00940586119424 -7.53646585335e-22)
(-0.033506200206 -0.0157024254858 -3.55661259551e-22)
(-0.0319224637481 -0.0221358732976 4.64333288146e-23)
(-0.0297043506352 -0.0285365727901 4.75100711661e-23)
(-0.0267275428895 -0.0350420698218 2.37203913542e-23)
(-0.0228915538628 -0.0417081847364 1.80273579137e-24)
(-0.0179546236744 -0.0486268598675 1.07230221982e-23)
(-0.0117141814877 -0.0559098360382 1.80137652883e-23)
(-0.00380673390558 -0.0637428206023 -5.99905933914e-24)
(-0.0290324609285 -0.00310119007769 1.65995226903e-22)
(-0.0285676961393 -0.00863575142368 -3.56031717831e-22)
(-0.0274645147958 -0.0143883221856 -2.97598944512e-23)
(-0.0258763736999 -0.0201854633444 2.04894626954e-23)
(-0.0236407919856 -0.0258878594236 7.99964693496e-24)
(-0.0206406282379 -0.0315582820865 1.25010482782e-23)
(-0.0167060297035 -0.0372109135979 1.95068008198e-23)
(-0.0116858420021 -0.0428670319528 1.95639366842e-23)
(-0.00522215254261 -0.048602344106 1.49973981374e-23)
(0.00297844401972 -0.054463678147 1.13380482724e-23)
(-0.0234926531671 -0.00286142085825 2.29068251425e-22)
(-0.0230512128709 -0.00787679753051 -4.80304163989e-22)
(-0.0219990403555 -0.0130924449189 -3.14370993326e-22)
(-0.0204991825581 -0.0182778607616 1.14020800376e-23)
(-0.0183456795852 -0.0232711053534 5.04822009998e-23)
(-0.0154516758565 -0.028091593356 5.05476971046e-23)
(-0.0116497891402 -0.0327402303902 9.42205864891e-24)
(-0.0067460892335 -0.0371308676294 1.44099983552e-23)
(-0.00047552529281 -0.0412259108936 -1.37729074668e-24)
(0.0075877581612 -0.0450155301508 2.05076667396e-23)
(-0.0184429918748 -0.00262636199396 3.55796070361e-22)
(-0.0180473170326 -0.00716933394305 -2.02857394025e-22)
(-0.0171073192066 -0.0118952418845 -2.24417346844e-22)
(-0.0157275781785 -0.0164942830684 1.6326073403e-23)
(-0.0137898679011 -0.0208066296895 5.93768880339e-25)
(-0.0111518781441 -0.0248397496949 1.21972813589e-23)
(-0.0077007010719 -0.028481738596 -1.15019857857e-23)
(-0.0031938481389 -0.0316668911211 1.61629090897e-23)
(0.0025768076381 -0.0342425754131 3.59422299949e-23)
(0.00999153346529 -0.0360345727163 1.80361171311e-23)
(-0.0138376271361 -0.00240753032518 2.00285656771e-22)
(-0.0135203156391 -0.006549788607 -7.27175833485e-22)
(-0.0127288845397 -0.0107975816804 1.31464283734e-22)
(-0.0115569903239 -0.0149067803249 4.82498647102e-23)
(-0.00992835501362 -0.018643555687 1.22420474759e-22)
(-0.00769546302727 -0.0219564147055 -1.35481617585e-23)
(-0.0047768684596 -0.0247340488665 1.06572491957e-22)
(-0.000969498853653 -0.0267955329903 6.74112083564e-23)
(0.00397063319377 -0.0279733172381 -1.09994676517e-22)
(0.010318910772 -0.0280054306121 1.52209306572e-22)
(-0.00958394538402 -0.00222744573764 -2.49548577005e-22)
(-0.00929107326814 -0.00605164558038 -1.19962248449e-21)
(-0.00868552600323 -0.00991605719756 -2.65362490805e-22)
(-0.00782604830454 -0.0136195272954 1.22328230931e-22)
(-0.00657152933839 -0.0168731910704 2.01657080311e-23)
(-0.00489163197206 -0.0196161006703 -2.5670469142e-22)
(-0.00264600583856 -0.0216758646661 1.62356233894e-22)
(0.000270765328799 -0.0228259130328 -3.57090197478e-22)
(0.00404193768134 -0.0228471890049 -3.03303657915e-22)
(-0.00568389937249 -0.00208347012159 1.4847708889e-22)
(-0.00544483710977 -0.00572271368736 -2.62939247516e-22)
(-0.00506463651029 -0.00936153234326 1.04212718459e-22)
(-0.00452146801213 -0.0127769677876 3.04561974684e-22)
(-0.00375098652715 -0.0157148529996 -3.08165579659e-24)
(-0.00269119231859 -0.018054743401 -3.81302409464e-22)
(-0.00127269013648 -0.0196020514805 3.79970885802e-22)
(0.000554287182817 -0.0201400090947 -1.55806953625e-22)
(0.00293825620947 -0.019353012048 -3.39811652052e-22)
(-0.00201280808247 -0.00200484219302 1.04744587954e-22)
(-0.0019466458711 -0.00563792477089 4.55694532934e-23)
(-0.00184630768376 -0.00910531033133 1.66167045727e-22)
(-0.00167333288562 -0.0123382576188 2.10862555652e-23)
(-0.00143055277706 -0.0150924411709 3.34382520598e-24)
(-0.00106555104348 -0.0172078198738 -2.2791504407e-22)
(-0.000593992564601 -0.0185095325995 1.79666252817e-22)
(2.31073422975e-05 -0.0187033282068 -2.00208777123e-22)
(0.000837182846366 -0.0174567843497 -2.57194022678e-22)
)
;

boundaryField
{
    back
    {
        type            calculated;
        value           uniform (0 0 0);
    }
    sides
    {
        type            calculated;
        value           uniform (0 0 0);
    }
    bottom
    {
        type            calculated;
        value           uniform (0 0 0);
    }
    front
    {
        type            calculated;
        value           uniform (0 0 0);
    }
    atmosphere
    {
        type            calculated;
        value           nonuniform List<vector> 0();
    }
    floatingObject
    {
        type            calculated;
        value           nonuniform List<vector> 0();
    }
    procBoundary10to9
    {
        type            processor;
        value           nonuniform List<vector> 
15
(
(-0.11531042658 -0.0299819854817 -9.84145211507e-24)
(-0.116041954976 -0.0389607861522 -6.07494348222e-23)
(-0.116968039123 -0.0481611885677 -1.70135627437e-24)
(-0.118162401356 -0.0577686166729 -3.25024193177e-23)
(-0.119710459018 -0.0677424860187 -3.08062822535e-23)
(-0.121694798119 -0.0781642664871 -5.78866031096e-23)
(-0.124232544442 -0.0890863793777 -2.35310106628e-23)
(-0.127444819667 -0.10052961904 1.28535338073e-23)
(-0.106160020172 -0.0134945588097 -3.23046201656e-22)
(-0.106101509417 -0.0212698204352 -8.30831313153e-23)
(-0.106101509417 -0.0212698204352 -8.30831313153e-23)
(-0.0978774814008 -0.0049288548486 2.6710823088e-22)
(-0.089252355631 -0.00466428844066 1.39559478987e-22)
(-0.080625822129 -0.00447191782288 1.87969203628e-22)
(-0.080625822129 -0.00447191782288 1.87969203628e-22)
)
;
    }
    procBoundary10to11
    {
        type            processor;
        value           nonuniform List<vector> 
23
(
(-0.118530661415 -0.116873534953 -1.0271000627e-22)
(-0.118530661415 -0.116873534953 -1.0271000627e-22)
(-0.107904276398 -0.135032953541 -8.74693115869e-23)
(-0.092072691971 -0.138534841546 -4.30619968204e-23)
(-0.0739604681468 -0.124099011234 -1.68801098841e-22)
(-0.0739604681468 -0.124099011234 -1.68801098841e-22)
(-0.0573250241403 -0.123842013631 -8.80418462933e-23)
(-0.0400722564657 -0.121286755715 -5.68695832231e-24)
(-0.0294521037406 -0.099754257638 1.16441637078e-22)
(-0.0294521037406 -0.099754257638 1.16441637078e-22)
(-0.0231936717974 -0.079906630301 2.8402707868e-23)
(-0.0231936717974 -0.079906630301 2.8402707868e-23)
(-0.0126433140655 -0.0724120184713 -3.24100481673e-23)
(-0.0126433140655 -0.0724120184713 -3.24100481673e-23)
(0.00622986498981 -0.0722824271008 1.10425070988e-24)
(0.0134789426621 -0.0604582214051 1.62217450098e-23)
(0.0179244868094 -0.0484266895754 -1.17584532868e-23)
(0.0195142141714 -0.0368927491498 -1.06419782962e-23)
(0.0184717038782 -0.0265799162381 4.55512170848e-23)
(0.00892415651373 -0.0214152704569 2.47662614507e-22)
(0.00892415651373 -0.0214152704569 2.47662614507e-22)
(0.00603972170103 -0.0168559486836 3.49770132667e-22)
(0.00190706094881 -0.014375503068 2.13830340237e-22)
)
;
    }
}


// ************************************************************************* //
