/*--------------------------------*- C++ -*----------------------------------*\
| =========                 |                                                 |
| \\      /  F ield         | OpenFOAM: The Open Source CFD Toolbox           |
|  \\    /   O peration     | Version:  v2012                                 |
|   \\  /    A nd           | Website:  www.openfoam.com                      |
|    \\/     M anipulation  |                                                 |
\*---------------------------------------------------------------------------*/
FoamFile
{
    version     2.0;
    format      ascii;
    class       volScalarField;
    location    "2.8";
    object      p_rgh;
}
// * * * * * * * * * * * * * * * * * * * * * * * * * * * * * * * * * * * * * //

dimensions      [1 -1 -2 0 0 0 0];


internalField   nonuniform List<scalar> 
167
(
8727.10496971
8728.76888587
8730.87125787
8733.42621364
8736.44784678
8739.95560428
8743.96086662
8748.49617985
8729.9106319
8730.72404384
8731.96019375
8733.62603858
8735.7323604
8738.29450145
8741.3300446
8744.8604926
8748.90750289
8753.49325514
8758.63726057
8734.35119972
8735.15743763
8736.38520309
8738.04017287
8740.13463164
8742.68537956
8745.71306714
8749.24265463
8753.30491483
8757.920663
8763.12439271
8738.37782421
8739.17198172
8740.38088918
8742.01142268
8744.07646435
8746.59441926
8749.58858226
8753.08879646
8757.12927003
8761.74665607
8741.61665215
8741.99740268
8742.77233037
8743.95228213
8745.54382656
8747.56040747
8750.02148194
8752.95283057
8756.38740779
8760.3717824
8764.92411837
8744.8522528
8745.221034
8745.96959144
8747.10931801
8748.64654515
8750.59449338
8752.97284142
8755.80813486
8759.14542657
8762.99471908
8767.43854321
8747.70933902
8748.0608062
8748.77683604
8749.86597305
8751.33392155
8753.19302589
8755.46166747
8758.17156847
8761.34127172
8765.02455163
8750.20323854
8750.53464937
8751.2118844
8752.24075248
8753.62571489
8755.37681966
8757.51120286
8760.05174715
8763.0216391
8752.35306341
8752.66304326
8753.295645
8754.25660712
8755.54707341
8757.17398445
8759.15068909
8761.48956924
8764.21820141
8754.18063118
8754.46728691
8755.05285818
8755.94030585
8757.12821898
8758.61932279
8760.41973171
8762.5390848
8764.98574365
8767.78506786
8755.70939255
8755.97168803
8756.50927029
8757.32113567
8758.40295918
8759.75261265
8761.36893298
8763.25322533
8765.40164128
8767.812517
8756.96255114
8757.20185707
8757.69164644
8758.42951344
8759.40679778
8760.61633622
8762.04975641
8763.69831269
8765.54679648
8767.57657568
8757.96384543
8758.18122561
8758.62751805
8759.29602543
8760.1755495
8761.2535352
8762.51471006
8763.94069781
8765.50766486
8767.16693914
8758.73420397
8758.93307781
8759.34100196
8759.94907804
8760.74274927
8761.70519856
8762.81470937
8764.04640205
8765.35276959
8766.69741488
8759.29127341
8759.47641935
8759.85395206
8760.41313392
8761.13771401
8762.00681953
8762.99415772
8764.0637698
8765.16960097
8759.64874715
8759.82546663
8760.18127993
8760.70581281
8761.38121379
8762.18466573
8763.08500123
8764.04268725
8764.99811632
8759.82138243
8759.99245645
8760.33581896
8760.84206774
8761.49279173
8762.26255885
8763.11941009
8764.0149348
8764.89677719
)
;

boundaryField
{
    back
    {
        type            fixedFluxPressure;
        gradient        uniform 0;
        value           nonuniform List<scalar> 
167
(
8727.10496971
8728.76888587
8730.87125787
8733.42621364
8736.44784678
8739.95560428
8743.96086662
8748.49617985
8729.9106319
8730.72404384
8731.96019375
8733.62603858
8735.7323604
8738.29450145
8741.3300446
8744.8604926
8748.90750289
8753.49325514
8758.63726057
8734.35119972
8735.15743763
8736.38520309
8738.04017287
8740.13463164
8742.68537956
8745.71306714
8749.24265463
8753.30491483
8757.920663
8763.12439271
8738.37782421
8739.17198172
8740.38088918
8742.01142268
8744.07646435
8746.59441926
8749.58858226
8753.08879646
8757.12927003
8761.74665607
8741.61665215
8741.99740268
8742.77233037
8743.95228213
8745.54382656
8747.56040747
8750.02148194
8752.95283057
8756.38740779
8760.3717824
8764.92411837
8744.8522528
8745.221034
8745.96959144
8747.10931801
8748.64654515
8750.59449338
8752.97284142
8755.80813486
8759.14542657
8762.99471908
8767.43854321
8747.70933902
8748.0608062
8748.77683604
8749.86597305
8751.33392155
8753.19302589
8755.46166747
8758.17156847
8761.34127172
8765.02455163
8750.20323854
8750.53464937
8751.2118844
8752.24075248
8753.62571489
8755.37681966
8757.51120286
8760.05174715
8763.0216391
8752.35306341
8752.66304326
8753.295645
8754.25660712
8755.54707341
8757.17398445
8759.15068909
8761.48956924
8764.21820141
8754.18063118
8754.46728691
8755.05285818
8755.94030585
8757.12821898
8758.61932279
8760.41973171
8762.5390848
8764.98574365
8767.78506786
8755.70939255
8755.97168803
8756.50927029
8757.32113567
8758.40295918
8759.75261265
8761.36893298
8763.25322533
8765.40164128
8767.812517
8756.96255114
8757.20185707
8757.69164644
8758.42951344
8759.40679778
8760.61633622
8762.04975641
8763.69831269
8765.54679648
8767.57657568
8757.96384543
8758.18122561
8758.62751805
8759.29602543
8760.1755495
8761.2535352
8762.51471006
8763.94069781
8765.50766486
8767.16693914
8758.73420397
8758.93307781
8759.34100196
8759.94907804
8760.74274927
8761.70519856
8762.81470937
8764.04640205
8765.35276959
8766.69741488
8759.29127341
8759.47641935
8759.85395206
8760.41313392
8761.13771401
8762.00681953
8762.99415772
8764.0637698
8765.16960097
8759.64874715
8759.82546663
8760.18127993
8760.70581281
8761.38121379
8762.18466573
8763.08500123
8764.04268725
8764.99811632
8759.82138243
8759.99245645
8760.33581896
8760.84206774
8761.49279173
8762.26255885
8763.11941009
8764.0149348
8764.89677719
)
;
    }
    sides
    {
        type            fixedFluxPressure;
        gradient        uniform 0;
        value           nonuniform List<scalar> 9(8759.82138243 8759.99245645 8760.33581896 8760.84206774 8761.49279173 8762.26255885 8763.11941009 8764.0149348 8764.89677719);
    }
    bottom
    {
        type            fixedFluxPressure;
        gradient        uniform 0;
        value           nonuniform List<scalar> 
13
(
8741.61665215
8744.8522528
8747.70933902
8750.20323854
8752.35306341
8754.18063118
8755.70939255
8756.96255114
8757.96384543
8758.73420397
8759.29127341
8759.64874715
8759.82138243
)
;
    }
    front
    {
        type            fixedFluxPressure;
        gradient        uniform 0;
        value           nonuniform List<scalar> 
167
(
8727.10496971
8728.76888587
8730.87125787
8733.42621364
8736.44784678
8739.95560428
8743.96086662
8748.49617985
8729.9106319
8730.72404384
8731.96019375
8733.62603858
8735.7323604
8738.29450145
8741.3300446
8744.8604926
8748.90750289
8753.49325514
8758.63726057
8734.35119972
8735.15743763
8736.38520309
8738.04017287
8740.13463164
8742.68537956
8745.71306714
8749.24265463
8753.30491483
8757.920663
8763.12439271
8738.37782421
8739.17198172
8740.38088918
8742.01142268
8744.07646435
8746.59441926
8749.58858226
8753.08879646
8757.12927003
8761.74665607
8741.61665215
8741.99740268
8742.77233037
8743.95228213
8745.54382656
8747.56040747
8750.02148194
8752.95283057
8756.38740779
8760.3717824
8764.92411837
8744.8522528
8745.221034
8745.96959144
8747.10931801
8748.64654515
8750.59449338
8752.97284142
8755.80813486
8759.14542657
8762.99471908
8767.43854321
8747.70933902
8748.0608062
8748.77683604
8749.86597305
8751.33392155
8753.19302589
8755.46166747
8758.17156847
8761.34127172
8765.02455163
8750.20323854
8750.53464937
8751.2118844
8752.24075248
8753.62571489
8755.37681966
8757.51120286
8760.05174715
8763.0216391
8752.35306341
8752.66304326
8753.295645
8754.25660712
8755.54707341
8757.17398445
8759.15068909
8761.48956924
8764.21820141
8754.18063118
8754.46728691
8755.05285818
8755.94030585
8757.12821898
8758.61932279
8760.41973171
8762.5390848
8764.98574365
8767.78506786
8755.70939255
8755.97168803
8756.50927029
8757.32113567
8758.40295918
8759.75261265
8761.36893298
8763.25322533
8765.40164128
8767.812517
8756.96255114
8757.20185707
8757.69164644
8758.42951344
8759.40679778
8760.61633622
8762.04975641
8763.69831269
8765.54679648
8767.57657568
8757.96384543
8758.18122561
8758.62751805
8759.29602543
8760.1755495
8761.2535352
8762.51471006
8763.94069781
8765.50766486
8767.16693914
8758.73420397
8758.93307781
8759.34100196
8759.94907804
8760.74274927
8761.70519856
8762.81470937
8764.04640205
8765.35276959
8766.69741488
8759.29127341
8759.47641935
8759.85395206
8760.41313392
8761.13771401
8762.00681953
8762.99415772
8764.0637698
8765.16960097
8759.64874715
8759.82546663
8760.18127993
8760.70581281
8761.38121379
8762.18466573
8763.08500123
8764.04268725
8764.99811632
8759.82138243
8759.99245645
8760.33581896
8760.84206774
8761.49279173
8762.26255885
8763.11941009
8764.0149348
8764.89677719
)
;
    }
    atmosphere
    {
        type            totalPressure;
        rho             rho;
        psi             none;
        gamma           1;
        p0              nonuniform List<scalar> 0();
        value           nonuniform List<scalar> 0();
    }
    floatingObject
    {
        type            fixedFluxPressure;
        gradient        nonuniform List<scalar> 0();
        value           nonuniform List<scalar> 0();
    }
    procBoundary10to9
    {
        type            processor;
        value           nonuniform List<scalar> 
15
(
8721.81900714
8723.47080083
8725.55711492
8728.08843624
8731.07967145
8734.5418897
8738.49462607
8742.93553567
8725.05156832
8725.86784924
8725.86784924
8729.50185676
8733.94859527
8737.98483488
8737.98483488
)
;
    }
    procBoundary10to11
    {
        type            processor;
        value           nonuniform List<scalar> 
23
(
8753.54125556
8753.54125556
8764.33932995
8768.93383726
8766.97938441
8766.97938441
8770.13663442
8772.53629809
8769.27113051
8769.27113051
8766.47157873
8766.47157873
8767.35309404
8767.35309404
8770.92789932
8770.49480809
8769.77140174
8768.90170399
8768.00948174
8766.25155448
8766.25155448
8765.89154164
8765.68646774
)
;
    }
}


// ************************************************************************* //
