/*--------------------------------*- C++ -*----------------------------------*\
| =========                 |                                                 |
| \\      /  F ield         | OpenFOAM: The Open Source CFD Toolbox           |
|  \\    /   O peration     | Version:  v2012                                 |
|   \\  /    A nd           | Website:  www.openfoam.com                      |
|    \\/     M anipulation  |                                                 |
\*---------------------------------------------------------------------------*/
FoamFile
{
    version     2.0;
    format      ascii;
    class       volScalarField;
    location    "0.2";
    object      ddt0(k);
}
// * * * * * * * * * * * * * * * * * * * * * * * * * * * * * * * * * * * * * //

dimensions      [0 2 -3 0 0 0 0];


internalField   nonuniform List<scalar> 
167
(
-0.143582850838
-0.143552885772
-0.143524152465
-0.143496795523
-0.143470957322
-0.143446777148
-0.143424260346
-0.143400294022
-0.143312177447
-0.142177912641
-0.128773328261
-0.0369952355026
-0.13668090911
-0.136648336318
-0.136616510864
-0.136585596547
-0.136555737859
-0.136527028433
-0.136499137617
-0.136465427311
-0.136324827825
-0.134810597571
-0.1203200816
-0.0377333081329
-0.133622106935
-0.133593344511
-0.133565502963
-0.133538786264
-0.133513364169
-0.133489372092
-0.133466563078
-0.13343834158
-0.133302152219
-0.131789587409
-0.117494822971
-0.0369366951952
-0.133134170096
-0.133108536862
-0.133084000387
-0.133060763571
-0.133038984042
-0.133018433231
-0.132992456719
-0.132857511772
-0.13133868089
-0.117028423186
-0.0367588686893
-0.133052600121
-0.133029125255
-0.133006832508
-0.132985908506
-0.132966138472
-0.132940762586
-0.132804776616
-0.131271692582
-0.116893305761
-0.0366737496599
-0.133032846362
-0.133010274829
-0.132988750128
-0.132968476758
-0.132949249931
-0.132924161055
-0.13278629932
-0.131233978628
-0.116763584191
-0.0365815127398
-0.133013009336
-0.132991371934
-0.13297063894
-0.132951033201
-0.132932353538
-0.13290749903
-0.13276720473
-0.131191135051
-0.116608428637
-0.0364717823282
-0.132990443109
-0.132969754907
-0.132949834344
-0.132930917589
-0.132912800442
-0.132888143662
-0.132744856301
-0.131140413865
-0.116425188992
-0.0363432083453
-0.13296504774
-0.132945292699
-0.132926178642
-0.132907950157
-0.132890393185
-0.132865880537
-0.13271898608
-0.131081288419
-0.116212807091
-0.0361950729012
-0.132936858703
-0.132917993066
-0.132899654004
-0.13288209032
-0.132865071326
-0.132840627056
-0.132689440935
-0.131013266094
-0.115970030042
-0.0360266261365
-0.132905891331
-0.132887847556
-0.132870228994
-0.132853285338
-0.132836762404
-0.132812286268
-0.132656039203
-0.13093575642
-0.115695357807
-0.0358370396073
-0.132872130893
-0.132854821544
-0.132837848321
-0.132821459733
-0.13280537129
-0.132780736147
-0.132618558927
-0.130848055552
-0.115387040985
-0.0356253885034
-0.132835534975
-0.132818854081
-0.132802431357
-0.132786513042
-0.132770777555
-0.132745826603
-0.132576732317
-0.130749332327
-0.115043058604
-0.0353906282893
-0.132796034873
-0.132779858695
-0.132763871279
-0.132748318223
-0.132732832492
-0.132707375779
-0.132530238855
-0.130638609092
-0.114661083205
-0.0351315710377
-0.132753540806
-0.132737720184
-0.132722034419
-0.132706718318
-0.132691358275
-0.132665166354
-0.132478697334
-0.130514736296
-0.114238436633
-0.0348468608574
-0.132707923569
-0.132692304255
-0.132676758578
-0.132661532768
-0.132646143362
-0.132618943288
-0.132421653957
-0.130376368151
-0.113772036211
-0.0345349436513
)
;

boundaryField
{
    back
    {
        type            calculated;
        value           nonuniform List<scalar> 
167
(
-0.143582850838
-0.143552885772
-0.143524152465
-0.143496795523
-0.143470957322
-0.143446777148
-0.143424260346
-0.143400294022
-0.143312177447
-0.142177912641
-0.128773328261
-0.0369952355026
-0.13668090911
-0.136648336318
-0.136616510864
-0.136585596547
-0.136555737859
-0.136527028433
-0.136499137617
-0.136465427311
-0.136324827825
-0.134810597571
-0.1203200816
-0.0377333081329
-0.133622106935
-0.133593344511
-0.133565502963
-0.133538786264
-0.133513364169
-0.133489372092
-0.133466563078
-0.13343834158
-0.133302152219
-0.131789587409
-0.117494822971
-0.0369366951952
-0.133134170096
-0.133108536862
-0.133084000387
-0.133060763571
-0.133038984042
-0.133018433231
-0.132992456719
-0.132857511772
-0.13133868089
-0.117028423186
-0.0367588686893
-0.133052600121
-0.133029125255
-0.133006832508
-0.132985908506
-0.132966138472
-0.132940762586
-0.132804776616
-0.131271692582
-0.116893305761
-0.0366737496599
-0.133032846362
-0.133010274829
-0.132988750128
-0.132968476758
-0.132949249931
-0.132924161055
-0.13278629932
-0.131233978628
-0.116763584191
-0.0365815127398
-0.133013009336
-0.132991371934
-0.13297063894
-0.132951033201
-0.132932353538
-0.13290749903
-0.13276720473
-0.131191135051
-0.116608428637
-0.0364717823282
-0.132990443109
-0.132969754907
-0.132949834344
-0.132930917589
-0.132912800442
-0.132888143662
-0.132744856301
-0.131140413865
-0.116425188992
-0.0363432083453
-0.13296504774
-0.132945292699
-0.132926178642
-0.132907950157
-0.132890393185
-0.132865880537
-0.13271898608
-0.131081288419
-0.116212807091
-0.0361950729012
-0.132936858703
-0.132917993066
-0.132899654004
-0.13288209032
-0.132865071326
-0.132840627056
-0.132689440935
-0.131013266094
-0.115970030042
-0.0360266261365
-0.132905891331
-0.132887847556
-0.132870228994
-0.132853285338
-0.132836762404
-0.132812286268
-0.132656039203
-0.13093575642
-0.115695357807
-0.0358370396073
-0.132872130893
-0.132854821544
-0.132837848321
-0.132821459733
-0.13280537129
-0.132780736147
-0.132618558927
-0.130848055552
-0.115387040985
-0.0356253885034
-0.132835534975
-0.132818854081
-0.132802431357
-0.132786513042
-0.132770777555
-0.132745826603
-0.132576732317
-0.130749332327
-0.115043058604
-0.0353906282893
-0.132796034873
-0.132779858695
-0.132763871279
-0.132748318223
-0.132732832492
-0.132707375779
-0.132530238855
-0.130638609092
-0.114661083205
-0.0351315710377
-0.132753540806
-0.132737720184
-0.132722034419
-0.132706718318
-0.132691358275
-0.132665166354
-0.132478697334
-0.130514736296
-0.114238436633
-0.0348468608574
-0.132707923569
-0.132692304255
-0.132676758578
-0.132661532768
-0.132646143362
-0.132618943288
-0.132421653957
-0.130376368151
-0.113772036211
-0.0345349436513
)
;
    }
    sides
    {
        type            calculated;
        value           nonuniform List<scalar> 
12
(
-0.143582850838
-0.143552885772
-0.143524152465
-0.143496795523
-0.143470957322
-0.143446777148
-0.143424260346
-0.143400294022
-0.143312177447
-0.142177912641
-0.128773328261
-0.0369952355026
)
;
    }
    bottom
    {
        type            calculated;
        value           nonuniform List<scalar> 0();
    }
    front
    {
        type            calculated;
        value           nonuniform List<scalar> 
167
(
-0.143582850838
-0.143552885772
-0.143524152465
-0.143496795523
-0.143470957322
-0.143446777148
-0.143424260346
-0.143400294022
-0.143312177447
-0.142177912641
-0.128773328261
-0.0369952355026
-0.13668090911
-0.136648336318
-0.136616510864
-0.136585596547
-0.136555737859
-0.136527028433
-0.136499137617
-0.136465427311
-0.136324827825
-0.134810597571
-0.1203200816
-0.0377333081329
-0.133622106935
-0.133593344511
-0.133565502963
-0.133538786264
-0.133513364169
-0.133489372092
-0.133466563078
-0.13343834158
-0.133302152219
-0.131789587409
-0.117494822971
-0.0369366951952
-0.133134170096
-0.133108536862
-0.133084000387
-0.133060763571
-0.133038984042
-0.133018433231
-0.132992456719
-0.132857511772
-0.13133868089
-0.117028423186
-0.0367588686893
-0.133052600121
-0.133029125255
-0.133006832508
-0.132985908506
-0.132966138472
-0.132940762586
-0.132804776616
-0.131271692582
-0.116893305761
-0.0366737496599
-0.133032846362
-0.133010274829
-0.132988750128
-0.132968476758
-0.132949249931
-0.132924161055
-0.13278629932
-0.131233978628
-0.116763584191
-0.0365815127398
-0.133013009336
-0.132991371934
-0.13297063894
-0.132951033201
-0.132932353538
-0.13290749903
-0.13276720473
-0.131191135051
-0.116608428637
-0.0364717823282
-0.132990443109
-0.132969754907
-0.132949834344
-0.132930917589
-0.132912800442
-0.132888143662
-0.132744856301
-0.131140413865
-0.116425188992
-0.0363432083453
-0.13296504774
-0.132945292699
-0.132926178642
-0.132907950157
-0.132890393185
-0.132865880537
-0.13271898608
-0.131081288419
-0.116212807091
-0.0361950729012
-0.132936858703
-0.132917993066
-0.132899654004
-0.13288209032
-0.132865071326
-0.132840627056
-0.132689440935
-0.131013266094
-0.115970030042
-0.0360266261365
-0.132905891331
-0.132887847556
-0.132870228994
-0.132853285338
-0.132836762404
-0.132812286268
-0.132656039203
-0.13093575642
-0.115695357807
-0.0358370396073
-0.132872130893
-0.132854821544
-0.132837848321
-0.132821459733
-0.13280537129
-0.132780736147
-0.132618558927
-0.130848055552
-0.115387040985
-0.0356253885034
-0.132835534975
-0.132818854081
-0.132802431357
-0.132786513042
-0.132770777555
-0.132745826603
-0.132576732317
-0.130749332327
-0.115043058604
-0.0353906282893
-0.132796034873
-0.132779858695
-0.132763871279
-0.132748318223
-0.132732832492
-0.132707375779
-0.132530238855
-0.130638609092
-0.114661083205
-0.0351315710377
-0.132753540806
-0.132737720184
-0.132722034419
-0.132706718318
-0.132691358275
-0.132665166354
-0.132478697334
-0.130514736296
-0.114238436633
-0.0348468608574
-0.132707923569
-0.132692304255
-0.132676758578
-0.132661532768
-0.132646143362
-0.132618943288
-0.132421653957
-0.130376368151
-0.113772036211
-0.0345349436513
)
;
    }
    atmosphere
    {
        type            calculated;
        value           uniform 0;
    }
    floatingObject
    {
        type            calculated;
        value           nonuniform List<scalar> 0();
    }
    procBoundary1to0
    {
        type            processor;
        value           nonuniform List<scalar> 10(-0.132659072251 -0.132643459158 -0.132627869886 -0.132612547777 -0.132596946631 -0.132568406205 -0.132358579696 -0.130221918791 -0.113258327228 -0.0341940355929);
    }
    procBoundary1to2
    {
        type            processor;
        value           nonuniform List<scalar> 
18
(
-0.143613902092
-0.136714052971
-0.133651589712
-0.133160696762
-0.133160696762
-0.133077045975
-0.133077045975
-0.133056216581
-0.133035280381
-0.133011611712
-0.132985145738
-0.132955947693
-0.132924055095
-0.132889472456
-0.132852173181
-0.132812105851
-0.132769188553
-0.132723331146
)
;
    }
}


// ************************************************************************* //
