/*--------------------------------*- C++ -*----------------------------------*\
| =========                 |                                                 |
| \\      /  F ield         | OpenFOAM: The Open Source CFD Toolbox           |
|  \\    /   O peration     | Version:  v2012                                 |
|   \\  /    A nd           | Website:  www.openfoam.com                      |
|    \\/     M anipulation  |                                                 |
\*---------------------------------------------------------------------------*/
FoamFile
{
    version     2.0;
    format      ascii;
    class       volScalarField;
    location    "0.2";
    object      ddt0(epsilon);
}
// * * * * * * * * * * * * * * * * * * * * * * * * * * * * * * * * * * * * * //

dimensions      [0 2 -4 0 0 0 0];


internalField   nonuniform List<scalar> 
167
(
-0.586498179295
-0.586412323826
-0.586329586389
-0.586250395322
-0.586175157157
-0.586104261965
-0.586037725965
-0.585965965595
-0.585689730259
-0.581986009215
-0.536784669354
-0.183460334214
-0.436757873412
-0.436677343101
-0.436598378853
-0.436521429668
-0.436446852677
-0.436374875428
-0.436304676421
-0.436219884085
-0.435863381772
-0.431903168797
-0.392645317575
-0.141713978064
-0.428789778594
-0.428718028141
-0.428648574567
-0.428581723355
-0.428517947535
-0.428457574937
-0.428400028041
-0.428329010031
-0.42798229233
-0.424001749873
-0.384996578541
-0.138922927351
-0.427472996139
-0.427409126492
-0.427347971645
-0.427289925554
-0.427235387965
-0.427183816805
-0.427118783565
-0.426775399831
-0.422776169225
-0.383698839786
-0.138326391723
-0.427262221648
-0.427203762108
-0.427148111543
-0.427095754388
-0.427046192751
-0.426982730973
-0.426636745469
-0.422599912837
-0.383331606967
-0.138050004855
-0.427213245603
-0.427157059386
-0.427103315913
-0.427052584609
-0.427004387375
-0.42694166644
-0.426590932474
-0.422503603974
-0.382980599596
-0.137750980579
-0.42716463823
-0.427110751676
-0.427058966907
-0.427009894109
-0.426963064367
-0.426900946432
-0.426544051957
-0.422394407588
-0.382560616929
-0.137395000793
-0.427109388694
-0.427057847857
-0.427008069877
-0.426960705143
-0.426915277503
-0.426853669961
-0.426489197022
-0.422265094555
-0.382064387988
-0.136977599986
-0.427047277748
-0.426998024888
-0.426950235341
-0.426904572705
-0.426860537971
-0.426799307799
-0.42642570123
-0.422114305664
-0.381488925704
-0.136496324942
-0.426978363228
-0.42693131118
-0.426885430875
-0.426841409946
-0.426798711018
-0.426737670281
-0.426353196412
-0.42194076558
-0.380830694772
-0.135948601414
-0.426902737417
-0.426857705583
-0.426813597337
-0.426771103667
-0.426729633864
-0.426668533978
-0.426271242457
-0.421742945015
-0.380085465821
-0.135331578125
-0.426820337401
-0.426777137
-0.426734614645
-0.426693484551
-0.426653089082
-0.426591613681
-0.426179300794
-0.421519018641
-0.379248303372
-0.134642064278
-0.426731127448
-0.426689481829
-0.426648305793
-0.426608325025
-0.426568797332
-0.426506557446
-0.426076718232
-0.421266829775
-0.378313499726
-0.133876450163
-0.426634903833
-0.426594502703
-0.426554386586
-0.426515287112
-0.426476384406
-0.426412917537
-0.42596271752
-0.420983854258
-0.377274497532
-0.133030633419
-0.426531401306
-0.426491974317
-0.426452547547
-0.426414065217
-0.426375448016
-0.42631024491
-0.425836381135
-0.420667147934
-0.376123669121
-0.132099888856
-0.426420736956
-0.426381657587
-0.426342602472
-0.426304243665
-0.426265609165
-0.426197869674
-0.425696634153
-0.420313069925
-0.374852248704
-0.131078793946
)
;

boundaryField
{
    back
    {
        type            calculated;
        value           nonuniform List<scalar> 
167
(
-0.586498179295
-0.586412323826
-0.586329586389
-0.586250395322
-0.586175157157
-0.586104261965
-0.586037725965
-0.585965965595
-0.585689730259
-0.581986009215
-0.536784669354
-0.183460334214
-0.436757873412
-0.436677343101
-0.436598378853
-0.436521429668
-0.436446852677
-0.436374875428
-0.436304676421
-0.436219884085
-0.435863381772
-0.431903168797
-0.392645317575
-0.141713978064
-0.428789778594
-0.428718028141
-0.428648574567
-0.428581723355
-0.428517947535
-0.428457574937
-0.428400028041
-0.428329010031
-0.42798229233
-0.424001749873
-0.384996578541
-0.138922927351
-0.427472996139
-0.427409126492
-0.427347971645
-0.427289925554
-0.427235387965
-0.427183816805
-0.427118783565
-0.426775399831
-0.422776169225
-0.383698839786
-0.138326391723
-0.427262221648
-0.427203762108
-0.427148111543
-0.427095754388
-0.427046192751
-0.426982730973
-0.426636745469
-0.422599912837
-0.383331606967
-0.138050004855
-0.427213245603
-0.427157059386
-0.427103315913
-0.427052584609
-0.427004387375
-0.42694166644
-0.426590932474
-0.422503603974
-0.382980599596
-0.137750980579
-0.42716463823
-0.427110751676
-0.427058966907
-0.427009894109
-0.426963064367
-0.426900946432
-0.426544051957
-0.422394407588
-0.382560616929
-0.137395000793
-0.427109388694
-0.427057847857
-0.427008069877
-0.426960705143
-0.426915277503
-0.426853669961
-0.426489197022
-0.422265094555
-0.382064387988
-0.136977599986
-0.427047277748
-0.426998024888
-0.426950235341
-0.426904572705
-0.426860537971
-0.426799307799
-0.42642570123
-0.422114305664
-0.381488925704
-0.136496324942
-0.426978363228
-0.42693131118
-0.426885430875
-0.426841409946
-0.426798711018
-0.426737670281
-0.426353196412
-0.42194076558
-0.380830694772
-0.135948601414
-0.426902737417
-0.426857705583
-0.426813597337
-0.426771103667
-0.426729633864
-0.426668533978
-0.426271242457
-0.421742945015
-0.380085465821
-0.135331578125
-0.426820337401
-0.426777137
-0.426734614645
-0.426693484551
-0.426653089082
-0.426591613681
-0.426179300794
-0.421519018641
-0.379248303372
-0.134642064278
-0.426731127448
-0.426689481829
-0.426648305793
-0.426608325025
-0.426568797332
-0.426506557446
-0.426076718232
-0.421266829775
-0.378313499726
-0.133876450163
-0.426634903833
-0.426594502703
-0.426554386586
-0.426515287112
-0.426476384406
-0.426412917537
-0.42596271752
-0.420983854258
-0.377274497532
-0.133030633419
-0.426531401306
-0.426491974317
-0.426452547547
-0.426414065217
-0.426375448016
-0.42631024491
-0.425836381135
-0.420667147934
-0.376123669121
-0.132099888856
-0.426420736956
-0.426381657587
-0.426342602472
-0.426304243665
-0.426265609165
-0.426197869674
-0.425696634153
-0.420313069925
-0.374852248704
-0.131078793946
)
;
    }
    sides
    {
        type            calculated;
        value           nonuniform List<scalar> 
12
(
-0.586498179295
-0.586412323826
-0.586329586389
-0.586250395322
-0.586175157157
-0.586104261965
-0.586037725965
-0.585965965595
-0.585689730259
-0.581986009215
-0.536784669354
-0.183460334214
)
;
    }
    bottom
    {
        type            calculated;
        value           nonuniform List<scalar> 0();
    }
    front
    {
        type            calculated;
        value           nonuniform List<scalar> 
167
(
-0.586498179295
-0.586412323826
-0.586329586389
-0.586250395322
-0.586175157157
-0.586104261965
-0.586037725965
-0.585965965595
-0.585689730259
-0.581986009215
-0.536784669354
-0.183460334214
-0.436757873412
-0.436677343101
-0.436598378853
-0.436521429668
-0.436446852677
-0.436374875428
-0.436304676421
-0.436219884085
-0.435863381772
-0.431903168797
-0.392645317575
-0.141713978064
-0.428789778594
-0.428718028141
-0.428648574567
-0.428581723355
-0.428517947535
-0.428457574937
-0.428400028041
-0.428329010031
-0.42798229233
-0.424001749873
-0.384996578541
-0.138922927351
-0.427472996139
-0.427409126492
-0.427347971645
-0.427289925554
-0.427235387965
-0.427183816805
-0.427118783565
-0.426775399831
-0.422776169225
-0.383698839786
-0.138326391723
-0.427262221648
-0.427203762108
-0.427148111543
-0.427095754388
-0.427046192751
-0.426982730973
-0.426636745469
-0.422599912837
-0.383331606967
-0.138050004855
-0.427213245603
-0.427157059386
-0.427103315913
-0.427052584609
-0.427004387375
-0.42694166644
-0.426590932474
-0.422503603974
-0.382980599596
-0.137750980579
-0.42716463823
-0.427110751676
-0.427058966907
-0.427009894109
-0.426963064367
-0.426900946432
-0.426544051957
-0.422394407588
-0.382560616929
-0.137395000793
-0.427109388694
-0.427057847857
-0.427008069877
-0.426960705143
-0.426915277503
-0.426853669961
-0.426489197022
-0.422265094555
-0.382064387988
-0.136977599986
-0.427047277748
-0.426998024888
-0.426950235341
-0.426904572705
-0.426860537971
-0.426799307799
-0.42642570123
-0.422114305664
-0.381488925704
-0.136496324942
-0.426978363228
-0.42693131118
-0.426885430875
-0.426841409946
-0.426798711018
-0.426737670281
-0.426353196412
-0.42194076558
-0.380830694772
-0.135948601414
-0.426902737417
-0.426857705583
-0.426813597337
-0.426771103667
-0.426729633864
-0.426668533978
-0.426271242457
-0.421742945015
-0.380085465821
-0.135331578125
-0.426820337401
-0.426777137
-0.426734614645
-0.426693484551
-0.426653089082
-0.426591613681
-0.426179300794
-0.421519018641
-0.379248303372
-0.134642064278
-0.426731127448
-0.426689481829
-0.426648305793
-0.426608325025
-0.426568797332
-0.426506557446
-0.426076718232
-0.421266829775
-0.378313499726
-0.133876450163
-0.426634903833
-0.426594502703
-0.426554386586
-0.426515287112
-0.426476384406
-0.426412917537
-0.42596271752
-0.420983854258
-0.377274497532
-0.133030633419
-0.426531401306
-0.426491974317
-0.426452547547
-0.426414065217
-0.426375448016
-0.42631024491
-0.425836381135
-0.420667147934
-0.376123669121
-0.132099888856
-0.426420736956
-0.426381657587
-0.426342602472
-0.426304243665
-0.426265609165
-0.426197869674
-0.425696634153
-0.420313069925
-0.374852248704
-0.131078793946
)
;
    }
    atmosphere
    {
        type            calculated;
        value           uniform 0;
    }
    floatingObject
    {
        type            calculated;
        value           nonuniform List<scalar> 0();
    }
    procBoundary1to0
    {
        type            processor;
        value           nonuniform List<scalar> 10(-0.426255448371 -0.42621621376 -0.426176953544 -0.426138416695 -0.426099214255 -0.426028290073 -0.425495222793 -0.419870805324 -0.373403313786 -0.129914366258);
    }
    procBoundary1to2
    {
        type            processor;
        value           nonuniform List<scalar> 
18
(
-0.586514138144
-0.436792848525
-0.428816091052
-0.427491900321
-0.427491900321
-0.427276135989
-0.427276135989
-0.427224637556
-0.427173312809
-0.427115373763
-0.42705061072
-0.426979244435
-0.426901332031
-0.426816954626
-0.426726021949
-0.426628439727
-0.426524108432
-0.426412725333
)
;
    }
}


// ************************************************************************* //
