/*--------------------------------*- C++ -*----------------------------------*\
| =========                 |                                                 |
| \\      /  F ield         | OpenFOAM: The Open Source CFD Toolbox           |
|  \\    /   O peration     | Version:  v2012                                 |
|   \\  /    A nd           | Website:  www.openfoam.com                      |
|    \\/     M anipulation  |                                                 |
\*---------------------------------------------------------------------------*/
FoamFile
{
    version     2.0;
    format      ascii;
    class       surfaceVectorField;
    location    "0.2";
    object      ddtCorrDdt0(Uf);
}
// * * * * * * * * * * * * * * * * * * * * * * * * * * * * * * * * * * * * * //

dimensions      [0 1 -2 0 0 0 0];


internalField   nonuniform List<vector> 
306
(
(0.00304945851511 -0.0490250485299 4.4046695101e-22)
(0.00524552010919 -0.0459864329724 6.42133974427e-22)
(0.00297789839004 -0.0541700382661 4.26234927776e-22)
(0.00514809370299 -0.0511458988604 2.86000308143e-22)
(0.00289658735128 -0.0592016900976 4.28986273476e-23)
(0.00503587453718 -0.0562047854417 -3.24406597224e-22)
(0.00280430549756 -0.0641039761941 1.98021486989e-23)
(0.00490716817823 -0.0611478498636 -4.46490402183e-22)
(0.00269892380469 -0.0688589122243 8.75898544167e-23)
(0.00475976966532 -0.0659592430177 -2.69388698875e-22)
(0.00257536549812 -0.0734444594651 1.01294495709e-22)
(0.00458984897332 -0.0706216101521 1.00469518213e-22)
(0.00241994246953 -0.0778295341699 1.43350803231e-23)
(0.0043882548159 -0.0751175219805 8.01203581494e-23)
(0.00219728049595 -0.0819586985119 1.0531311918e-22)
(0.00413104231707 -0.079426628719 4.44920152129e-23)
(0.00182187438844 -0.0857218981255 1.8368908975e-22)
(0.00376368654396 -0.0835215562419 1.1026455584e-22)
(0.00148135706277 -0.0888935020887 -1.38297417625e-21)
(0.00317113504942 -0.0875026647862 5.08975182506e-22)
(0.00621096567445 -0.0913332321721 -1.36751371559e-21)
(0.00243891426624 -0.0894046884387 -1.92462062982e-21)
(0.00587899899511 -0.0971549731406 -1.35234796702e-21)
(0.0075646727232 -0.050060407319 4.8766733156e-22)
(0.0105991820094 -0.0466154120266 6.10720295551e-22)
(0.00742317844027 -0.0553094189702 -4.64641216857e-22)
(0.0104006595935 -0.0518461570858 -2.06881819403e-22)
(0.00725986237098 -0.0604421368529 -8.13795626754e-22)
(0.010173130058 -0.0569753995377 -3.47465815961e-22)
(0.00707200546632 -0.0654429304258 -7.35681249757e-22)
(0.00991310791939 -0.0619884975407 -4.36332347584e-22)
(0.00685631663815 -0.0702960608106 -2.56509035078e-22)
(0.00961796730211 -0.0668698791338 -2.65170451361e-22)
(0.00660719379869 -0.074987099713 7.92953806533e-23)
(0.00928502817644 -0.071604131528 5.47409482939e-23)
(0.0063128883439 -0.0795078981794 1.10277293039e-22)
(0.00891187511204 -0.0761793718937 1.21227775014e-22)
(0.0059459538924 -0.0838749458516 4.94434518724e-23)
(0.0084992421268 -0.0805860712295 1.43086789141e-22)
(0.00544282188442 -0.0881659722567 4.35550648596e-22)
(0.00805441554556 -0.0848321195235 2.44348565067e-22)
(0.00472069461452 -0.0925787107528 -3.26712710623e-23)
(0.00758252658493 -0.0891901275101 7.69716653955e-22)
(0.00341092649905 -0.0973875833601 -1.90945488125e-21)
(0.00724638179499 -0.0915231232676 -2.40100117463e-22)
(0.00534725053945 -0.0974682384676 -1.15016887567e-21)
(0.0128784218034 -0.0503633825778 -8.38288554119e-23)
(0.0126307977068 -0.0556503885642 -8.97064185071e-23)
(0.0156934198529 -0.052155266286 -7.0163591904e-23)
(0.0123458766517 -0.0608238240505 2.99974632092e-23)
(0.0153516010345 -0.0573267131288 3.42898148912e-24)
(0.012020695205 -0.0658671954935 3.41784508118e-23)
(0.0149618118589 -0.0623845491915 3.42006605841e-23)
(0.0116523508152 -0.0707644978067 4.60795320111e-23)
(0.0145201565408 -0.0673131220872 3.12862009529e-25)
(0.0112389279142 -0.0754999833512 9.66733426542e-23)
(0.0140243118654 -0.0720959125214 5.48547527277e-23)
(0.010781475234 -0.0800593078154 1.54037271115e-22)
(0.0134732223054 -0.0767181612003 6.11546456821e-23)
(0.0102865642243 -0.0844301143592 3.37991902335e-22)
(0.0128701983509 -0.0811621687236 1.21726835374e-22)
(0.00978018356882 -0.0885962907529 5.78514570426e-22)
(0.0122189810424 -0.0854062313278 2.84265660074e-22)
(0.00937188902235 -0.0925323313595 5.62287807554e-22)
(0.0115160539284 -0.0895424722293 5.43153965089e-22)
(0.00796923530007 -0.0959301630539 5.19185888119e-22)
(0.0106420457691 -0.0916227594329 7.56752729643e-22)
(0.00703795384968 -0.0982816763078 7.79602384502e-22)
(0.0178717039203 -0.0560001335602 2.29718080923e-23)
(0.0174695043377 -0.0612218895318 7.63217886401e-24)
(0.0205797402861 -0.0577321092827 8.75402354936e-24)
(0.0170105300448 -0.0663173535972 3.35071781843e-25)
(0.0200628347311 -0.0628468249964 5.42187808504e-25)
(0.0164912717807 -0.071268818932 9.08808272617e-24)
(0.0194763601201 -0.0678357725917 1.1839761286e-24)
(0.0159097379148 -0.0760588441889 1.93360557555e-23)
(0.0188174949229 -0.0726808584522 1.16454645175e-23)
(0.0152664939541 -0.0806691255286 2.88442099408e-23)
(0.018084596792 -0.0773648999944 1.29530278168e-23)
(0.0145628103212 -0.0850792705242 6.80005931132e-23)
(0.0172791266783 -0.0818669485946 2.67260467356e-23)
(0.0137951031844 -0.0892627083727 2.48905054738e-22)
(0.016399361423 -0.0861642880274 1.23863143579e-22)
(0.0128563342943 -0.0931896345817 7.37618887178e-22)
(0.0154391490412 -0.0903128925746 4.14521515262e-22)
(0.0100976311734 -0.0966702455848 1.01716922603e-21)
(0.014119712812 -0.0923922555564 9.64787328283e-22)
(0.00893998106116 -0.09938347629 6.70864288944e-22)
(0.0225851367805 -0.0617394399709 1.66403249385e-24)
(0.0258746152655 -0.0582443029377 1.976399552e-24)
(0.0219990667429 -0.0669041717143 1.39109215526e-24)
(0.0252332130888 -0.0634324655181 2.61330803051e-24)
(0.0213348118109 -0.0719276375721 3.74135791995e-24)
(0.0245042218672 -0.0684995258086 1.72304658653e-24)
(0.0205891743747 -0.0767909171795 5.26243657877e-24)
(0.0236832772874 -0.073425866671 4.99840237612e-24)
(0.0197608390788 -0.0814733905722 1.08348646116e-23)
(0.0227670700811 -0.0781925546286 3.61893278673e-24)
(0.0188477556539 -0.0859514201324 8.25885972015e-23)
(0.0217546065156 -0.08277705094 2.05237149403e-23)
(0.0178444240658 -0.0901970358319 2.89479604104e-22)
(0.0206404814992 -0.0871559473571 1.22812516163e-22)
(0.0165700892599 -0.0941781439105 6.41689956367e-22)
(0.0194152198032 -0.0913737489041 4.1819025487e-22)
(0.0128779139068 -0.0977307116434 6.18482391201e-22)
(0.0176686692541 -0.0934791369333 1.0285894368e-21)
(0.0110388571288 -0.100802046522 2.63428473863e-22)
(0.0277755562637 -0.062381598419 2.92567508867e-24)
(0.0312516320524 -0.0588625419882 1.89471724652e-24)
(0.0270659281244 -0.0676337313886 2.94526246177e-24)
(0.0304909609028 -0.0641417719184 4.44580066176e-24)
(0.0262591805384 -0.0727488708549 2.98009104269e-24)
(0.0296234857325 -0.0693059292594 6.51822413511e-24)
(0.0253503609099 -0.0777069170041 3.35489858409e-24)
(0.0286431865452 -0.0743342469517 5.11912165889e-24)
(0.0243359877554 -0.0824857670169 1.33077831154e-23)
(0.0275449829048 -0.079206472521 7.46968079071e-24)
(0.0232112902904 -0.0870605369688 6.0747633902e-23)
(0.026325653929 -0.0838992962935 2.47022230533e-23)
(0.0219675315233 -0.0914033701306 2.51523166929e-22)
(0.0249776281777 -0.0883886195555 9.94201307571e-23)
(0.0203641494124 -0.095480981929 8.05089735302e-22)
(0.0234868445637 -0.0927157489235 3.66158341349e-22)
(0.0157670918164 -0.099149912591 6.73535519462e-22)
(0.0213334703142 -0.094867142615 4.77045000011e-22)
(0.0132877739463 -0.102530515515 -7.08010252869e-22)
(0.0330583487204 -0.0631434848406 3.41484281961e-24)
(0.0367284928742 -0.0595803456104 1.65122984419e-25)
(0.0322307002579 -0.0685022695252 8.01876233509e-24)
(0.0358552765737 -0.0649691399138 5.67070258991e-24)
(0.0312859066655 -0.0737300241793 8.65725475131e-24)
(0.0348551080048 -0.0702504384376 7.13247328489e-24)
(0.0302171925476 -0.0788056291632 9.23390386551e-24)
(0.0337201719611 -0.0754026084072 7.76248542179e-24)
(0.0290190934191 -0.0837058716058 1.88641207285e-23)
(0.032443567644 -0.0804042551764 1.20975164726e-23)
(0.0276849598534 -0.0884050300448 6.33747199084e-23)
(0.0310202209163 -0.0852314423513 4.20036165248e-23)
(0.0262030121731 -0.0928753114365 2.14055305177e-22)
(0.0294413697415 -0.0898590656041 2.5545384761e-22)
(0.0242783441457 -0.09708363114 3.81136060578e-23)
(0.0276884932413 -0.0943279068918 4.49879830669e-22)
(0.0187804461081 -0.100894861656 -9.04500772321e-22)
(0.0251402093244 -0.0965355933858 -2.65298784919e-22)
(0.0156628934696 -0.104566697865 -5.12843077221e-22)
(0.0384505636064 -0.0640183434729 2.42098275472e-24)
(0.0423238470494 -0.0603898373795 4.24125290698e-24)
(0.0375122866198 -0.0695039424747 4.78441353971e-24)
(0.0413464368012 -0.065907123093 5.42489157742e-24)
(0.0364359531696 -0.0748662788502 6.23770395538e-24)
(0.0402212227908 -0.071326487899 2.3909636193e-24)
(0.0352128209445 -0.0800832524441 1.06260980288e-23)
(0.038938265186 -0.0766254109325 5.71280774546e-24)
(0.0338355566005 -0.0851305012231 3.52370122688e-23)
(0.0374887253384 -0.08178128612 8.53922310822e-24)
(0.0322961503224 -0.0899812368476 2.34082744227e-22)
(0.0358658308964 -0.0867692823811 1.2160589598e-23)
(0.0305800748334 -0.0946071153867 4.91278373102e-22)
(0.0340601648077 -0.0915628535748 2.55357018372e-22)
(0.0283396450088 -0.0989746788796 1.46467439692e-22)
(0.0320489611719 -0.0962025199176 5.14834272479e-22)
(0.0219311832981 -0.102947528151 1.26358910181e-22)
(0.0291083384368 -0.0984733375017 4.33593557309e-22)
(0.018163902869 -0.106917151538 4.69807842098e-23)
(0.0439711761606 -0.0649978906801 7.24516172968e-24)
(0.0480561648675 -0.061281050589 5.49856333322e-24)
(0.042931719471 -0.0706311450066 3.03144165702e-24)
(0.046985336929 -0.0669462692213 4.50696458443e-24)
(0.0417323747531 -0.0761510216301 1.86606740939e-24)
(0.0457449093993 -0.0725255423444 6.43906984856e-25)
(0.0403622025308 -0.08153424894 3.62593282485e-24)
(0.0443225499578 -0.0779952614302 2.78741821565e-24)
(0.0388119267213 -0.0867550378102 -1.45371995626e-23)
(0.0427072549574 -0.0833313842306 2.70594586526e-24)
(0.0370723238543 -0.0917850341865 3.34348637429e-23)
(0.0408904541392 -0.0885077071811 -6.21908528353e-24)
(0.0351265332928 -0.0965943147181 2.78912917749e-22)
(0.0388621047325 -0.0934959068353 1.09313563e-22)
(0.0325722383975 -0.101148475572 8.01960390097e-22)
(0.0365958132707 -0.0983354639911 4.88578876627e-22)
(0.025232713136 -0.105304719052 3.54215431339e-22)
(0.03325976375 -0.100676334236 8.35061101096e-22)
(0.020801853516 -0.109591016233 4.47808994664e-23)
(0.049639828728 -0.0660714274605 2.76036618797e-24)
(0.0539451809242 -0.0622415738751 2.11117817598e-24)
(0.0485109842166 -0.0718741146413 2.11942991227e-24)
(0.0527940010411 -0.0680747842613 2.87003430115e-24)
(0.0471993646023 -0.0775756744628 1.56525779111e-24)
(0.0514505363808 -0.0738368599355 -6.46013216362e-24)
(0.04569148136 -0.0831514398229 1.86743125606e-24)
(0.0498995462024 -0.0795028181063 -2.83560626882e-24)
(0.0439758482492 -0.0885738195069 1.10240601443e-23)
(0.048127464063 -0.0850468692048 -2.71291057004e-25)
(0.0420418172776 -0.0938123158126 6.96596139741e-23)
(0.0461236100811 -0.0904408917382 -6.45144680554e-25)
(0.0398704919984 -0.098834530372 3.18979521879e-22)
(0.0438769714008 -0.095654483341 1.46274851737e-22)
(0.0370020557169 -0.10360421921 5.21679587627e-22)
(0.0413582055203 -0.100725118344 4.82223864842e-22)
(0.0287042155634 -0.107969895899 5.25626569224e-22)
(0.0376206513896 -0.103144057164 6.12978734294e-22)
(0.0235943456671 -0.11259904831 1.391837756e-21)
(0.0554768531411 -0.0672260022541 2.22084628917e-24)
(0.0600104895124 -0.0632561824032 3.19914458946e-24)
(0.0542731323116 -0.0732207705711 -5.70952777473e-24)
(0.0587952566855 -0.0692781509822 3.98920711832e-25)
(0.0528625005663 -0.0791295447033 -1.08609962236e-23)
(0.0573638169139 -0.075247170018 -5.84336574376e-24)
(0.0512284398232 -0.0849259122545 -4.97432858189e-24)
(0.0556975368018 -0.0811365342667 6.38174165488e-25)
(0.0493568167119 -0.0905800442342 -1.19404958818e-23)
(0.0537797647487 -0.086918354532 3.57401407064e-24)
(0.0472351268866 -0.0960586947069 7.5970093082e-23)
(0.0515972169811 -0.0925620260489 -6.09978016562e-24)
(0.0448425394652 -0.101326207219 3.095191947e-22)
(0.0491373992755 -0.0980347386255 1.47258155511e-22)
(0.0416584274926 -0.106343607123 5.7352301151e-22)
(0.0463685416491 -0.1033710092 4.36760060313e-22)
(0.0323698825457 -0.11094916746 1.47918992107e-21)
(0.0422215928476 -0.105877620337 2.46296375019e-22)
(0.0265639602416 -0.115953213801 1.6733559931e-21)
(0.061503394974 -0.0684454347076 1.37721901213e-24)
(0.0662731136645 -0.0643063566086 4.09004101819e-24)
(0.0602424872872 -0.0746561743501 2.65082742806e-25)
(0.0650133366283 -0.070538673304 5.50087154281e-24)
(0.0587490878329 -0.0807994032309 5.65580464529e-24)
(0.0635122519887 -0.0767402196573 2.70520575037e-24)
(0.0570030207696 -0.0868466640162 9.18651681801e-24)
(0.0617470677722 -0.082882226059 8.59620300731e-24)
(0.0549868955741 -0.0927654449162 9.41472978686e-24)
(0.0596973048076 -0.0889343383158 8.2525842773e-24)
(0.0526857520477 -0.0985190957715 6.51882822635e-23)
(0.0573464066326 -0.0948628855713 1.76924800203e-23)
(0.050076791137 -0.104067962167 2.74499021124e-22)
(0.0546796995108 -0.100632287195 2.77794383715e-22)
(0.0465748391973 -0.109369490589 1.09533423822e-22)
(0.0516634783284 -0.106273054803 4.68054155582e-22)
(0.0362585166826 -0.114250147628 4.40462447052e-22)
(0.0470979348174 -0.108878886355 -8.58122534736e-22)
(0.0297379213044 -0.119666980228 7.44446190816e-22)
(0.0677414290764 -0.0697103898147 8.21369354887e-24)
(0.072753829578 -0.0653696782542 3.85303317377e-24)
(0.0664448248093 -0.0761621573378 7.94099455037e-24)
(0.0714734734577 -0.0718348550172 6.13956120944e-24)
(0.064888512449 -0.0825690155484 5.64560411239e-24)
(0.0699252392304 -0.0782961476907 2.77215690466e-24)
(0.0630478607676 -0.0889001294347 7.6622704666e-24)
(0.0680813435718 -0.0847224613995 3.40598717221e-24)
(0.0609014227204 -0.0951198033662 1.65303345107e-23)
(0.0659166203744 -0.091080619869 -2.56491786408e-24)
(0.0584310050494 -0.101187312792 2.30298581472e-22)
(0.0634103184247 -0.0973332828629 1.02467104069e-23)
(0.0556117161541 -0.107058152325 4.71349518174e-22)
(0.0605447787048 -0.103441702636 1.85445384833e-22)
(0.0517896168295 -0.112685372824 -4.99601802976e-22)
(0.0572847948765 -0.109431111157 2.80888399867e-22)
(0.0404038076534 -0.117881796109 -5.54138790972e-22)
(0.0522904156309 -0.112150061921 2.68677021243e-23)
(0.0331484068867 -0.123755828685 -8.86487615644e-23)
(0.0742143397962 -0.0709970896817 1.77890083433e-24)
(0.0794755323345 -0.0664191141989 2.37772499889e-24)
(0.0729082701198 -0.0777164290615 9.70723563727e-25)
(0.0782039949056 -0.073140469172 3.10223104932e-24)
(0.0713133193802 -0.084418385911 5.32539964474e-25)
(0.0766359463413 -0.0798906746023 -5.03485741368e-25)
(0.069399443854 -0.0910694550796 -6.82120115847e-24)
(0.0747382571078 -0.0866358673315 -1.41178627688e-24)
(0.0671401333691 -0.0976303292409 -8.84854196786e-24)
(0.0724792767138 -0.0933397453376 -8.59159985612e-24)
(0.0645130177305 -0.104055414669 -3.4606486232e-23)
(0.0698336079098 -0.0999606370636 8.40427443513e-24)
(0.0614909507029 -0.110294443222 -5.0157334735e-24)
(0.0667790195433 -0.106456204597 6.29757024595e-23)
(0.0573464991242 -0.116295145317 8.07357904967e-22)
(0.0632800133974 -0.112844757619 4.1046055869e-22)
(0.0448447515017 -0.121854472299 4.92357731532e-22)
(0.0578453869804 -0.115693456122 1.70135381106e-22)
(0.0368330787848 -0.128237545218 -1.21209384189e-22)
(0.0809475811755 -0.0722764310495 3.70105521388e-24)
(0.0864634800292 -0.067421595796 4.43471139156e-24)
(0.0796635058652 -0.0792919187684 1.62802174423e-24)
(0.0852344031394 -0.0744240414219 -1.21319303154e-24)
(0.0780593551603 -0.0863228425193 -2.44781198272e-24)
(0.0836802070649 -0.0814943486984 -8.73627740933e-25)
(0.076098286676 -0.0933341564931 -3.18218497454e-24)
(0.0817582572764 -0.0885963983406 -3.83754844498e-24)
(0.0737474575517 -0.100281179502 8.66121654687e-24)
(0.0794311520306 -0.0956903513494 -1.37513255331e-23)
(0.0709791827071 -0.107113777877 1.05986463127e-22)
(0.0766652744715 -0.102729418781 7.02932910899e-24)
(0.0677639529068 -0.113773649564 4.78451994623e-22)
(0.0734348875947 -0.109667152506 1.12441003839e-22)
(0.0632955695852 -0.120203241725 -2.26761965172e-22)
(0.0697029647514 -0.116512812058 3.68791102449e-22)
(0.0496268458508 -0.126179632156 -4.43431734615e-22)
(0.0638171704315 -0.119510959359 -5.9843285684e-23)
(0.0408367704291 -0.133132716031 3.87388483588e-22)
(0.0879649244905 -0.0735150171936 -4.79536853867e-25)
(0.0867411952121 -0.0808552442075 -3.71484251671e-24)
(0.0851641160675 -0.0882531482172 -2.26336420319e-24)
(0.0831882292685 -0.0956683834068 -1.44066890035e-23)
(0.0807727753308 -0.103053453703 -1.53832129709e-23)
(0.0778833656055 -0.1103494011 1.34838698213e-23)
(0.0744879637094 -0.117491614965 2.78011166514e-24)
(0.0696956272765 -0.124412968001 5.35709781937e-22)
(0.054803950363 -0.130870212263 7.70976932519e-22)
)
;

boundaryField
{
    back
    {
        type            calculated;
        value           uniform (0 0 0);
    }
    sides
    {
        type            calculated;
        value           uniform (0 0 0);
    }
    bottom
    {
        type            calculated;
        value           nonuniform List<vector> 0();
    }
    front
    {
        type            calculated;
        value           uniform (0 0 0);
    }
    atmosphere
    {
        type            calculated;
        value           nonuniform List<vector> 
16
(
(0 -0.0972123927903 0)
(0 -0.0968561241125 0)
(0 -0.0976213941676 0)
(0 -0.0985730073187 0)
(0 -0.0998304942562 0)
(0 -0.101399863205 0)
(0 -0.103271099989 0)
(0 -0.105449702552 0)
(0 -0.107943842728 0)
(0 -0.110763526123 0)
(0 -0.113919837438 0)
(0 -0.117425045446 0)
(0 -0.121293120727 0)
(0 -0.125540195979 0)
(0 -0.13018455696 0)
(0 -0.135247703085 0)
)
;
    }
    floatingObject
    {
        type            calculated;
        value           nonuniform List<vector> 0();
    }
    procBoundary1to0
    {
        type            processor;
        value           nonuniform List<vector> 10((0.0937350062818 -0.068337509111 5.54726066301e-24) (0.0925921679829 -0.075647229651 -4.10340019029e-25) (0.0910923296907 -0.0830708995268 7.79007985231e-25) (0.0891851003134 -0.0905716736388 4.0793355406e-24) (0.086821684865 -0.0981055338937 -1.28049344089e-23) (0.0839623652393 -0.105619611026 -1.65300812401e-23) (0.0805727322576 -0.113062792005 -3.33538384232e-23) (0.0766187611249 -0.120432467392 -8.64536305225e-23) (0.0702697350517 -0.12360400472 1.67819233444e-21) (0.0452132788567 -0.138465668172 -5.08478436301e-22));
    }
    procBoundary1to2
    {
        type            processor;
        value           nonuniform List<vector> 
18
(
(0.00311226787323 -0.0437822800689 6.11189218785e-23)
(0.00768620595054 -0.0447110470106 4.93014549812e-22)
(0.0130917134119 -0.044975357339 -6.03499488349e-24)
(0.0159887739065 -0.046884840769 -2.24975025115e-23)
(0.0182212638246 -0.05066621776 -8.83223900363e-24)
(0.0210317689065 -0.0525078161974 1.71406984955e-23)
(0.0230977097319 -0.0564530072525 2.9229139526e-24)
(0.0283941316787 -0.0570138857153 4.62790692995e-24)
(0.033776435187 -0.0576758204242 5.88211238458e-25)
(0.0392603565523 -0.0584325081275 -5.92597259694e-25)
(0.04486271355 -0.0592749670548 5.41732241266e-24)
(0.0506007005371 -0.0601926168922 9.48925253281e-25)
(0.056491839563 -0.0611715429276 1.5382386796e-24)
(0.0625539825597 -0.0621955796922 4.42330133615e-24)
(0.068805205848 -0.0632442066949 5.51843416294e-24)
(0.0752642667273 -0.0642934483868 1.19888369034e-24)
(0.081950596661 -0.0653142771025 5.54494292903e-25)
(0.0888814001838 -0.0662683477917 -1.0967378311e-25)
)
;
    }
}


// ************************************************************************* //
