/*--------------------------------*- C++ -*----------------------------------*\
| =========                 |                                                 |
| \\      /  F ield         | OpenFOAM: The Open Source CFD Toolbox           |
|  \\    /   O peration     | Version:  v2012                                 |
|   \\  /    A nd           | Website:  www.openfoam.com                      |
|    \\/     M anipulation  |                                                 |
\*---------------------------------------------------------------------------*/
FoamFile
{
    version     2.0;
    format      ascii;
    class       volVectorField;
    location    "0.2";
    object      ddtCorrDdt0(U);
}
// * * * * * * * * * * * * * * * * * * * * * * * * * * * * * * * * * * * * * //

dimensions      [0 1 -2 0 0 0 0];


internalField   nonuniform List<vector> 
167
(
(0.003082968542 -0.0454951249082 6.49522130372e-23)
(0.00301603030669 -0.0506020556694 8.15981355734e-22)
(0.00293984268813 -0.0556098623576 3.64882998696e-23)
(0.00285340213589 -0.0605033306088 4.93089326092e-23)
(0.00275527243032 -0.0652660690475 -9.70465742769e-24)
(0.00264263177791 -0.0698784545337 1.84884344045e-22)
(0.00250814845878 -0.0743160426548 1.77046251578e-23)
(0.00233177800511 -0.0785416367733 1.09655354885e-23)
(0.00206281643518 -0.0824636351693 1.99660691768e-22)
(0.0015809573136 -0.0858570028543 1.67717476627e-22)
(0.00138177196448 -0.0870826627478 -2.93366760631e-21)
(0.0110402102332 -0.0971852941942 1.98638397939e-22)
(0.00763042664479 -0.0464793538957 1.21931551691e-21)
(0.00749915132996 -0.0516915113542 -2.43980810987e-22)
(0.00734742216231 -0.0568016235659 -6.85301408711e-22)
(0.00717250188305 -0.0617944182526 -9.4228958798e-22)
(0.00697168974549 -0.066654587699 -5.29072633315e-22)
(0.00674110442196 -0.0713670447361 1.60546701658e-23)
(0.0064734231724 -0.0759213744738 1.4253606974e-22)
(0.00615247163369 -0.0803140733574 7.80185163377e-23)
(0.00573953148376 -0.0845819943575 2.08684088076e-23)
(0.00514618391864 -0.0891508917621 8.50233573179e-22)
(0.00429525192442 -0.0917293096866 -9.15577484727e-22)
(0.0025266207069 -0.0971272710779 -2.90333646811e-21)
(0.0129934366548 -0.0467530930388 2.12520260836e-24)
(0.0127637988695 -0.052002583173 -1.69782870627e-22)
(0.0124981616529 -0.05715110258 -9.63013760504e-24)
(0.0121939276031 -0.0621846389104 6.9625192435e-23)
(0.0118477674128 -0.0670873550761 -1.26816239988e-24)
(0.0114572054613 -0.0718435118602 9.34274190359e-23)
(0.0110208864261 -0.0764397577688 9.9919565893e-23)
(0.0105422633022 -0.080860537757 2.08155168948e-22)
(0.010031026223 -0.0850847784377 4.67828828319e-22)
(0.0095294627174 -0.0892319462196 6.89199049905e-22)
(0.00921439730109 -0.091319551792 4.35372456545e-22)
(0.00672411806767 -0.0978118394954 6.02996580656e-22)
(0.0180594250477 -0.0523097554287 2.94556226123e-23)
(0.0176844968082 -0.0575042786767 1.64880256759e-23)
(0.0172549848774 -0.062586551588 -1.22368935027e-24)
(0.0167665041283 -0.0675411055776 1.89383291429e-24)
(0.0162164214154 -0.072350640449 1.62822790334e-23)
(0.0156033869006 -0.0769989883682 2.23898324777e-23)
(0.0149298817435 -0.0814663049606 3.52985553018e-23)
(0.0141959659713 -0.08573025565 1.00702598822e-22)
(0.0133944122939 -0.089855619409 3.97107510653e-22)
(0.012318371992 -0.0919286190088 1.0781302637e-21)
(0.00787695121194 -0.0987541877811 9.56208188348e-22)
(0.0228594140586 -0.0579619358931 1.01994651544e-24)
(0.0223114726457 -0.0631092346144 2.30817197727e-24)
(0.0216872168942 -0.0681327030195 4.74065838265e-25)
(0.020982902 -0.0730134532188 7.0087035061e-24)
(0.0201958779087 -0.07773328711 3.51622315589e-24)
(0.0193261643643 -0.0822701511642 1.81535060672e-23)
(0.0183696415228 -0.0866009470276 1.47023709737e-22)
(0.0173194296417 -0.0907728431353 4.31935519871e-22)
(0.0158208988879 -0.0928586008016 8.51442680822e-22)
(0.00993500738269 -0.10001549763 3.85520389539e-22)
(0.0281071640473 -0.0585287190603 2.93285258857e-24)
(0.0274447057773 -0.0637578897202 2.9185617948e-24)
(0.0266878373615 -0.068868672793 2.97202733479e-24)
(0.0258311356139 -0.0738407210002 2.98821895615e-24)
(0.0248701189736 -0.0786543646817 3.72164241757e-24)
(0.0238023065274 -0.083286579188 2.28939238133e-23)
(0.022620638155 -0.0877136458648 9.86013814426e-23)
(0.0213147005721 -0.0919774051184 4.04444989868e-22)
(0.0194137836237 -0.0941024557842 1.20573208382e-21)
(0.0121204968492 -0.101591403221 1.41336558188e-22)
(0.0334442608954 -0.0591984794215 8.56646110743e-25)
(0.0326733429739 -0.0645279178221 5.97316794082e-24)
(0.0317888798494 -0.0697455849126 1.00644637393e-23)
(0.0307836661439 -0.0748302929115 7.25014207194e-24)
(0.0296513569729 -0.0797612056737 1.12177298648e-23)
(0.0283873688376 -0.0845147277599 2.65105757979e-23)
(0.0269829870233 -0.0890663798518 1.00238949626e-22)
(0.0254233675794 -0.0934569335156 3.27873404974e-22)
(0.02313354277 -0.0956347037377 -2.51646192825e-22)
(0.0144274654236 -0.103472528155 -1.5573556394e-21)
(0.038886893916 -0.0599644044331 -5.26250327314e-25)
(0.0380152948452 -0.0654127098318 5.36842985721e-24)
(0.0370102416399 -0.0707577807947 4.20052563435e-24)
(0.0358625231175 -0.0759775385526 8.27497858514e-24)
(0.034563866452 -0.0810500290426 1.29773779871e-23)
(0.0331078784675 -0.0859509741212 5.74967535602e-23)
(0.0314849334591 -0.0906546438643 4.10668831201e-22)
(0.0296756033897 -0.0952018292909 5.71885913925e-22)
(0.0270039469725 -0.097439467046 -2.78956170957e-22)
(0.0168585555925 -0.105663878751 5.31670909483e-22)
(0.0444530103067 -0.0608175541971 9.00875614133e-24)
(0.043490565743 -0.0664039824832 5.48156731786e-24)
(0.0423739839023 -0.0718977886626 5.8131599631e-25)
(0.041091755684 -0.0772760087 3.15073321452e-24)
(0.0396335119377 -0.0825153835239 4.10112173418e-24)
(0.0379910704374 -0.0875905282557 -3.31755850653e-23)
(0.0361541673368 -0.0924740798969 1.00045259046e-22)
(0.0340993461511 -0.097206286448 4.57780576452e-22)
(0.0310454311704 -0.0995103206099 1.14614020374e-21)
(0.01942015206 -0.108173565442 -4.37709341064e-22)
(0.0501610598289 -0.0617469356663 1.98828491686e-24)
(0.0491199917406 -0.0674911151131 3.53253306712e-24)
(0.047903242446 -0.0731560103087 7.06412365457e-25)
(0.0464966153916 -0.0787173670681 2.42418882473e-24)
(0.0448873308709 -0.0841503588922 1.31075929534e-24)
(0.0430651970064 -0.0894279625872 2.07373609932e-23)
(0.0410191106856 -0.0945208935516 1.18581909758e-22)
(0.0387223832134 -0.0994678638636 5.19377176802e-22)
(0.0352820711514 -0.101845609006 5.23979259e-22)
(0.0221265390904 -0.111011758148 5.27271139996e-22)
(0.0560299804286 -0.0627387196853 2.2340714351e-24)
(0.0549252997885 -0.068661140923 2.20770675123e-24)
(0.0536223943919 -0.0745205609653 -1.36268051046e-23)
(0.0521038818897 -0.080291267143 -8.09525154843e-24)
(0.050354109348 -0.0859465056366 -1.85342701747e-24)
(0.0483604639702 -0.0914570556109 -2.20276931585e-23)
(0.0461105509916 -0.0967913961456 1.73967879322e-22)
(0.0435751046546 -0.101985762181 4.4506849829e-22)
(0.0397421382506 -0.1044459359 7.01973415539e-22)
(0.0249978294689 -0.114189800787 2.25640722149e-21)
(0.0620792958675 -0.0637762863178 4.16413213583e-24)
(0.0609292586104 -0.0698979929323 -1.40967270965e-24)
(0.0595573193469 -0.0759767848819 1.93994520518e-24)
(0.0579422871248 -0.0819849629468 9.3717496934e-24)
(0.0560650021858 -0.0878935012439 9.00132674655e-24)
(0.0539098443708 -0.0936704099131 9.828068621e-24)
(0.0514625147182 -0.0992815885955 1.20548517308e-22)
(0.0486917154959 -0.104759834438 4.28449567744e-22)
(0.0444583988 -0.107312927 -2.09384089838e-22)
(0.0280588622775 -0.117720282804 1.0903061894e-21)
(0.0683290551122 -0.0648392169967 4.01586429256e-24)
(0.0671557704013 -0.0711823467131 1.24117154228e-23)
(0.0657356678457 -0.0775068328208 3.47046629555e-24)
(0.0640429539627 -0.0837828337625 7.82089174321e-24)
(0.0620541608425 -0.0899786655676 7.50388461213e-24)
(0.05974986356 -0.0960589750691 2.55569556258e-23)
(0.0571131019589 -0.10198670034 4.35040389235e-22)
(0.054111054598 -0.1077900655 5.0765874342e-22)
(0.0494686663961 -0.110448683271 -1.50686440399e-21)
(0.0313392035209 -0.121617551302 3.98584767429e-22)
(0.0748001675112 -0.0659030944811 3.69011644723e-24)
(0.0736306961208 -0.0724905350909 -1.3229337662e-25)
(0.0721878309657 -0.0790888326666 2.07367629813e-24)
(0.0704405827191 -0.0856656372683 -1.00868197687e-24)
(0.0683598544136 -0.0921862786592 -1.26337417423e-23)
(0.0659217240571 -0.0986114280362 -5.06351340993e-24)
(0.0631053748596 -0.10490065065 -6.41495660642e-23)
(0.0598773329565 -0.111076184141 5.41160017209e-23)
(0.0548162080403 -0.113855518851 1.56060049311e-21)
(0.0348735785633 -0.125898223103 -5.75879440655e-22)
(0.0815156628347 -0.0669382704246 1.06516233522e-24)
(0.0803819158738 -0.073793772215 6.33699089641e-24)
(0.0789472956366 -0.0806960985663 -3.08094740809e-24)
(0.0771733811846 -0.0876098711265 -1.81465515515e-24)
(0.0750249099238 -0.0944971541972 -4.54960778418e-24)
(0.072471460249 -0.101313931745 2.18718910634e-23)
(0.0694880854015 -0.108015961309 1.90101013787e-22)
(0.066040715724 -0.114617622177 7.66800321611e-22)
(0.0605510261972 -0.117535739732 -1.22033041578e-21)
(0.0387029805096 -0.130581255483 3.33462097147e-22)
(0.0884957230806 -0.0679082565902 7.8039608217e-24)
(0.0874367922206 -0.0750578961681 -8.76312013678e-24)
(0.0860480275999 -0.0822964141382 1.33339229938e-24)
(0.0842823780573 -0.0895869480307 -5.8603347249e-24)
(0.0820959804921 -0.09688775337 -2.29532144981e-23)
(0.0794511806998 -0.104149266302 -7.81346826843e-24)
(0.0763168575911 -0.111322831395 3.47810580965e-23)
(0.0726600618145 -0.118412585683 -2.92235956208e-23)
(0.0667318607931 -0.121490822974 1.10063768054e-21)
(0.0428763891353 -0.135688865883 4.41316295241e-22)
)
;

boundaryField
{
    back
    {
        type            calculated;
        value           uniform (0 0 0);
    }
    sides
    {
        type            calculated;
        value           uniform (0 0 0);
    }
    bottom
    {
        type            calculated;
        value           nonuniform List<vector> 0();
    }
    front
    {
        type            calculated;
        value           uniform (0 0 0);
    }
    atmosphere
    {
        type            calculated;
        value           nonuniform List<vector> 
16
(
(0 -0.0971852941942 0)
(0 -0.0971272710779 0)
(0 -0.0978118394954 0)
(0 -0.0987541877811 0)
(0 -0.10001549763 0)
(0 -0.101591403221 0)
(0 -0.103472528155 0)
(0 -0.105663878751 0)
(0 -0.108173565442 0)
(0 -0.111011758148 0)
(0 -0.114189800787 0)
(0 -0.117720282804 0)
(0 -0.121617551302 0)
(0 -0.125898223103 0)
(0 -0.130581255483 0)
(0 -0.135688865883 0)
)
;
    }
    floatingObject
    {
        type            calculated;
        value           nonuniform List<vector> 0();
    }
    procBoundary1to0
    {
        type            processor;
        value           nonuniform List<vector> 10((0.0957607557755 -0.0687703140501 3.2903464857e-24) (0.0948257358953 -0.0762403855968 7.94282533209e-24) (0.0935294304949 -0.083849456097 2.24452455832e-25) (0.0918148591838 -0.0915606952328 1.40191342176e-23) (0.0896276468071 -0.0993278087683 -2.65695394767e-24) (0.0869212035379 -0.107094619682 -2.5246993841e-23) (0.0836565891743 -0.114807555402 -1.01488841952e-22) (0.0798034155254 -0.122457256894 -1.43686404877e-22) (0.0734269897763 -0.125722160292 2.25574698835e-21) (0.047452115356 -0.141247493637 -1.45826604193e-21));
    }
    procBoundary1to2
    {
        type            processor;
        value           nonuniform List<vector> 
18
(
(0.00314165410823 -0.0403025277679 5.72854085535e-23)
(0.00774223222755 -0.0411784739144 -2.33286374483e-22)
(0.0131904064098 -0.0414166109149 -1.41947643287e-23)
(0.0183836543125 -0.0470182346689 -4.71200364131e-23)
(0.0183836543125 -0.0470182346689 -4.71200364131e-23)
(0.0233366716226 -0.0527077206913 4.82596699856e-24)
(0.0233366716226 -0.0527077206913 4.82596699856e-24)
(0.0286819220352 -0.0531973393406 6.32302547787e-24)
(0.0341095940359 -0.0537737282569 3.1996898542e-25)
(0.0396349719748 -0.0544296060819 -6.58772975197e-25)
(0.0452737453365 -0.0551559088002 1.82582447784e-24)
(0.0510418542751 -0.0559413194206 -9.03488019544e-26)
(0.0569554062283 -0.056771931082 8.42491532313e-25)
(0.0630305826832 -0.0576307823565 4.68249193858e-24)
(0.0692834888172 -0.0584973462654 7.02111104322e-24)
(0.075730731522 -0.0593468655213 -1.29232766458e-24)
(0.0823881457602 -0.0601496589615 4.38690543888e-26)
(0.0892699606032 -0.060869207616 -8.02335119169e-24)
)
;
    }
}


// ************************************************************************* //
