/*--------------------------------*- C++ -*----------------------------------*\
| =========                 |                                                 |
| \\      /  F ield         | OpenFOAM: The Open Source CFD Toolbox           |
|  \\    /   O peration     | Version:  v2012                                 |
|   \\  /    A nd           | Website:  www.openfoam.com                      |
|    \\/     M anipulation  |                                                 |
\*---------------------------------------------------------------------------*/
FoamFile
{
    version     2.0;
    format      ascii;
    class       volScalarField;
    location    "0.2";
    object      rAU;
}
// * * * * * * * * * * * * * * * * * * * * * * * * * * * * * * * * * * * * * //

dimensions      [-1 3 1 0 0 0 0];


internalField   nonuniform List<scalar> 
167
(
6.29625023184e-06
6.29618764116e-06
6.29610387701e-06
6.29599599429e-06
6.29585810823e-06
6.29568134077e-06
6.29539231066e-06
6.29478050065e-06
6.29438091515e-06
6.2948951291e-06
6.28472369881e-06
6.70785033469e-06
6.23149911273e-06
6.23143973532e-06
6.23136113852e-06
6.23126224554e-06
6.23114332093e-06
6.23101129583e-06
6.23086369361e-06
6.23092443904e-06
6.23137207869e-06
6.22252706608e-06
6.21960909586e-06
6.65471924933e-06
6.22416364041e-06
6.22409388797e-06
6.22401420322e-06
6.22392306602e-06
6.22381973952e-06
6.22370472406e-06
6.22354385277e-06
6.22337538781e-06
6.22337680885e-06
6.21954271876e-06
6.22270635254e-06
6.66063819536e-06
6.22394862725e-06
6.22386646338e-06
6.22377375949e-06
6.22367002579e-06
6.22355542428e-06
6.22340164333e-06
6.22324720161e-06
6.2233803049e-06
6.2219672325e-06
6.223447424e-06
6.66640498051e-06
6.2238295018e-06
6.22374343009e-06
6.22364859784e-06
6.22354601431e-06
6.22341440484e-06
6.22328881068e-06
6.2234626244e-06
6.22306686336e-06
6.22439480457e-06
6.67620647345e-06
6.22380439748e-06
6.22372564846e-06
6.22364098868e-06
6.22355252765e-06
6.22344546725e-06
6.22335225921e-06
6.22356347511e-06
6.2237733469e-06
6.22512741691e-06
6.688806509e-06
6.22378367766e-06
6.22371214766e-06
6.2236374434e-06
6.22356254086e-06
6.22347723353e-06
6.22341020635e-06
6.22364524585e-06
6.22424952047e-06
6.22570448154e-06
6.7041183142e-06
6.22375941091e-06
6.22369530829e-06
6.22363045423e-06
6.22356831378e-06
6.2235015093e-06
6.22345442115e-06
6.2237055233e-06
6.22460193516e-06
6.22621215885e-06
6.72231029572e-06
6.22373200805e-06
6.22367526995e-06
6.22361977699e-06
6.2235691747e-06
6.2235176342e-06
6.22348570265e-06
6.22374784953e-06
6.22488093466e-06
6.22668865792e-06
6.74355201033e-06
6.22370176649e-06
6.22365211498e-06
6.22360529416e-06
6.22356490461e-06
6.22352584832e-06
6.22350584175e-06
6.22377625742e-06
6.22511375955e-06
6.22715779594e-06
6.76805138116e-06
6.22366883306e-06
6.22362588603e-06
6.22358697615e-06
6.22355553326e-06
6.22352670002e-06
6.22351631832e-06
6.22379356282e-06
6.22531691753e-06
6.22763584079e-06
6.79605518237e-06
6.22363339726e-06
6.22359667053e-06
6.22356488998e-06
6.22354123768e-06
6.22352080766e-06
6.22351831651e-06
6.22380152914e-06
6.22550110281e-06
6.22813479001e-06
6.82785467158e-06
6.2235956129e-06
6.22356458042e-06
6.2235391519e-06
6.22352224479e-06
6.22350873202e-06
6.22351277643e-06
6.22380126562e-06
6.22567351485e-06
6.22866405239e-06
6.86379340276e-06
6.22355570948e-06
6.22352975247e-06
6.22350989854e-06
6.22349877208e-06
6.22349093356e-06
6.22350041199e-06
6.2237933967e-06
6.22583912212e-06
6.22923153707e-06
6.90427722045e-06
6.22351379821e-06
6.22349233749e-06
6.22347725692e-06
6.22347103818e-06
6.22346774756e-06
6.22348175662e-06
6.22377816122e-06
6.22600135885e-06
6.22984432792e-06
6.94978680787e-06
6.22347031913e-06
6.22345250751e-06
6.22344143311e-06
6.22343915929e-06
6.22343945871e-06
6.22345709151e-06
6.22375544713e-06
6.22616257704e-06
6.23050918541e-06
7.00089370846e-06
)
;

boundaryField
{
    back
    {
        type            calculated;
        value           nonuniform List<scalar> 
167
(
6.29625023184e-06
6.29618764116e-06
6.29610387701e-06
6.29599599429e-06
6.29585810823e-06
6.29568134077e-06
6.29539231066e-06
6.29478050065e-06
6.29438091515e-06
6.2948951291e-06
6.28472369881e-06
6.70785033469e-06
6.23149911273e-06
6.23143973532e-06
6.23136113852e-06
6.23126224554e-06
6.23114332093e-06
6.23101129583e-06
6.23086369361e-06
6.23092443904e-06
6.23137207869e-06
6.22252706608e-06
6.21960909586e-06
6.65471924933e-06
6.22416364041e-06
6.22409388797e-06
6.22401420322e-06
6.22392306602e-06
6.22381973952e-06
6.22370472406e-06
6.22354385277e-06
6.22337538781e-06
6.22337680885e-06
6.21954271876e-06
6.22270635254e-06
6.66063819536e-06
6.22394862725e-06
6.22386646338e-06
6.22377375949e-06
6.22367002579e-06
6.22355542428e-06
6.22340164333e-06
6.22324720161e-06
6.2233803049e-06
6.2219672325e-06
6.223447424e-06
6.66640498051e-06
6.2238295018e-06
6.22374343009e-06
6.22364859784e-06
6.22354601431e-06
6.22341440484e-06
6.22328881068e-06
6.2234626244e-06
6.22306686336e-06
6.22439480457e-06
6.67620647345e-06
6.22380439748e-06
6.22372564846e-06
6.22364098868e-06
6.22355252765e-06
6.22344546725e-06
6.22335225921e-06
6.22356347511e-06
6.2237733469e-06
6.22512741691e-06
6.688806509e-06
6.22378367766e-06
6.22371214766e-06
6.2236374434e-06
6.22356254086e-06
6.22347723353e-06
6.22341020635e-06
6.22364524585e-06
6.22424952047e-06
6.22570448154e-06
6.7041183142e-06
6.22375941091e-06
6.22369530829e-06
6.22363045423e-06
6.22356831378e-06
6.2235015093e-06
6.22345442115e-06
6.2237055233e-06
6.22460193516e-06
6.22621215885e-06
6.72231029572e-06
6.22373200805e-06
6.22367526995e-06
6.22361977699e-06
6.2235691747e-06
6.2235176342e-06
6.22348570265e-06
6.22374784953e-06
6.22488093466e-06
6.22668865792e-06
6.74355201033e-06
6.22370176649e-06
6.22365211498e-06
6.22360529416e-06
6.22356490461e-06
6.22352584832e-06
6.22350584175e-06
6.22377625742e-06
6.22511375955e-06
6.22715779594e-06
6.76805138116e-06
6.22366883306e-06
6.22362588603e-06
6.22358697615e-06
6.22355553326e-06
6.22352670002e-06
6.22351631832e-06
6.22379356282e-06
6.22531691753e-06
6.22763584079e-06
6.79605518237e-06
6.22363339726e-06
6.22359667053e-06
6.22356488998e-06
6.22354123768e-06
6.22352080766e-06
6.22351831651e-06
6.22380152914e-06
6.22550110281e-06
6.22813479001e-06
6.82785467158e-06
6.2235956129e-06
6.22356458042e-06
6.2235391519e-06
6.22352224479e-06
6.22350873202e-06
6.22351277643e-06
6.22380126562e-06
6.22567351485e-06
6.22866405239e-06
6.86379340276e-06
6.22355570948e-06
6.22352975247e-06
6.22350989854e-06
6.22349877208e-06
6.22349093356e-06
6.22350041199e-06
6.2237933967e-06
6.22583912212e-06
6.22923153707e-06
6.90427722045e-06
6.22351379821e-06
6.22349233749e-06
6.22347725692e-06
6.22347103818e-06
6.22346774756e-06
6.22348175662e-06
6.22377816122e-06
6.22600135885e-06
6.22984432792e-06
6.94978680787e-06
6.22347031913e-06
6.22345250751e-06
6.22344143311e-06
6.22343915929e-06
6.22343945871e-06
6.22345709151e-06
6.22375544713e-06
6.22616257704e-06
6.23050918541e-06
7.00089370846e-06
)
;
    }
    sides
    {
        type            calculated;
        value           nonuniform List<scalar> 
12
(
6.29625023184e-06
6.29618764116e-06
6.29610387701e-06
6.29599599429e-06
6.29585810823e-06
6.29568134077e-06
6.29539231066e-06
6.29478050065e-06
6.29438091515e-06
6.2948951291e-06
6.28472369881e-06
6.70785033469e-06
)
;
    }
    bottom
    {
        type            calculated;
        value           nonuniform List<scalar> 0();
    }
    front
    {
        type            calculated;
        value           nonuniform List<scalar> 
167
(
6.29625023184e-06
6.29618764116e-06
6.29610387701e-06
6.29599599429e-06
6.29585810823e-06
6.29568134077e-06
6.29539231066e-06
6.29478050065e-06
6.29438091515e-06
6.2948951291e-06
6.28472369881e-06
6.70785033469e-06
6.23149911273e-06
6.23143973532e-06
6.23136113852e-06
6.23126224554e-06
6.23114332093e-06
6.23101129583e-06
6.23086369361e-06
6.23092443904e-06
6.23137207869e-06
6.22252706608e-06
6.21960909586e-06
6.65471924933e-06
6.22416364041e-06
6.22409388797e-06
6.22401420322e-06
6.22392306602e-06
6.22381973952e-06
6.22370472406e-06
6.22354385277e-06
6.22337538781e-06
6.22337680885e-06
6.21954271876e-06
6.22270635254e-06
6.66063819536e-06
6.22394862725e-06
6.22386646338e-06
6.22377375949e-06
6.22367002579e-06
6.22355542428e-06
6.22340164333e-06
6.22324720161e-06
6.2233803049e-06
6.2219672325e-06
6.223447424e-06
6.66640498051e-06
6.2238295018e-06
6.22374343009e-06
6.22364859784e-06
6.22354601431e-06
6.22341440484e-06
6.22328881068e-06
6.2234626244e-06
6.22306686336e-06
6.22439480457e-06
6.67620647345e-06
6.22380439748e-06
6.22372564846e-06
6.22364098868e-06
6.22355252765e-06
6.22344546725e-06
6.22335225921e-06
6.22356347511e-06
6.2237733469e-06
6.22512741691e-06
6.688806509e-06
6.22378367766e-06
6.22371214766e-06
6.2236374434e-06
6.22356254086e-06
6.22347723353e-06
6.22341020635e-06
6.22364524585e-06
6.22424952047e-06
6.22570448154e-06
6.7041183142e-06
6.22375941091e-06
6.22369530829e-06
6.22363045423e-06
6.22356831378e-06
6.2235015093e-06
6.22345442115e-06
6.2237055233e-06
6.22460193516e-06
6.22621215885e-06
6.72231029572e-06
6.22373200805e-06
6.22367526995e-06
6.22361977699e-06
6.2235691747e-06
6.2235176342e-06
6.22348570265e-06
6.22374784953e-06
6.22488093466e-06
6.22668865792e-06
6.74355201033e-06
6.22370176649e-06
6.22365211498e-06
6.22360529416e-06
6.22356490461e-06
6.22352584832e-06
6.22350584175e-06
6.22377625742e-06
6.22511375955e-06
6.22715779594e-06
6.76805138116e-06
6.22366883306e-06
6.22362588603e-06
6.22358697615e-06
6.22355553326e-06
6.22352670002e-06
6.22351631832e-06
6.22379356282e-06
6.22531691753e-06
6.22763584079e-06
6.79605518237e-06
6.22363339726e-06
6.22359667053e-06
6.22356488998e-06
6.22354123768e-06
6.22352080766e-06
6.22351831651e-06
6.22380152914e-06
6.22550110281e-06
6.22813479001e-06
6.82785467158e-06
6.2235956129e-06
6.22356458042e-06
6.2235391519e-06
6.22352224479e-06
6.22350873202e-06
6.22351277643e-06
6.22380126562e-06
6.22567351485e-06
6.22866405239e-06
6.86379340276e-06
6.22355570948e-06
6.22352975247e-06
6.22350989854e-06
6.22349877208e-06
6.22349093356e-06
6.22350041199e-06
6.2237933967e-06
6.22583912212e-06
6.22923153707e-06
6.90427722045e-06
6.22351379821e-06
6.22349233749e-06
6.22347725692e-06
6.22347103818e-06
6.22346774756e-06
6.22348175662e-06
6.22377816122e-06
6.22600135885e-06
6.22984432792e-06
6.94978680787e-06
6.22347031913e-06
6.22345250751e-06
6.22344143311e-06
6.22343915929e-06
6.22343945871e-06
6.22345709151e-06
6.22375544713e-06
6.22616257704e-06
6.23050918541e-06
7.00089370846e-06
)
;
    }
    atmosphere
    {
        type            calculated;
        value           nonuniform List<scalar> 
16
(
6.70785033469e-06
6.65471924933e-06
6.66063819536e-06
6.66640498051e-06
6.67620647345e-06
6.688806509e-06
6.7041183142e-06
6.72231029572e-06
6.74355201033e-06
6.76805138116e-06
6.79605518237e-06
6.82785467158e-06
6.86379340276e-06
6.90427722045e-06
6.94978680787e-06
7.00089370846e-06
)
;
    }
    floatingObject
    {
        type            calculated;
        value           nonuniform List<scalar> 0();
    }
    procBoundary1to0
    {
        type            processor;
        value           nonuniform List<scalar> 10(6.22342529671e-06 6.22341048168e-06 6.22340246352e-06 6.22340331667e-06 6.22340615279e-06 6.22342669004e-06 6.22372477101e-06 6.22632425591e-06 6.23123283912e-06 7.05828114952e-06);
    }
    procBoundary1to2
    {
        type            processor;
        value           nonuniform List<scalar> 
18
(
6.29629385502e-06
6.23154101414e-06
6.22422460374e-06
6.22402119566e-06
6.22402119566e-06
6.22390698909e-06
6.22390698909e-06
6.22387680954e-06
6.22385084073e-06
6.22382095363e-06
6.22378781563e-06
6.22375184559e-06
6.22371335072e-06
6.2236725726e-06
6.22362980712e-06
6.22358529264e-06
6.22353940995e-06
6.2234923341e-06
)
;
    }
}


// ************************************************************************* //
