/*--------------------------------*- C++ -*----------------------------------*\
| =========                 |                                                 |
| \\      /  F ield         | OpenFOAM: The Open Source CFD Toolbox           |
|  \\    /   O peration     | Version:  v2012                                 |
|   \\  /    A nd           | Website:  www.openfoam.com                      |
|    \\/     M anipulation  |                                                 |
\*---------------------------------------------------------------------------*/
FoamFile
{
    version     2.0;
    format      ascii;
    class       volScalarField;
    location    "0.4";
    object      ddt0(k);
}
// * * * * * * * * * * * * * * * * * * * * * * * * * * * * * * * * * * * * * //

dimensions      [0 2 -3 0 0 0 0];


internalField   nonuniform List<scalar> 
167
(
-0.0761814819582
-0.0761131960793
-0.0760910403118
-0.0760724536595
-0.0760520342404
-0.0760294165812
-0.0760048515924
-0.0759784793429
-0.0773000367672
-0.0765483521363
-0.0762272086795
-0.0761586123478
-0.0761362399977
-0.0761174832265
-0.0760969408076
-0.0760742857544
-0.0760497365748
-0.0760235542685
-0.0759960565614
-0.0773462532608
-0.0765943016608
-0.0762725916801
-0.076203577391
-0.0761808188397
-0.0761616918339
-0.0761408113862
-0.0761178813564
-0.0760931031483
-0.0760668732581
-0.0760394182847
-0.0773923675006
-0.0766399461495
-0.076317578461
-0.0762479960082
-0.076224676392
-0.0762049826867
-0.076183555467
-0.0761601177143
-0.0761349331839
-0.0761083248585
-0.072797953084
-0.0774382336057
-0.0766852066016
-0.0763620491413
-0.0762917389306
-0.076267673937
-0.0762472163294
-0.0762250344291
-0.0762008838223
-0.0761750334556
-0.0761479599819
-0.0728441109058
-0.0774837346239
-0.0767299810702
-0.0764058945376
-0.0763346813037
-0.0763096761112
-0.0762882484091
-0.0762651016429
-0.0762399849579
-0.0762133917833
-0.0761855248578
-0.0728901469319
-0.0775287822788
-0.0767741815975
-0.0764490093177
-0.0763766978323
-0.0763505394391
-0.0763279256181
-0.07630357514
-0.0762774142842
-0.0762497293983
-0.0729359318466
-0.0775732965735
-0.076817724376
-0.076491283279
-0.0764176488843
-0.0763901024319
-0.0763660687428
-0.0763403565101
-0.0763128853799
-0.0729813511418
-0.0776172067158
-0.0768605203469
-0.0765325868761
-0.0764573665466
-0.076428170927
-0.0764024864189
-0.0763752084044
-0.0763462446442
-0.0730263089613
-0.0776604490597
-0.0769024675528
-0.0765727596111
-0.0764956413149
-0.076464506173
-0.0764369300077
-0.0764078574695
-0.0763772871812
-0.0763456100744
-0.073070739017
-0.0777030280351
-0.0769435183424
-0.0766116747612
-0.0765322873999
-0.0764988936173
-0.076469174911
-0.076438136963
-0.0764058090736
-0.076372626305
-0.0731148191521
-0.0777457157132
-0.0769845087863
-0.0766500929883
-0.0765680042096
-0.0765320123383
-0.0764999106926
-0.0764667528424
-0.0764325668145
-0.0763977812857
-0.0731611119316
-0.0777957780651
-0.0770339409505
-0.0766966731361
-0.076611421751
-0.0765724788258
-0.0765377626076
-0.0765023366309
-0.0764661834088
-0.0764297508339
-0.0732306539619
-0.0779015502076
-0.0771485452407
-0.0768099268858
-0.0767212638767
-0.0766789903849
-0.0766413533971
-0.0766033772205
-0.0765650310051
-0.0765265804413
-0.073438892954
-0.0782673306011
-0.0775680094717
-0.0772385925137
-0.0771478435947
-0.0771020964159
-0.0770612279907
-0.0770203458971
-0.0769792541269
-0.0739871869871
-0.0789917052683
-0.078452592888
-0.0781690969473
-0.0780838578463
-0.0780366169064
-0.077993788869
-0.0779511436369
-0.0779084252747
-0.071828630725
-0.0740475780134
-0.0736166580091
-0.0734540578854
-0.0733947110493
-0.0733508018119
-0.0733085894398
-0.0732667506601
-0.0732252510851
)
;

boundaryField
{
    back
    {
        type            calculated;
        value           nonuniform List<scalar> 
167
(
-0.0761814819582
-0.0761131960793
-0.0760910403118
-0.0760724536595
-0.0760520342404
-0.0760294165812
-0.0760048515925
-0.0759784793429
-0.0773000367672
-0.0765483521363
-0.0762272086795
-0.0761586123478
-0.0761362399977
-0.0761174832265
-0.0760969408076
-0.0760742857544
-0.0760497365748
-0.0760235542685
-0.0759960565614
-0.0773462532608
-0.0765943016608
-0.0762725916801
-0.076203577391
-0.0761808188397
-0.0761616918339
-0.0761408113863
-0.0761178813564
-0.0760931031483
-0.0760668732581
-0.0760394182847
-0.0773923675006
-0.0766399461495
-0.076317578461
-0.0762479960082
-0.076224676392
-0.0762049826867
-0.076183555467
-0.0761601177143
-0.0761349331839
-0.0761083248585
-0.072797953084
-0.0774382336057
-0.0766852066016
-0.0763620491413
-0.0762917389306
-0.076267673937
-0.0762472163294
-0.0762250344291
-0.0762008838223
-0.0761750334556
-0.0761479599819
-0.0728441109058
-0.0774837346239
-0.0767299810702
-0.0764058945376
-0.0763346813037
-0.0763096761112
-0.0762882484091
-0.0762651016429
-0.0762399849579
-0.0762133917833
-0.0761855248578
-0.0728901469319
-0.0775287822788
-0.0767741815975
-0.0764490093177
-0.0763766978323
-0.0763505394391
-0.0763279256181
-0.07630357514
-0.0762774142842
-0.0762497293983
-0.0729359318466
-0.0775732965735
-0.076817724376
-0.076491283279
-0.0764176488843
-0.0763901024319
-0.0763660687428
-0.0763403565101
-0.0763128853799
-0.0729813511418
-0.0776172067158
-0.0768605203469
-0.0765325868761
-0.0764573665466
-0.076428170927
-0.0764024864189
-0.0763752084044
-0.0763462446442
-0.0730263089613
-0.0776604490597
-0.0769024675528
-0.0765727596111
-0.0764956413149
-0.076464506173
-0.0764369300077
-0.0764078574695
-0.0763772871812
-0.0763456100744
-0.073070739017
-0.0777030280351
-0.0769435183424
-0.0766116747612
-0.0765322873999
-0.0764988936173
-0.076469174911
-0.076438136963
-0.0764058090736
-0.076372626305
-0.0731148191521
-0.0777457157132
-0.0769845087863
-0.0766500929883
-0.0765680042096
-0.0765320123383
-0.0764999106926
-0.0764667528424
-0.0764325668145
-0.0763977812857
-0.0731611119316
-0.0777957780651
-0.0770339409505
-0.0766966731361
-0.076611421751
-0.0765724788258
-0.0765377626076
-0.0765023366309
-0.0764661834088
-0.0764297508339
-0.0732306539619
-0.0779015502076
-0.0771485452407
-0.0768099268858
-0.0767212638767
-0.0766789903849
-0.0766413533971
-0.0766033772205
-0.0765650310051
-0.0765265804413
-0.073438892954
-0.0782673306011
-0.0775680094717
-0.0772385925137
-0.0771478435947
-0.0771020964159
-0.0770612279907
-0.0770203458971
-0.0769792541269
-0.0739871869871
-0.0789917052683
-0.078452592888
-0.0781690969473
-0.0780838578463
-0.0780366169064
-0.077993788869
-0.0779511436369
-0.0779084252747
-0.071828630725
-0.0740475780134
-0.0736166580091
-0.0734540578854
-0.0733947110493
-0.0733508018119
-0.0733085894398
-0.0732667506601
-0.0732252510851
)
;
    }
    sides
    {
        type            calculated;
        value           nonuniform List<scalar> 9(-0.071828630725 -0.0740475780134 -0.0736166580091 -0.0734540578854 -0.0733947110493 -0.0733508018119 -0.0733085894398 -0.0732667506601 -0.0732252510851);
    }
    bottom
    {
        type            calculated;
        value           nonuniform List<scalar> 
13
(
-0.072797953084
-0.0728441109058
-0.0728901469319
-0.0729359318466
-0.0729813511418
-0.0730263089613
-0.073070739017
-0.0731148191521
-0.0731611119316
-0.0732306539619
-0.073438892954
-0.0739871869871
-0.071828630725
)
;
    }
    front
    {
        type            calculated;
        value           nonuniform List<scalar> 
167
(
-0.0761814819582
-0.0761131960793
-0.0760910403118
-0.0760724536595
-0.0760520342404
-0.0760294165812
-0.0760048515925
-0.0759784793429
-0.0773000367672
-0.0765483521363
-0.0762272086795
-0.0761586123478
-0.0761362399977
-0.0761174832265
-0.0760969408076
-0.0760742857544
-0.0760497365748
-0.0760235542685
-0.0759960565614
-0.0773462532608
-0.0765943016608
-0.0762725916801
-0.076203577391
-0.0761808188397
-0.0761616918339
-0.0761408113863
-0.0761178813564
-0.0760931031483
-0.0760668732581
-0.0760394182847
-0.0773923675006
-0.0766399461495
-0.076317578461
-0.0762479960082
-0.076224676392
-0.0762049826867
-0.076183555467
-0.0761601177143
-0.0761349331839
-0.0761083248585
-0.072797953084
-0.0774382336057
-0.0766852066016
-0.0763620491413
-0.0762917389306
-0.076267673937
-0.0762472163294
-0.0762250344291
-0.0762008838223
-0.0761750334556
-0.0761479599819
-0.0728441109058
-0.0774837346239
-0.0767299810702
-0.0764058945376
-0.0763346813037
-0.0763096761112
-0.0762882484091
-0.0762651016429
-0.0762399849579
-0.0762133917833
-0.0761855248578
-0.0728901469319
-0.0775287822788
-0.0767741815975
-0.0764490093177
-0.0763766978323
-0.0763505394391
-0.0763279256181
-0.07630357514
-0.0762774142842
-0.0762497293983
-0.0729359318466
-0.0775732965735
-0.076817724376
-0.076491283279
-0.0764176488843
-0.0763901024319
-0.0763660687428
-0.0763403565101
-0.0763128853799
-0.0729813511418
-0.0776172067158
-0.0768605203469
-0.0765325868761
-0.0764573665466
-0.076428170927
-0.0764024864189
-0.0763752084044
-0.0763462446442
-0.0730263089613
-0.0776604490597
-0.0769024675528
-0.0765727596111
-0.0764956413149
-0.076464506173
-0.0764369300077
-0.0764078574695
-0.0763772871812
-0.0763456100744
-0.073070739017
-0.0777030280351
-0.0769435183424
-0.0766116747612
-0.0765322873999
-0.0764988936173
-0.076469174911
-0.076438136963
-0.0764058090736
-0.076372626305
-0.0731148191521
-0.0777457157132
-0.0769845087863
-0.0766500929883
-0.0765680042096
-0.0765320123383
-0.0764999106926
-0.0764667528424
-0.0764325668145
-0.0763977812857
-0.0731611119316
-0.0777957780651
-0.0770339409505
-0.0766966731361
-0.076611421751
-0.0765724788258
-0.0765377626076
-0.0765023366309
-0.0764661834088
-0.0764297508339
-0.0732306539619
-0.0779015502076
-0.0771485452407
-0.0768099268858
-0.0767212638767
-0.0766789903849
-0.0766413533971
-0.0766033772205
-0.0765650310051
-0.0765265804413
-0.073438892954
-0.0782673306011
-0.0775680094717
-0.0772385925137
-0.0771478435947
-0.0771020964159
-0.0770612279907
-0.0770203458971
-0.0769792541269
-0.0739871869871
-0.0789917052683
-0.078452592888
-0.0781690969473
-0.0780838578463
-0.0780366169064
-0.077993788869
-0.0779511436369
-0.0779084252747
-0.071828630725
-0.0740475780134
-0.0736166580091
-0.0734540578854
-0.0733947110493
-0.0733508018119
-0.0733085894398
-0.0732667506601
-0.0732252510851
)
;
    }
    atmosphere
    {
        type            calculated;
        value           nonuniform List<scalar> 0();
    }
    floatingObject
    {
        type            calculated;
        value           nonuniform List<scalar> 0();
    }
    procBoundary10to9
    {
        type            processor;
        value           nonuniform List<scalar> 
15
(
-0.076135861636
-0.076067658425
-0.0760455273072
-0.0760269275305
-0.0760064046781
-0.075983627659
-0.0759587262615
-0.0759320686618
-0.0772541022215
-0.0765023662885
-0.0765023662885
-0.0726607884154
-0.0727060829896
-0.0727518714513
-0.0727518714513
)
;
    }
    procBoundary10to11
    {
        type            processor;
        value           nonuniform List<scalar> 
23
(
-0.0759507943126
-0.0759507943126
-0.0759674976193
-0.076010964489
-0.0760806308027
-0.0760806308027
-0.0761198361065
-0.0761568419526
-0.0762209792629
-0.0762209792629
-0.0762839912702
-0.0762839912702
-0.0763160821328
-0.0763160821328
-0.0763133791648
-0.0763390027112
-0.0763627884823
-0.0763932971387
-0.0764883519099
-0.0769381727346
-0.0769381727346
-0.0778656846305
-0.0731842008913
)
;
    }
}


// ************************************************************************* //
