/*--------------------------------*- C++ -*----------------------------------*\
| =========                 |                                                 |
| \\      /  F ield         | OpenFOAM: The Open Source CFD Toolbox           |
|  \\    /   O peration     | Version:  v2012                                 |
|   \\  /    A nd           | Website:  www.openfoam.com                      |
|    \\/     M anipulation  |                                                 |
\*---------------------------------------------------------------------------*/
FoamFile
{
    version     2.0;
    format      ascii;
    class       volScalarField;
    location    "0.4";
    object      rAU;
}
// * * * * * * * * * * * * * * * * * * * * * * * * * * * * * * * * * * * * * //

dimensions      [-1 3 1 0 0 0 0];


internalField   nonuniform List<scalar> 
167
(
8.09232926836e-06
8.0922395342e-06
8.09215955186e-06
8.09207201067e-06
8.0919727297e-06
8.09186068115e-06
8.09173759317e-06
8.09160472517e-06
8.1046246808e-06
8.09306891521e-06
8.09240152389e-06
8.09231155969e-06
8.0922335908e-06
8.09214836607e-06
8.09205154106e-06
8.09194208667e-06
8.0918210686e-06
8.09169053873e-06
8.09155264424e-06
8.10472094362e-06
8.09316261747e-06
8.09249250537e-06
8.09240111462e-06
8.0923235163e-06
8.09223868375e-06
8.0921421552e-06
8.09203279541e-06
8.09191136561e-06
8.09178039634e-06
8.09164135697e-06
8.10483124658e-06
8.0932703815e-06
8.0925970556e-06
8.0925033267e-06
8.09242492968e-06
8.09233914189e-06
8.09224142692e-06
8.09213042343e-06
8.09200700101e-06
8.09187289894e-06
8.19757759224e-06
8.10495115791e-06
8.09338772819e-06
8.09271097148e-06
8.09261434421e-06
8.09253434148e-06
8.09244666981e-06
8.09234661299e-06
8.09223266643e-06
8.09210550334e-06
8.09196756805e-06
8.19768827934e-06
8.10507652632e-06
8.09351088153e-06
8.09283058993e-06
8.09273070079e-06
8.09264855418e-06
8.0925583053e-06
8.09245508272e-06
8.0923371063e-06
8.09220618601e-06
8.09206201776e-06
8.1978020149e-06
8.10520439432e-06
8.09363658681e-06
8.09295268581e-06
8.09284932862e-06
8.09276464558e-06
8.09267137582e-06
8.09256437324e-06
8.09244277208e-06
8.09230585768e-06
8.19791634288e-06
8.10533195622e-06
8.09376192642e-06
8.09307440607e-06
8.09296748305e-06
8.09288004347e-06
8.09278347058e-06
8.09267276524e-06
8.09254635046e-06
8.19802903337e-06
8.10545676164e-06
8.09388435217e-06
8.09319325985e-06
8.09308278472e-06
8.09299247071e-06
8.09289249386e-06
8.09277795116e-06
8.09264669363e-06
8.19813843648e-06
8.10557639051e-06
8.09400130143e-06
8.09330680502e-06
8.09319291537e-06
8.09309967553e-06
8.0929963261e-06
8.09287766996e-06
8.09274193806e-06
8.09258820152e-06
8.19824266751e-06
8.10568690536e-06
8.09410870095e-06
8.0934113046e-06
8.0932943052e-06
8.09319813122e-06
8.09309132531e-06
8.09296876101e-06
8.09282861677e-06
8.09267006402e-06
8.19834287987e-06
8.10578923627e-06
8.09420904579e-06
8.09351031813e-06
8.09339061221e-06
8.09329127707e-06
8.0931807904e-06
8.09305425747e-06
8.09290975921e-06
8.09274634611e-06
8.19847074693e-06
8.10592731855e-06
8.0943537355e-06
8.09365687538e-06
8.09353382731e-06
8.09342972301e-06
8.09331399455e-06
8.09318208213e-06
8.09303184875e-06
8.09286271015e-06
8.19861880939e-06
8.10608883424e-06
8.09453395541e-06
8.09383897752e-06
8.09370971044e-06
8.09359910657e-06
8.09347780938e-06
8.0933410189e-06
8.09318688118e-06
8.09301314219e-06
8.19858159852e-06
8.10646886452e-06
8.09499765911e-06
8.09429615296e-06
8.09415933163e-06
8.09404974315e-06
8.09393440999e-06
8.09380661869e-06
8.09366306405e-06
8.20282545229e-06
8.11786305383e-06
8.10695572496e-06
8.10643616774e-06
8.10643461382e-06
8.10646373024e-06
8.10647576166e-06
8.10645455918e-06
8.10639384305e-06
8.2528619477e-06
8.20335134574e-06
8.1992354547e-06
8.19909480878e-06
8.19915303531e-06
8.19920307463e-06
8.19922550769e-06
8.19920979382e-06
8.19915062955e-06
)
;

boundaryField
{
    back
    {
        type            calculated;
        value           nonuniform List<scalar> 
167
(
8.09232926836e-06
8.0922395342e-06
8.09215955186e-06
8.09207201067e-06
8.0919727297e-06
8.09186068115e-06
8.09173759317e-06
8.09160472517e-06
8.1046246808e-06
8.09306891521e-06
8.09240152389e-06
8.09231155969e-06
8.0922335908e-06
8.09214836607e-06
8.09205154106e-06
8.09194208667e-06
8.0918210686e-06
8.09169053873e-06
8.09155264424e-06
8.10472094362e-06
8.09316261747e-06
8.09249250537e-06
8.09240111462e-06
8.0923235163e-06
8.09223868375e-06
8.0921421552e-06
8.09203279541e-06
8.09191136561e-06
8.09178039634e-06
8.09164135697e-06
8.10483124658e-06
8.0932703815e-06
8.0925970556e-06
8.0925033267e-06
8.09242492968e-06
8.09233914189e-06
8.09224142692e-06
8.09213042343e-06
8.09200700101e-06
8.09187289894e-06
8.19757759224e-06
8.10495115791e-06
8.09338772819e-06
8.09271097148e-06
8.09261434421e-06
8.09253434148e-06
8.09244666981e-06
8.09234661299e-06
8.09223266643e-06
8.09210550334e-06
8.09196756805e-06
8.19768827934e-06
8.10507652632e-06
8.09351088153e-06
8.09283058993e-06
8.09273070079e-06
8.09264855418e-06
8.0925583053e-06
8.09245508272e-06
8.0923371063e-06
8.09220618601e-06
8.09206201776e-06
8.1978020149e-06
8.10520439432e-06
8.09363658681e-06
8.09295268581e-06
8.09284932862e-06
8.09276464558e-06
8.09267137582e-06
8.09256437324e-06
8.09244277208e-06
8.09230585768e-06
8.19791634288e-06
8.10533195622e-06
8.09376192642e-06
8.09307440607e-06
8.09296748305e-06
8.09288004347e-06
8.09278347058e-06
8.09267276524e-06
8.09254635046e-06
8.19802903337e-06
8.10545676164e-06
8.09388435217e-06
8.09319325985e-06
8.09308278472e-06
8.09299247071e-06
8.09289249386e-06
8.09277795116e-06
8.09264669363e-06
8.19813843648e-06
8.10557639051e-06
8.09400130143e-06
8.09330680502e-06
8.09319291537e-06
8.09309967553e-06
8.0929963261e-06
8.09287766996e-06
8.09274193806e-06
8.09258820152e-06
8.19824266751e-06
8.10568690536e-06
8.09410870095e-06
8.0934113046e-06
8.0932943052e-06
8.09319813122e-06
8.09309132531e-06
8.09296876101e-06
8.09282861677e-06
8.09267006402e-06
8.19834287987e-06
8.10578923627e-06
8.09420904579e-06
8.09351031813e-06
8.09339061221e-06
8.09329127707e-06
8.0931807904e-06
8.09305425747e-06
8.09290975921e-06
8.09274634611e-06
8.19847074693e-06
8.10592731855e-06
8.0943537355e-06
8.09365687538e-06
8.09353382731e-06
8.09342972301e-06
8.09331399455e-06
8.09318208213e-06
8.09303184875e-06
8.09286271015e-06
8.19861880939e-06
8.10608883424e-06
8.09453395541e-06
8.09383897752e-06
8.09370971044e-06
8.09359910657e-06
8.09347780938e-06
8.0933410189e-06
8.09318688118e-06
8.09301314219e-06
8.19858159852e-06
8.10646886452e-06
8.09499765911e-06
8.09429615296e-06
8.09415933163e-06
8.09404974315e-06
8.09393440999e-06
8.09380661869e-06
8.09366306405e-06
8.20282545229e-06
8.11786305383e-06
8.10695572496e-06
8.10643616774e-06
8.10643461382e-06
8.10646373024e-06
8.10647576166e-06
8.10645455918e-06
8.10639384305e-06
8.2528619477e-06
8.20335134574e-06
8.1992354547e-06
8.19909480878e-06
8.19915303531e-06
8.19920307463e-06
8.19922550769e-06
8.19920979382e-06
8.19915062955e-06
)
;
    }
    sides
    {
        type            calculated;
        value           nonuniform List<scalar> 9(8.2528619477e-06 8.20335134574e-06 8.1992354547e-06 8.19909480878e-06 8.19915303531e-06 8.19920307463e-06 8.19922550769e-06 8.19920979382e-06 8.19915062955e-06);
    }
    bottom
    {
        type            calculated;
        value           nonuniform List<scalar> 
13
(
8.19757759224e-06
8.19768827934e-06
8.1978020149e-06
8.19791634288e-06
8.19802903337e-06
8.19813843648e-06
8.19824266751e-06
8.19834287987e-06
8.19847074693e-06
8.19861880939e-06
8.19858159852e-06
8.20282545229e-06
8.2528619477e-06
)
;
    }
    front
    {
        type            calculated;
        value           nonuniform List<scalar> 
167
(
8.09232926836e-06
8.0922395342e-06
8.09215955186e-06
8.09207201067e-06
8.0919727297e-06
8.09186068115e-06
8.09173759317e-06
8.09160472517e-06
8.1046246808e-06
8.09306891521e-06
8.09240152389e-06
8.09231155969e-06
8.0922335908e-06
8.09214836607e-06
8.09205154106e-06
8.09194208667e-06
8.0918210686e-06
8.09169053873e-06
8.09155264424e-06
8.10472094362e-06
8.09316261747e-06
8.09249250537e-06
8.09240111462e-06
8.0923235163e-06
8.09223868375e-06
8.0921421552e-06
8.09203279541e-06
8.09191136561e-06
8.09178039634e-06
8.09164135697e-06
8.10483124658e-06
8.0932703815e-06
8.0925970556e-06
8.0925033267e-06
8.09242492968e-06
8.09233914189e-06
8.09224142692e-06
8.09213042343e-06
8.09200700101e-06
8.09187289894e-06
8.19757759224e-06
8.10495115791e-06
8.09338772819e-06
8.09271097148e-06
8.09261434421e-06
8.09253434148e-06
8.09244666981e-06
8.09234661299e-06
8.09223266643e-06
8.09210550334e-06
8.09196756805e-06
8.19768827934e-06
8.10507652632e-06
8.09351088153e-06
8.09283058993e-06
8.09273070079e-06
8.09264855418e-06
8.0925583053e-06
8.09245508272e-06
8.0923371063e-06
8.09220618601e-06
8.09206201776e-06
8.1978020149e-06
8.10520439432e-06
8.09363658681e-06
8.09295268581e-06
8.09284932862e-06
8.09276464558e-06
8.09267137582e-06
8.09256437324e-06
8.09244277208e-06
8.09230585768e-06
8.19791634288e-06
8.10533195622e-06
8.09376192642e-06
8.09307440607e-06
8.09296748305e-06
8.09288004347e-06
8.09278347058e-06
8.09267276524e-06
8.09254635046e-06
8.19802903337e-06
8.10545676164e-06
8.09388435217e-06
8.09319325985e-06
8.09308278472e-06
8.09299247071e-06
8.09289249386e-06
8.09277795116e-06
8.09264669363e-06
8.19813843648e-06
8.10557639051e-06
8.09400130143e-06
8.09330680502e-06
8.09319291537e-06
8.09309967553e-06
8.0929963261e-06
8.09287766996e-06
8.09274193806e-06
8.09258820152e-06
8.19824266751e-06
8.10568690536e-06
8.09410870095e-06
8.0934113046e-06
8.0932943052e-06
8.09319813122e-06
8.09309132531e-06
8.09296876101e-06
8.09282861677e-06
8.09267006402e-06
8.19834287987e-06
8.10578923627e-06
8.09420904579e-06
8.09351031813e-06
8.09339061221e-06
8.09329127707e-06
8.0931807904e-06
8.09305425747e-06
8.09290975921e-06
8.09274634611e-06
8.19847074693e-06
8.10592731855e-06
8.0943537355e-06
8.09365687538e-06
8.09353382731e-06
8.09342972301e-06
8.09331399455e-06
8.09318208213e-06
8.09303184875e-06
8.09286271015e-06
8.19861880939e-06
8.10608883424e-06
8.09453395541e-06
8.09383897752e-06
8.09370971044e-06
8.09359910657e-06
8.09347780938e-06
8.0933410189e-06
8.09318688118e-06
8.09301314219e-06
8.19858159852e-06
8.10646886452e-06
8.09499765911e-06
8.09429615296e-06
8.09415933163e-06
8.09404974315e-06
8.09393440999e-06
8.09380661869e-06
8.09366306405e-06
8.20282545229e-06
8.11786305383e-06
8.10695572496e-06
8.10643616774e-06
8.10643461382e-06
8.10646373024e-06
8.10647576166e-06
8.10645455918e-06
8.10639384305e-06
8.2528619477e-06
8.20335134574e-06
8.1992354547e-06
8.19909480878e-06
8.19915303531e-06
8.19920307463e-06
8.19922550769e-06
8.19920979382e-06
8.19915062955e-06
)
;
    }
    atmosphere
    {
        type            calculated;
        value           nonuniform List<scalar> 0();
    }
    floatingObject
    {
        type            calculated;
        value           nonuniform List<scalar> 0();
    }
    procBoundary10to9
    {
        type            processor;
        value           nonuniform List<scalar> 
15
(
8.09228247848e-06
8.09219074447e-06
8.09210628552e-06
8.0920138124e-06
8.09190909801e-06
8.09179164616e-06
8.09166278913e-06
8.09152565148e-06
8.10454861756e-06
8.09299518873e-06
8.09299518873e-06
8.19730220283e-06
8.19738039014e-06
8.19747378495e-06
8.19747378495e-06
)
;
    }
    procBoundary10to11
    {
        type            processor;
        value           nonuniform List<scalar> 
23
(
8.09146607797e-06
8.09146607797e-06
8.09140899591e-06
8.09149590117e-06
8.09173022249e-06
8.09173022249e-06
8.09181945028e-06
8.09190754698e-06
8.09215559534e-06
8.09215559534e-06
8.09240384089e-06
8.09240384089e-06
8.09249912566e-06
8.09249912566e-06
8.09241740784e-06
8.09249239591e-06
8.09256297548e-06
8.09267221518e-06
8.09281870887e-06
8.093501835e-06
8.093501835e-06
8.10629054689e-06
8.19904565516e-06
)
;
    }
}


// ************************************************************************* //
