/*--------------------------------*- C++ -*----------------------------------*\
| =========                 |                                                 |
| \\      /  F ield         | OpenFOAM: The Open Source CFD Toolbox           |
|  \\    /   O peration     | Version:  v2012                                 |
|   \\  /    A nd           | Website:  www.openfoam.com                      |
|    \\/     M anipulation  |                                                 |
\*---------------------------------------------------------------------------*/
FoamFile
{
    version     2.0;
    format      ascii;
    class       volScalarField;
    location    "1.6";
    object      p_rgh;
}
// * * * * * * * * * * * * * * * * * * * * * * * * * * * * * * * * * * * * * //

dimensions      [1 -1 -2 0 0 0 0];


internalField   nonuniform List<scalar> 
167
(
8571.27338985
8569.11018948
8567.03969512
8565.14789913
8563.55881957
8529.20308687
4434.72791251
0.026875208063
-0.0140645992289
8551.30603005
8547.9105156
8544.45976374
8541.03886108
8466.85841751
3975.36385058
0.0062612280001
-0.0100785616731
8533.62731962
8528.88810657
8523.86775248
8518.77739368
8390.07827064
3549.07667537
0.013483937003
-0.00745421602536
8521.83925178
8516.28134197
8510.20216769
8503.57198805
8497.01902711
8296.09906242
3160.10777405
0.017226268678
0.000442037638362
8506.13014612
8499.46695014
8492.1165884
8484.03816394
8476.60036042
8187.5825771
2809.95181208
0.017937529607
0.0052429130979
8491.06434331
8483.34832939
8474.80505416
8465.39537248
8457.60859993
8067.96513284
2497.85408999
0.0192592078018
0.007791702279
8484.59093305
8476.77297593
8468.06323349
8458.40607295
8447.7760659
8439.70260104
7941.02514071
2222.4588471
0.0216285690394
0.00852247644067
8479.71786791
8472.01565292
8463.37325696
8453.73052591
8443.03140909
8431.26630498
8422.61090909
7810.81303076
1981.91617371
0.0244874360753
0.00863997011926
8468.75814342
8460.38312075
8450.97177927
8440.45982236
8428.78585369
8415.94825667
8406.28377397
7679.7328463
1775.64190301
0.0285845926468
0.00902970134846
8449.78551941
8439.66877664
8428.35871127
8415.78573752
8401.95566522
8391.02040001
7553.44379298
1599.43272072
0.0332093684996
0.00945828435624
8440.30869923
8429.557518
8417.52976127
8404.14977803
8389.43721669
8377.17970584
7435.14355248
1451.26196307
0.0373776264617
0.00979480766647
8432.02971534
8420.72094232
8408.06421933
8393.9809786
8378.51017897
8364.98821919
7327.27787743
1329.17198871
0.0406801120684
0.0100203886518
8425.01539765
8413.23051305
8400.03795776
8385.35897993
8369.25572137
8354.61539127
7231.56289327
1230.62441846
0.0428577984918
0.0103483435325
8419.32271952
8407.14712582
8393.51344652
8378.34425292
8361.73144495
8346.22943393
7148.26218905
1153.16121814
0.0459911847534
0.00968671538808
8426.07295054
8415.0058376
8402.52732335
8388.54773807
8372.98196438
8355.95224318
8340.00735432
7076.17933453
1089.41490532
0.0310081859782
0.0152869356691
8423.61727719
8412.35667153
8399.65570855
8385.43492368
8369.58561251
8352.16991745
8336.83232901
7010.67998207
1072.83970957
0.0520404474224
0.00805620251242
8421.82161926
8410.46494013
8397.6316748
8383.19166509
8367.03046341
8348.97886725
8338.34411524
7119.21719749
977.186081319
0.0574518558871
0.0209998564725
)
;

boundaryField
{
    back
    {
        type            fixedFluxPressure;
        gradient        uniform 0;
        value           nonuniform List<scalar> 
167
(
8571.27338985
8569.11018948
8567.03969512
8565.14789913
8563.55881957
8529.20308687
4434.72791251
0.026875208063
-0.0140645992289
8551.30603005
8547.9105156
8544.45976374
8541.03886108
8466.85841751
3975.36385058
0.0062612280001
-0.0100785616731
8533.62731962
8528.88810657
8523.86775248
8518.77739368
8390.07827064
3549.07667537
0.013483937003
-0.00745421602536
8521.83925178
8516.28134197
8510.20216769
8503.57198805
8497.01902711
8296.09906242
3160.10777405
0.017226268678
0.000442037638362
8506.13014612
8499.46695014
8492.1165884
8484.03816394
8476.60036042
8187.5825771
2809.95181208
0.017937529607
0.0052429130979
8491.06434331
8483.34832939
8474.80505416
8465.39537248
8457.60859993
8067.96513284
2497.85408999
0.0192592078018
0.007791702279
8484.59093305
8476.77297593
8468.06323349
8458.40607295
8447.7760659
8439.70260104
7941.02514071
2222.4588471
0.0216285690394
0.00852247644067
8479.71786791
8472.01565292
8463.37325696
8453.73052591
8443.03140909
8431.26630498
8422.61090909
7810.81303076
1981.91617371
0.0244874360753
0.00863997011926
8468.75814342
8460.38312075
8450.97177927
8440.45982236
8428.78585369
8415.94825667
8406.28377397
7679.7328463
1775.64190301
0.0285845926468
0.00902970134846
8449.78551941
8439.66877664
8428.35871127
8415.78573752
8401.95566522
8391.02040001
7553.44379298
1599.43272072
0.0332093684996
0.00945828435624
8440.30869923
8429.557518
8417.52976127
8404.14977803
8389.43721669
8377.17970584
7435.14355248
1451.26196307
0.0373776264617
0.00979480766647
8432.02971534
8420.72094232
8408.06421933
8393.9809786
8378.51017897
8364.98821919
7327.27787743
1329.17198871
0.0406801120684
0.0100203886518
8425.01539765
8413.23051305
8400.03795776
8385.35897993
8369.25572137
8354.61539127
7231.56289327
1230.62441846
0.0428577984918
0.0103483435325
8419.32271952
8407.14712582
8393.51344652
8378.34425292
8361.73144495
8346.22943393
7148.26218905
1153.16121814
0.0459911847534
0.00968671538808
8426.07295054
8415.0058376
8402.52732335
8388.54773807
8372.98196438
8355.95224318
8340.00735432
7076.17933453
1089.41490532
0.0310081859782
0.0152869356691
8423.61727719
8412.35667153
8399.65570855
8385.43492368
8369.58561251
8352.16991745
8336.83232901
7010.67998207
1072.83970957
0.0520404474224
0.00805620251242
8421.82161926
8410.46494013
8397.6316748
8383.19166509
8367.03046341
8348.97886725
8338.34411524
7119.21719749
977.186081319
0.0574518558871
0.0209998564725
)
;
    }
    sides
    {
        type            fixedFluxPressure;
        gradient        uniform 0;
        value           nonuniform List<scalar> 
11
(
8421.82161926
8410.46494013
8397.6316748
8383.19166509
8367.03046341
8348.97886725
8338.34411524
7119.21719749
977.186081319
0.0574518558871
0.0209998564725
)
;
    }
    bottom
    {
        type            fixedFluxPressure;
        gradient        nonuniform List<scalar> 0();
        value           nonuniform List<scalar> 0();
    }
    front
    {
        type            fixedFluxPressure;
        gradient        uniform 0;
        value           nonuniform List<scalar> 
167
(
8571.27338985
8569.11018948
8567.03969512
8565.14789913
8563.55881957
8529.20308687
4434.72791251
0.026875208063
-0.0140645992289
8551.30603005
8547.9105156
8544.45976374
8541.03886108
8466.85841751
3975.36385058
0.0062612280001
-0.0100785616731
8533.62731962
8528.88810657
8523.86775248
8518.77739368
8390.07827064
3549.07667537
0.013483937003
-0.00745421602536
8521.83925178
8516.28134197
8510.20216769
8503.57198805
8497.01902711
8296.09906242
3160.10777405
0.017226268678
0.000442037638362
8506.13014612
8499.46695014
8492.1165884
8484.03816394
8476.60036042
8187.5825771
2809.95181208
0.017937529607
0.0052429130979
8491.06434331
8483.34832939
8474.80505416
8465.39537248
8457.60859993
8067.96513284
2497.85408999
0.0192592078018
0.007791702279
8484.59093305
8476.77297593
8468.06323349
8458.40607295
8447.7760659
8439.70260104
7941.02514071
2222.4588471
0.0216285690394
0.00852247644067
8479.71786791
8472.01565292
8463.37325696
8453.73052591
8443.03140909
8431.26630498
8422.61090909
7810.81303076
1981.91617371
0.0244874360753
0.00863997011926
8468.75814342
8460.38312075
8450.97177927
8440.45982236
8428.78585369
8415.94825667
8406.28377397
7679.7328463
1775.64190301
0.0285845926468
0.00902970134846
8449.78551941
8439.66877664
8428.35871127
8415.78573752
8401.95566522
8391.02040001
7553.44379298
1599.43272072
0.0332093684996
0.00945828435624
8440.30869923
8429.557518
8417.52976127
8404.14977803
8389.43721669
8377.17970584
7435.14355248
1451.26196307
0.0373776264617
0.00979480766647
8432.02971534
8420.72094232
8408.06421933
8393.9809786
8378.51017897
8364.98821919
7327.27787743
1329.17198871
0.0406801120684
0.0100203886518
8425.01539765
8413.23051305
8400.03795776
8385.35897993
8369.25572137
8354.61539127
7231.56289327
1230.62441846
0.0428577984918
0.0103483435325
8419.32271952
8407.14712582
8393.51344652
8378.34425292
8361.73144495
8346.22943393
7148.26218905
1153.16121814
0.0459911847534
0.00968671538808
8426.07295054
8415.0058376
8402.52732335
8388.54773807
8372.98196438
8355.95224318
8340.00735432
7076.17933453
1089.41490532
0.0310081859782
0.0152869356691
8423.61727719
8412.35667153
8399.65570855
8385.43492368
8369.58561251
8352.16991745
8336.83232901
7010.67998207
1072.83970957
0.0520404474224
0.00805620251242
8421.82161926
8410.46494013
8397.6316748
8383.19166509
8367.03046341
8348.97886725
8338.34411524
7119.21719749
977.186081319
0.0574518558871
0.0209998564725
)
;
    }
    atmosphere
    {
        type            totalPressure;
        rho             rho;
        psi             none;
        gamma           1;
        p0              uniform 0;
        value           nonuniform List<scalar> 
17
(
0
0
-3.06510041961e-05
-1.78008501098e-05
-3.87826338307e-06
-2.38491595464e-07
0
0
0
0
0
0
0
0
0
0
-0.00169893531788
)
;
    }
    floatingObject
    {
        type            fixedFluxPressure;
        gradient        nonuniform List<scalar> 0();
        value           nonuniform List<scalar> 0();
    }
    procBoundary11to9
    {
        type            processor;
        value           nonuniform List<scalar> 9(8587.94630443 8586.81168003 8585.96192769 8585.53696254 8585.78075465 8579.8260554 4917.63461592 2.82712223149 -0.0305035557939);
    }
    procBoundary11to10
    {
        type            processor;
        value           nonuniform List<scalar> 
23
(
8573.44823129
8554.58076362
8554.58076362
8538.04471957
8538.04471957
8526.90019234
8512.14785653
8498.00493206
8498.00493206
8491.56836745
8491.56836745
8486.52620448
8476.15376401
8458.77932928
8458.77932928
8449.85880098
8442.07005426
8435.47407734
8430.12525363
8430.12525363
8435.81245887
8433.51859977
8431.80481284
)
;
    }
}


// ************************************************************************* //
