/*--------------------------------*- C++ -*----------------------------------*\
| =========                 |                                                 |
| \\      /  F ield         | OpenFOAM: The Open Source CFD Toolbox           |
|  \\    /   O peration     | Version:  v2012                                 |
|   \\  /    A nd           | Website:  www.openfoam.com                      |
|    \\/     M anipulation  |                                                 |
\*---------------------------------------------------------------------------*/
FoamFile
{
    version     2.0;
    format      ascii;
    class       volScalarField;
    location    "1.4";
    object      ddt0(epsilon);
}
// * * * * * * * * * * * * * * * * * * * * * * * * * * * * * * * * * * * * * //

dimensions      [0 2 -4 0 0 0 0];


internalField   nonuniform List<scalar> 
164
(
-0.0157520510495
-0.0156285080662
-0.0168495286733
-0.017281109049
-0.0174617668822
-0.017550217571
-0.0174042257901
-0.0163605021353
-0.0209287469074
-0.0205065356483
-0.0206303261994
-0.0212895308529
-0.0171341483636
-0.0182871392045
-0.0158940464513
-0.0157173945103
-0.0169437950697
-0.0173843897789
-0.0175808403833
-0.0177192962882
-0.0178376868239
-0.0178503628979
-0.0180218510959
-0.0182173807367
-0.0184635529633
-0.0187755976355
-0.0191399363003
-0.0195343511749
-0.0160454482273
-0.0158257820156
-0.0170559582973
-0.0174990725718
-0.0176980156446
-0.0178430744418
-0.0179970494484
-0.0181759153459
-0.0183920897537
-0.0186309454316
-0.0188860303327
-0.0191579688904
-0.0194453800752
-0.0197428754707
-0.0161997717739
-0.0159477587313
-0.0171788321703
-0.0176186329341
-0.0178130518219
-0.0179520968373
-0.0180982378961
-0.018270498539
-0.0184714210687
-0.0186930126862
-0.0189283576498
-0.0191752250167
-0.0194345414792
-0.0197078444478
-0.016351141396
-0.0160767436693
-0.0173054970902
-0.0177370261801
-0.0179226892768
-0.0180520559735
-0.0181852815436
-0.0183393732805
-0.0185168631982
-0.0187136157031
-0.0189249720647
-0.0191484413779
-0.0193847146494
-0.0196363384928
-0.0164948854506
-0.0162066725108
-0.0174301045565
-0.0178495139776
-0.0180238070172
-0.0181421774419
-0.0182624983626
-0.0184000636528
-0.0185571769715
-0.0187316651638
-0.018920460514
-0.0191213619218
-0.0193341118949
-0.0195607000392
-0.0166277218729
-0.0163327287589
-0.0175482820146
-0.0179528888765
-0.0181144143381
-0.0182215061729
-0.0183296812337
-0.0184526999733
-0.0185924800858
-0.0187476114584
-0.0189159240618
-0.0190954714297
-0.0192851863048
-0.019485622597
-0.0167476701322
-0.0164514412248
-0.0176570803459
-0.0180452629139
-0.0181935573639
-0.018289717168
-0.0183867309094
-0.0184968751527
-0.0186216467825
-0.0187599007076
-0.0189099298541
-0.0190699505593
-0.019238601106
-0.0194161057346
-0.016853878746
-0.0165605932514
-0.0177547605969
-0.0181257688664
-0.0182610486131
-0.0183470109764
-0.0184339536067
-0.0185327190188
-0.0186444082394
-0.0187679360731
-0.0189019168363
-0.0190447004534
-0.0191950415466
-0.0193553130448
-0.0169463361622
-0.0166589975334
-0.0178405187947
-0.0181942653489
-0.0183172036595
-0.0183939169903
-0.0184719138378
-0.0185606787995
-0.0186610331354
-0.018771720643
-0.0188918036609
-0.0190198042999
-0.0191545384698
-0.0192994462588
-0.0170254818591
-0.0167460560876
-0.017914089577
-0.0182509882716
-0.0183625433127
-0.0184310485068
-0.0185012084777
-0.0185812774916
-0.0186717848418
-0.0187714117747
-0.0188795597603
-0.0189950895026
-0.019116872809
-0.0192498002514
-0.0186770633476
-0.0187671747421
-0.0188650819944
-0.0189698061051
-0.019080642936
-0.0192051532394
-0.0189436142401
-0.0190441837522
-0.0191599511057
-0.0191134813097
)
;

boundaryField
{
    back
    {
        type            calculated;
        value           nonuniform List<scalar> 
164
(
-0.0157520510495
-0.0156285080662
-0.0168495286733
-0.017281109049
-0.0174617668822
-0.017550217571
-0.0174042257901
-0.0163605021353
-0.0209287469074
-0.0205065356483
-0.0206303261994
-0.0212895308529
-0.0171341483636
-0.0182871392045
-0.0158940464513
-0.0157173945103
-0.0169437950697
-0.0173843897789
-0.0175808403833
-0.0177192962882
-0.0178376868239
-0.0178503628979
-0.0180218510959
-0.0182173807367
-0.0184635529633
-0.0187755976355
-0.0191399363003
-0.0195343511749
-0.0160454482273
-0.0158257820156
-0.0170559582973
-0.0174990725718
-0.0176980156446
-0.0178430744418
-0.0179970494484
-0.0181759153459
-0.0183920897537
-0.0186309454316
-0.0188860303327
-0.0191579688904
-0.0194453800752
-0.0197428754707
-0.0161997717739
-0.0159477587313
-0.0171788321703
-0.0176186329341
-0.0178130518219
-0.0179520968373
-0.0180982378961
-0.018270498539
-0.0184714210687
-0.0186930126862
-0.0189283576498
-0.0191752250167
-0.0194345414792
-0.0197078444478
-0.016351141396
-0.0160767436693
-0.0173054970902
-0.0177370261801
-0.0179226892768
-0.0180520559735
-0.0181852815436
-0.0183393732805
-0.0185168631982
-0.0187136157031
-0.0189249720647
-0.0191484413779
-0.0193847146494
-0.0196363384928
-0.0164948854506
-0.0162066725108
-0.0174301045565
-0.0178495139776
-0.0180238070172
-0.0181421774419
-0.0182624983626
-0.0184000636528
-0.0185571769715
-0.0187316651638
-0.018920460514
-0.0191213619218
-0.0193341118949
-0.0195607000392
-0.0166277218729
-0.0163327287589
-0.0175482820146
-0.0179528888765
-0.0181144143381
-0.0182215061729
-0.0183296812337
-0.0184526999733
-0.0185924800858
-0.0187476114584
-0.0189159240618
-0.0190954714297
-0.0192851863048
-0.019485622597
-0.0167476701322
-0.0164514412248
-0.0176570803459
-0.0180452629139
-0.0181935573639
-0.018289717168
-0.0183867309094
-0.0184968751527
-0.0186216467825
-0.0187599007076
-0.0189099298541
-0.0190699505593
-0.019238601106
-0.0194161057346
-0.016853878746
-0.0165605932514
-0.0177547605969
-0.0181257688664
-0.0182610486131
-0.0183470109764
-0.0184339536067
-0.0185327190188
-0.0186444082394
-0.0187679360731
-0.0189019168363
-0.0190447004534
-0.0191950415466
-0.0193553130448
-0.0169463361622
-0.0166589975334
-0.0178405187947
-0.0181942653489
-0.0183172036595
-0.0183939169903
-0.0184719138378
-0.0185606787995
-0.0186610331354
-0.0187717206429
-0.0188918036609
-0.0190198042999
-0.0191545384698
-0.0192994462588
-0.0170254818591
-0.0167460560876
-0.017914089577
-0.0182509882716
-0.0183625433127
-0.0184310485068
-0.0185012084777
-0.0185812774916
-0.0186717848418
-0.0187714117747
-0.0188795597603
-0.0189950895026
-0.019116872809
-0.0192498002514
-0.0186770633476
-0.0187671747421
-0.0188650819944
-0.0189698061051
-0.019080642936
-0.0192051532394
-0.0189436142401
-0.0190441837522
-0.0191599511057
-0.0191134813097
)
;
    }
    sides
    {
        type            calculated;
        value           nonuniform List<scalar> 0();
    }
    bottom
    {
        type            calculated;
        value           nonuniform List<scalar> 
11
(
-0.0157520510495
-0.0158940464513
-0.0160454482273
-0.0161997717739
-0.016351141396
-0.0164948854506
-0.0166277218729
-0.0167476701322
-0.016853878746
-0.0169463361622
-0.0170254818591
)
;
    }
    front
    {
        type            calculated;
        value           nonuniform List<scalar> 
164
(
-0.0157520510495
-0.0156285080662
-0.0168495286733
-0.017281109049
-0.0174617668822
-0.017550217571
-0.0174042257901
-0.0163605021353
-0.0209287469074
-0.0205065356483
-0.0206303261994
-0.0212895308529
-0.0171341483636
-0.0182871392045
-0.0158940464513
-0.0157173945103
-0.0169437950697
-0.0173843897789
-0.0175808403833
-0.0177192962882
-0.0178376868239
-0.0178503628979
-0.0180218510959
-0.0182173807367
-0.0184635529633
-0.0187755976355
-0.0191399363003
-0.0195343511749
-0.0160454482273
-0.0158257820156
-0.0170559582973
-0.0174990725718
-0.0176980156446
-0.0178430744418
-0.0179970494484
-0.0181759153459
-0.0183920897537
-0.0186309454316
-0.0188860303327
-0.0191579688904
-0.0194453800752
-0.0197428754707
-0.0161997717739
-0.0159477587313
-0.0171788321703
-0.0176186329341
-0.0178130518219
-0.0179520968373
-0.0180982378961
-0.018270498539
-0.0184714210687
-0.0186930126862
-0.0189283576498
-0.0191752250167
-0.0194345414792
-0.0197078444478
-0.016351141396
-0.0160767436693
-0.0173054970902
-0.0177370261801
-0.0179226892768
-0.0180520559735
-0.0181852815436
-0.0183393732805
-0.0185168631982
-0.0187136157031
-0.0189249720647
-0.0191484413779
-0.0193847146494
-0.0196363384928
-0.0164948854506
-0.0162066725108
-0.0174301045565
-0.0178495139776
-0.0180238070172
-0.0181421774419
-0.0182624983626
-0.0184000636528
-0.0185571769715
-0.0187316651638
-0.018920460514
-0.0191213619218
-0.0193341118949
-0.0195607000392
-0.0166277218729
-0.0163327287589
-0.0175482820146
-0.0179528888765
-0.0181144143381
-0.0182215061729
-0.0183296812337
-0.0184526999733
-0.0185924800858
-0.0187476114584
-0.0189159240618
-0.0190954714297
-0.0192851863048
-0.019485622597
-0.0167476701322
-0.0164514412248
-0.0176570803459
-0.0180452629139
-0.0181935573639
-0.018289717168
-0.0183867309094
-0.0184968751527
-0.0186216467825
-0.0187599007076
-0.0189099298541
-0.0190699505593
-0.019238601106
-0.0194161057346
-0.016853878746
-0.0165605932514
-0.0177547605969
-0.0181257688664
-0.0182610486131
-0.0183470109764
-0.0184339536067
-0.0185327190188
-0.0186444082394
-0.0187679360731
-0.0189019168363
-0.0190447004534
-0.0191950415466
-0.0193553130448
-0.0169463361622
-0.0166589975334
-0.0178405187947
-0.0181942653489
-0.0183172036595
-0.0183939169903
-0.0184719138378
-0.0185606787995
-0.0186610331354
-0.0187717206429
-0.0188918036609
-0.0190198042999
-0.0191545384698
-0.0192994462588
-0.0170254818591
-0.0167460560876
-0.017914089577
-0.0182509882716
-0.0183625433127
-0.0184310485068
-0.0185012084777
-0.0185812774916
-0.0186717848418
-0.0187714117747
-0.0188795597603
-0.0189950895026
-0.019116872809
-0.0192498002514
-0.0186770633476
-0.0187671747421
-0.0188650819944
-0.0189698061051
-0.019080642936
-0.0192051532394
-0.0189436142401
-0.0190441837522
-0.0191599511057
-0.0191134813097
)
;
    }
    atmosphere
    {
        type            calculated;
        value           nonuniform List<scalar> 0();
    }
    floatingObject
    {
        type            calculated;
        value           nonuniform List<scalar> 4(-0.0209287469074 -0.0205065356483 -0.0206303261994 -0.0212895308529);
    }
    procBoundary8to3
    {
        type            processor;
        value           nonuniform List<scalar> 8(-0.0156272662412 -0.0155634092298 -0.0167802787283 -0.0171959695249 -0.0173353364673 -0.0172943263592 -0.01673325859 -0.0181499668791);
    }
    procBoundary8to6
    {
        type            processor;
        value           nonuniform List<scalar> 
16
(
-0.0221713808077
-0.0174595452551
-0.019107342974
-0.0199241519748
-0.0200625502608
-0.0200075947082
-0.0199181428596
-0.0198136935596
-0.0197036125599
-0.0196099026307
-0.0195469222541
-0.0194819307551
-0.0194233798447
-0.0193778624069
-0.0193417031467
-0.0192867843926
)
;
    }
    procBoundary8to7
    {
        type            processor;
        value           nonuniform List<scalar> 
17
(
-0.0170920690032
-0.016821676096
-0.0179756995808
-0.0182965376277
-0.0183978274801
-0.0184591802508
-0.0185225284186
-0.0185950465394
-0.0185950465394
-0.0186771515977
-0.0187593404485
-0.0188484247089
-0.0188484247089
-0.0189166869025
-0.0190081885937
-0.0190081885937
-0.0190707319802
)
;
    }
}


// ************************************************************************* //
