/*--------------------------------*- C++ -*----------------------------------*\
| =========                 |                                                 |
| \\      /  F ield         | OpenFOAM: The Open Source CFD Toolbox           |
|  \\    /   O peration     | Version:  v2012                                 |
|   \\  /    A nd           | Website:  www.openfoam.com                      |
|    \\/     M anipulation  |                                                 |
\*---------------------------------------------------------------------------*/
FoamFile
{
    version     2.0;
    format      ascii;
    class       surfaceVectorField;
    location    "1.4";
    object      Uf_0;
}
// * * * * * * * * * * * * * * * * * * * * * * * * * * * * * * * * * * * * * //

dimensions      [0 1 -1 0 0 0 0];


internalField   nonuniform List<vector> 
300
(
(-0.0101033026948 0.00456081507933 7.451987478e-22)
(-0.0120439670615 0.00349113789417 2.80808263301e-21)
(-0.010475898398 0.00962700643806 -4.29123164283e-22)
(-0.0134295535118 0.00679448530635 -1.37109556559e-21)
(-0.00947732282086 0.0149726995159 1.2031916208e-21)
(-0.0133300270347 0.0127174815654 -5.62802838498e-22)
(-0.0070230307543 0.0207786349187 1.0993606118e-20)
(-0.0121240458763 0.0187178938843 1.30871523963e-21)
(-0.00281260247854 0.0274914660169 6.51226142723e-20)
(-0.00977524430609 0.0252025402508 1.15428214984e-20)
(0.00325163250765 0.0357384340328 3.81665124497e-19)
(-0.00605145095306 0.0332243825142 6.25931284051e-20)
(0.0140208081826 0.0462609781695 2.22446156538e-18)
(-0.00144579945964 0.0421994434772 3.75933851259e-19)
(0.0173900209905 0.0607969560787 7.60060977451e-18)
(0.00740147788797 0.0566988940447 2.28293623389e-18)
(0.00505302030937 0.0631213505895 1.68128723511e-17)
(-0.00232431017867 0.0695504306707 6.38817586923e-18)
(-0.0098148730282 0.0780285904827 1.75709041383e-17)
(-0.0149069931031 0.08112615865 1.29355187188e-17)
(-0.0211860217609 0.102217440596 1.57805556717e-17)
(-0.0241880611107 0.0969532890609 8.1376616763e-18)
(-0.0438219653679 0.13557491253 1.77306417635e-17)
(-0.0333557995334 0.122959826839 1.05472926559e-17)
(-0.0712909992397 0.142036864276 1.16267354076e-17)
(-0.0593131880591 0.141582658656 8.19788621509e-18)
(-0.0840932853185 0.148563789473 3.54085214143e-18)
(-0.0152606652608 0.00503121677072 6.91788319629e-22)
(-0.0170752668921 0.00370720143698 4.84789265096e-21)
(-0.0160949670241 0.0105780075085 -1.5047752398e-21)
(-0.0189764392544 0.00736400910823 -1.78380118307e-21)
(-0.0156610539502 0.0164962011577 -4.5727921967e-22)
(-0.0192483294314 0.013652453499 -7.45824624313e-22)
(-0.0143282634544 0.0229682941585 1.85793062004e-21)
(-0.0185962586168 0.0201465768223 3.05361549122e-22)
(-0.0122511591619 0.030417875349 9.01333563107e-21)
(-0.0172249475515 0.0272233745113 2.30044770216e-21)
(-0.0100491864463 0.0396002602197 5.68618551671e-20)
(-0.0152339457133 0.0356349207402 8.36913813607e-21)
(-0.00680626437921 0.0516600419313 4.34408519772e-19)
(-0.0135056488114 0.0457930082525 5.5065716267e-20)
(-0.0105513585977 0.069134315444 1.07050232861e-18)
(-0.0100727824104 0.0606822803553 4.2549722373e-19)
(-0.0206234643488 0.0850594277349 2.51082223697e-18)
(-0.0182492874969 0.0758864577293 7.45456849537e-19)
(-0.0292791262408 0.0984416932473 3.50227625678e-18)
(-0.0282889551815 0.0907203846009 1.91716780144e-18)
(-0.0388300979617 0.114790385511 2.90439866053e-18)
(-0.0405361471225 0.103872862807 1.7281657781e-18)
(-0.0534560796438 0.134041883803 1.0145371075e-18)
(-0.0526062469109 0.118837483345 1.24200291202e-18)
(-0.0735746568824 0.14402271011 1.12002948872e-19)
(-0.0692927195953 0.131746687742 -2.11689320166e-19)
(-0.0914176499297 0.140498228015 2.46800481782e-19)
(-0.0208033081569 0.00531367351033 2.37230314826e-21)
(-0.0223890055085 0.00378527170463 6.04088327765e-21)
(-0.0221027209648 0.0111662448496 -1.02485056758e-21)
(-0.0248290818179 0.00766486580177 -1.63279738824e-21)
(-0.0221826243026 0.0174189269974 1.68161444785e-23)
(-0.0255010923361 0.0141137077839 -1.69614759632e-22)
(-0.0216342973483 0.024304826383 7.47878631246e-22)
(-0.0254822470068 0.0208292814073 5.75995976368e-22)
(-0.0207038572503 0.0322428608068 1.65625020716e-21)
(-0.02516307236 0.0281149769364 8.23846721503e-22)
(-0.0197883493289 0.0418523613501 6.57299923604e-21)
(-0.0248435252172 0.0365491886569 1.30450371155e-21)
(-0.0185021209802 0.0536002662281 4.61544202255e-20)
(-0.0252535983329 0.0464475862556 5.90835911372e-21)
(-0.0204117562126 0.069103257698 1.00451744657e-19)
(-0.0255757555978 0.0590300033144 4.2032312258e-20)
(-0.0284742158797 0.0823073466983 1.5180241401e-19)
(-0.0314532675397 0.0724237221907 6.18777919834e-20)
(-0.039970797412 0.0946966745782 1.43057322754e-19)
(-0.0406780568893 0.0848822684105 9.48483028938e-20)
(-0.0529243474701 0.10632311662 6.57700295858e-20)
(-0.0521622109758 0.0959600956896 5.13965084481e-20)
(-0.0679220914559 0.118115147246 1.57764843511e-20)
(-0.0643977034881 0.10630151277 1.32010022462e-20)
(-0.0856910632661 0.127623959183 -7.68917872566e-20)
(-0.078800890488 0.115633507515 2.02798465002e-21)
(-0.0966912679875 0.122319266665 -5.86766866271e-20)
(-0.026525107478 0.00539840993064 2.03578274115e-21)
(-0.0277874581428 0.00374871139624 4.75740679837e-21)
(-0.0282914713067 0.0113381626498 -7.77561580289e-22)
(-0.0307688785245 0.00770063762829 -1.95215251382e-21)
(-0.0288770736362 0.0176459253841 3.89565072257e-22)
(-0.0318089057382 0.0140958932645 -1.75898566442e-23)
(-0.0291180828552 0.0245098112442 6.51964066626e-22)
(-0.0323461908008 0.0207324507288 1.05490224433e-21)
(-0.0294033778669 0.0322070126886 4.72100225896e-22)
(-0.0328603349006 0.0277921549466 6.81694602994e-22)
(-0.030205813048 0.041055467137 6.39863589228e-22)
(-0.0336920353576 0.0356642194036 3.07513147503e-22)
(-0.031746396313 0.0511481470949 1.78625114621e-21)
(-0.0353463141839 0.0445172945462 6.8189364041e-22)
(-0.0355387348751 0.0633511001097 3.45835958492e-21)
(-0.0377787072843 0.0548060555174 1.24150691686e-21)
(-0.0427302619067 0.075047277857 4.92368086672e-21)
(-0.0431493930813 0.0657531265046 2.22704534235e-21)
(-0.052429891948 0.0856740553158 3.18748858792e-21)
(-0.051304724394 0.0762328550718 3.32989723605e-21)
(-0.0638480776868 0.094957187719 -1.17251889149e-21)
(-0.0614451779631 0.085548106005 1.16462977278e-21)
(-0.0767368181388 0.103515200996 -5.47497454911e-22)
(-0.072955509451 0.0936404656899 -2.15681306256e-22)
(-0.0915111922529 0.110677851312 2.02430852796e-20)
(-0.0859633986785 0.100733443513 1.47325090359e-21)
(-0.101096398044 0.105720141573 1.65839978723e-20)
(-0.0322230718804 0.00532134294961 7.69471543399e-22)
(-0.0331088149162 0.00362891302216 4.00890066907e-21)
(-0.0344232296267 0.0111582134318 -1.19218079018e-21)
(-0.0366057606559 0.00751868958166 -2.59913628639e-21)
(-0.0354283317829 0.0173089101791 6.47747315432e-22)
(-0.0379596189811 0.0136914717718 -2.38496911749e-22)
(-0.0362716030061 0.0238949454487 1.0846327807e-21)
(-0.0389322497719 0.0200475572664 1.26068609102e-21)
(-0.0373737493452 0.0310819809055 5.17107524601e-22)
(-0.040047400257 0.0266755153642 6.61675315462e-22)
(-0.0391212868644 0.0390215615104 3.49543198684e-22)
(-0.0416316485476 0.0338421350683 3.13293730989e-22)
(-0.0418104986608 0.0477213317179 1.37149411067e-22)
(-0.0440461135197 0.041651587394 4.09689621368e-22)
(-0.0461267471686 0.0574346527088 1.01926742975e-23)
(-0.0474920469506 0.0501990341328 2.71146420209e-23)
(-0.0526825014021 0.0670801649954 6.33261711684e-22)
(-0.0527949108284 0.0590926267633 2.1468659662e-22)
(-0.0612730989055 0.0759048128079 1.30703842091e-21)
(-0.0601293690208 0.067662191976 9.0114685345e-22)
(-0.0714994034179 0.083619170001 2.12146735801e-21)
(-0.0691595375254 0.075383774095 1.00632278653e-21)
(-0.0831783160989 0.0902405980826 1.80506705225e-21)
(-0.0795769938971 0.0819805469902 1.43417168396e-21)
(-0.0964734115846 0.095550132581 -2.1858365037e-21)
(-0.0912731335831 0.0874353946913 4.39350595664e-22)
(-0.10447121238 0.0912369145712 -1.8880455934e-21)
(-0.0377423440447 0.00512151561081 6.40292839284e-22)
(-0.0382303125655 0.00344978502389 4.65854398954e-21)
(-0.0403269987188 0.010709992347 -1.64545240796e-21)
(-0.0421942155011 0.00717343229655 -1.98920150042e-21)
(-0.0416585728183 0.0165546958919 3.74441863843e-22)
(-0.0438043043474 0.0130015451315 1.08069513613e-22)
(-0.0429319889787 0.0227172177927 8.37728625783e-22)
(-0.0450947607885 0.0189479061014 8.82299573806e-22)
(-0.044570858099 0.0292901431168 4.57861521849e-22)
(-0.0466203236228 0.025041473123 5.03576146124e-22)
(-0.046887700948 0.0363412290161 3.73440153673e-22)
(-0.0486827423325 0.031471338864 3.24011597331e-22)
(-0.0501492759265 0.0438464076682 2.99654852322e-22)
(-0.0515513104682 0.038299361229 3.35176556197e-22)
(-0.0547205675846 0.0517928596938 2.31608564344e-22)
(-0.055438528852 0.045489301856 1.64236490864e-22)
(-0.0609177720297 0.0596888506367 4.82571738386e-22)
(-0.0606909477471 0.0527985555706 2.54290869977e-22)
(-0.0687085803173 0.0670046308927 6.00431219065e-22)
(-0.0674452207797 0.0598296253776 5.56591315784e-22)
(-0.0778797498442 0.0734095608486 3.19027112483e-22)
(-0.0755645799496 0.0662091637081 4.34307785829e-22)
(-0.0882508499025 0.0786599479634 6.84552273826e-23)
(-0.0848275999612 0.071639076533 2.24962682846e-22)
(-0.0998075270356 0.0824622486002 7.37141505963e-22)
(-0.0950758299662 0.0759322883077 -2.93006434405e-22)
(-0.10647450195 0.0787795371921 3.95343732707e-22)
(-0.0429710612202 0.00483399009313 2.02904964983e-21)
(-0.0430642561214 0.00322863295314 4.29036992018e-21)
(-0.0458835753521 0.0100721428366 -2.35679578843e-22)
(-0.0474323176927 0.00671486655336 -1.42660804843e-21)
(-0.0474579359473 0.0155118547552 6.15927223576e-22)
(-0.0492439685417 0.0121153483972 3.15663073887e-22)
(-0.0490223519704 0.0211694788268 5.48147094147e-22)
(-0.0507523438991 0.0175731992395 7.77857582162e-22)
(-0.0510008230097 0.0270906798154 3.69726221605e-22)
(-0.0525414937316 0.0230832728429 4.12298432396e-22)
(-0.0536542490181 0.0332972688544 2.85747999855e-22)
(-0.0548893145627 0.0287832145139 2.49403727419e-22)
(-0.0571934415509 0.0397487102794 1.99758194739e-22)
(-0.0580027542269 0.0347060137718 2.2142977315e-22)
(-0.0618293851316 0.0463572827256 1.86918796497e-22)
(-0.062047129281 0.0407804747915 1.15560246654e-22)
(-0.0677215407099 0.0528553900003 3.28310447375e-22)
(-0.0671891174377 0.0468370053408 2.04487535808e-22)
(-0.0748613516584 0.0589127555163 3.90467882548e-22)
(-0.0735026938574 0.0526304613901 3.4594971404e-22)
(-0.0830958652618 0.0642612958385 3.40243356192e-22)
(-0.0809132856587 0.0579112329945 2.25952480325e-22)
(-0.0922023215768 0.0686562379026 -1.36498978941e-22)
(-0.0892228341397 0.0624527557927 1.69329297767e-22)
(-0.101995258695 0.0716989464038 -6.34804207661e-22)
(-0.0981190081353 0.0660820350107 -4.27426030115e-22)
(-0.107352449855 0.0684956664996 -8.36603816868e-22)
(-0.0478338354829 0.00448737184437 8.34712221918e-22)
(-0.0475515620074 0.00297751087721 2.2374184792e-21)
(-0.0510159534966 0.00930982264622 -8.75265395698e-22)
(-0.0522546997789 0.0061825026956 -2.32737081445e-21)
(-0.052762144096 0.0142835836923 4.77593432473e-22)
(-0.0542176625809 0.0111025640801 -3.49682638525e-22)
(-0.0545095906698 0.0193940754457 6.4200892041e-22)
(-0.0558627736957 0.0160284633079 6.27320563439e-22)
(-0.0566862811468 0.0246570372809 2.9197593821e-22)
(-0.0578044025877 0.0209375361295 3.18374672758e-22)
(-0.0595165439232 0.0300698718751 1.85085500715e-22)
(-0.0603021106997 0.0259318794722 1.69560279376e-22)
(-0.0631604510043 0.0355861600172 1.37231825065e-22)
(-0.0635190258574 0.0310262883785 1.54226400707e-22)
(-0.0677475999399 0.0411132074588 1.33128985965e-22)
(-0.0675741915267 0.036148043742 8.98446524784e-23)
(-0.0733615034669 0.0464835864957 2.22126802473e-22)
(-0.0725595534713 0.0411729490244 1.42879985656e-22)
(-0.0799948038598 0.0514947073868 1.81434311817e-22)
(-0.0785139243614 0.0459432709287 1.59719517484e-22)
(-0.0875364844001 0.0559770254615 5.50384218995e-23)
(-0.0853957753637 0.0503017065997 -1.47178335299e-23)
(-0.0957564384887 0.0598342071195 -1.21597753407e-22)
(-0.0930803128817 0.0541187638309 2.00449169903e-23)
(-0.104265707769 0.06302509167 -6.29225639322e-22)
(-0.101310349466 0.0573576588702 -1.43729543285e-22)
(-0.109522605918 0.0599774149746 1.29516716869e-22)
(-0.0522840547337 0.00410168608236 -9.24664557168e-22)
(-0.0516531722071 0.00270458979318 6.4050931532e-22)
(-0.055679001865 0.00846977061276 -1.80178805728e-21)
(-0.0566227066582 0.00560423081968 -2.7535103116e-21)
(-0.057537692833 0.0129436364176 -1.99955507558e-22)
(-0.0586914492317 0.0100137531966 -5.60667386293e-22)
(-0.0593856455868 0.0174902532366 3.03686315787e-22)
(-0.0604093112593 0.0143893694385 3.9258840509e-22)
(-0.0616587475806 0.0221072677137 1.95959013925e-22)
(-0.0624213412577 0.0186999408951 2.63181681616e-22)
(-0.0645553989465 0.0267791560215 1.38701179368e-22)
(-0.0649739326356 0.023021742713 1.63087332904e-22)
(-0.068197762361 0.0314595091207 1.0683922812e-22)
(-0.0681993310928 0.0273580669069 1.53502977478e-22)
(-0.0726704696926 0.036068358087 9.95956521697e-23)
(-0.0721830227033 0.0316433689934 1.05104339576e-22)
(-0.0780223721378 0.0404909514375 8.04727006662e-23)
(-0.07698218071 0.0357835978512 1.4605842846e-22)
(-0.0842519218843 0.0445988412556 -3.64326278635e-23)
(-0.0826219015827 0.0396708305711 8.61453187504e-23)
(-0.0913005930564 0.0482887250502 -4.97113384391e-23)
(-0.0890858049453 0.0432031851525 -2.90789644699e-23)
(-0.0990441542573 0.0515264065249 -2.08687288763e-24)
(-0.0963182516282 0.0463134741813 3.27831782335e-23)
(-0.107265346557 0.0544353545973 6.15012812905e-22)
(-0.104219687027 0.0490535117559 2.56569540595e-22)
(-0.112688106132 0.0516571696174 9.68977658951e-22)
(-0.0562953618469 0.00369071447969 -1.18833643912e-21)
(-0.0553438105043 0.00241744083606 3.56116986912e-22)
(-0.0598501599635 0.0075852416655 -1.51238964062e-21)
(-0.0605171526073 0.00500111907398 -1.2972998622e-21)
(-0.061772375372 0.0115456741304 3.18765263555e-23)
(-0.0626517925324 0.00888732500686 -6.26268760943e-23)
(-0.0636586783267 0.0155292654313 3.52083770919e-22)
(-0.0643928050956 0.012712164335 5.39338005608e-22)
(-0.0659552924813 0.019523166466 2.30310000595e-22)
(-0.0664151394933 0.0164392614896 2.86051152422e-22)
(-0.0688421695554 0.0235050622976 1.77889131014e-22)
(-0.0689557275306 0.0201251858268 1.68533802449e-22)
(-0.0724150021354 0.027430406254 1.51768088933e-22)
(-0.0721245867544 0.0237652885792 1.50855733946e-22)
(-0.0767327272566 0.0312325139678 1.51567115866e-22)
(-0.0759850776713 0.027301423987 7.76082763435e-23)
(-0.0818285628365 0.0348266802533 1.51731046544e-22)
(-0.0805763353745 0.0306589574572 1.46856935136e-22)
(-0.0877082874962 0.0381230406024 9.34989821439e-23)
(-0.0859183010624 0.0337579198202 1.65287647762e-22)
(-0.0943533722281 0.0410471576435 5.34155522026e-23)
(-0.0920100166103 0.0365236487496 2.91830175696e-24)
(-0.1017421468 0.043571310075 2.91439591716e-22)
(-0.0988425979079 0.0389026771628 7.37081183609e-23)
(-0.109934337771 0.0458030771392 6.10534386641e-22)
(-0.106451751183 0.0409008450631 1.62025953098e-22)
(-0.11511059963 0.0426679153028 1.32423431643e-22)
(-0.0598552126922 0.00326747540392 2.47153563831e-22)
(-0.0635225807981 0.00668348266926 1.52462902324e-22)
(-0.0654687075473 0.0101312032116 4.44834603158e-22)
(-0.0673469805573 0.0135642886643 4.73305387112e-22)
(-0.0696146523931 0.0169638006236 2.24274954277e-22)
(-0.0724382274843 0.0203034868188 1.41500405381e-22)
(-0.0758950607712 0.0235406851058 7.66959213561e-23)
(-0.0800288051348 0.0266178556957 7.28980956142e-23)
(-0.0848649853319 0.0294682622067 1.60413536354e-22)
(-0.083426673846 0.0257999401043 1.07021142349e-22)
(-0.0904130908074 0.0320225842622 7.47069673745e-23)
(-0.0884726098831 0.0281825400205 1.61736000775e-22)
(-0.0966696007805 0.0342175664815 2.32108679152e-23)
(-0.0942050347806 0.0302366469715 2.29996240468e-23)
(-0.103639984099 0.0359917841275 -5.57055202568e-23)
(-0.100616933486 0.0319068688753 9.72211407493e-23)
(-0.111435777143 0.0372547791939 -3.160850019e-22)
(-0.107714945003 0.03311940865 -1.36344662825e-22)
(-0.11568687302 0.0337594043907 -6.21396891277e-22)
(-0.087198433129 0.024410463519 1.0834360677e-22)
(-0.0924210129813 0.0262830880622 1.10028657447e-22)
(-0.0982973872233 0.0278057146973 9.70098968809e-23)
(-0.104809132616 0.0289312347636 1.65819981814e-23)
(-0.101742496339 0.0253545777314 8.44937017649e-23)
(-0.111914501217 0.029561891484 -4.41656552203e-22)
(-0.108345705355 0.0259529347102 -8.96029086824e-23)
(-0.115319595824 0.0260180386666 -4.97344469343e-22)
(-0.105436090336 0.0223090968573 -2.1691205099e-23)
(-0.112115758706 0.0225203557243 -1.45290825823e-22)
(-0.115415863373 0.0189612989021 4.69788084851e-22)
)
;

boundaryField
{
    back
    {
        type            calculated;
        value           uniform (0 0 0);
    }
    sides
    {
        type            calculated;
        value           nonuniform List<vector> 0();
    }
    bottom
    {
        type            calculated;
        value           uniform (0 0 0);
    }
    front
    {
        type            calculated;
        value           uniform (0 0 0);
    }
    atmosphere
    {
        type            calculated;
        value           nonuniform List<vector> 0();
    }
    floatingObject
    {
        type            calculated;
        value           nonuniform List<vector> 4((0 -4.4408920985e-15 5.55111512313e-16) (0 -4.4408920985e-15 5.55111512313e-16) (0 0 0) (0 -8.881784197e-15 5.55111512313e-16));
    }
    procBoundary8to3
    {
        type            processor;
        value           nonuniform List<vector> 8((-0.00748298277261 0.00313107313787 2.99918116952e-21) (-0.00836316518031 0.00598105537498 1.83262533096e-21) (-0.00798410502311 0.0112591514902 1.13633981517e-21) (-0.00631785284758 0.0161388122247 6.01938679441e-21) (-0.0030621429901 0.020724367187 4.78725914545e-20) (0.00219577951542 0.0257110642556 3.06807907058e-19) (0.00907695583723 0.0270410259723 1.45935087951e-18) (0.0219375814426 0.0355631647142 6.54157184715e-18));
    }
    procBoundary8to6
    {
        type            processor;
        value           nonuniform List<vector> 
16
(
(-0.0528548152051 0.11428912627 1.51730461808e-17)
(-0.0738945869236 0.116083310601 6.66965810603e-18)
(-0.0870641168744 0.152238930783 5.0786505037e-18)
(-0.0942971642872 0.151348292133 4.09020111034e-19)
(-0.104766866038 0.132898131078 -1.28325609724e-19)
(-0.108232216244 0.115083019878 2.80790890723e-20)
(-0.11131250019 0.0989246386205 -1.74422328827e-21)
(-0.112451614837 0.084465041075 -4.45569424127e-22)
(-0.112401225191 0.0725763361744 2.95606482341e-22)
(-0.11277189149 0.0651947176906 -9.73185995379e-22)
(-0.115427886067 0.0576004071976 -5.53249009159e-21)
(-0.119169048225 0.0482252288336 2.93294678703e-21)
(-0.120502710112 0.0378308157587 -2.18481388545e-21)
(-0.119644023793 0.0291944885929 -2.15805030815e-21)
(-0.119054812243 0.0226166157239 -4.30041658258e-21)
(-0.119283564056 0.0149608000714 8.75115739536e-22)
)
;
    }
    procBoundary8to7
    {
        type            processor;
        value           nonuniform List<vector> 
17
(
(-0.0586112195816 0.00212410046903 6.30235846689e-23)
(-0.0639330869908 0.00439108921955 -1.07733995913e-21)
(-0.0660994281031 0.00775430808735 -5.18286804934e-24)
(-0.0678257915546 0.0110402638708 4.18394924588e-22)
(-0.0698145410959 0.0142067650731 2.0936733316e-22)
(-0.0722952986435 0.0172946679487 1.03582783395e-22)
(-0.0753616676789 0.0202929519136 8.90301955984e-23)
(-0.0790621497908 0.0231488799806 3.15442328097e-23)
(-0.0826299858771 0.0222381636226 6.56672795445e-23)
(-0.0855988212536 0.0212135408694 6.17478090087e-23)
(-0.0903451705716 0.0229375644881 6.18974677251e-23)
(-0.095727647452 0.0243315971525 -2.46741780531e-23)
(-0.0992982201757 0.0217799528195 -3.71903731691e-23)
(-0.10227158666 0.0191852736503 1.52233635288e-22)
(-0.108556995007 0.019215744519 -2.21884100341e-22)
(-0.111973525497 0.0155121191384 3.93194810332e-22)
(-0.114864517419 0.0116801719658 6.21544941011e-22)
)
;
    }
}


// ************************************************************************* //
