/*--------------------------------*- C++ -*----------------------------------*\
| =========                 |                                                 |
| \\      /  F ield         | OpenFOAM: The Open Source CFD Toolbox           |
|  \\    /   O peration     | Version:  v2012                                 |
|   \\  /    A nd           | Website:  www.openfoam.com                      |
|    \\/     M anipulation  |                                                 |
\*---------------------------------------------------------------------------*/
FoamFile
{
    version     2.0;
    format      ascii;
    class       volScalarField;
    location    "0.8";
    object      ddt0(epsilon);
}
// * * * * * * * * * * * * * * * * * * * * * * * * * * * * * * * * * * * * * //

dimensions      [0 2 -4 0 0 0 0];


internalField   nonuniform List<scalar> 
164
(
-0.0641292434802
-0.0612901546167
-0.0632771398725
-0.0633706440244
-0.0633398269339
-0.0633754544262
-0.0634530512464
-0.0635555412385
-0.0640767956109
-0.0612699386603
-0.0632111885407
-0.063290522748
-0.0632553699987
-0.0632826703662
-0.0633465113892
-0.0634308743611
-0.063532172903
-0.0636507185079
-0.0637877022735
-0.0640151149091
-0.0612252750137
-0.0631290847935
-0.0632002815868
-0.0631627447348
-0.0631826383406
-0.063233915793
-0.0633017383059
-0.0633827613846
-0.0634770116627
-0.063585175324
-0.0637073232448
-0.0638404058578
-0.0639497083338
-0.0611581770964
-0.0630335807816
-0.0631026302557
-0.0630644636602
-0.0630778300293
-0.0631177388039
-0.0631705842123
-0.063233356739
-0.0633057673196
-0.0633880100535
-0.063478972426
-0.0635739023589
-0.0636700142746
-0.0638853503368
-0.0610706286146
-0.0629274916344
-0.063000104082
-0.0629628701084
-0.0629705268478
-0.0630002110571
-0.0630396825093
-0.0630861759296
-0.0631391668566
-0.0631984059515
-0.0632618544368
-0.063322742721
-0.0633727472576
-0.0638263688479
-0.0609645704458
-0.0628133502205
-0.0628949715096
-0.0628600912991
-0.0628628260099
-0.062883416492
-0.0629110463682
-0.0629432008795
-0.0629791070994
-0.0630180478412
-0.0630575371643
-0.0630885034539
-0.0630974904575
-0.0637771008201
-0.0608423996442
-0.0626938300551
-0.0627893020456
-0.0627579932692
-0.0627565254683
-0.0627690847534
-0.0627863511625
-0.0628060392988
-0.0628274619724
-0.0628495779144
-0.0628676200718
-0.0628654997805
-0.0628080763695
-0.0637414956262
-0.0607027801221
-0.062573233598
-0.062684704503
-0.0626582684705
-0.0626533870256
-0.0626583966436
-0.0626661023794
-0.0626741290709
-0.0626816712976
-0.062687140361
-0.0626851878345
-0.0626536762734
-0.0625118598025
-0.0636627910363
-0.0605749989763
-0.0624637966132
-0.0625885880974
-0.0625629874311
-0.0625536155733
-0.0625523308165
-0.0625520212763
-0.0625506251645
-0.0625471212005
-0.0625396452296
-0.0625212173699
-0.0624605446768
-0.0622362330789
-0.0635306607473
-0.0604778199435
-0.0623724953917
-0.0625004830144
-0.0624732373789
-0.0624596907415
-0.0624528035703
-0.0624457250687
-0.0624363990188
-0.0624237048398
-0.0624055034005
-0.0623732091376
-0.0622867113508
-0.0619853640535
-0.060991427502
-0.0584391707328
-0.0633968695664
-0.0603845881938
-0.0622865252286
-0.0624177551712
-0.0623892745704
-0.0623722266607
-0.0623606226173
-0.0623478735803
-0.0623319480444
-0.0623116792303
-0.0622847018978
-0.0622409776571
-0.0621324039299
-0.061762281893
-0.0605223965924
-0.0571817479865
-0.0632649349226
-0.0602958398084
-0.0622064189863
-0.0623411771486
-0.0623118323004
-0.0622918681184
-0.062276321468
-0.0622588633531
-0.0622375050072
-0.0622110677521
-0.0621770197031
-0.0621241073785
-0.0619973745291
-0.0615685604191
-0.0601123386208
-0.0560605314999
)
;

boundaryField
{
    back
    {
        type            calculated;
        value           nonuniform List<scalar> 
164
(
-0.0641292434802
-0.0612901546167
-0.0632771398725
-0.0633706440244
-0.0633398269339
-0.0633754544262
-0.0634530512464
-0.0635555412385
-0.0640767956109
-0.0612699386603
-0.0632111885407
-0.063290522748
-0.0632553699987
-0.0632826703662
-0.0633465113892
-0.0634308743611
-0.063532172903
-0.0636507185079
-0.0637877022735
-0.0640151149091
-0.0612252750137
-0.0631290847935
-0.0632002815868
-0.0631627447348
-0.0631826383406
-0.063233915793
-0.0633017383059
-0.0633827613846
-0.0634770116627
-0.063585175324
-0.0637073232448
-0.0638404058578
-0.0639497083338
-0.0611581770964
-0.0630335807816
-0.0631026302557
-0.0630644636602
-0.0630778300293
-0.0631177388039
-0.0631705842123
-0.063233356739
-0.0633057673196
-0.0633880100535
-0.063478972426
-0.0635739023589
-0.0636700142746
-0.0638853503368
-0.0610706286146
-0.0629274916344
-0.063000104082
-0.0629628701084
-0.0629705268478
-0.0630002110571
-0.0630396825093
-0.0630861759296
-0.0631391668566
-0.0631984059515
-0.0632618544368
-0.0633227427209
-0.0633727472576
-0.0638263688479
-0.0609645704458
-0.0628133502205
-0.0628949715096
-0.0628600912991
-0.0628628260099
-0.062883416492
-0.0629110463682
-0.0629432008795
-0.0629791070994
-0.0630180478412
-0.0630575371643
-0.0630885034539
-0.0630974904575
-0.0637771008201
-0.0608423996442
-0.0626938300551
-0.0627893020456
-0.0627579932692
-0.0627565254683
-0.0627690847534
-0.0627863511625
-0.0628060392988
-0.0628274619724
-0.0628495779144
-0.0628676200718
-0.0628654997805
-0.0628080763695
-0.0637414956262
-0.0607027801221
-0.062573233598
-0.062684704503
-0.0626582684705
-0.0626533870256
-0.0626583966436
-0.0626661023794
-0.0626741290709
-0.0626816712976
-0.062687140361
-0.0626851878345
-0.0626536762734
-0.0625118598025
-0.0636627910363
-0.0605749989763
-0.0624637966132
-0.0625885880974
-0.0625629874311
-0.0625536155733
-0.0625523308165
-0.0625520212763
-0.0625506251645
-0.0625471212005
-0.0625396452296
-0.0625212173699
-0.0624605446768
-0.0622362330789
-0.0635306607473
-0.0604778199435
-0.0623724953917
-0.0625004830144
-0.0624732373789
-0.0624596907415
-0.0624528035703
-0.0624457250687
-0.0624363990188
-0.0624237048398
-0.0624055034005
-0.0623732091376
-0.0622867113508
-0.0619853640535
-0.060991427502
-0.0584391707328
-0.0633968695664
-0.0603845881938
-0.0622865252286
-0.0624177551712
-0.0623892745704
-0.0623722266607
-0.0623606226173
-0.0623478735803
-0.0623319480444
-0.0623116792303
-0.0622847018978
-0.0622409776571
-0.0621324039299
-0.061762281893
-0.0605223965924
-0.0571817479865
-0.0632649349226
-0.0602958398084
-0.0622064189863
-0.0623411771486
-0.0623118323004
-0.0622918681184
-0.062276321468
-0.0622588633531
-0.0622375050072
-0.0622110677521
-0.0621770197031
-0.0621241073785
-0.0619973745291
-0.0615685604191
-0.0601123386208
-0.0560605314999
)
;
    }
    sides
    {
        type            calculated;
        value           nonuniform List<scalar> 0();
    }
    bottom
    {
        type            calculated;
        value           nonuniform List<scalar> 
12
(
-0.0641292434802
-0.0640767956109
-0.0640151149091
-0.0639497083338
-0.0638853503368
-0.0638263688479
-0.0637771008201
-0.0637414956262
-0.0636627910363
-0.0635306607473
-0.0633968695664
-0.0632649349226
)
;
    }
    front
    {
        type            calculated;
        value           nonuniform List<scalar> 
164
(
-0.0641292434802
-0.0612901546167
-0.0632771398725
-0.0633706440244
-0.0633398269339
-0.0633754544262
-0.0634530512464
-0.0635555412385
-0.0640767956109
-0.0612699386603
-0.0632111885407
-0.063290522748
-0.0632553699987
-0.0632826703662
-0.0633465113892
-0.0634308743611
-0.063532172903
-0.0636507185079
-0.0637877022735
-0.0640151149091
-0.0612252750137
-0.0631290847935
-0.0632002815868
-0.0631627447348
-0.0631826383406
-0.063233915793
-0.0633017383059
-0.0633827613846
-0.0634770116627
-0.063585175324
-0.0637073232448
-0.0638404058578
-0.0639497083338
-0.0611581770964
-0.0630335807816
-0.0631026302557
-0.0630644636602
-0.0630778300293
-0.0631177388039
-0.0631705842123
-0.063233356739
-0.0633057673196
-0.0633880100535
-0.063478972426
-0.0635739023589
-0.0636700142746
-0.0638853503368
-0.0610706286146
-0.0629274916344
-0.063000104082
-0.0629628701084
-0.0629705268478
-0.0630002110571
-0.0630396825093
-0.0630861759296
-0.0631391668566
-0.0631984059515
-0.0632618544368
-0.0633227427209
-0.0633727472576
-0.0638263688479
-0.0609645704458
-0.0628133502205
-0.0628949715096
-0.0628600912991
-0.0628628260099
-0.062883416492
-0.0629110463682
-0.0629432008795
-0.0629791070994
-0.0630180478412
-0.0630575371643
-0.0630885034539
-0.0630974904575
-0.0637771008201
-0.0608423996442
-0.0626938300551
-0.0627893020456
-0.0627579932692
-0.0627565254683
-0.0627690847534
-0.0627863511625
-0.0628060392988
-0.0628274619724
-0.0628495779144
-0.0628676200718
-0.0628654997805
-0.0628080763695
-0.0637414956262
-0.0607027801221
-0.062573233598
-0.062684704503
-0.0626582684705
-0.0626533870256
-0.0626583966436
-0.0626661023794
-0.0626741290709
-0.0626816712976
-0.062687140361
-0.0626851878345
-0.0626536762734
-0.0625118598025
-0.0636627910363
-0.0605749989763
-0.0624637966132
-0.0625885880974
-0.0625629874311
-0.0625536155733
-0.0625523308165
-0.0625520212763
-0.0625506251645
-0.0625471212005
-0.0625396452296
-0.0625212173699
-0.0624605446768
-0.0622362330789
-0.0635306607473
-0.0604778199435
-0.0623724953917
-0.0625004830144
-0.0624732373789
-0.0624596907415
-0.0624528035703
-0.0624457250687
-0.0624363990188
-0.0624237048398
-0.0624055034005
-0.0623732091376
-0.0622867113508
-0.0619853640535
-0.060991427502
-0.0584391707328
-0.0633968695664
-0.0603845881938
-0.0622865252286
-0.0624177551712
-0.0623892745704
-0.0623722266607
-0.0623606226173
-0.0623478735803
-0.0623319480444
-0.0623116792303
-0.0622847018978
-0.0622409776571
-0.0621324039299
-0.061762281893
-0.0605223965924
-0.0571817479865
-0.0632649349226
-0.0602958398084
-0.0622064189863
-0.0623411771486
-0.0623118323004
-0.0622918681184
-0.062276321468
-0.0622588633531
-0.0622375050072
-0.0622110677521
-0.0621770197031
-0.0621241073785
-0.0619973745291
-0.0615685604191
-0.0601123386208
-0.0560605314999
)
;
    }
    atmosphere
    {
        type            calculated;
        value           nonuniform List<scalar> 0();
    }
    floatingObject
    {
        type            calculated;
        value           nonuniform List<scalar> 0();
    }
    procBoundary7to6
    {
        type            processor;
        value           nonuniform List<scalar> 
11
(
-0.0638787603864
-0.0635093358152
-0.0631828346665
-0.0626403405475
-0.0620661435957
-0.0615106890331
-0.0615106890331
-0.0598037375497
-0.0542549620489
-0.0509269908533
-0.0478903772488
)
;
    }
    procBoundary7to8
    {
        type            processor;
        value           nonuniform List<scalar> 
17
(
-0.0641669149076
-0.0612852676991
-0.0633248378539
-0.0634382374305
-0.063413733799
-0.0634585083559
-0.063550906849
-0.0636731271427
-0.0636789861284
-0.0636789861284
-0.0638240784909
-0.0639926398691
-0.0639442095685
-0.0639442095685
-0.0641192607651
-0.0639863905306
-0.0639863905306
)
;
    }
    procBoundary7to9
    {
        type            processor;
        value           nonuniform List<scalar> 
16
(
-0.0631369037503
-0.0602125405277
-0.0621327774316
-0.0622713272591
-0.0622414539184
-0.0622190913793
-0.0622002794388
-0.0621789445408
-0.0621531540216
-0.0621217429589
-0.0620820750816
-0.0620219592894
-0.0618808973756
-0.0614042771727
-0.0597654045557
-0.0550929407273
)
;
    }
}


// ************************************************************************* //
