/*--------------------------------*- C++ -*----------------------------------*\
| =========                 |                                                 |
| \\      /  F ield         | OpenFOAM: The Open Source CFD Toolbox           |
|  \\    /   O peration     | Version:  v2012                                 |
|   \\  /    A nd           | Website:  www.openfoam.com                      |
|    \\/     M anipulation  |                                                 |
\*---------------------------------------------------------------------------*/
FoamFile
{
    version     2.0;
    format      ascii;
    class       volScalarField;
    location    "0.8";
    object      ddt0(k);
}
// * * * * * * * * * * * * * * * * * * * * * * * * * * * * * * * * * * * * * //

dimensions      [0 2 -3 0 0 0 0];


internalField   nonuniform List<scalar> 
164
(
-0.0269787910771
-0.031414540971
-0.0318188937417
-0.0317161981028
-0.0316531937293
-0.0316411444707
-0.031649618836
-0.031666479067
-0.0269415082045
-0.0313796728503
-0.0317696981613
-0.0316667134382
-0.0316056548485
-0.0315925940238
-0.0315973917532
-0.031608775448
-0.0316244444886
-0.0316443703018
-0.0316692748713
-0.0269045611729
-0.0313382844572
-0.0317177141225
-0.0316166865265
-0.0315580189377
-0.031544012884
-0.0315453347762
-0.0315515994067
-0.0315606678212
-0.0315725249857
-0.0315875502925
-0.0316056662247
-0.0316242268718
-0.0268696197079
-0.0312910086077
-0.0316638236319
-0.031566941799
-0.0315110314574
-0.0314961525643
-0.0314942458667
-0.0314957963853
-0.0314988968905
-0.031503389083
-0.0315094008971
-0.0315162550108
-0.0315201855299
-0.0315111937437
-0.026838102996
-0.0312384603444
-0.0316089444371
-0.0315182667565
-0.0314654201214
-0.0314497468041
-0.0314448708851
-0.0314421636536
-0.031439890605
-0.0314377829976
-0.0314357364694
-0.0314325716904
-0.0314232227852
-0.0313935450014
-0.0268112886153
-0.0311812391471
-0.0315538810221
-0.0314713527069
-0.031421843387
-0.031405472659
-0.0313979098315
-0.0313914015298
-0.0313843714607
-0.0313764438509
-0.0313672712221
-0.0313553332563
-0.0313340085924
-0.0312845113303
-0.0267904418271
-0.0311200004793
-0.0314995612808
-0.0314268311684
-0.0313808732682
-0.0313639067659
-0.0313539303836
-0.031344064359
-0.0313328782175
-0.0313200172333
-0.0313049533582
-0.0312857738692
-0.0312531957229
-0.0311753480541
-0.0267760066372
-0.0310549573888
-0.0314477270305
-0.0313852488372
-0.031343033612
-0.0313256455786
-0.0313136512995
-0.0313004088627
-0.0312852521639
-0.031267583912
-0.0312465866844
-0.0312193109681
-0.0311724947367
-0.0310542009238
-0.02675329705
-0.030993802253
-0.0314016423037
-0.0313489720927
-0.0313089386503
-0.031290496874
-0.0312762627105
-0.0312606342607
-0.0312423655948
-0.0312209460164
-0.0311954267957
-0.0311619129506
-0.0311021023918
-0.0309419378047
-0.0267042542547
-0.030954109993
-0.0313686115153
-0.0313190492925
-0.0312791072685
-0.0312594641884
-0.0312434335203
-0.0312256071901
-0.0312047279386
-0.0311802366786
-0.0311510258462
-0.0311122800842
-0.0310407503643
-0.0308408211771
-0.0302147238884
-0.0285648485633
-0.0266566713334
-0.0309185242038
-0.03133973667
-0.0312930812171
-0.0312532940246
-0.0312326498468
-0.0312151212853
-0.0311954662027
-0.0311724417694
-0.0311454626256
-0.0311132861004
-0.0310702509314
-0.0309885581529
-0.0307525514295
-0.02999436181
-0.0279332903113
-0.0266119809495
-0.0308867712963
-0.031315019206
-0.0312712353805
-0.0312316723423
-0.0312102023903
-0.0311914292666
-0.0311702683663
-0.0311455022249
-0.031116537085
-0.0310820255025
-0.031035582243
-0.0309454371295
-0.0306781556888
-0.0298023470636
-0.0273670172234
)
;

boundaryField
{
    back
    {
        type            calculated;
        value           nonuniform List<scalar> 
164
(
-0.0269787910771
-0.031414540971
-0.0318188937417
-0.0317161981028
-0.0316531937293
-0.0316411444707
-0.031649618836
-0.031666479067
-0.0269415082045
-0.0313796728503
-0.0317696981613
-0.0316667134382
-0.0316056548485
-0.0315925940238
-0.0315973917532
-0.031608775448
-0.0316244444886
-0.0316443703018
-0.0316692748713
-0.0269045611729
-0.0313382844572
-0.0317177141225
-0.0316166865265
-0.0315580189377
-0.031544012884
-0.0315453347762
-0.0315515994067
-0.0315606678212
-0.0315725249857
-0.0315875502925
-0.0316056662247
-0.0316242268718
-0.0268696197079
-0.0312910086077
-0.0316638236319
-0.031566941799
-0.0315110314574
-0.0314961525643
-0.0314942458667
-0.0314957963853
-0.0314988968905
-0.031503389083
-0.0315094008971
-0.0315162550108
-0.0315201855299
-0.0315111937437
-0.026838102996
-0.0312384603444
-0.0316089444371
-0.0315182667565
-0.0314654201214
-0.0314497468041
-0.0314448708851
-0.0314421636536
-0.031439890605
-0.0314377829976
-0.0314357364694
-0.0314325716904
-0.0314232227852
-0.0313935450014
-0.0268112886153
-0.0311812391471
-0.0315538810221
-0.0314713527069
-0.031421843387
-0.031405472659
-0.0313979098315
-0.0313914015298
-0.0313843714607
-0.0313764438509
-0.0313672712221
-0.0313553332563
-0.0313340085924
-0.0312845113303
-0.0267904418271
-0.0311200004793
-0.0314995612808
-0.0314268311684
-0.0313808732682
-0.0313639067659
-0.0313539303836
-0.031344064359
-0.0313328782175
-0.0313200172333
-0.0313049533582
-0.0312857738692
-0.0312531957229
-0.0311753480541
-0.0267760066372
-0.0310549573888
-0.0314477270305
-0.0313852488372
-0.031343033612
-0.0313256455786
-0.0313136512995
-0.0313004088627
-0.0312852521639
-0.031267583912
-0.0312465866844
-0.0312193109681
-0.0311724947367
-0.0310542009238
-0.02675329705
-0.030993802253
-0.0314016423037
-0.0313489720927
-0.0313089386503
-0.031290496874
-0.0312762627105
-0.0312606342607
-0.0312423655948
-0.0312209460164
-0.0311954267957
-0.0311619129506
-0.0311021023918
-0.0309419378047
-0.0267042542547
-0.030954109993
-0.0313686115153
-0.0313190492925
-0.0312791072685
-0.0312594641884
-0.0312434335203
-0.0312256071901
-0.0312047279386
-0.0311802366786
-0.0311510258462
-0.0311122800842
-0.0310407503643
-0.0308408211771
-0.0302147238884
-0.0285648485633
-0.0266566713334
-0.0309185242038
-0.03133973667
-0.0312930812171
-0.0312532940246
-0.0312326498468
-0.0312151212853
-0.0311954662027
-0.0311724417694
-0.0311454626256
-0.0311132861004
-0.0310702509314
-0.0309885581529
-0.0307525514295
-0.02999436181
-0.0279332903113
-0.0266119809495
-0.0308867712963
-0.031315019206
-0.0312712353805
-0.0312316723423
-0.0312102023903
-0.0311914292666
-0.0311702683663
-0.0311455022249
-0.031116537085
-0.0310820255025
-0.031035582243
-0.0309454371295
-0.0306781556888
-0.0298023470636
-0.0273670172234
)
;
    }
    sides
    {
        type            calculated;
        value           nonuniform List<scalar> 0();
    }
    bottom
    {
        type            calculated;
        value           nonuniform List<scalar> 
12
(
-0.0269787910771
-0.0269415082045
-0.0269045611729
-0.0268696197079
-0.026838102996
-0.0268112886153
-0.0267904418271
-0.0267760066372
-0.02675329705
-0.0267042542547
-0.0266566713334
-0.0266119809495
)
;
    }
    front
    {
        type            calculated;
        value           nonuniform List<scalar> 
164
(
-0.0269787910771
-0.031414540971
-0.0318188937417
-0.0317161981028
-0.0316531937293
-0.0316411444707
-0.031649618836
-0.031666479067
-0.0269415082045
-0.0313796728503
-0.0317696981613
-0.0316667134382
-0.0316056548485
-0.0315925940238
-0.0315973917532
-0.031608775448
-0.0316244444886
-0.0316443703018
-0.0316692748713
-0.0269045611729
-0.0313382844572
-0.0317177141225
-0.0316166865265
-0.0315580189377
-0.031544012884
-0.0315453347762
-0.0315515994067
-0.0315606678212
-0.0315725249857
-0.0315875502925
-0.0316056662247
-0.0316242268718
-0.0268696197079
-0.0312910086077
-0.0316638236319
-0.031566941799
-0.0315110314574
-0.0314961525643
-0.0314942458667
-0.0314957963853
-0.0314988968905
-0.031503389083
-0.0315094008971
-0.0315162550108
-0.0315201855299
-0.0315111937437
-0.026838102996
-0.0312384603444
-0.0316089444371
-0.0315182667565
-0.0314654201214
-0.0314497468041
-0.0314448708851
-0.0314421636536
-0.031439890605
-0.0314377829976
-0.0314357364694
-0.0314325716904
-0.0314232227852
-0.0313935450014
-0.0268112886153
-0.0311812391471
-0.0315538810221
-0.0314713527069
-0.031421843387
-0.031405472659
-0.0313979098315
-0.0313914015298
-0.0313843714607
-0.0313764438509
-0.0313672712221
-0.0313553332563
-0.0313340085924
-0.0312845113303
-0.0267904418271
-0.0311200004793
-0.0314995612808
-0.0314268311684
-0.0313808732682
-0.0313639067659
-0.0313539303836
-0.031344064359
-0.0313328782175
-0.0313200172333
-0.0313049533582
-0.0312857738692
-0.0312531957229
-0.0311753480541
-0.0267760066372
-0.0310549573888
-0.0314477270305
-0.0313852488372
-0.031343033612
-0.0313256455786
-0.0313136512995
-0.0313004088627
-0.0312852521639
-0.031267583912
-0.0312465866844
-0.0312193109681
-0.0311724947367
-0.0310542009238
-0.02675329705
-0.030993802253
-0.0314016423037
-0.0313489720927
-0.0313089386503
-0.031290496874
-0.0312762627105
-0.0312606342607
-0.0312423655948
-0.0312209460164
-0.0311954267957
-0.0311619129506
-0.0311021023918
-0.0309419378047
-0.0267042542547
-0.030954109993
-0.0313686115153
-0.0313190492925
-0.0312791072685
-0.0312594641884
-0.0312434335203
-0.0312256071901
-0.0312047279386
-0.0311802366786
-0.0311510258462
-0.0311122800842
-0.0310407503643
-0.0308408211771
-0.0302147238884
-0.0285648485633
-0.0266566713334
-0.0309185242038
-0.03133973667
-0.0312930812171
-0.0312532940246
-0.0312326498468
-0.0312151212853
-0.0311954662027
-0.0311724417694
-0.0311454626256
-0.0311132861004
-0.0310702509314
-0.0309885581529
-0.0307525514295
-0.02999436181
-0.0279332903113
-0.0266119809495
-0.0308867712963
-0.031315019206
-0.0312712353805
-0.0312316723423
-0.0312102023903
-0.0311914292666
-0.0311702683663
-0.0311455022249
-0.031116537085
-0.0310820255025
-0.031035582243
-0.0309454371295
-0.0306781556888
-0.0298023470636
-0.0273670172234
)
;
    }
    atmosphere
    {
        type            calculated;
        value           nonuniform List<scalar> 0();
    }
    floatingObject
    {
        type            calculated;
        value           nonuniform List<scalar> 0();
    }
    procBoundary7to6
    {
        type            processor;
        value           nonuniform List<scalar> 
11
(
-0.031501499833
-0.0313442675489
-0.0311978293085
-0.0309832844805
-0.0307174614662
-0.0304583010096
-0.0304583010096
-0.0292454861435
-0.0255936186473
-0.0239705165683
-0.0224825609023
)
;
    }
    procBoundary7to8
    {
        type            processor;
        value           nonuniform List<scalar> 
17
(
-0.0270147015476
-0.0314427759783
-0.0318646003799
-0.0317643214999
-0.0316997952513
-0.0316887152463
-0.0317009851643
-0.0317236617284
-0.0316891227607
-0.0316891227607
-0.0317177123033
-0.0317533090497
-0.0316996249246
-0.0316996249246
-0.0317338681159
-0.0316366856985
-0.0316366856985
)
;
    }
    procBoundary7to9
    {
        type            processor;
        value           nonuniform List<scalar> 
16
(
-0.0265707865534
-0.030859090329
-0.0312945573068
-0.0312536150979
-0.0312143340381
-0.0311921861276
-0.0311723802426
-0.031149983485
-0.031123811813
-0.0310932769247
-0.0310569613485
-0.0310079030726
-0.0309110494974
-0.030617896636
-0.0296414643217
-0.0268760459601
)
;
    }
}


// ************************************************************************* //
