/*--------------------------------*- C++ -*----------------------------------*\
| =========                 |                                                 |
| \\      /  F ield         | OpenFOAM: The Open Source CFD Toolbox           |
|  \\    /   O peration     | Version:  v2012                                 |
|   \\  /    A nd           | Website:  www.openfoam.com                      |
|    \\/     M anipulation  |                                                 |
\*---------------------------------------------------------------------------*/
FoamFile
{
    version     2.0;
    format      ascii;
    class       volScalarField;
    location    "0.8";
    object      epsilon_0;
}
// * * * * * * * * * * * * * * * * * * * * * * * * * * * * * * * * * * * * * //

dimensions      [0 2 -3 0 0 0 0];


internalField   nonuniform List<scalar> 
164
(
0.0321358377083
0.0317274774182
0.0336781894139
0.0341780361917
0.0343358633405
0.0344360582383
0.0345397248946
0.0346582504624
0.0321914524743
0.0318060979405
0.0337313774128
0.034208690559
0.034352802581
0.0344426420369
0.0345358253177
0.0346425686777
0.0347644407476
0.0349016212597
0.0350542174072
0.0322310307761
0.031866120553
0.0337668804215
0.0342239980324
0.0343561294614
0.0344368788861
0.0345207547374
0.0346169762563
0.0347268918274
0.0348506712311
0.0349884522543
0.0351408910664
0.0353125276061
0.0322567350869
0.0319086139496
0.0337861625315
0.0342255607673
0.0343473638101
0.0344201742556
0.0344958072163
0.0345826522167
0.0346818917227
0.0347936782242
0.0349181609434
0.0350560869467
0.0352128152717
0.035420980489
0.032270613207
0.0319347218835
0.0337907524581
0.0342149419913
0.0343279667065
0.0343938709799
0.034462211779
0.0345407216428
0.0346304434898
0.0347315177879
0.0348440766552
0.0349690031291
0.0351125095766
0.0353120483976
0.0322746115655
0.031945650701
0.0337821390243
0.0341936225296
0.0342993086005
0.0343592366202
0.0344211423706
0.0344922545135
0.0345735115092
0.0346650373802
0.0347669447845
0.0348802659323
0.0350121768441
0.0352053584607
0.0322705877938
0.0319426727998
0.0337618450236
0.0341630018299
0.0342626611897
0.0343174479827
0.0343736899879
0.0344382551735
0.0345120066765
0.034595045125
0.0346875009246
0.0347905361157
0.0349124269666
0.0351013589491
0.0322602711503
0.0319267738993
0.0337312284224
0.0341243390468
0.0342191872467
0.0342695887962
0.0343208725837
0.0343796624438
0.0344467677886
0.0345222552131
0.0346062556943
0.0347000798171
0.0348129968361
0.0349976220774
0.0322451685503
0.0318988628421
0.0336916039844
0.0340788263243
0.0341699322701
0.0342165916613
0.0342635194348
0.0343172111127
0.0343784398722
0.0344472590029
0.0345237953771
0.034609478378
0.0347143155562
0.0348941447913
0.032220061622
0.0318632954038
0.0336458239305
0.0340280665177
0.0341159512593
0.0341593509796
0.0342024752972
0.0342517085424
0.0343077932018
0.0343707653761
0.0344407461078
0.0345192433399
0.0346167575865
0.0347911906895
0.0353022958055
0.0370868911231
0.032185127573
0.0318217895023
0.0335951296504
0.0339730028155
0.0340580931649
0.0340986700844
0.0341384973149
0.0341838604701
0.0342354731516
0.0342933532798
0.0343576118587
0.0344297958551
0.0345206632609
0.0346891156732
0.0351980464987
0.0369939630418
0.0321416174389
0.0317752575833
0.0335403681619
0.0339144208589
0.0339971068308
0.0340352625747
0.0340722582669
0.0341142915054
0.0341620484764
0.0342155285897
0.0342748282718
0.0343414968024
0.0344263406294
0.0345883345262
0.0350903036045
0.0368799679794
)
;

boundaryField
{
    back
    {
        lowReCorrection 0;
        blending        stepwise;
        n               2;
        type            epsilonWallFunction;
        value           nonuniform List<scalar> 
164
(
0.0321358377083
0.0317274774182
0.0336781894139
0.0341780361917
0.0343358633405
0.0344360582383
0.0345397248946
0.0346582504624
0.0321914524743
0.0318060979405
0.0337313774128
0.034208690559
0.034352802581
0.0344426420369
0.0345358253177
0.0346425686777
0.0347644407476
0.0349016212597
0.0350542174072
0.0322310307761
0.031866120553
0.0337668804215
0.0342239980324
0.0343561294614
0.0344368788861
0.0345207547374
0.0346169762563
0.0347268918274
0.0348506712311
0.0349884522543
0.0351408910664
0.0353125276061
0.0322567350869
0.0319086139496
0.0337861625315
0.0342255607673
0.0343473638101
0.0344201742556
0.0344958072163
0.0345826522167
0.0346818917227
0.0347936782242
0.0349181609434
0.0350560869467
0.0352128152717
0.035420980489
0.032270613207
0.0319347218835
0.0337907524581
0.0342149419913
0.0343279667065
0.0343938709799
0.034462211779
0.0345407216428
0.0346304434898
0.0347315177879
0.0348440766552
0.0349690031291
0.0351125095766
0.0353120483976
0.0322746115655
0.031945650701
0.0337821390243
0.0341936225296
0.0342993086005
0.0343592366202
0.0344211423706
0.0344922545135
0.0345735115092
0.0346650373802
0.0347669447845
0.0348802659323
0.0350121768441
0.0352053584607
0.0322705877938
0.0319426727998
0.0337618450236
0.0341630018299
0.0342626611897
0.0343174479827
0.0343736899879
0.0344382551735
0.0345120066765
0.034595045125
0.0346875009246
0.0347905361157
0.0349124269666
0.0351013589491
0.0322602711503
0.0319267738993
0.0337312284224
0.0341243390468
0.0342191872467
0.0342695887962
0.0343208725837
0.0343796624438
0.0344467677886
0.0345222552131
0.0346062556943
0.0347000798171
0.0348129968361
0.0349976220774
0.0322451685503
0.0318988628421
0.0336916039844
0.0340788263243
0.0341699322701
0.0342165916613
0.0342635194348
0.0343172111127
0.0343784398722
0.0344472590029
0.0345237953771
0.034609478378
0.0347143155562
0.0348941447913
0.032220061622
0.0318632954038
0.0336458239305
0.0340280665177
0.0341159512593
0.0341593509796
0.0342024752972
0.0342517085424
0.0343077932018
0.0343707653761
0.0344407461078
0.0345192433399
0.0346167575865
0.0347911906895
0.0353022958055
0.0370868911231
0.032185127573
0.0318217895023
0.0335951296504
0.0339730028155
0.0340580931649
0.0340986700844
0.0341384973149
0.0341838604701
0.0342354731516
0.0342933532798
0.0343576118587
0.0344297958551
0.0345206632609
0.0346891156732
0.0351980464987
0.0369939630418
0.0321416174389
0.0317752575833
0.0335403681619
0.0339144208589
0.0339971068308
0.0340352625747
0.0340722582669
0.0341142915054
0.0341620484764
0.0342155285897
0.0342748282718
0.0343414968024
0.0344263406294
0.0345883345262
0.0350903036045
0.0368799679794
)
;
    }
    sides
    {
        lowReCorrection 0;
        blending        stepwise;
        n               2;
        type            epsilonWallFunction;
        value           nonuniform List<scalar> 0();
    }
    bottom
    {
        lowReCorrection 0;
        blending        stepwise;
        n               2;
        type            epsilonWallFunction;
        value           nonuniform List<scalar> 
12
(
0.0321358377083
0.0321914524743
0.0322310307761
0.0322567350869
0.032270613207
0.0322746115655
0.0322705877938
0.0322602711503
0.0322451685503
0.032220061622
0.032185127573
0.0321416174389
)
;
    }
    front
    {
        lowReCorrection 0;
        blending        stepwise;
        n               2;
        type            epsilonWallFunction;
        value           nonuniform List<scalar> 
164
(
0.0321358377083
0.0317274774182
0.0336781894139
0.0341780361917
0.0343358633405
0.0344360582383
0.0345397248946
0.0346582504624
0.0321914524743
0.0318060979405
0.0337313774128
0.034208690559
0.034352802581
0.0344426420369
0.0345358253177
0.0346425686777
0.0347644407476
0.0349016212597
0.0350542174072
0.0322310307761
0.031866120553
0.0337668804215
0.0342239980324
0.0343561294614
0.0344368788861
0.0345207547374
0.0346169762563
0.0347268918274
0.0348506712311
0.0349884522543
0.0351408910664
0.0353125276061
0.0322567350869
0.0319086139496
0.0337861625315
0.0342255607673
0.0343473638101
0.0344201742556
0.0344958072163
0.0345826522167
0.0346818917227
0.0347936782242
0.0349181609434
0.0350560869467
0.0352128152717
0.035420980489
0.032270613207
0.0319347218835
0.0337907524581
0.0342149419913
0.0343279667065
0.0343938709799
0.034462211779
0.0345407216428
0.0346304434898
0.0347315177879
0.0348440766552
0.0349690031291
0.0351125095766
0.0353120483976
0.0322746115655
0.031945650701
0.0337821390243
0.0341936225296
0.0342993086005
0.0343592366202
0.0344211423706
0.0344922545135
0.0345735115092
0.0346650373802
0.0347669447845
0.0348802659323
0.0350121768441
0.0352053584607
0.0322705877938
0.0319426727998
0.0337618450236
0.0341630018299
0.0342626611897
0.0343174479827
0.0343736899879
0.0344382551735
0.0345120066765
0.034595045125
0.0346875009246
0.0347905361157
0.0349124269666
0.0351013589491
0.0322602711503
0.0319267738993
0.0337312284224
0.0341243390468
0.0342191872467
0.0342695887962
0.0343208725837
0.0343796624438
0.0344467677886
0.0345222552131
0.0346062556943
0.0347000798171
0.0348129968361
0.0349976220774
0.0322451685503
0.0318988628421
0.0336916039844
0.0340788263243
0.0341699322701
0.0342165916613
0.0342635194348
0.0343172111127
0.0343784398722
0.0344472590029
0.0345237953771
0.034609478378
0.0347143155562
0.0348941447913
0.032220061622
0.0318632954038
0.0336458239305
0.0340280665177
0.0341159512593
0.0341593509796
0.0342024752972
0.0342517085424
0.0343077932018
0.0343707653761
0.0344407461078
0.0345192433399
0.0346167575865
0.0347911906895
0.0353022958055
0.0370868911231
0.032185127573
0.0318217895023
0.0335951296504
0.0339730028155
0.0340580931649
0.0340986700844
0.0341384973149
0.0341838604701
0.0342354731516
0.0342933532798
0.0343576118587
0.0344297958551
0.0345206632609
0.0346891156732
0.0351980464987
0.0369939630418
0.0321416174389
0.0317752575833
0.0335403681619
0.0339144208589
0.0339971068308
0.0340352625747
0.0340722582669
0.0341142915054
0.0341620484764
0.0342155285897
0.0342748282718
0.0343414968024
0.0344263406294
0.0345883345262
0.0350903036045
0.0368799679794
)
;
    }
    atmosphere
    {
        type            inletOutlet;
        inletValue      nonuniform List<scalar> 0();
        value           nonuniform List<scalar> 0();
    }
    floatingObject
    {
        lowReCorrection 0;
        blending        stepwise;
        n               2;
        type            epsilonWallFunction;
        value           nonuniform List<scalar> 0();
    }
    procBoundary7to6
    {
        type            processor;
        value           nonuniform List<scalar> 
11
(
0.0358438994188
0.0357517850633
0.0356660127184
0.0355838182485
0.0354958333879
0.0354018510422
0.0354018510422
0.0371547937281
0.0428253958549
0.0427924197799
0.0426915254009
)
;
    }
    procBoundary7to8
    {
        type            processor;
        value           nonuniform List<scalar> 
17
(
0.0320620533299
0.031629583441
0.033606103255
0.0341305238011
0.0343037756457
0.0344156514142
0.0345310677959
0.034662784643
0.0347934785177
0.0347934785177
0.0349456042828
0.0351146854636
0.0352227757498
0.0352227757498
0.0354110878745
0.035531547262
0.035531547262
)
;
    }
    procBoundary7to9
    {
        type            processor;
        value           nonuniform List<scalar> 
16
(
0.0320907222273
0.0317245117604
0.0334822853163
0.0338530182782
0.0339336573156
0.0339697615177
0.034004354152
0.0340435540074
0.0340880209857
0.0341377355905
0.034192775134
0.0342546587626
0.0343340648433
0.0344892702997
0.0349803807859
0.0367493331085
)
;
    }
}


// ************************************************************************* //
