/*--------------------------------*- C++ -*----------------------------------*\
| =========                 |                                                 |
| \\      /  F ield         | OpenFOAM: The Open Source CFD Toolbox           |
|  \\    /   O peration     | Version:  v2012                                 |
|   \\  /    A nd           | Website:  www.openfoam.com                      |
|    \\/     M anipulation  |                                                 |
\*---------------------------------------------------------------------------*/
FoamFile
{
    version     2.0;
    format      ascii;
    class       surfaceVectorField;
    location    "0.8";
    object      Uf_0;
}
// * * * * * * * * * * * * * * * * * * * * * * * * * * * * * * * * * * * * * //

dimensions      [0 1 -1 0 0 0 0];


internalField   nonuniform List<vector> 
300
(
(-0.134316228536 0.00632229192998 -4.77812219308e-22)
(-0.134576577495 0.00335563495856 -7.1167587711e-23)
(-0.137972041091 0.0127285641741 -4.66842975351e-22)
(-0.139576500194 0.00880017478236 -4.24117998466e-22)
(-0.140665345408 0.0191616077335 -1.54580361391e-23)
(-0.142040217372 0.0147381628486 -9.52548557842e-25)
(-0.144064791721 0.0255859042855 5.65275075617e-23)
(-0.144958631628 0.0207677591814 1.04928387073e-22)
(-0.148451968479 0.0319806341772 3.83365932061e-23)
(-0.148793455528 0.0266984782609 6.01107305308e-23)
(-0.153916051952 0.0383121759766 4.055491204e-23)
(-0.153656860927 0.0325580567543 3.05223657237e-23)
(-0.160507897297 0.0445302079947 6.91117748455e-23)
(-0.159602668203 0.0383184847518 3.07534116677e-23)
(-0.166664860479 0.0439227797797 -1.18390790341e-23)
(-0.140194380337 0.00541658998722 -1.7473366869e-23)
(-0.139993171788 0.00277249399406 7.23333183642e-23)
(-0.143888584263 0.010874181984 4.17724283279e-23)
(-0.145034086468 0.00747591175089 1.74666193175e-22)
(-0.146574304019 0.0163313859974 1.19433874655e-22)
(-0.14749739884 0.0124369470106 1.33955811049e-22)
(-0.149933492569 0.0217508130845 1.08511610042e-22)
(-0.15037801543 0.0174690081188 1.23131105646e-22)
(-0.15424943122 0.0271027043729 5.22965030484e-23)
(-0.154145282685 0.0223886458565 3.58531025465e-23)
(-0.159599849467 0.0323513813953 2.07208653513e-23)
(-0.158905453533 0.0272055318334 -1.3517275315e-23)
(-0.166024732527 0.0374495124099 -5.01974422119e-23)
(-0.164700694212 0.0318891028004 9.98236603087e-25)
(-0.17355055644 0.042348631753 -7.6879390888e-24)
(-0.171563854984 0.0363896293426 -9.21632726845e-23)
(-0.182193246205 0.0469900974395 4.21436708376e-23)
(-0.179510998012 0.0406505811912 2.18969085374e-23)
(-0.191957253392 0.0513160282223 -1.03840799478e-22)
(-0.188557728003 0.0446210636958 -4.87503313816e-23)
(-0.198708643524 0.048260514143 -1.6075713047e-22)
(-0.145152326868 0.00452151299144 2.64472878408e-22)
(-0.144514687889 0.00220544609656 8.91004853732e-23)
(-0.148851801942 0.00904607923137 2.66849575896e-22)
(-0.149558643804 0.00616881944486 4.59988032632e-22)
(-0.1515039792 0.0135503516759 1.3765304204e-22)
(-0.15200164379 0.0101721171346 1.97765082849e-22)
(-0.154793644317 0.0179895818478 5.04725981498e-23)
(-0.154817195176 0.0142394403478 8.94535460764e-23)
(-0.159006883441 0.0223353385148 -2.99606758169e-23)
(-0.15849096536 0.0181817087819 -8.98127086138e-24)
(-0.164213302796 0.0265502718939 -3.32399040633e-23)
(-0.163120292037 0.0219969135604 -2.26047871507e-23)
(-0.170445862776 0.0305911110832 -4.09675938696e-23)
(-0.168741421516 0.0256517777209 9.85822805342e-24)
(-0.177728042729 0.0344066371958 -6.25784250583e-23)
(-0.1753792603 0.0291004433592 -2.81447905629e-23)
(-0.18607555888 0.0379525443363 -6.89970936817e-23)
(-0.183056790047 0.0322933823598 -6.54834438723e-23)
(-0.195500294518 0.0411800766221 -1.05666662374e-22)
(-0.191785162111 0.0351836554425 -5.4679869933e-23)
(-0.206009848499 0.0440557835873 -4.06751855085e-23)
(-0.201584252088 0.0377360944542 -6.43707383824e-23)
(-0.217610325905 0.046563074285 -1.46533260786e-22)
(-0.21246759332 0.039923732501 -1.44220722849e-23)
(-0.224457807363 0.0417367777924 -1.41985535059e-22)
(-0.149206882941 0.00364417246047 2.84615639597e-22)
(-0.148158856631 0.00165978378231 -5.66569274386e-23)
(-0.152883485793 0.0072599400951 3.90903539585e-22)
(-0.153174394741 0.0048897645397 5.19854380089e-22)
(-0.155481653221 0.0108348176676 1.49565586885e-22)
(-0.155576485485 0.00796060291941 1.73455222227e-22)
(-0.158679350823 0.0143281440582 2.99996770652e-23)
(-0.158310462339 0.0111007336041 5.27670632254e-23)
(-0.162765617165 0.0177054346047 -1.62538219515e-24)
(-0.161868173071 0.0141011186562 1.97173025706e-24)
(-0.167804733331 0.020928969327 2.0493344966e-23)
(-0.166343724476 0.0169549710373 -7.49540265208e-24)
(-0.173824294522 0.0239564838576 2.26810313601e-23)
(-0.171768822077 0.0196265591541 8.64549741112e-24)
(-0.180845448177 0.0267420298612 -3.10498093769e-23)
(-0.178164692422 0.0220713837152 -1.38982066736e-23)
(-0.188886398144 0.0292364257533 -5.11662201236e-23)
(-0.185551087019 0.0242424260391 -4.63273505486e-23)
(-0.197966236684 0.0313994306836 -1.33839459417e-23)
(-0.193948093813 0.0260920750909 -4.66062446619e-23)
(-0.208104322163 0.0331990931021 -3.81176251588e-23)
(-0.20338386112 0.0275847028918 -1.4998505924e-23)
(-0.219325827151 0.0346083141256 -9.87434655792e-24)
(-0.21387675105 0.0286874333592 -6.11894783921e-23)
(-0.231676580082 0.0356251075414 2.93330632289e-24)
(-0.225474513507 0.0293733401653 6.30864773169e-23)
(-0.238247190397 0.0296389465773 -5.70169985915e-23)
(-0.152382475306 0.00279137234601 1.78581813053e-22)
(-0.1509502171 0.00114192746062 -2.58296765773e-22)
(-0.156011333725 0.0055248879574 3.02406062731e-22)
(-0.155907885803 0.00364970271439 3.41010654618e-22)
(-0.158538527041 0.00820393963671 7.66566985673e-23)
(-0.158255494224 0.00581617666396 3.34737937928e-23)
(-0.161626677094 0.0107853895693 2.47391164173e-23)
(-0.160891847344 0.00806902277029 -9.75474650072e-24)
(-0.165566258773 0.0132329674837 -3.89829019987e-24)
(-0.164315664598 0.010165102654 -1.20804005446e-23)
(-0.170417916241 0.0155079650037 -1.9343250207e-23)
(-0.168618619669 0.0120985762265 -1.40033706723e-23)
(-0.176205764771 0.0175675418099 -2.79337406226e-23)
(-0.173828290846 0.0138316090335 -1.65563396742e-23)
(-0.182948678634 0.0193658138247 -2.91757478452e-23)
(-0.179962864698 0.0153197009821 -1.88849917627e-23)
(-0.190667048596 0.0208564611674 -4.17673750869e-23)
(-0.187041657816 0.0165136124179 -3.22993693387e-23)
(-0.199382664926 0.0219974750118 -4.82208046442e-23)
(-0.195089064276 0.0173646937048 -6.69039260003e-23)
(-0.20912323937 0.0227368224748 -3.80703591573e-23)
(-0.20412319455 0.0178316176887 -3.9129831297e-23)
(-0.21992614426 0.0230519030757 1.17713454828e-23)
(-0.214191824174 0.0178710273938 -1.13702575679e-22)
(-0.231850988061 0.0229080271627 3.13617240256e-24)
(-0.225330634794 0.0174365010095 -4.39333161625e-23)
(-0.237627708032 0.0164852961831 -9.49803998917e-23)
(-0.154708072015 0.00196829733363 -9.58679242083e-23)
(-0.152918496198 0.000657313500335 -5.26834782731e-22)
(-0.158267613249 0.00385809112466 7.20783856797e-23)
(-0.157797649962 0.00245846930576 -1.45104306066e-22)
(-0.160708417187 0.00567358513729 -5.29376512752e-23)
(-0.160070942023 0.00374986165276 -2.55728113665e-22)
(-0.163672610615 0.00737648724454 -4.65742634626e-23)
(-0.162594683842 0.00515620979542 -8.37381804896e-23)
(-0.167450233029 0.00893385855136 -2.21854810171e-23)
(-0.165872952333 0.00638752897513 -2.89318667539e-23)
(-0.172097872685 0.0103034491896 -1.12164601395e-23)
(-0.169988115375 0.00744377678914 -1.11772363468e-23)
(-0.177636470482 0.0114417888195 -7.50759081428e-24)
(-0.174966535716 0.00828438604242 -6.69166317378e-24)
(-0.18408243383 0.0123007014733 -2.20086132562e-23)
(-0.180821697636 0.00886413944758 -6.41152305173e-25)
(-0.191457703527 0.0128289788958 -5.74359202521e-23)
(-0.187569885202 0.00912799323307 -3.83750399132e-23)
(-0.199784399146 0.0129816250002 -5.78129526531e-23)
(-0.195241698621 0.00902659564659 -3.46978762828e-23)
(-0.2090903954 0.0127119611646 -1.14762047818e-22)
(-0.203853553214 0.00851343376846 -1.71486418762e-24)
(-0.219418462405 0.0119575067905 -1.69407237324e-22)
(-0.213437416487 0.00753018614791 -1.31610882522e-22)
(-0.230832148148 0.0106777920213 -1.42049888457e-22)
(-0.22405099281 0.00601159001034 4.65665196722e-23)
(-0.235767316313 0.0038857261792 3.91102928599e-23)
(-0.156216558587 0.00117218336067 -5.76071164589e-22)
(-0.154090658451 0.000210261982879 -5.99722157302e-22)
(-0.15969035908 0.00225626179998 -4.72910805411e-22)
(-0.158881697745 0.00131870316606 -3.81001712266e-22)
(-0.162028581237 0.00324456491006 -2.86528642879e-22)
(-0.161059200219 0.00176975413974 -3.36048130269e-22)
(-0.164857430338 0.00411115675682 -6.60957837809e-23)
(-0.163461214484 0.00237074595073 -9.22083472974e-23)
(-0.168461837926 0.00482277147698 -1.79236220837e-23)
(-0.166584491752 0.00277920397213 -2.49371375527e-23)
(-0.172891960877 0.00533700662227 -6.6524393811e-24)
(-0.170502268303 0.00300430967657 -2.13964688991e-23)
(-0.178165289182 0.00560473973735 1.74775335328e-25)
(-0.175234191573 0.00300122910213 -1.39271123027e-25)
(-0.18429695158 0.00557559931882 -1.70075789622e-23)
(-0.180792499559 0.00272236564191 -2.41531011659e-24)
(-0.191305045673 0.00520279438206 -1.56369959439e-23)
(-0.187197055894 0.0021094756806 -3.20357444135e-23)
(-0.199210657283 0.00441694660593 2.14002121828e-23)
(-0.194455867007 0.0011103045477 1.31951918664e-23)
(-0.208041453444 0.00316297560729 -1.85636988915e-23)
(-0.202599634311 -0.000328766528262 3.78458955372e-23)
(-0.217836273345 0.00138618853304 8.43628744739e-23)
(-0.211660717977 -0.00227689810759 -6.18074689168e-23)
(-0.228648839889 -0.000989865467193 2.27726700989e-22)
(-0.221675066332 -0.00481237134537 1.75196651043e-22)
(-0.232693410916 -0.00801732500736 3.41007299844e-23)
(-0.156958038054 0.000402399343222 -4.0465270498e-22)
(-0.154493037668 -0.000245506028295 -6.20417612868e-22)
(-0.160321880449 0.000766501023531 -2.44139037124e-22)
(-0.159245771951 0.000229133901814 3.24965332887e-22)
(-0.162529144402 0.000929931245135 -1.41727834687e-22)
(-0.161222591185 -0.00010303472694 -1.14555639593e-22)
(-0.165223037397 0.000999367213252 -5.10497010692e-23)
(-0.16353059796 -0.000286495055848 -6.14372338754e-23)
(-0.168645679196 0.000908841281694 -2.8409984368e-23)
(-0.166493902695 -0.000649555579278 -2.65971657989e-23)
(-0.172845928806 0.000609042488381 -1.4883300641e-23)
(-0.170202402911 -0.00120609068698 -2.72392833248e-23)
(-0.177839434138 4.77719689025e-05 -2.72935657495e-24)
(-0.17467286232 -0.00200231991401 -4.38188535051e-24)
(-0.183640134966 -0.00082372404189 -1.74434755679e-23)
(-0.179920966199 -0.00308810769685 2.10322512794e-24)
(-0.190260332374 -0.0020641871519 -3.20355660321e-24)
(-0.185956588973 -0.00452069756663 -2.60593893521e-23)
(-0.197717401626 -0.00372776650712 2.96408752208e-23)
(-0.192792323184 -0.00635703028915 1.96750437365e-23)
(-0.206037500018 -0.00587958924344 -5.3978744882e-24)
(-0.200447881554 -0.00865913893803 1.35960728469e-23)
(-0.215249530811 -0.00859389251825 2.90263076524e-23)
(-0.208946525935 -0.0115000923878 -7.769916534e-23)
(-0.225389061946 -0.0119557092634 -1.84293199613e-23)
(-0.218313402235 -0.0149631690445 6.3957350007e-23)
(-0.228579534729 -0.0191284952355 -8.30244578576e-23)
(-0.156941077661 -0.000320181716545 1.09200424998e-22)
(-0.154172840494 -0.000698874260958 -6.60762814437e-22)
(-0.160188735068 -0.000765756073913 4.54548730418e-22)
(-0.158800177145 -0.000805677028958 6.39013818003e-22)
(-0.162267078086 -0.00128791178077 -3.42650387816e-23)
(-0.160700405632 -0.00185918043384 9.1394053694e-23)
(-0.164817122987 -0.00195757091574 -3.69846986051e-23)
(-0.162860898395 -0.00280057655462 -5.90382732542e-23)
(-0.168048929351 -0.00279937859531 -2.54264647556e-23)
(-0.165652046605 -0.00388640063658 -2.89154847192e-23)
(-0.1720089367 -0.0038604633594 -1.67378680343e-23)
(-0.169141268309 -0.00517504396253 -2.18433920304e-23)
(-0.176710836151 -0.00518987064723 4.5069635237e-25)
(-0.173343413833 -0.00671306294551 -8.95447455419e-24)
(-0.182164909005 -0.00684320328909 -6.51268865631e-24)
(-0.178267612731 -0.00855088710787 9.80548540045e-25)
(-0.188380827384 -0.00887806562781 -3.18078901243e-24)
(-0.1839217364 -0.0107453586256 -1.37926887173e-23)
(-0.195371736243 -0.0113552815294 3.6302413626e-24)
(-0.190315152039 -0.0133568541919 1.39818465987e-23)
(-0.203154626081 -0.0143432957169 -5.87052180049e-23)
(-0.197459942287 -0.0164511477711 -2.56970185209e-23)
(-0.21174852863 -0.0179195927143 -4.27681229853e-23)
(-0.205370342653 -0.0201041463148 -1.17893946304e-22)
(-0.221175403465 -0.0221726726748 -6.37787889258e-25)
(-0.214060455156 -0.024401026515 2.15077586739e-23)
(-0.223547513941 -0.0294176025839 -1.30492468564e-23)
(-0.156179836521 -0.000992664169537 -1.30949421432e-22)
(-0.153180175237 -0.00110199172266 -5.00775253374e-22)
(-0.159327207713 -0.00214061314083 2.75859141279e-22)
(-0.157652222463 -0.00178056225114 1.6523428623e-22)
(-0.161297240106 -0.0033695861167 6.66208192214e-23)
(-0.159471418574 -0.00350871532647 -2.1278947341e-23)
(-0.163689402734 -0.00473640969318 -5.09690593684e-23)
(-0.1614940513 -0.0051535364883 -1.66714778576e-22)
(-0.166722386906 -0.00628191781927 -2.5332411994e-23)
(-0.164106507708 -0.00692094435005 -5.14220931744e-23)
(-0.170434873617 -0.00805290996175 -1.40599985503e-23)
(-0.167370243744 -0.00889381771576 -2.29005766925e-23)
(-0.174836551545 -0.0101002254115 -8.42462236652e-24)
(-0.171296072925 -0.0111215355119 -1.77014406589e-23)
(-0.179933690102 -0.0124790405979 -6.29945152095e-24)
(-0.175888789103 -0.0136550165356 -1.07771244197e-23)
(-0.185732530838 -0.0152482558406 3.36994689381e-24)
(-0.181152538614 -0.0165514549134 -5.20863870479e-23)
(-0.192240697861 -0.0184715720715 -1.53454132848e-23)
(-0.187091882986 -0.0198725516892 -1.68864361094e-23)
(-0.199467394341 -0.0222194206916 -8.48857468203e-23)
(-0.19371216672 -0.0236855482917 -4.20438354642e-23)
(-0.207421913211 -0.0265706949174 -5.3618064645e-23)
(-0.201019163075 -0.0280675455734 -1.15326409557e-22)
(-0.216114193304 -0.0316147955813 9.09629970671e-24)
(-0.209016466832 -0.0331039209202 5.33712503568e-23)
(-0.225547436186 -0.0374536931732 6.62724134778e-23)
(-0.21770873778 -0.0388657849364 3.83580615209e-23)
(-0.23566840951 -0.0442001488798 -1.94795012664e-22)
(-0.227085794412 -0.045447279439 2.96673566585e-22)
(-0.237036937953 -0.0529081555116 -2.6333728306e-22)
(-0.154766493013 -0.00162951676562 -2.04591545712e-22)
(-0.151550675579 -0.00147048281464 -4.59420873136e-22)
(-0.157793473449 -0.00342064446929 -1.31903802391e-22)
(-0.155861107702 -0.00269608240642 1.35438663557e-22)
(-0.159650164465 -0.00530927109892 -2.54614545139e-22)
(-0.157582796549 -0.00505366714342 -3.22388987536e-22)
(-0.161884791782 -0.00733274298468 -1.67167812382e-22)
(-0.159470574205 -0.00734650093488 -2.71586220384e-22)
(-0.164715047734 -0.00953565034396 -4.89902578729e-23)
(-0.161903586964 -0.00974924608254 -6.5835787873e-23)
(-0.168175177914 -0.0119666239764 -2.65420188011e-23)
(-0.164939253362 -0.0123573633072 -3.37248159017e-23)
(-0.172271212076 -0.014677454272 -2.00539427121e-23)
(-0.168585230098 -0.01522209458 -3.22723887859e-23)
(-0.177005582054 -0.0177234908309 -5.65640599467e-23)
(-0.172842753448 -0.0183945065106 -6.36869159035e-24)
(-0.182380214182 -0.0211641132644 -7.23427700511e-23)
(-0.17771193879 -0.0219317287056 -8.1216153775e-23)
(-0.188397049643 -0.0250637360592 -4.35848582888e-23)
(-0.183192308814 -0.0258954583495 -4.9215808902e-23)
(-0.195057958032 -0.029493172139 -7.24844982005e-23)
(-0.189282802693 -0.0303527395007 4.89901626868e-24)
(-0.202363093006 -0.0345311157607 -8.33709455478e-24)
(-0.19598130772 -0.0353802706127 -7.37086065863e-23)
(-0.210311006143 -0.0402661483831 8.2633012171e-23)
(-0.203281530532 -0.041062162256 7.41997498622e-23)
(-0.218892987184 -0.0467993358892 2.68759214628e-22)
(-0.211175641137 -0.0474632760361 4.55545169648e-23)
(-0.228038175227 -0.0542436072186 2.28131296189e-22)
(-0.219641586541 -0.0546798592924 3.70167627656e-22)
(-0.228542285604 -0.0628597406604 -3.96350355051e-23)
(-0.152735725386 -0.00222583670188 -1.19390663866e-22)
(-0.155634087024 -0.0046177399415 -5.50465215882e-23)
(-0.157372503818 -0.00711478438014 -3.39360662781e-22)
(-0.159449658185 -0.00974715278297 -1.70254195875e-22)
(-0.162076189291 -0.0125588594793 -5.05703459018e-23)
(-0.165282467814 -0.0155986532701 -3.94551858865e-23)
(-0.169071267971 -0.0189182888598 -1.85871376642e-23)
(-0.173441365261 -0.0225727700344 -3.10207854186e-23)
(-0.178390278078 -0.0266210067533 -5.80891926259e-23)
(-0.183914436467 -0.0311267404874 -7.31934344547e-25)
(-0.190008889121 -0.0361596647977 3.67490788289e-24)
(-0.196665318701 -0.0417966768765 8.8282378306e-24)
(-0.203871450437 -0.0481236656141 3.7121254656e-23)
(-0.211606837497 -0.0552383297322 1.46962929993e-22)
(-0.219783078008 -0.0632493307702 1.02401295962e-22)
)
;

boundaryField
{
    back
    {
        type            calculated;
        value           uniform (0 0 0);
    }
    sides
    {
        type            calculated;
        value           nonuniform List<vector> 0();
    }
    bottom
    {
        type            calculated;
        value           uniform (0 0 0);
    }
    front
    {
        type            calculated;
        value           uniform (0 0 0);
    }
    atmosphere
    {
        type            calculated;
        value           nonuniform List<vector> 0();
    }
    floatingObject
    {
        type            calculated;
        value           nonuniform List<vector> 0();
    }
    procBoundary7to6
    {
        type            processor;
        value           nonuniform List<vector> 
11
(
(-0.245239587667 0.0362734515276 -2.59045830681e-22)
(-0.244999866504 0.022288554272 2.07676993811e-22)
(-0.243426600438 0.00881732617063 -3.99634516872e-23)
(-0.240541487408 -0.00406390363395 1.97980677836e-22)
(-0.236487575854 -0.0160697459584 -9.73133643772e-23)
(-0.231450358795 -0.0272048434571 3.14380912192e-23)
(-0.233832071941 -0.0352421581607 1.10759751553e-22)
(-0.244826090347 -0.0418317956268 -6.06952741743e-22)
(-0.246355921056 -0.0519894119133 -3.6002411119e-21)
(-0.237587185992 -0.0627382895254 -2.5896283165e-21)
(-0.228200596564 -0.0722871998966 -2.87067481331e-21)
)
;
    }
    procBoundary7to8
    {
        type            processor;
        value           nonuniform List<vector> 
17
(
(-0.12825431586 0.00394812529031 6.15869616234e-23)
(-0.13317026597 0.0101279110101 -2.89323481842e-22)
(-0.135607228841 0.0170536772591 1.43230903972e-23)
(-0.138534409765 0.024106921754 2.40775683086e-22)
(-0.142398816455 0.0310800547469 1.0755674218e-22)
(-0.147325427685 0.038024727895 8.72683336399e-23)
(-0.153384750109 0.0449154551025 1.06441041187e-22)
(-0.160627041491 0.0516851347617 5.35181805686e-24)
(-0.168261641977 0.0505681534737 7.74837483461e-23)
(-0.174869717341 0.0493039072977 8.16348882914e-23)
(-0.184231958721 0.0543987317229 7.2016092215e-23)
(-0.194738915469 0.0591534390248 -8.25937470846e-24)
(-0.202833750765 0.0552858918149 -1.05177930276e-22)
(-0.209960453482 0.0515403905974 1.49040146852e-23)
(-0.222307149147 0.0544584036868 -1.62453555208e-22)
(-0.230317424416 0.0487139611412 -3.02382650313e-22)
(-0.237599050004 0.0432047117206 -1.57463808931e-22)
)
;
    }
    procBoundary7to9
    {
        type            processor;
        value           nonuniform List<vector> 
16
(
(-0.14932486884 -0.00180863221554 -6.51485599589e-22)
(-0.153469231572 -0.00355265194341 1.16773744159e-22)
(-0.15508577142 -0.0064937695609 -2.79905680785e-22)
(-0.156838215391 -0.00938240679656 -2.02711807368e-22)
(-0.159091881181 -0.0123718201363 -4.28639115564e-23)
(-0.161899455692 -0.0155649562623 -1.96003554775e-23)
(-0.165265592333 -0.0190135615824 -2.5569900731e-23)
(-0.169188279746 -0.0227680923532 -2.87893159823e-24)
(-0.173663726951 -0.0268848194084 -5.11710224979e-23)
(-0.178686621952 -0.0314243372414 -2.79150628093e-23)
(-0.184249946121 -0.0364521519383 4.60843377089e-23)
(-0.190344377112 -0.0420430410311 -2.53664778129e-23)
(-0.196954624018 -0.0482783902657 8.05338203612e-23)
(-0.204061045591 -0.0552148846145 4.36800141103e-23)
(-0.211630625929 -0.0629447497372 2.86235218757e-22)
(-0.21950443442 -0.0716903166819 2.87688037335e-22)
)
;
    }
}


// ************************************************************************* //
