/*--------------------------------*- C++ -*----------------------------------*\
| =========                 |                                                 |
| \\      /  F ield         | OpenFOAM: The Open Source CFD Toolbox           |
|  \\    /   O peration     | Version:  v2012                                 |
|   \\  /    A nd           | Website:  www.openfoam.com                      |
|    \\/     M anipulation  |                                                 |
\*---------------------------------------------------------------------------*/
FoamFile
{
    version     2.0;
    format      ascii;
    class       volScalarField;
    location    "3.8";
    object      k;
}
// * * * * * * * * * * * * * * * * * * * * * * * * * * * * * * * * * * * * * //

dimensions      [0 2 -2 0 0 0 0];


internalField   nonuniform List<scalar> 
1984
(
0.00172227569676
0.00201301820402
0.00210704440324
0.00214318353793
0.00216092735286
0.00217317972672
0.00218403896125
0.00219486048401
0.00220637652106
0.00221995956258
0.00223934035893
0.00227363125586
0.00234262012231
0.00249170927512
0.0028671853587
0.00403099140099
0.00761539774471
0.0161810215347
0.0326332261469
0.0707451019488
0.00201873139841
0.0024851899706
0.00262681232589
0.00267972140332
0.00270329469267
0.00271763131492
0.00272936764297
0.00274080562363
0.00275315184503
0.00276858365217
0.0027926040398
0.00283790091296
0.00293236096065
0.00314174913538
0.00366750336801
0.00517008066345
0.00927489082568
0.0180291837746
0.0335463690507
0.0598634772703
0.00211982091174
0.00263922170014
0.00279960882114
0.00285911611999
0.00288463433723
0.00289944587273
0.00291137316202
0.00292301572196
0.00293581009496
0.00295221254013
0.00297833716866
0.00302818827284
0.00313220047195
0.00336271628236
0.00393217937674
0.00549047774539
0.00959731541916
0.0184864529109
0.0347979202493
0.0640008034662
0.00216017976656
0.00270010410414
0.00286831059052
0.00293051325089
0.00295657842042
0.00297128766696
0.00298302663872
0.00299458821914
0.00300744299291
0.00302418094735
0.00305099780344
0.00310214503562
0.00320847249088
0.00344369706852
0.0040236092191
0.00558605683865
0.00961348325263
0.0183814512675
0.0352557529646
0.0695987093961
0.00217932396409
0.00272732933384
0.00289866037765
0.00296175962884
0.00298772406946
0.00300204629945
0.00301339397927
0.00302465995324
0.0030373503187
0.00305394306391
0.00308058578756
0.00313119865861
0.00323590813884
0.003467972959
0.00404573464708
0.00560910292906
0.00956782519262
0.0181029692476
0.0350436605558
0.0736164213858
0.00219110653892
0.00274247446741
0.00291503210253
0.00297826882511
0.00300386466075
0.00301767448384
0.00302853543134
0.00303938761238
0.00305172079585
0.00306794124413
0.00309391559821
0.00314312378175
0.00324463625401
0.0034703317629
0.00404028004762
0.00560514575686
0.0095470567307
0.0179657099537
0.0349549657828
0.0738004484709
0.00220031360762
0.00275340905
0.00292646237455
0.00298955294385
0.0030146989401
0.00302797097436
0.00303831734376
0.00304869799149
0.00306058377986
0.0030762845205
0.00310142675388
0.00314898241736
0.00324706628177
0.00346575031518
0.00402405685672
0.00557555379877
0.00948937309561
0.0178250052738
0.0349325706631
0.0739481446121
0.00220864110135
0.00276282792117
0.00293616851754
0.0029990609821
0.00302377432853
0.00303653904054
0.00304637741467
0.00305628192625
0.00306769634729
0.00308282038861
0.0031070423288
0.00315291088621
0.00324783872959
0.00346060395123
0.00400668953929
0.00553206465702
0.00937864405678
0.0176010797373
0.0348099768327
0.0740571983759
0.00221653254538
0.00277167590868
0.0029452606109
0.00300797852583
0.00303230842726
0.00304462344269
0.00305399716745
0.00306344466988
0.00307438060737
0.00308891396034
0.00311221055426
0.00315639700335
0.00324819970563
0.00345482797064
0.00398690989834
0.00547647306607
0.009235007344
0.017314288748
0.0345945525743
0.0741142729222
0.00222414335582
0.00278023943964
0.00295408304301
0.00301667427732
0.00304067906334
0.00305259378969
0.0030615575402
0.00307058531528
0.00308107314622
0.00309502654581
0.0031173844191
0.00315987952617
0.00324850449631
0.00344839370816
0.00396270686465
0.00540316847569
0.00905407257933
0.0169910369484
0.0343258820094
0.074121784874
0.00223154122366
0.00278852849559
0.00296269378463
0.00302522429041
0.00304896863068
0.00306054002466
0.00306913730676
0.00307779056577
0.00308786014887
0.00310126131964
0.0031227159843
0.00316359180068
0.00324935176342
0.00344356233227
0.00394214137883
0.00533588471958
0.00890210363302
0.0168001553552
0.0342060323316
0.0741071444635
0.00223867912036
0.00279659482541
0.00297110398944
0.0030336176537
0.00305715692676
0.00306844309286
0.00307672216361
0.00308503942154
0.00309473180761
0.00310761203828
0.0031281939772
0.00316755196909
0.00325104098864
0.0034426374235
0.00393700484094
0.00531358765575
0.0088525278452
0.0167960862552
0.0342234315443
0.0740816499871
0.00224547937867
0.00280435404554
0.00297927943506
0.00304182789417
0.00306520837093
0.00307625793217
0.00308426802672
0.00309228987853
0.00310163410433
0.00311402668862
0.00313376230714
0.00317154119431
0.00325237746561
0.00344007906891
0.00392687278797
0.00528431882027
0.00880810271291
0.0167949846853
0.0341511984482
0.0740188376711
0.00225199765344
0.00281184666186
0.00298719025057
0.0030498073759
0.00307307763971
0.00308393311425
0.00309171691683
0.00309948889003
0.00310852612744
0.00312045993253
0.00313934990455
0.00317543092978
0.00325293202131
0.00343335842788
0.00390273180631
0.00522286319198
0.00870696966824
0.0166641747414
0.0338176271903
0.0738499288179
0.00225823783856
0.00281893968001
0.00299478339144
0.00305752599935
0.0030807262837
0.00309142819745
0.00309901901542
0.00310657862885
0.00311535129253
0.00312687596338
0.00314495029708
0.00317928968062
0.00325276040471
0.0034230698994
0.00386592541686
0.00513164292352
0.00854637472007
0.0163592767857
0.0331401798385
0.0735434094139
0.00226416976161
0.00282569025414
0.00300203764093
0.0030649446197
0.00308811189788
0.00309869992168
0.00310614256502
0.00311352457372
0.00312208299177
0.00313323988109
0.00315060219112
0.00318337983816
0.003253522298
0.00341631469597
0.00384045283854
0.00506574418827
0.00839282161662
0.0159403657238
0.0321479798231
0.0726353622008
0.00226976874179
0.00283208639951
0.00300893028459
0.00307202002462
0.00309520515092
0.00310572123666
0.00311305159051
0.00312029761306
0.00312866977533
0.00313952732172
0.00315626245592
0.00318774709385
0.00325551931456
0.00341449124877
0.00383179036606
0.00503672343619
0.00829353133973
0.0155759670652
0.0304908045767
0.0581884826727
0.00227506068151
0.00283804449091
0.00301543003818
0.00307875158461
0.00310197674694
0.00311245662939
0.00311971663201
0.00312686799268
0.00313509513897
0.00314568014953
0.00316182994968
0.00319203789034
0.00325742891371
0.00341253170398
0.00382257657087
0.00500860006757
0.00821775157788
0.0153450076749
0.029115753293
0.0524162824364
0.00227991853521
0.00284359489519
0.00302154546836
0.00308511331246
0.00310841877639
0.00311889034593
0.00312610880804
0.00313319215852
0.00314131033848
0.00315165329102
0.0031672164631
0.00319602666894
0.00325839923766
0.00340732865073
0.00380338897669
0.00496029559446
0.00813846420824
0.0152156167261
0.0285288944198
0.0516207647343
0.00228435783584
0.00284871582641
0.00302724702803
0.00309109603521
0.00311450593158
0.0031249988585
0.00313219756374
0.00313923957313
0.00314727682131
0.00315742399013
0.00317241589873
0.00319974175802
0.00325862906575
0.00339979765368
0.00377775572198
0.0048985814245
0.00804993368552
0.0151517713399
0.0289713795102
0.0597100282058
0.00228846927708
0.00285340659631
0.0030325176548
0.00309667052145
0.00312021260182
0.0031307536003
0.00313796256678
0.00314499081555
0.00315297863794
0.00316296105398
0.00317744356144
0.00320333233143
0.00325872736255
0.00339203799581
0.00375227624233
0.00483934044039
0.00796023705329
0.015041658745
0.0280561894854
0.0485219988316
0.00229213050542
0.00285767228371
0.00303735475246
0.00310182318656
0.00312551764638
0.00313613130089
0.0031433777632
0.00315043098138
0.00315840732671
0.00316826576374
0.00318229755186
0.00320687893602
0.00325903660549
0.00338512108406
0.00372961755887
0.0047858586265
0.00786547617179
0.014895421491
0.027445466577
0.0445399044203
0.00229533923949
0.00286147309813
0.00304173657075
0.00310653021656
0.00313039354423
0.0031411033245
0.003148415372
0.00315552403595
0.00316353266904
0.00317332542751
0.00318697993687
0.00321039068275
0.00325964309491
0.0033793480943
0.00370982270241
0.00473436624611
0.00775449435882
0.0146442468566
0.0265939836119
0.0417747021973
0.00229801179307
0.00286476239114
0.00304563196407
0.00311076613362
0.00313481516043
0.00314563764803
0.00315304502192
0.00316023988799
0.00316831953099
0.00317809918055
0.00319146415
0.00321385140402
0.00326046029421
0.00337420217546
0.00369051859661
0.00467695719319
0.00760252572049
0.0143024677085
0.0257517766269
0.0417570149145
0.002300155705
0.00286753895142
0.00304900780667
0.00311449651254
0.00313874999456
0.0031497110153
0.00315723696741
0.00316455715898
0.00317274814243
0.00318257128976
0.00319572718672
0.00321722098243
0.0032613648528
0.00336912109402
0.0036691710462
0.00460365300207
0.00740318823886
0.0139179834714
0.0250719211534
0.0415293450752
0.00230183032027
0.0028697598313
0.00305181693765
0.00311767736895
0.00314215740447
0.00315327792743
0.00316095199911
0.00316841793425
0.00317674536375
0.00318668448051
0.00319971748724
0.00322045127476
0.0032622835166
0.00336377755764
0.00364375500287
0.00450843382323
0.00715047623576
0.0134863176352
0.0243184356599
0.0384779419512
0.0023029125517
0.0028713815812
0.00305401067234
0.00312026547506
0.00314500844796
0.00315632946525
0.00316419036743
0.00317185424916
0.00318038237411
0.00319047160457
0.00320346653063
0.00322357978441
0.00326332540063
0.00335886110801
0.0036184585704
0.00440641858555
0.00685760842329
0.0129849229521
0.0237831958229
0.0426333640989
0.00230342473745
0.0028724103121
0.00305555828037
0.00312220489271
0.00314723287456
0.0031587832058
0.00316685973502
0.00317475199955
0.00318351926763
0.00319381138247
0.00320686906635
0.00322654479047
0.00326456804427
0.00335535344549
0.00359999819634
0.00432747410303
0.00659149921416
0.0124527221064
0.0233455521594
0.0430656749359
0.00230342905668
0.00287275798883
0.0030563793592
0.00312343262395
0.00314878168993
0.00316059788889
0.00316892621054
0.00317708506412
0.00318615157612
0.00319671969197
0.00320992235902
0.00322932617598
0.00326600902837
0.00335343511589
0.003590431136
0.00428679762358
0.00641026154727
0.0120199613147
0.0239320057885
0.0583355440884
0.00230291190274
0.0028723040097
0.00305637488905
0.00312387506921
0.00314959589061
0.00316172484969
0.00317034605586
0.00317881043183
0.00318820664644
0.00319911499053
0.00321257549042
0.00323192006682
0.00326776639408
0.00335315829598
0.00358737359622
0.00427276748699
0.00629971853294
0.0116543975016
0.0247527434517
0.0688545869326
0.00230189423715
0.00287101741357
0.00305544603918
0.00312344134141
0.00314960580453
0.00316210664905
0.00317107085747
0.00317988445589
0.00318966047926
0.00320097098656
0.00321480564279
0.0032343999482
0.00327031234364
0.00335607800278
0.00359194739052
0.00427037265811
0.00619430540406
0.011089171196
0.023006491247
0.0592509845249
0.0023003514182
0.00286882632453
0.00305352268162
0.00312204929517
0.00314873765039
0.00316168402922
0.00317105031215
0.00318026792463
0.00319048181292
0.0032022722663
0.00321663225057
0.00323693973801
0.00327452994885
0.00336542176327
0.00361148443896
0.00428162541223
0.00605501540842
0.0102350510121
0.0197035214129
0.0501845301336
0.00229807524222
0.00286562089938
0.00305055216444
0.00311966301466
0.00314694824022
0.00316041223198
0.00317024505059
0.00317993125828
0.00319064727822
0.00320300375918
0.00321807084303
0.00323969257727
0.00328115008187
0.00338390933865
0.00365385880476
0.00432595878149
0.00594998566303
0.00971771470685
0.0197389540431
0.0550137012864
0.00229497423144
0.00286135338383
0.00304648815701
0.00311623283975
0.00314418402472
0.00315823527286
0.00316860608781
0.00317882962587
0.00319012719138
0.00320314924866
0.00321911915821
0.00324262201418
0.00328983029137
0.0034100515001
0.00371613579545
0.00440986175299
0.00593275126539
0.00964143664265
0.0213838382586
0.0638681990669
0.00229098029823
0.00285599127569
0.00304126370921
0.00311168301823
0.00314037565513
0.00315509568993
0.00316607966656
0.00317692027428
0.00318888181552
0.00320266445764
0.00321967859902
0.00324532243888
0.00329877317305
0.00343742074316
0.00378329920922
0.00451680189335
0.006001800675
0.00980735707183
0.0234702919408
0.0676315905851
0.00228605689313
0.00284944130199
0.00303480213715
0.00310594287191
0.00313545685379
0.00315093362301
0.00316261980291
0.00317416442516
0.00318687378433
0.00320148634304
0.003219557472
0.003247052936
0.00330531383355
0.00345730767366
0.0038333198583
0.00460888397496
0.0061143971586
0.0101208253933
0.0257792621458
0.071041126945
0.00228014146335
0.0028416245868
0.0030270509202
0.00309895577585
0.00312937555575
0.00314570482941
0.0031581898601
0.00317052869708
0.0031840706936
0.00319957469141
0.0032186040516
0.00324732398845
0.00330791860384
0.00346564705005
0.00385591141893
0.00465891711256
0.00621422123024
0.010575143906
0.0280977500675
0.0732939607376
0.00227318190811
0.00283256231474
0.00301799800908
0.00309069550887
0.00312209601434
0.00313937094739
0.00315275161272
0.00316598598429
0.00318045794463
0.00319691886744
0.00321696209363
0.00324687348692
0.00330928316891
0.00347025498907
0.00386574572478
0.0046779887506
0.0062799442199
0.010923427637
0.0287694503389
0.0736395837097
0.00226508217211
0.00282224721339
0.00300764639703
0.00308115182125
0.00311359141853
0.00313190009464
0.00314628327001
0.00316052802824
0.00317604502669
0.00319358874789
0.00321484795472
0.00324639029731
0.00331173373929
0.00347742544316
0.0038767769905
0.00469227698227
0.00632394885217
0.0110886760094
0.0288417189609
0.0736908603652
0.0022559109082
0.00281064978857
0.00299598599417
0.00307032113657
0.00310385309824
0.00312328063073
0.00313877784365
0.00315417582674
0.00317086495847
0.00318961633196
0.00321208130343
0.00324482150943
0.00331111853486
0.00347636860013
0.00387216263062
0.00468972677737
0.006371291291
0.0112893638262
0.029349493034
0.0740685618012
0.00224550584635
0.00279786918769
0.00298311453673
0.00305825395662
0.00309290264256
0.00311352107854
0.00313026209314
0.00314692394954
0.00316494151458
0.003184978995
0.00320840984033
0.00324082087818
0.0033026786999
0.00345424419761
0.0038284128546
0.00464741252542
0.00640136209246
0.0115316374105
0.0301472267434
0.074297990296
0.00223410087854
0.00278405502466
0.00296916506749
0.00304506470018
0.00308081207976
0.00310267000723
0.00312071679131
0.0031388000937
0.00315833991362
0.00317985097849
0.00320427951032
0.00323590727687
0.00329148422528
0.00342463512034
0.00377124125648
0.00460139860311
0.00650882378607
0.0120285097359
0.0306376633859
0.0743562209278
0.00222169269686
0.00276944617489
0.00295434385911
0.0030308988989
0.00306767349383
0.00309071289858
0.00311011292306
0.00312971206893
0.00315090514037
0.00317410242863
0.00319987733279
0.00323159282634
0.00328360434413
0.00340514437328
0.00373544215874
0.00458533502767
0.00664189458178
0.0124867525191
0.030879354961
0.074337049441
0.00220846115823
0.00275436459517
0.00293899475895
0.00301603293405
0.00305360838272
0.00307760666001
0.00309802746453
0.00311878627121
0.00314144293509
0.00316641806285
0.00319389157483
0.00322688785486
0.00327998597291
0.00340297851079
0.00373873837558
0.00461288798398
0.00673204826279
0.0126874297294
0.031187130761
0.0745165250848
0.00219477619903
0.00273930156612
0.00292357102879
0.00300076532503
0.00303862538004
0.00306266232018
0.00308261789827
0.0031024597914
0.00312508040767
0.0031514779359
0.00318072941132
0.00321552828239
0.00327433041023
0.0034144387059
0.00377954654584
0.00468011718449
0.00675606895572
0.0125331273114
0.0313805739085
0.0747359334452
0.00218120426898
0.00272486104375
0.00290864335046
0.00298542266505
0.00302232926139
0.00304379360805
0.00305816001678
0.0030688850357
0.00308634266751
0.00311284721576
0.0031438623318
0.0031794748953
0.00324768440802
0.00342978621363
0.00385971152875
0.00482046431224
0.00686226110994
0.0124152975513
0.0312941035437
0.0748541000713
0.00216817651194
0.00271178161507
0.00289482965739
0.00297023169471
0.00300364695309
0.00301591837524
0.00300890792098
0.00297984458042
0.00297046774476
0.00299559520456
0.00302869308403
0.00306157810409
0.00315814596447
0.00343142046136
0.00397943276132
0.00505503028137
0.00709763018174
0.0123449094968
0.0305963580468
0.0747587193128
0.00215640880578
0.00270074905142
0.00288277101204
0.00295551815602
0.00298180612863
0.00297447719317
0.00291376830525
0.0027572474206
0.00254699123751
0.00253410773767
0.00257131960398
0.00267515446675
0.00301030932019
0.00347191378505
0.00418788590776
0.0054228160876
0.00750055411536
0.0125128277718
0.0298664234514
0.0744826743378
0.00214630610704
0.00269181599031
0.00287301444049
0.00294283242038
0.00296124216631
0.00293395965672
0.00281993866236
0.00239331133197
0.0029997518819
0.003862248521
0.00477745218721
0.00605770614143
0.00807134993228
0.013027202181
0.0302288403036
0.0744106311904
0.00213960580252
0.00268685455601
0.00286782449343
0.00293593724326
0.00294963836811
0.00291066834726
0.00276879233702
0.00227089652467
0.00327428215385
0.00442414405933
0.00547972130258
0.00671134705803
0.00857481964664
0.0133136594039
0.0294117626424
0.0724296384884
0.0021395740413
0.00268682183691
0.00286780627675
0.00293593118022
0.00294964058749
0.00291068749798
0.00276886323048
0.00227119291758
0.00327546173439
0.00442693703609
0.00548461726623
0.00672694493365
0.0086355492799
0.0133159093971
0.0279896027142
0.0692867010582
0.00214626540225
0.00269176795352
0.00287298896011
0.00294283227879
0.00296126572753
0.00293401380919
0.00282002838888
0.00239412099752
0.00300003645386
0.00386356996523
0.00478354635616
0.0060782343504
0.00813314277239
0.0133013909835
0.0306498694541
0.0740536542299
0.00215636607646
0.00270069979779
0.00288274703732
0.00295553292458
0.00298186047052
0.0029745170853
0.00291365528104
0.00275692865912
0.00254728586246
0.0025343801101
0.00257160944966
0.00267607641276
0.00301186304849
0.00347481288239
0.00419848634869
0.0054478163253
0.00756825131697
0.0129136797448
0.031396238725
0.0749764157175
0.00216819272956
0.00271178346476
0.00289484930324
0.00297028354777
0.00300373616483
0.00301603738596
0.0030090427737
0.00298008680863
0.00297073786561
0.00299589253617
0.00302900847021
0.00306226636331
0.00316007750458
0.00343651528099
0.00399502558358
0.00510404296852
0.00725514167966
0.0128128023924
0.0311491505256
0.0748420247914
0.0021812603288
0.00272488759678
0.00290868968134
0.00298550092524
0.00302244564481
0.00304395102464
0.00305835901505
0.00306911665577
0.00308659513554
0.00311313059151
0.00314420830289
0.00318010357548
0.00324947777257
0.00343493973363
0.00387742547858
0.00488874980824
0.00714791021592
0.0131940556147
0.0314071399014
0.074489942983
0.00219485090536
0.0027393413957
0.00292363452602
0.00300085612476
0.00303874893926
0.00306282273751
0.00308281715313
0.00310267982225
0.00312531435406
0.00315172187788
0.00318104678009
0.00321603601446
0.00327543784962
0.00341799937241
0.00379208877211
0.0047279655111
0.00696888571366
0.0132702017312
0.0320797047703
0.0745775008423
0.00220853140053
0.00275441302286
0.00293906033325
0.0030161380834
0.00305375110338
0.00307776747688
0.00309821833978
0.00311899144927
0.00314165097286
0.00316663693995
0.00319412464964
0.00322724090891
0.00328066883657
0.0034047580954
0.0037432508652
0.00462400962564
0.00678267162572
0.0130152383519
0.0323274814423
0.0748494840312
0.00222178697587
0.00276950970942
0.00295443069433
0.00303102012624
0.00306783263971
0.00309089899227
0.00311030017505
0.00312990258911
0.00315109442428
0.00317429775736
0.0032000703556
0.00323182792843
0.00328394040513
0.00340550035791
0.00373384302879
0.00457122108969
0.00658200453287
0.0125192168881
0.0321935189837
0.0750721557186
0.00223422557403
0.00278414114202
0.00296926957423
0.00304519617992
0.00308096914107
0.00310284484217
0.00312089802836
0.00313898399072
0.00315849852293
0.00317998620372
0.00320441398305
0.00323603258872
0.00329156534693
0.00342424050183
0.00376784202943
0.00458670994349
0.00648161819994
0.0122220944079
0.0320347837979
0.0751193224772
0.00224563172543
0.00279796724408
0.00298322847481
0.00305839205551
0.00309306382808
0.00311369877478
0.00313043707005
0.00314709301176
0.00316509247985
0.00318511332072
0.00320853184587
0.0032409161619
0.00330265937642
0.00345376053934
0.00382684534275
0.00465072651855
0.00648760590036
0.0120870241783
0.0312433288324
0.0749062302281
0.00225603500561
0.002810748646
0.00299610483741
0.00307046516266
0.0031040199084
0.00312346481604
0.00313897190125
0.00315435424024
0.00317102896693
0.00318976687244
0.00321222570484
0.00324493343514
0.00331106359016
0.0034757051229
0.0038698169401
0.00468695083287
0.00641168160295
0.0117440185822
0.03088432841
0.0746934467298
0.00226519598939
0.002822346256
0.00300776972088
0.00308130373864
0.00311376964121
0.00313209785391
0.00314649091955
0.00316073807087
0.00317624547735
0.00319377839212
0.00321503534715
0.00324654572639
0.00331172987536
0.0034768877845
0.00387454491297
0.0046840159565
0.00630067952496
0.0111755238894
0.0298209095712
0.0741563557335
0.00227329239417
0.00283266724666
0.00301812636557
0.00309085332381
0.00312228217232
0.00313957963019
0.00315297368154
0.00316621813029
0.00318069476457
0.00319714758028
0.00321719929882
0.00324707702107
0.00330935699103
0.00346979911093
0.0038636511973
0.00466995376258
0.00623554380877
0.0108211427449
0.0292794218673
0.074042004203
0.0022802456654
0.00284172827019
0.00302717679167
0.00309911251294
0.00312956444205
0.00314592012963
0.00315842324442
0.00317077695885
0.00318433419693
0.00319983702478
0.00321888133858
0.00324755913066
0.00330801096216
0.00346535231309
0.00385467746749
0.00465604877667
0.00620342013521
0.0105942733554
0.0285924850228
0.0738468456361
0.00228614257501
0.00284950108797
0.00303489256474
0.0031060684747
0.00313561727131
0.00315112552127
0.00316284183762
0.00317441981688
0.00318714737323
0.00320176632803
0.00321985124117
0.00324730218038
0.00330546511085
0.00345708108152
0.00383239055285
0.00460754152321
0.00610947039594
0.0101211814181
0.0262130761763
0.0717030846082
0.00229105701615
0.00285602426796
0.0030413321786
0.00311179246976
0.00314052230277
0.00315527643236
0.00316629641504
0.00317717720243
0.00318917873092
0.00320299207879
0.00322003865294
0.00324562706023
0.00329897979187
0.00343734149132
0.00378279310463
0.00451627175709
0.00599792648137
0.00977505528062
0.0234903793621
0.0667498047475
0.00229504577898
0.00286136633483
0.00304654167857
0.00311633030372
0.00314432045801
0.00315840807441
0.00316881505868
0.00317908118491
0.00319042810393
0.00320349037327
0.00321950489084
0.00324298760235
0.00329016252959
0.00341024918423
0.00371614721408
0.00440977603388
0.00593084678357
0.00963586920615
0.0214120636367
0.0634241608783
0.00229814052116
0.00286562767935
0.00305060038497
0.00311975367166
0.00314707601121
0.00316057442943
0.00317044172575
0.00318017221095
0.00319094023949
0.00320333858692
0.00321845150899
0.00324005989531
0.00328149626538
0.00338413016532
0.00365354758018
0.00432297244037
0.00593319125295
0.00961668565221
0.0188887571699
0.0509922120561
0.00230041508338
0.00286883671275
0.0030535694726
0.00312213520426
0.00314885780296
0.0031618358681
0.00317123475263
0.00318049393418
0.00319075693786
0.00320258698129
0.00321698783917
0.00323728478666
0.00327485305835
0.00336558612735
0.00361060495719
0.00427411630458
0.00601541083363
0.0100286066289
0.0186890593299
0.0578367988664
0.0023019601112
0.00287103716299
0.00305549646568
0.00312352521509
0.00314972008222
0.00316224882529
0.00317124171352
0.00318009142408
0.00318991014152
0.00320125751414
0.00321512652309
0.00323471428456
0.00327061060625
0.00335623846085
0.00359090361883
0.00426048521127
0.00613796125058
0.0107435214179
0.0206663845566
0.0559995716687
0.0023029810004
0.00287233172157
0.00305642843982
0.00312395811652
0.0031497062084
0.00316185966016
0.00317050501454
0.00317899786675
0.00318842943629
0.00319936986673
0.00321286134642
0.00323220469721
0.00326805351693
0.00335338316837
0.00358659741464
0.00426343537953
0.00624650951292
0.0114075488578
0.0228880979104
0.0508629531509
0.00230349851413
0.00287278869227
0.00305643534351
0.00312351648989
0.00314889065015
0.00316072856807
0.00316907734517
0.00317725866333
0.00318635362239
0.0031969501696
0.00321018127635
0.00322959045481
0.00326630605114
0.00335374774986
0.00359002771145
0.00427958361351
0.00636918032934
0.0119170420145
0.0238682155007
0.0494323905195
0.00230349437353
0.00287244235666
0.00305561720328
0.00312229271804
0.00314734436374
0.00315891404294
0.00316700768026
0.0031749185359
0.00318372266111
0.00319403607419
0.00320710949714
0.00322679607282
0.00326486140658
0.003355678977
0.0035996731581
0.00432143547566
0.00656140550232
0.0124241513425
0.0246782210134
0.0590129023992
0.00230298000315
0.00287141472925
0.00305407523849
0.00312035969566
0.00314512494423
0.00315646419505
0.00316433866218
0.00317201605964
0.00318057367846
0.00319066609086
0.00320368009568
0.00322381940913
0.00326359799377
0.00335904791041
0.00361734525814
0.00439817746239
0.00683408938855
0.0129868036187
0.0248420843864
0.0617914835322
0.00230189159067
0.00286979290134
0.003051887241
0.00311778159178
0.00314228761449
0.0031534295571
0.00316112008365
0.00316860270568
0.00317695951292
0.00318689445901
0.00319994706962
0.00322070853265
0.00326253503874
0.00336365123005
0.00364081375805
0.00449393834915
0.00712235886303
0.0135307858545
0.0253934064628
0.0608539534952
0.00230022725026
0.00286759658844
0.00304909506564
0.00311460955328
0.00313888106222
0.00314985334207
0.0031573892913
0.00316471089435
0.00317290604959
0.00318273602839
0.00319591111785
0.00321744151226
0.00326159107221
0.0033688194277
0.00366496009685
0.00458305916302
0.0073535983293
0.0138879749152
0.0253778593576
0.0449387632225
0.00229809306091
0.00286483774142
0.00304572929021
0.00311088365894
0.00313494789476
0.00314578062433
0.00315319497714
0.00316039693319
0.00316848139158
0.00317827397798
0.00319166590213
0.00321410479358
0.00326078819004
0.00337444317832
0.00368887130043
0.00466365447606
0.00755811191794
0.0142456643397
0.0261263615299
0.0452281987725
0.00229542387391
0.00286156055278
0.00304184130527
0.00310665028463
0.00313052427753
0.00314123931246
0.00314855504324
0.00315566495536
0.00316367586827
0.00317347898774
0.00318716145283
0.0032106430036
0.00326008849507
0.00338041775157
0.00371260894735
0.00473786289767
0.00774258431841
0.0146242835152
0.027304971795
0.0496994596423
0.00229221216684
0.00285776391299
0.00303746329745
0.00310194470381
0.00312564665584
0.00313626223601
0.00314350712849
0.00315055637749
0.0031585299156
0.00316839350504
0.00318245295975
0.00320712359533
0.00325962364687
0.0033872613185
0.00373796446824
0.00480869072677
0.00788628247402
0.014856160121
0.0277767602414
0.0580774024417
0.00228854372234
0.00285349781546
0.00303262752867
0.00309679320955
0.00312034099315
0.0031308807948
0.00313808230734
0.00314510040706
0.00315307866065
0.00316305861786
0.00317756485463
0.0032035567207
0.00325943897363
0.00339508174139
0.00376498303745
0.00487554688124
0.00799494248827
0.0149804227676
0.0281490309371
0.060975188118
0.00228443081528
0.00284880920874
0.00302735674191
0.00309121981403
0.00311463562771
0.00312512368681
0.0031323091383
0.00313933246466
0.00314734830046
0.0031574787564
0.00317247911847
0.00319990458241
0.00325933153959
0.00340309195668
0.00379120313836
0.00493468759972
0.00807780006295
0.0150648676126
0.0285767608651
0.0634011593466
0.00227999539926
0.00284368746519
0.00302165427378
0.00308523920518
0.00310854906999
0.00311901822727
0.00312621826136
0.00313327155815
0.00314135177481
0.00315166024585
0.0031671987784
0.00319607509167
0.00325888419709
0.00340985128749
0.00381288961703
0.0049817852196
0.00814955771013
0.0151780462302
0.0287498333376
0.0572088903586
0.00227513699377
0.00283814226437
0.00301554279828
0.0030788729271
0.00310210693831
0.00311258455591
0.00311982855876
0.00312694088544
0.00313511720802
0.00314563440405
0.00316174076582
0.00319193756007
0.00325758992465
0.00341387967239
0.00382720959795
0.00501683536456
0.00822649180693
0.015386497885
0.0293378968359
0.0538183930133
0.00226985357771
0.00283218347443
0.00300903633061
0.00307214343521
0.00309532821884
0.00310584331786
0.00311315802304
0.00312036497428
0.00312867548376
0.00313945935043
0.00315608939591
0.00318747926084
0.00325526981297
0.00341454293149
0.00383232504376
0.0050368543765
0.00831125939265
0.0157187806591
0.03136058696
0.067630490347
0.00226426801013
0.00282579954531
0.00300213809766
0.00306504282862
0.00308821759576
0.00309880719938
0.00310623686786
0.00311359362353
0.00312210061812
0.00313319055342
0.0031504442868
0.00318300239609
0.00325269688271
0.00341396048578
0.00383280357482
0.00504938909106
0.00840752146732
0.0161249338016
0.0325414233257
0.073130924332
0.00225834190301
0.00281904196948
0.00299487863179
0.00305761991939
0.0030808235015
0.00309152687428
0.00309911038193
0.00310664779779
0.00311538549879
0.0031268377844
0.00314481525678
0.00317884185747
0.0032512367048
0.0034171843666
0.00384492474636
0.00508469121422
0.00852997990763
0.0165250720814
0.0334921442594
0.073684238345
0.00225209781753
0.00281194471603
0.00298728256601
0.00304989986457
0.00307317341977
0.00308403067615
0.00309180783055
0.00309956650639
0.00310857636225
0.00312046125526
0.00313925771058
0.00317503450042
0.0032513590222
0.00342664932338
0.00387826478406
0.0051653415397
0.00865720492805
0.0167357750661
0.0340290261334
0.0739404504723
0.00224556204298
0.00280444199217
0.0029793665765
0.00304191632893
0.00306530248351
0.00307635669337
0.00308436577888
0.00309238202997
0.0031017100487
0.00311406841531
0.00313376873606
0.00317140063001
0.00325171791834
0.00343705023225
0.00391532712443
0.00525328966837