/*--------------------------------*- C++ -*----------------------------------*\
| =========                 |                                                 |
| \\      /  F ield         | OpenFOAM: The Open Source CFD Toolbox           |
|  \\    /   O peration     | Version:  v2012                                 |
|   \\  /    A nd           | Website:  www.openfoam.com                      |
|    \\/     M anipulation  |                                                 |
\*---------------------------------------------------------------------------*/
FoamFile
{
    version     2.0;
    format      ascii;
    class       volScalarField;
    location    "3.8";
    object      p_rgh;
}
// * * * * * * * * * * * * * * * * * * * * * * * * * * * * * * * * * * * * * //

dimensions      [1 -1 -2 0 0 0 0];


internalField   nonuniform List<scalar> 
1984
(
8514.47501956
8513.95633603
8512.97214759
8511.48205356
8509.48896666
8506.98617929
8503.96750162
8500.42434503
8496.3439796
8491.71502395
8486.51233393
8480.75206433
8474.39514751
8467.30197348
8459.40822721
8453.5451568
8103.78789382
2503.34682588
0.0314563402072
0.00596121248662
8514.99422213
8514.48213905
8513.49974645
8512.01654692
8510.03206696
8507.54014993
8504.53397234
8501.00805725
8496.95025779
8492.36150331
8487.22490609
8481.49239173
8475.14983444
8468.25315562
8460.8768491
8454.38083691
8076.08644244
2545.83679628
0.0185546165242
0.0020848159893
8515.98105345
8515.46871081
8514.49177139
8513.01778363
8511.04491628
8508.5673072
8505.57961912
8502.07139872
8498.03867684
8493.47740395
8488.37847512
8482.71262908
8476.4821311
8469.77125719
8462.69047967
8455.75068049
8090.04738335
2569.18962773
0.0124913249322
0.00329688506898
8517.46056481
8516.94924263
8515.97970233
8514.51807346
8512.56166827
8510.10522561
8507.14158363
8503.66598723
8499.65520757
8495.13350945
8490.08950526
8484.50083218
8478.3882359
8471.747904
8464.69993382
8457.32903564
8100.96823029
2615.7523183
0.0151165368589
0.0028899796464
8519.42579769
8518.91677035
8517.9578343
8516.51234782
8514.57748504
8512.14821496
8509.2180098
8505.77919592
8501.81805785
8497.33285586
8492.33759325
8486.82181196
8480.78127683
8474.20153592
8467.10074233
8459.44977015
8118.85639602
2662.93775072
0.015308742627
0.0027481979526
8521.87190764
8521.36579958
8520.41978465
8518.99446007
8517.08648911
8514.69056289
8511.80059385
8508.40722131
8504.501805
8500.07891905
8495.13455462
8489.68596882
8483.69876885
8477.16137031
8470.04671903
8462.24602945
8141.97843393
2712.90620738
0.0156619380235
0.00342586543554
8524.79285148
8524.28791433
8523.35874449
8521.95775614
8520.08195284
8517.72574578
8514.88289288
8511.5431317
8507.70058741
8503.34843823
8498.46840041
8493.09209051
8487.16080835
8480.66657264
8473.5773687
8465.74630679
8168.45399737
2768.02238934
0.0161995512117
0.00446351373791
8528.1814218
8527.67427413
8526.76590632
8525.39424704
8523.5562378
8521.24642852
8518.45791476
8515.18199919
8511.41152219
8507.13724205
8502.34418114
8497.04046492
8491.18231496
8484.75665481
8477.72780029
8469.96852311
8197.39198183
2831.80932255
0.0157170098518
0.00552534226063
8532.02949381
8531.51158076
8530.63283914
8529.29538153
8527.50074773
8525.24417856
8522.51854488
8519.31556135
8515.62594915
8511.44045996
8506.74088768
8501.53249511
8495.77291283
8489.44252965
8482.51294892
8474.86011578
8225.8166062
2905.57227016
0.0146277215101
0.00655553479402
8536.30811862
8535.79999782
8534.95390795
8533.65181834
8531.90567293
8529.7091608
8527.05527807
8523.93509811
8520.33873996
8516.255265
8511.66529883
8506.56875238
8500.92929907
8494.72438096
8487.93026577
8480.42916879
8254.08066395
2988.58542653
0.0130726638723
0.00742579355
8540.99679631
8540.54147726
8539.71191796
8538.45050034
8536.75848519
8534.62984243
8532.05765666
8529.0302738
8525.53963376
8521.5713596
8517.10665705
8512.14075674
8506.64295077
8500.59228721
8493.97041753
8486.66502287
8282.17673606
3082.1067363
0.0117228424873
0.00799749396566
8546.10884779
8545.69632979
8544.89186417
8543.67591572
8542.04577675
8539.99418161
8537.51334185
8534.58898886
8531.21705295
8527.37703431
8523.05307937
8518.23536579
8512.89907246
8507.02889746
8500.6194805
8493.56241779
8310.864161
3187.17010653
0.0104040912899
0.00818138398822
8551.63311928
8551.24622205
8550.47633284
8549.31256335
8547.75146502
8545.78532431
8543.40573696
8540.60100074
8537.36135066
8533.65767663
8529.48936897
8524.834658
8519.67349085
8514.00509317
8507.84265909
8501.10817933
8342.18224177
3303.95984009
0.00867940388168
0.00776119489364
8557.54338356
8557.17990009
8556.44931436
8555.34359914
8553.85959256
8551.98964087
8549.72219138
8547.04489968
8543.94606664
8540.40415671
8536.40542975
8531.92714271
8526.9369083
8521.47574607
8515.56666132
8509.21497781
8373.12792981
3429.58559623
0.0059732551105
0.00638903532365
8563.81653698
8563.47762555
8562.79095452
8561.75125204
8560.35301643
8558.58871567
8556.44414833
8553.90923344
8550.9671338
8547.5982323
8543.77563284
8539.48020465
8534.68743644
8529.39888019
8523.68011544
8517.70622756
8400.80871781
3556.33947046
0.00208374743732
0.00297371617861
8570.4281128
8570.11836147
8569.48094439
8568.51373122
8567.20962103
8565.56222999
8563.55803518
8561.17897873
8558.41272966
8555.22970136
8551.60725469
8547.50474377
8542.89843532
8537.7490169
8532.07851364
8525.89361828
8426.45891207
3674.56572614
3.04222681698e-05
0.0133510705789
8577.36151911
8577.07830014
8576.49501731
8575.60515103
8574.40777502
8572.88421284
8571.03572337
8568.8362263
8566.26353037
8563.29632413
8559.89351344
8556.01340314
8551.60651379
8546.6085359
8540.99455918
8534.71123145
8457.70740392
3796.36640018
-0.00118550331519
-0.00663290989668
8584.58382803
8584.33009195
8583.80515508
8583.00509236
8581.91978747
8580.5438033
8578.86261686
8576.86607093
8574.51407
8571.78227013
8568.63098313
8565.00615726
8560.84478921
8556.05911741
8550.59458765
8544.39007968
8496.97242783
3925.58150781
0.848421521214
-0.0259637165803
8592.06579434
8591.8449918
8591.38306238
8590.67847039
8589.72310294
8588.50749881
8587.02139014
8585.24404283
8583.13765873
8580.67615147
8577.81529159
8574.49536596
8570.64150804
8566.15208783
8560.94587434
8554.95953339
8544.24788711
4061.56617004
3.89589800658
-0.0470979260701
8599.77469571
8599.58956594
8599.19739902
8598.59621188
8597.78198487
8596.74822707
8595.47382435
8593.93794786
8592.11204469
8589.9641371
8587.44528419
8584.49361765
8581.02551504
8576.92633765
8572.08313525
8566.37439736
8559.1942349
4250.74283481
10.3441904691
0.0574231207027
8607.67624073
8607.52930898
8607.21225984
8606.72535449
8606.06540982
8605.2195583
8604.17430607
8602.91336774
8601.4041498
8599.61414353
8597.49485114
8594.98334795
8591.99310834
8588.40104043
8584.07942703
8578.84843208
8572.05100964
4465.17803682
23.2005682647
0.18419051761
8615.73295481
8615.62643321
8615.38958007
8615.02438712
8614.52672685
8613.88717857
8613.09229839
8612.1267612
8610.96732603
8609.58223777
8607.92004146
8605.92457866
8603.51197684
8600.56247842
8596.94151348
8592.49007907
8586.48346202
4703.58170672
45.0331730206
-0.105851302819
8623.90526512
8623.84083483
8623.68810143
8623.45047174
8623.12561651
8622.70622746
8622.18172688
8621.53718483
8620.75404693
8619.80411548
8618.65432817
8617.24972322
8615.51607757
8613.34400551
8610.61745069
8607.23191716
8602.50347536
4969.8360669
79.6247990404
-0.0645006007879
8632.15154356
8632.13038144
8632.06478766
8631.9595247
8631.81435154
8631.62477413
8631.38367222
8631.0799471
8630.70040031
8630.22423403
8629.62710058
8628.86732699
8627.890022
8626.61898014
8624.96870938
8622.87148613
8619.82686046
5257.11458032
127.347821091
-0.0752515506982
8640.42872633
8640.4516186
8640.47495688
8640.50512092
8640.54405567
8640.5902793
8640.64012629
8640.6901298
8640.7310619
8640.75236462
8640.74092453
8640.6746126
8640.51968641
8640.22382263
8639.74200412
8639.05473765
8637.98682597
5559.38699154
198.475381011
-0.202197693624
8648.69318682
8648.76027044
8648.87280133
8649.03883496
8649.26249552
8649.54535997
8649.88940198
8650.29477525
8650.75964927
8651.29023247
8651.87927184
8652.52594
8653.22238584
8653.94732387
8654.6853802
8655.45593103
8656.15043181
5853.78683093
290.460509291
2.23126068557
8656.901076
8657.01154824
8657.21213413
8657.51251951
8657.91914111
8658.43702985
8659.0726109
8659.83308338
8660.724895
8661.76170685
8662.95469298
8664.31601385
8665.86330112
8667.60265423
8669.55321416
8671.75211803
8674.22251527
6120.24804366
384.352394094
-0.184199106609
8665.00935574
8665.16166736
8665.44734473
8665.87733022
8666.46002761
8667.20366974
8668.11906617
8669.21913435
8670.51775004
8672.0358459
8673.80645032
8675.86713538
8678.23727178
8680.96295426
8684.09326668
8687.69870977
8691.8068322
6382.02769106
486.364758422
-0.148665560734
8672.97641011
8673.168237
8673.53446282
8674.08707133
8674.83599321
8675.79203731
8676.96986054
8678.38764299
8680.06841684
8682.04260055
8684.34481061
8687.04639638
8690.18758208
8693.83506582
8698.08426659
8703.04040248
8708.7385698
6630.83552538
611.683944557
-0.165046094026
8680.76268391
8680.99126664
8681.43216366
8682.09832293
8683.00068368
8684.15195173
8685.56974991
8687.27638207
8689.29965492
8691.6812421
8694.4614539
8697.73661526
8701.55984842
8706.03181985
8711.30102033
8717.54980186
8724.94846747
6856.41029147
742.103227172
-0.248912292606
8688.33134674
8688.59346072
8689.10230652
8689.87136163
8690.91221641
8692.23876616
8693.87028485
8695.83129315
8698.15316387
8700.88399057
8704.07207389
8707.82411242
8712.21177166
8717.3563692
8723.46496453
8730.84526482
8739.96808695
7042.59900991
910.555227446
0.818007706427
8695.64840126
8695.94094879
8696.51043793
8697.37087728
8698.53397113
8700.01407009
8701.83072964
8704.00871716
8706.58104107
8709.59857631
8713.1115656
8717.22951752
8722.03337461
8727.640714
8734.29600983
8742.38650343
8752.765859
7156.49829198
1143.17154728
-0.231248682138
8702.68288863
8703.00373767
8703.62601939
8704.56588868
8705.83465499
8707.4460526
8709.41866134
8711.77578863
8714.55012386
8717.79088221
8721.54359421
8725.9209779
8730.96931111
8736.81882682
8743.64648316
8751.75189473
8761.7650808
7252.34715447
1205.41119552
-0.0861138909352
8709.4068545
8709.75579812
8710.42212353
8711.42968825
8712.78813373
8714.509423
8716.61036406
8719.11139938
8722.04158785
8725.44417695
8729.35600114
8733.88169367
8739.03996449
8744.96229527
8751.73560886
8759.41622381
8767.63936772
7343.11539691
1272.76032259
-0.0834958734954
8715.79313619
8716.17646049
8716.87468414
8717.93952545
8719.37340786
8721.18587093
8723.39142473
8726.00495516
8729.05062771
8732.56035552
8736.56148275
8741.1327853
8746.31478145
8752.18730596
8758.89508467
8766.63314509
8775.61060749
7450.71597297
1296.54450865
-0.0853435312508
8721.84696494
8722.2240825
8722.96142102
8724.07698277
8725.57514965
8727.46384423
8729.75339588
8732.45442347
8735.58415252
8739.15916331
8743.1994734
8747.76244039
8752.86237403
8758.54601811
8764.9257856
8772.14047829
8780.4007162
7501.280733
1272.0812821
-0.0717668614461
8727.52243337
8727.9051915
8728.67141454
8729.82949188
8731.38201808
8733.33469207
8735.69361884
8738.46462722
8741.65671937
8745.27594748
8749.32712632
8753.8334086
8758.78254159
8764.17057781
8770.01113067
8776.25816504
8782.82879434
7505.1445283
1220.64895822
-0.06176086559
8732.80958853
8733.20002622
8733.99028391
8735.18475654
8736.78429239
8738.79228197
8741.21154322
8744.0434321
8747.28839073
8750.94405417
8754.99571794
8759.4361239
8764.22515849
8769.30602871
8774.60698363
8779.93839631
8785.06468126
7516.65838544
1186.86630568
-0.0439105564247
8737.69643232
8738.09425134
8738.90526799
8740.13150171
8741.77277103
8743.83111172
8746.3070982
8749.19846048
8752.4998356
8756.19582728
8760.25543894
8764.66231703
8769.3353042
8774.18313569
8779.08788486
8783.79724233
8788.10932806
7544.74315481
1190.98792882
-0.0360820257743
8742.17113351
8742.57622946
8743.40485815
8744.65885162
8746.33819302
8748.44420187
8750.97678875
8753.93439571
8757.30506588
8761.06220197
8765.16546749
8769.58871477
8774.22618316
8778.9476043
8783.68314666
8788.12333704
8792.12116721
7583.33707461
1227.07788188
-0.0397368772303
8746.22504406
8746.63513947
8747.47826399
8748.75646825
8750.46901911
8752.6213803
8755.21550723
8758.24857999
8761.70823825
8765.55981763
8769.76468174
8774.24797036
8778.92984284
8783.72603312
8788.48865487
8792.9661682
8797.04618675
7639.4851271
1264.471547
-0.0417917974268
8749.84918183
8750.26262796
8751.11665542
8752.41211349
8754.15517424
8756.35066894
8759.00637077
8762.12587731
8765.70080074
8769.6956449
8774.06362453
8778.74024923
8783.61580706
8788.58888475
8793.57688263
8798.34908517
8802.81257609
7719.35612263
1299.85309674
-0.0286807978706
8753.03780446
8753.45198128
8754.31017883
8755.61745682
8757.37836221
8759.60943749
8762.3282761
8765.5446478
8769.25280573
8773.42956891
8778.03208157
8782.9905007
8788.18608162
8793.50133559
8798.89139138
8804.1486562
8809.31835474
7811.44589696
1350.29754429
-0.0130458921528
8755.78758485
8756.19854627
8757.05340024
8758.35883253
8760.12656757
8762.3808135
8765.14472421
8768.45464969
8772.32416963
8776.72397252
8781.62512017
8786.95619809
8792.58187994
8798.36027606
8804.26797224
8810.17822848
8816.29146337
7897.33189911
1429.91813282
-0.0160081655528
8758.09954877
8758.50200972
8759.34249239
8760.62883679
8762.37881644
8764.62202958
8767.40534032
8770.79323253
8774.83844148
8779.49358695
8784.74126749
8790.55787886
8796.76459087
8803.04717447
8809.52888091
8816.23100242
8823.45792493
7978.87277474
1534.67539471
-0.0368452721699
8759.98045789
8760.36827009
8761.18042434
8762.42512414
8764.12191415
8766.30551726
8769.03485998
8772.4378613
8776.70048396
8781.6144863
8787.20879176
8793.64155065
8800.76565358
8807.48811051
8814.51845752
8821.94618753
8830.36278761
8048.26431709
1664.64731996
-0.0605166426516
8761.44417523
8761.81099339
8762.58052946
8763.75840582
8765.36301544
8767.41763309
8769.95055505
8773.19743103
8777.84435376
8782.97093221
8788.77334024
8795.68259139
8804.35217653
8811.61441694
8819.08579285
8826.9720996
8836.25714304
8093.71259399
1787.000834
-0.0717937384965
8762.51109236
8762.85103904
8763.56403072
8764.65056004
8766.13253878
8768.07556637
8770.53503521
8773.74733639
8778.44184814
8783.54848601
8789.16241439
8794.75176125
8808.27508804
8816.03548847
8823.2488633
8831.03890895
8840.57911781
8110.05018255
1879.10476737
-0.0676150002788
8763.20858422
8763.52118288
8764.16865139
8765.11895163
8766.30983055
8767.63261319
8768.94500643
8769.74210074
8819.84581734
8822.13536818
8827.00173629
8833.76332943
8842.81692772
8112.56052767
1929.04864777
-0.0654892750538
8763.56538225
8763.86209368
8764.47413902
8765.36286521
8766.46883901
8767.71198951
8768.8579618
8769.70330355
8823.92116014
8825.03644576
8828.87086924
8834.74448673
8842.70424072
8055.84329705
1932.06737345
-0.0453194508025
8763.59873323
8763.89531269
8764.50744529
8765.39657149
8766.50294536
8767.74327121
8768.89027137
8769.72896453
8823.85281714
8824.90583492
8828.59900091
8834.19110293
8841.39415815
7980.0069548
1923.53655571
-0.0365425560655
8763.30864726
8763.62134024
8764.2692268
8765.22040694
8766.41449505
8767.75172508
8769.05998547
8769.82903318
8819.6693725
8821.76137938
8826.19198054
8832.15276732
8839.95401334
7989.25395441
1948.77161033
-0.0791380475773
8762.67696003
8763.01693843
8763.73031428
8764.81850325
8766.30340698
8768.24674846
8770.71992413
8773.94829022
8778.62495805
8783.68348536
8789.21763356
8794.73182752
8808.03672703
8815.52747752
8822.27007579
8829.26701371
8837.70019093
8023.41099915
1897.50434249
-0.104133132819
8761.67504933
8762.04274671
8762.81335986
8763.99232929
8765.59733621
8767.64952172
8770.1723097
8773.39294814
8778.0429312
8783.12592083
8788.84673386
8795.64443831
8804.12572426
8811.10262508
8818.11067228
8825.30864735
8833.5888427
8012.52701318
1779.04584616
-0.0595386109737
8760.27311097
8760.66190474
8761.47551621
8762.7220214
8764.42004651
8766.60270532
8769.32667079
8772.7146172
8776.95683466
8781.82757598
8787.34840079
8793.66874699
8800.62550189
8807.11817705
8813.7646881
8820.64278975
8828.13630364
7959.61933196
1648.57907655
-0.0125883606705
8758.45035677
8758.85415074
8759.69688898
8760.98635499
8762.73856379
8764.98291568
8767.76246792
8771.13954219
8775.16476435
8779.78675473
8784.98357616
8790.71869602
8796.80689091
8802.93950893
8809.20223454
8815.62362985
8822.25833509
7937.42175104
1503.95155546
0.00715035546675
8756.19214907
8756.60490115
8757.46348478
8758.77337058
8760.54577904
8762.80158092
8765.56651995
8768.87123133
8772.72838865
8777.11317203
8781.98968891
8787.28904958
8792.85216464
8798.57065802
8804.53034508
8810.55428371
8816.64957716
7918.24883062
1409.53312651
-0.00657683922476
8753.49121104
8753.90804606
8754.77154795
8756.08505523
8757.85456947
8760.09321297
8762.81483404
8766.03152072
8769.74333622
8773.91661767
8778.52329102
8783.50378637
8788.68468807
8794.03587399
8799.72415956
8805.51663226
8811.33302698
7868.94989349
1380.83527384
-0.0397475213747
8750.3458694
8750.76269668
8751.62286053
8752.92816535
8754.68078553
8756.88734134
8759.55411417
8762.6844131
8766.26532
8770.26843442
8774.66169262
8779.39002888
8784.29533433
8789.45038298
8794.83529193
8800.37327875
8805.95023704
7808.06280897
1352.33039007
-0.0548833695407
8746.75916453
8747.17301043
8748.02382455
8749.31257173
8751.03949216
8753.20713291
8755.81706154
8758.86686622
8762.33973518
8766.20922013
8770.47053871
8774.99152906
8779.73372081
8784.77322091
8789.93626432
8795.11522275
8800.25011406
7739.22517392
1289.90384842
-0.0385873240662
8742.73705764
8743.14638661
8743.98385714
8745.25095816
8746.94691915
8749.07284568
8751.62818154
8754.60955031
8757.9988642
8761.79501387
8765.95914675
8770.41487946
8775.07528424
8779.97661219
8785.01801987
8790.04558377
8794.59566656
7647.09039989
1234.30600898
-0.0299327708548
8738.28920986
8738.69192132
8739.5133118
8740.7551449
8742.41667677
8744.49905634
8747.00143251
8749.92285687
8753.25846236
8756.99540684
8761.10574093
8765.54347469
8770.28828978
8775.2218568
8780.19345159
8785.32971601
8789.67805836
7556.68686234
1212.64383151
-0.0369195412214
8733.42492038
8733.82084929
8734.62292477
8735.83535892
8737.45821759
8739.49373286
8741.94313398
8744.80757667
8748.09215823
8751.78329243
8755.87765098
8760.35889779
8765.18854047
8770.31640501
8775.56837151
8781.09029746
8785.99441066
7506.54170145
1206.98695917
-0.0539182384899
8728.15628682
8728.54505128
8729.32435424
8730.50244842
8732.08090146
8734.06374534
8736.45490339
8739.25977309
8742.49032186
8746.1417324
8750.22408731
8754.75857051
8759.74006122
8765.12231952
8770.90450687
8777.16699097
8783.41544078
7493.81197585
1226.24963797
-0.0738553506834
8722.49456277
8722.87739867
8723.62722278
8724.7620145
8726.28541238
8728.2042785
8730.52827206
8733.26829446
8736.43436608
8740.0446241
8744.11610329
8748.66020463
8753.77020191
8759.45519329
8765.79588117
8772.96507278
8780.94492937
7506.29206769
1271.99692902
-0.0781164555373
8716.4519625
8716.83825518
8717.54991325
8718.63413916
8720.09326411
8721.93585292
8724.17610968
8726.82938055
8729.91619459
8733.46920404
8737.52137427
8742.08386681
8747.23358223
8753.11075846
8759.78795428
8767.46112404
8775.93423564
7462.33119298
1298.13485781
-0.0641579322974
8710.0692318
8710.42332423
8711.10230815
8712.12882291
8713.51179707
8715.26242312
8717.39670133
8719.93619785
8722.90850298
8726.35155165
8730.31467199
8734.85939235
8740.04764408
8745.94811985
8752.78683307
8760.7648589
8770.00992239
7354.07251568
1273.97444382
-0.0132460470225
8703.34374097
8703.67050296
8704.30521962
8705.26332982
8706.55530752
8708.19425754
8710.19744936
8712.58928134
8715.40290918
8718.68227487
8722.48563823
8726.88679881
8731.97626135
8737.86591253
8744.74364667
8752.95770696
8763.21755184
7272.18497022
1223.28797847
0.00225602195437
8696.30143022
8696.60010765
8697.1817597
8698.059574
8699.24413133
8700.74872535
8702.59165884
8704.79861621
8707.40488487
8710.45732102
8714.01784441
8718.16521284
8723.00019248
8728.66241005
8735.34740331
8743.3330364
8753.04905335
7140.15531417
1084.54639791
-0.00342879271697
8688.96925087
8689.23749642
8689.75814664
8690.54352479
8691.60363545
8692.95084563
8694.60335318
8696.58621369
8698.93390464
8701.6929667
8704.92403888
8708.70310992
8713.13963885
8718.36434674
8724.56879727
8732.0283844
8741.06104723
7030.41403752
912.444255989
0.100830109741
8681.37755573
8681.6122078
8682.06446552
8682.74578908
8683.66508792
8684.83297825
8686.26593434
8687.9864924
8690.02595565
8692.42623573
8695.24359655
8698.54927462
8702.43544228
8707.02052762
8712.47397243
8719.1272921
8727.4327231
6883.9417103
799.135734073
0.389155339297
8673.56026543
8673.75812539
8674.13537174
8674.70211173
8675.46576381
8676.43463844
8677.62178723
8679.04552533
8680.7313557
8682.71429975
8685.0397836
8687.76454606
8690.96241375
8694.71975341
8699.14776147
8704.48605603
8710.92611412
6658.18623401
640.880259212
0.36152323052
8665.55469074
8665.71321775
8666.00992974
8666.45342055
8667.04908717
8667.80223568
8668.72143176
8669.81930563
8671.11396615
8672.63031056
8674.40097789
8676.4660148
8678.86995215
8681.66124967
8684.88074806
8688.65159133
8692.90809274
6401.79107906
480.394721593
0.111961831749
8657.40204528
8657.51892694
8657.73063389
8658.04410089
8658.46235348
8658.98686162
8659.62094301
8660.37082155
8661.24606066
8662.26059375
8663.43233739
8664.7830655
8666.32951472
8668.08040202
8670.04899212
8672.24932545
8674.59109599
6131.12913413
374.16289742
-0.101078943363
8649.14614158
8649.2193066
8649.34228812
8649.52060415
8649.75475316
8650.04191013
8650.38024028
8650.76921711
8651.20972838
8651.70409228
8652.25548527
8652.86531232
8653.5271694
8654.21230429
8654.905649
8655.60219025
8656.20984696
5845.69768006
278.449921422
-0.0968328068629
8640.83167793
8640.86012164
8640.89267125
8640.93305369
8640.97901761
8641.02429448
8641.06206848
8641.08510341
8641.08592252
8641.05561239
8640.98274449
8640.85159563
8640.62977987
8640.27135876
8639.71052158
8638.92456521
8637.65686837
5553.32022698
199.655516223
-0.0117165109213
8632.50507952
8632.487818
8632.42824912
8632.32824574
8632.18386766
8631.98680313
8631.72666885
8631.39101448
8630.96522112
8630.43067568
8629.76487243
8628.93000095
8627.87228023
8626.50307683
8624.74008712
8622.47918399
8619.22418161
5253.04451516
127.466707518
1.34447545749
8624.20758915
8624.1453259
8623.995127
8623.75779748
8623.42793235
8622.99498207
8622.44535043
8621.76243381
8620.92614679
8619.90829167
8618.68514971
8617.19900895
8615.3722733
8613.10285261
8610.26293059
8606.72694799
8601.79982505
4956.65027686
75.2885291636
-0.110848732081
8615.98226124
8615.8762332
8615.63884272
8615.26971178
8614.76225068
8614.10432469
8613.28000177
8612.26929293
8611.0525431
8609.59811861
8607.85365572
8605.77138582
8603.26786472
8600.23408229
8596.50316546
8591.92440915
8585.7337639
4685.72744983
41.6286002079
-0.115253189928
8607.87107546
8607.72318831
8607.40312771
8606.90961094
8606.23502729
8605.36644316
8604.28756977
8602.97837319
8601.40726562
8599.54406085
8597.34418459
8594.74782595
8591.67237895
8588.00826785
8583.60542515
8578.28245311
8571.37086621
4445.24172314
22.4266856124
-0.0776291254439
8599.91419857
8599.72704614
8599.32991939
8598.72091639
8597.89155358
8596.83102353
8595.51771018
8593.92952947
8592.04042583
8589.81797009
8587.21923845
8584.18828033
8580.64265013
8576.48159996
8571.60786401
8565.83438477
8558.61501568
4235.0339574
10.5686003108
-0.0229833677379
8592.14999345
8591.92649174
8591.45867514
8590.74508765
8589.77634075
8588.53555005
8587.0076243
8585.17072507
8582.99866161
8580.46211656
8577.51574614
8574.12306321
8570.20207055
8565.66756468
8560.47661049
8554.44027129
8539.22224415
4053.28570219
3.86458103689
0.00952157009166
8584.61441966
8584.35792281
8583.82676109
8583.01587391
8581.91621425
8580.51510183
8578.79582479
8576.73758233
8574.31787182
8571.50151911
8568.27249651
8564.56560746
8560.35135138
8555.5658662
8550.15247789
8543.93794123
8494.67205292
3919.21616627
0.788706526115
0.000585853044923
8577.33999123
8577.05369662
8576.46320163
8575.56487361
8574.34827753
8572.80299441
8570.91261787
8568.65884982
8566.01805386
8562.97475423
8559.48055786
8555.5282088
8551.09539297
8546.12204127
8540.58095497
8534.33435205
8457.90411563
3791.34344237
0.0282993880057
0.00359577398551
8570.35593258
8570.04384743
8569.3983696
8568.4179321
8567.09641659
8565.42253477
8563.38215306
8560.95933018
8558.1357171
8554.89076798
8551.20418281
8547.04416648
8542.42166268
8537.322214
8531.70273682
8525.58864486
8428.90469132
3669.97674888
0.0100704394907
0.00499677928943
8563.69709182
8563.35501082
8562.66029754
8561.60821068
8560.19270212
8558.40355489
8556.22847306
8553.65377933
8550.66411771
8547.23901119
8543.37356657
8539.03988432
8534.23533471
8528.98108446
8523.30757515
8517.4765369
8404.2602222
3551.66444453
0.00520465779934
0.00653240888396
8557.38020735
8557.01324247
8556.27525732
8555.15874993
8553.65886885
8551.76642521
8549.47057344
8546.75985107
8543.62088819
8540.03625821
8535.99690895
8531.48519844
8526.49291774
8521.05777853
8515.18552586
8508.90015606
8375.36716292
3424.84649475
0.00645286322823
0.00758429716812
8551.43086359
8551.04072927
8550.26410869
8549.09018536
8547.51484229
8545.52985024
8543.12537637
8540.29273675
8537.02198459
8533.27637281
8529.08180119
8524.39636034
8519.22172905
8513.56658327
8507.41612278
8500.70409596
8341.08226588
3299.23397115
0.00848725841395
0.00803165244994
8545.87336728
8545.45686725
8544.64640759
8543.42107503
8541.77837847
8539.71096592
8537.20758993
8534.26223743
8530.86158006
8526.99463802
8522.64153448
8517.79203129
8512.43274257
8506.559301
8500.13575512
8493.0614816
8307.07115485
3181.48956632
0.0103968593594
0.00795233054423
8540.73233307
8540.27257671
8539.43778601
8538.16774443
8536.46463182
8534.3221642
8531.732603
8528.68685137
8525.1766215
8521.18394475
8516.69322012
8511.69095756
8506.16225784
8500.08960182
8493.4308832
8486.07273232
8276.98570058
3074.23899675
0.0120319625166
0.0076212384077
8536.0176827
8535.50740916
8534.65467152
8533.34559165
8531.58963326
8529.38141052
8526.71421827
8523.57981655
8519.96954489
8515.8650295
8511.25094636
8506.11739422
8500.43893467
8494.19643446
8487.34775256
8479.77251798
8249.28704487
2978.14278435
0.0135780613675
0.00710487989989
8531.71587138
8531.198128
8530.31384519
8528.96982103
8527.16700506
8524.9007477
8522.16486311
8518.95244534
8515.25219506
8511.05322238
8506.33462891
8501.08486679
8495.2824184
8488.90302251
8481.90790943
8474.16734882
8221.90062014
2892.88039183
0.0152460962484
0.00638453952536
8527.85037776
8527.34223775
8526.4299074
8525.05287568
8523.20835253
8520.89123627
8518.09550413
8514.8143906
8511.03933604
8506.75484542
8501.94825783
8496.60359654
8490.7040591
8484.22226262
8477.12378384
8469.26425468
8193.72816451
2817.42204439
0.0167873030707
0.00549818044078
8524.44736406
8523.94104889
8523.00891501
8521.60381953
8519.72323714
8517.36208488
8514.51462214
8511.17406582
8507.3315882
8502.97688812
8498.09618913
8492.67792254
8486.70645185
8480.15753063
8473.00409919
8465.05836163
8164.42586174
2752.65700825
0.0178341654429
0.00454614550809
8521.51474336
8521.0072525
8520.05907017
8518.63086061
8516.71980141
8514.321165
8511.42956293
8508.03859443
8504.14002686
8499.72446481
8494.78224974
8489.30567118
8483.28319135
8476.70036644
8469.52565448
8461.65061104
8138.03547582
2698.13653134
0.0176210151136
0.00359910500157
8519.05950296
8518.54925875
8517.58885865
8516.14167628
8514.20530001
8511.77537977
8508.84681998
8505.41357293
8501.46584302
8497.00098415
8492.00393597
8486.47791838
8480.41392549
8473.81087489
8466.71138952
8459.04880561
8116.37116981
2653.06424954
0.0163809999315
0.00290398735224
8517.08748777
8516.57507098
8515.60472625
8514.1423107
8512.1857543
8509.73107986
8506.77250262
8503.30291264
8499.31723466
8494.80676194
8489.76249015
8484.18437736
8478.07172015
8471.44917258
8464.43964757
8457.16757249
8101.41908995
2614.0191954
0.0146252325849
0.00286542798426
8515.60336774
8515.08985873
8514.1126435
8512.63865783
8510.66696871
8508.19339588
8505.21133958
8501.71547977
8497.69839272
8493.14876588
8488.066039
8482.4260612
8476.23810019
8469.54893744
8462.52249699
8455.78713274
8092.70000943
2576.96167487
0.0113993162041
0.00322244741714
8514.61361674
8514.10072311
8513.11853008
8511.63601342
8509.65352304
8507.16674302
8504.16823613
8500.65247621
8496.61296201
8492.03998123
8486.92833764
8481.2193307
8474.9224343
8468.05360028
8460.71636708
8454.53052922
8079.87325631
2561.28115979
0.0205475452614
0.0014317965656
8514.09321705
8513.57394832
8512.58988255
8511.1011225
8509.11026678
8506.6123218
8503.60038535
8500.0670179
8496.00136609
8491.38817007
8486.2188224
8480.50816884
8474.17653674
8467.12059297
8459.36322576
8453.8397564
8111.58195612
2523.34284162
0.0314049822928
0.00491671259402
)
;

boundaryField
{
    back
    {
        type            fixedFluxPressure;
        gradient        uniform 0;
        value           nonuniform List<scalar> 
1984
(
8514.47501956
8513.95633603
8512.97214759
8511.48205356
8509.48896666
8506.98617929
8503.96750162
8500.42434503
8496.3439796
8491.71502395
8486.51233393
8480.75206433
8474.39514751
8467.30197348
8459.40822721
8453.5451568
8103.78789382
2503.34682588
0.0314563402072
0.00596121248662
8514.99422213
8514.48213905
8513.49974645
8512.01654692
8510.03206696
8507.54014993
8504.53397234
8501.00805725
8496.95025779
8492.36150331
8487.22490609
8481.49239173
8475.14983444
8468.25315562
8460.8768491
8454.38083691
8076.08644244
2545.83679628
0.0185546165242
0.0020848159893
8515.98105345
8515.46871081
8514.49177139
8513.01778363
8511.04491628
8508.5673072
8505.57961912
8502.07139872
8498.03867684
8493.47740395
8488.37847512
8482.71262908
8476.4821311
8469.77125719
8462.69047967
8455.75068049
8090.04738335
2569.18962773
0.0124913249322
0.00329688506898
8517.46056481
8516.94924263
8515.97970233
8514.51807346
8512.56166827
8510.10522561
8507.14158363
8503.66598723
8499.65520757
8495.13350945
8490.08950526
8484.50083218
8478.3882359
8471.747904
8464.69993382
8457.32903564