/*--------------------------------*- C++ -*----------------------------------*\
| =========                 |                                                 |
| \\      /  F ield         | OpenFOAM: The Open Source CFD Toolbox           |
|  \\    /   O peration     | Version:  v2012                                 |
|   \\  /    A nd           | Website:  www.openfoam.com                      |
|    \\/     M anipulation  |                                                 |
\*---------------------------------------------------------------------------*/
FoamFile
{
    version     2.0;
    format      ascii;
    class       surfaceScalarField;
    location    "3.8";
    object      phi;
}
// * * * * * * * * * * * * * * * * * * * * * * * * * * * * * * * * * * * * * //

dimensions      [0 3 -1 0 0 0 0];
oriented        oriented;


internalField   nonuniform List<scalar> 
3840
(
2.68597894969e-06
-2.68827978097e-06
3.59580254955e-06
-9.12356364098e-07
3.83907500213e-06
-2.45767315605e-07
3.99842871466e-06
-1.61632871423e-07
4.26329491459e-06
-2.66752966141e-07
4.61651734455e-06
-3.54783367515e-07
5.03468072817e-06
-4.19202702091e-07
5.55553770888e-06
-5.21574152244e-07
6.24682246762e-06
-6.91442474744e-07
7.24359600859e-06
-9.9650432068e-07
8.70060011655e-06
-1.45662309562e-06
1.10751004631e-05
-2.37386514713e-06
1.50092242863e-05
-3.93315990524e-06
2.161373829e-05
-6.60340237627e-06
3.12113242591e-05
-9.59651879939e-06
3.71338044062e-05
-5.92183500109e-06
4.36166075702e-05
-6.48266655925e-06
4.20577220119e-05
1.5546991936e-06
2.29453198521e-05
1.91218252514e-05
6.58753797472e-05
8.17518996757e-07
-3.50834602013e-06
1.3791566569e-06
-1.47668914633e-06
1.62496021947e-06
-4.94167946902e-07
1.6365860148e-06
-1.75550204571e-07
1.53416690218e-06
-1.66131933904e-07
1.37255051255e-06
-1.94564367572e-07
1.20462352615e-06
-2.5238251986e-07
1.05850522952e-06
-3.74993335571e-07
1.00966159739e-06
-6.43437351391e-07
1.17286519181e-06
-1.15902670388e-06
1.76755309076e-06
-2.05072112685e-06
2.95221742884e-06
-3.55786969808e-06
5.09291868188e-06
-6.07303895713e-06
8.36113196514e-06
-9.87061555482e-06
1.31433007099e-05
-1.43777888144e-05
2.02882016346e-05
-1.30662240823e-05
2.54955177288e-05
-1.16897955681e-05
5.23848508236e-05
-2.5316389423e-05
7.28559977896e-05
-1.36697629459e-06
3.44357352115e-05
8.76675807521e-08
-3.59860902391e-06
2.94751814901e-07
-1.68647767029e-06
3.46242825363e-07
-5.48217313921e-07
1.85724979164e-07
-1.72406572514e-08
-1.61076518546e-07
1.79024131671e-07
-6.33192259386e-07
2.76313180499e-07
-1.17551513114e-06
2.89775992338e-07
-1.78603051332e-06
2.3444268724e-07
-2.41004052232e-06
-1.76537132057e-08
-2.96611747151e-06
-6.03491196274e-07
-3.3354149615e-06
-1.68103205618e-06
-3.39861299958e-06
-3.49423912831e-06
-3.15480669227e-06
-6.31623501736e-06
-2.14752713409e-06
-1.08771877294e-05
2.28119585088e-07
-1.67527209826e-05
6.88241671774e-06
-1.97201417521e-05
1.29789620208e-05
-1.77862234614e-05
2.77851327356e-05
-4.01042993278e-05
3.93640896865e-05
-1.29590360332e-05
1.83046594932e-05
-1.04532437794e-08
-3.59069405164e-06
-1.30162286396e-08
-1.68652534677e-06
-1.35606186922e-07
-4.28047245913e-07
-4.38421168484e-07
2.83563726484e-07
-9.47988259213e-07
6.87215287056e-07
-1.60410401385e-06
9.31656301449e-07
-2.43603807928e-06
1.12121719371e-06
-3.39256318133e-06
1.19197366762e-06
-4.46942041118e-06
1.05744577383e-06
-5.69997838536e-06
6.2886094886e-07
-7.01621306984e-06
-3.65261020658e-07
-8.35148076226e-06
-2.15898418193e-06
-9.6205731743e-06
-5.04695882257e-06
-1.06676772629e-05
-9.82968671051e-06
-1.07464670138e-05
-1.6673494119e-05
-6.91550970728e-06
-2.35508359961e-05
-3.22556969813e-06
-2.14762110411e-05
4.52484165581e-06
-4.78420582952e-05
7.58904488967e-06
-1.60318670592e-05
1.40431655679e-05
1.5556101468e-07
-3.74867910686e-06
1.08206518021e-07
-1.6416278886e-06
-9.59565632262e-08
-2.26098095719e-07
-4.69766652907e-07
6.5563504091e-07
-1.03592073582e-06
1.2523330918e-06
-1.8172391053e-06
1.71270886615e-06
-2.80917280572e-06
2.11332087925e-06
-4.02994886354e-06
2.41285622671e-06
-5.55167262289e-06
2.57970493555e-06
-7.3563495315e-06
2.43188389381e-06
-9.49929123348e-06
1.77747883601e-06
-1.19949779443e-05
3.36221837224e-07
-1.47652245171e-05
-2.27691175239e-06
-1.77729653383e-05
-6.82191015568e-06
-2.03920812611e-05
-1.4054210588e-05
-2.14745635458e-05
-2.24682399562e-05
-2.04836046385e-05
-2.24672305921e-05
-1.94862899909e-05
-4.88264263336e-05
-1.64913169644e-05
-1.90357514788e-05
7.54743237974e-06
3.76071160065e-07
-4.12702798877e-06
4.44772199896e-07
-1.71259946168e-06
2.79541302624e-07
-6.28370093843e-08
-1.10067190501e-07
1.04382158235e-06
-6.89613089635e-07
1.83119666034e-06
-1.52965343622e-06
2.55290020234e-06
-2.63453606486e-06
3.21889414014e-06
-4.09386632377e-06
3.87261862129e-06
-5.9242625202e-06
4.40992912031e-06
-8.2292883615e-06
4.73599237529e-06
-1.10566803311e-05
4.60351726887e-06
-1.45662790483e-05
3.8449329286e-06
-1.87248958641e-05
1.88110658897e-06
-2.36819554535e-05
-1.86514633196e-06
-2.9435482665e-05
-8.30076491748e-06
-3.4608634246e-05
-1.72951113716e-05
-3.86022565742e-05
-1.84736944238e-05
-4.37353771987e-05
-4.36813980761e-05
-4.33962135456e-05
-1.9382893198e-05
2.15202675352e-06
6.15741868452e-07
-4.74489416373e-06
8.11309034749e-07
-1.91025030127e-06
7.7565564284e-07
-2.8909257097e-08
4.90957816083e-07
1.32741338944e-06
-3.91369261919e-08
2.36098036561e-06
-8.35731266651e-07
3.34997872502e-06
-2.00494757425e-06
4.38913632294e-06
-3.60114635106e-06
5.4694142526e-06
-5.67839895734e-06
6.48707587315e-06
-8.40607945121e-06
7.4623794276e-06
-1.19020944752e-05
8.09788170752e-06
-1.62552639852e-05
8.19691690824e-06
-2.16440593596e-05
7.26900445635e-06
-2.81016682226e-05
4.59189775651e-06
-3.63161905892e-05
-8.65306224826e-08
-4.57800481745e-05
-7.83138990038e-06
-5.52561950837e-05
-8.99765023034e-06
-6.44394607028e-05
-3.44876482273e-05
-6.90268587417e-05
-1.48022486194e-05
1.50364803957e-07
8.68061152315e-07
-5.61495088565e-06
1.29428548989e-06
-2.3384086707e-06
1.43142469537e-06
-1.67578281006e-07
1.31002850929e-06
1.44796441389e-06
9.07400189034e-07
2.76360198174e-06
2.09941903326e-07
4.0482374704e-06
-9.23249642702e-07
5.52355949745e-06
-2.54240193323e-06
7.08943284585e-06
-4.82104064278e-06
8.76533177016e-06
-7.83960321219e-06
1.04797589867e-05
-1.17711168023e-05
1.20272766309e-05
-1.68144913504e-05
1.3238848855e-05
-2.31776039279e-05
1.36309707743e-05
-3.1329707177e-05
1.27432198394e-05
-4.17214713434e-05
1.03047803429e-05
-5.49174430649e-05
5.3643541005e-06
-6.8527816578e-05
4.61257843644e-06
-8.20882951001e-05
-2.09149296874e-05
-9.04662288476e-05
-6.43279633836e-06
7.02617164359e-07
1.12035937627e-06
-6.73723592327e-06
1.85319510759e-06
-3.07310323861e-06
2.25693173916e-06
-5.72738935612e-07
2.37266846575e-06
1.33153143469e-06
2.19827741166e-06
2.93818035283e-06
1.63946958828e-06
4.60800874687e-06
6.75275079433e-07
6.48911482591e-06
-9.00054400682e-07
8.66556953623e-06
-3.14272145691e-06
1.10077460158e-05
-6.27891613285e-06
1.36143944521e-05
-1.05124798072e-05
1.62586841028e-05
-1.60492546611e-05
1.87740111147e-05
-2.31647905877e-05
2.07451888341e-05
-3.22665458358e-05
2.18440367569e-05
-4.41658547263e-05
2.22035112767e-05
-5.98604298145e-05
2.10586296463e-05
-7.69571621515e-05
2.17091583216e-05
-9.3762454046e-05
-4.09900865573e-06
-0.00010630571694
6.10344615355e-06
3.25663910886e-06
1.44729108907e-06
-8.1864665511e-06
2.52114725692e-06
-4.14883684131e-06
3.25278990736e-06
-1.30581039508e-06
3.68829660393e-06
8.95347362035e-07
3.80903023933e-06
2.81766047507e-06
3.55293456739e-06
4.8651055452e-06
2.80508983884e-06
7.23826469637e-06
1.48239802316e-06
9.98906251929e-06
-6.50321226572e-07
1.31397836249e-05
-3.68168503799e-06
1.66441916962e-05
-7.92717145355e-06
2.05015215911e-05
-1.36042753561e-05
2.44493060445e-05
-2.10460781065e-05
2.81855102886e-05
-3.06534286292e-05
3.14503085957e-05
-4.3329336723e-05
3.48787276912e-05
-6.04372276736e-05
3.81661492087e-05
-8.0337026432e-05
4.16087691011e-05
-0.000100822429102
1.63980807208e-05
-0.000116082109468
2.13552121629e-05
6.81580727323e-06
1.9107628291e-06
-1.00992654406e-05
3.33362517137e-06
-5.57367778911e-06
4.44558146965e-06
-2.41929330981e-06
5.26542187433e-06
7.47325281511e-08
5.78360527536e-06
2.29959131036e-06
5.92136755622e-06
4.72818412785e-06
5.5698932709e-06
7.59085601821e-06
4.57638271828e-06
1.09830034904e-05
2.8336007854e-06
1.48817186336e-05
4.85008442472e-08
1.94271744946e-05
-3.93502314402e-06
2.44821486874e-05
-9.47382232834e-06
2.99861013905e-05
-1.69295922972e-05
3.56396246659e-05
-2.6745865825e-05
4.12653367525e-05
-3.97289555374e-05
4.78609814407e-05
-5.704021718e-05
5.5476937351e-05
-7.78821936754e-05
6.24505300556e-05
-0.00010084733735
3.93739547895e-05
-0.000117798366398
3.82994323444e-05
1.00730402026e-05
2.28282082819e-06
-1.23842616712e-05
4.2305963421e-06
-7.52356143866e-06
5.83530633883e-06
-4.02566120688e-06
7.13498530822e-06
-1.22586993852e-06
8.13417924234e-06
1.30031109153e-06
8.76677541319e-06
4.09618081605e-06
8.93386017266e-06
7.42453795034e-06
8.49690287718e-06
1.14200554093e-05
7.26052638855e-06
1.61166013653e-05
5.04584321536e-06
2.16394503112e-05
1.56413162577e-06
2.79602426289e-05
-3.51323344185e-06
3.50611852931e-05
-1.06545020377e-05
4.27789853936e-05
-2.04248773557e-05
5.10341973988e-05
-3.3141752605e-05
6.05767772434e-05
-4.897934453e-05
7.13138698967e-05
-6.85471735089e-05
8.20180956407e-05
-9.31372786834e-05
6.39730266858e-05
-0.000112089254455
5.72465526866e-05
1.43342645621e-05
2.84531717716e-06
-1.52318583254e-05
5.28319085166e-06
-9.96361620425e-06
7.40506236944e-06
-6.14927130924e-06
9.25837783236e-06
-3.08023844402e-06
1.08418220474e-05
-2.83431016779e-07
1.20971232471e-05
2.84113136591e-06
1.292628506e-05
6.59573876964e-06
1.31845451651e-05
1.11613540181e-05
1.26901168303e-05
1.6609076714e-05
1.1297330829e-05
2.30292226879e-05
8.69261194003e-06
3.05607489031e-05
4.50367582096e-06
3.92474439081e-05
-1.73777066717e-06
4.90180562969e-05
-1.04686026824e-05
5.97629856791e-05
-2.16274309514e-05
7.17340156198e-05
-3.48509514535e-05
8.45363473776e-05
-5.22538610318e-05
9.94205873059e-05
-7.82489672237e-05
8.9978164211e-05
-9.95989866782e-05
7.85909182326e-05
2.23080244963e-05
3.35683504482e-06
-1.8590950829e-05
6.382248449e-06
-1.29911451128e-05
9.12220123424e-06
-8.89092141461e-06
1.16184820046e-05
-5.57761157409e-06
1.38680901521e-05
-2.5335080681e-06
1.58378616693e-05
8.71317583126e-07
1.74232872786e-05
5.01030870852e-06
1.85931406354e-05
9.99056885745e-06
1.91277771516e-05
1.60717442822e-05
1.8819998412e-05
2.33328112149e-05
1.74240615221e-05
3.19512143429e-05
1.4523495858e-05
4.21437208436e-05
9.84235877862e-06
5.36948765843e-05
2.92919785876e-06
6.66718813159e-05
-5.91634194958e-06
8.05760117729e-05
-1.58080840283e-05
9.4425511033e-05
-3.03070565803e-05
0.000113918502597
-5.77019366437e-05
0.000117386399248
-7.94458003484e-05
0.000100328822763
3.30119068075e-05
4.02421078372e-06
-2.26172128971e-05
7.62907335673e-06
-1.65978773416e-05
1.09889782255e-05
-1.22523190004e-05
1.41723855405e-05
-8.76200905379e-06
1.7162894865e-05
-5.52452859806e-06
1.99628705462e-05
-1.92876838038e-06
2.25301679549e-05
2.44259850597e-06
2.47009152165e-05
7.81832905735e-06
2.63915096542e-05
1.43767514077e-05
2.74167165201e-05
2.23030997282e-05
2.75086525791e-05
3.18494930242e-05
2.65893994495e-05
4.30556402428e-05
2.41211657931e-05
5.61547920466e-05
1.99163860715e-05
7.08692016193e-05
1.38245715852e-05
8.66609544511e-05
6.22643614356e-06
0.000102019602029
-6.55993136714e-06
0.000126703215036
-3.27683571806e-05
0.000143615973349
-5.03055614221e-05
0.000117858540614
4.83862860982e-05
4.61626482667e-06
-2.72351844156e-05
8.91908582173e-06
-2.09021530446e-05
1.29542057545e-05
-1.62885647148e-05
1.68450335803e-05
-1.26535473345e-05
2.06678833988e-05
-9.34712582578e-06
2.4385374187e-05
-5.64644688383e-06
2.79550658428e-05
-1.12722421987e-06
3.1311562921e-05
4.45979052044e-06
3.43551190242e-05
1.13304986785e-05
3.69456850316e-05
1.97053543875e-05
3.89801299866e-05
2.98051471544e-05
4.01561362591e-05
4.18695246158e-05
4.02592669905e-05
5.60413055492e-05
3.91568296461e-05
7.19607410056e-05
3.69321162912e-05
8.88770843479e-05
3.07746212928e-05
0.000108171176592
2.00122455917e-05
0.000137463512856
2.53679140672e-06
0.000161116410389
-8.66262184679e-06
0.000129047608514
8.16001123352e-05
5.20380931413e-06
-3.24401477925e-05
1.01660283108e-05
-2.58652027911e-05
1.49390091149e-05
-2.1061932655e-05
1.96190586054e-05
-1.73322922663e-05
2.42904854035e-05
-1.40179032853e-05
2.89688190548e-05
-1.03236735836e-05
3.36462897818e-05
-5.80428774175e-06
3.82611109436e-05
-1.55508568969e-07
4.27687951382e-05
6.81773549527e-06
4.71038051188e-05
1.53627694772e-05
5.11323092935e-05
2.57638261268e-05
5.46564523667e-05
3.83303348295e-05
5.74524743219e-05
5.32277145174e-05
5.9358161071e-05
7.00379603515e-05
6.06624011635e-05
8.75572899019e-05
6.20477610278e-05
0.000106775482689
6.04319568067e-05
0.000139075461535
5.64501320655e-05
0.000165107739491
5.9894282187e-05
0.000125613770196
0.000132173323559
5.85438232648e-06
-3.8294939659e-05
1.14337340306e-05
-3.14444954611e-05
1.68878746111e-05
-2.65142015522e-05
2.2338376916e-05
-2.27810340139e-05
2.78784439247e-05
-1.95553672137e-05
3.3548571385e-05
-1.59911795058e-05
3.93471566421e-05
-1.16012311842e-05
4.53036524428e-05
-6.11173851036e-06
5.14323500279e-05
6.86695508287e-07
5.76960604466e-05
9.0935761876e-06
6.39987429705e-05
1.94520635895e-05
7.02316061992e-05
3.20853337863e-05
7.61539861016e-05
4.72910536065e-05
8.15995308655e-05
6.45778425054e-05
8.69529167686e-05
8.21910047881e-05
9.46287408495e-05
9.90911393341e-05
0.000101243795208
0.000132457432877
0.000106715975138
0.000159659593857
0.000128252626847
0.00010404321018
0.000280047853288
6.43253119971e-06
-4.47278747739e-05
1.26224716078e-05
-3.76336489491e-05
1.87284212427e-05
-3.26182279397e-05
2.49061896317e-05
-2.89555500979e-05
3.12859547959e-05
-2.59301476377e-05
3.78959580352e-05
-2.2597966358e-05
4.48391319423e-05
-1.85418043583e-05
5.21918611952e-05
-1.34635516303e-05
5.99802553821e-05
-7.1038340629e-06
6.82983781759e-05
7.6934215811e-07
7.7067588219e-05
1.06723989224e-05
8.62994947338e-05
2.28391863437e-05
9.59903845338e-05
3.7583498865e-05
0.000105942725032
5.46085142931e-05
0.000116209242612
7.19097198917e-05
0.000128447675423
8.68432249427e-05
0.000142555499867
0.000118346411904
0.00015927730072
0.000142958925445
0.00019765036804
6.56378195494e-05
0.000541351953765
6.96298921026e-06
-5.16906502636e-05
1.3673523481e-05
-4.43433535275e-05
2.03760291052e-05
-3.9317673941e-05
2.7228993421e-05
-3.58041413338e-05
3.43196649659e-05
-3.30166520699e-05
4.18533618216e-05
-3.01270787254e-05
4.9920865125e-05
-2.66053846388e-05
5.86212673043e-05
-2.21620938547e-05
6.80700722923e-05
-1.65543829828e-05
7.83393787539e-05
-9.50636194743e-06
8.96522805145e-05
-6.51917446485e-07
0.000102073871607
1.04019158537e-05
0.000115735030064
2.39040830915e-05
0.000130743582082
3.95816270011e-05
0.000147088595582
5.55491722037e-05
0.000163469855112
7.04523947306e-05
0.000183179669748
9.863339277e-05
0.000206471066342
0.000119683506387
0.000288317769398
-1.62719074572e-05
0.000512097655928
7.35439236518e-06
-5.90450244522e-05
1.45578998924e-05
-5.15463093224e-05
2.1755751001e-05
-4.65135599607e-05
2.91571330473e-05
-4.32018439748e-05
3.69622377294e-05
-4.08165394976e-05
4.53298893451e-05
-3.84887298424e-05
5.43825806471e-05
-3.56526333919e-05
6.43021445005e-05
-3.20784543904e-05
7.52368708327e-05
-2.74898309687e-05
8.74008432562e-05
-2.16761476664e-05
0.000101025810148
-1.42880749771e-05
0.000116408674044
-4.99663625469e-06
0.000133847501953
6.44706549952e-06
0.000153562537585
1.98486583353e-05
0.000175468771793
3.36282566913e-05
0.000197334470514
4.85780844312e-05
0.000222661919561
7.33030020653e-05
0.000251200195612
9.11717391921e-05
0.00040180298793
-0.000166965774457
-0.000203841614382
7.66224867121e-06
-6.67077731786e-05
1.5223724788e-05
-5.91076766327e-05
2.2827296166e-05
-5.41152760217e-05
3.06999200384e-05
-5.1070343319e-05
3.90604288717e-05
-4.91708079596e-05
4.81228941439e-05
-4.75437000859e-05
5.80012695417e-05
-4.55237627527e-05
6.89359916639e-05
-4.30080663983e-05
8.11618316366e-05
-3.97145386744e-05
9.4948052369e-05
-3.54664595953e-05
0.000110617366174
-2.99669246661e-05
0.00012857000131
-2.29632747921e-05
0.000149320497528
-1.43197247904e-05
0.000173424978767
-4.27153279913e-06
0.000199918215095
7.12277100582e-06
0.000228820099759
1.96695353197e-05
0.0002605212295
4.15998636844e-05
0.000297325029593
5.43768691172e-05
0.000384655165283
-0.000254252210133
-3.37388949935e-05
7.86690352895e-06
-7.45771483412e-05
1.56531196715e-05
-6.68951010076e-05
2.35267239107e-05
-6.19874500212e-05
3.17263520328e-05
-5.92650624405e-05
4.05056064955e-05
-5.79416569609e-05
5.00088734349e-05
-5.70359793576e-05
6.0536047824e-05
-5.60391914665e-05
7.22734809054e-05
-5.47353909525e-05
8.55148984697e-05
-5.29497709092e-05
0.000100555293752
-5.05064732366e-05
0.000117826772017
-4.72443421295e-05
0.000137842814605
-4.29905088658e-05
0.000161143956051
-3.76347766379e-05
0.000188209427776
-3.13502070439e-05
0.000219465385902
-2.4142551439e-05
0.000253510815977
-1.43799750771e-05
0.000292276143534
2.83398975246e-06
0.000338205622696
8.44611201105e-06
0.000405106838577
-0.000321076044119
0.000198000288082
7.94946217984e-06
-8.2531395652e-05
1.58025592445e-05
-7.47505694821e-05
2.37934340622e-05
-6.99763638973e-05
3.21620009262e-05
-6.76261762177e-05
4.11349957858e-05
-6.69016094634e-05
5.0954475845e-05
-6.68381408331e-05
6.18673191415e-05
-6.69329669e-05
7.41113724474e-05
-6.69598926883e-05
8.80357466382e-05
-6.68604615491e-05
0.000103951248228
-6.64162631539e-05
0.000122360566698
-6.56562449185e-05
0.000143765544298
-6.44046503908e-05
0.000168835562406
-6.27169054241e-05
0.000198288098819
-6.0813253561e-05
0.000232607405255
-5.84675481345e-05
0.000270544393579
-5.2317936783e-05
0.00031486763889
-4.14884644293e-05
0.000369102842102
-4.57981410248e-05
0.000432249654493
-0.000384116280579
0.000685589483975
7.84892501817e-06
-9.03858975479e-05
1.5642932035e-05
-8.25469146177e-05
2.35867592541e-05
-7.79172524855e-05
3.1934761503e-05
-7.59646003634e-05
4.09320786597e-05
-7.58827185103e-05
5.08246577028e-05
-7.67094191574e-05
6.18607172365e-05
-7.79417658064e-05
7.43249894614e-05
-7.93981396332e-05
8.851393613e-05
-8.10275983993e-05
0.000104857498015
-8.27490919524e-05
0.000123793099437
-8.45915353035e-05
0.000145888343869
-8.65068472642e-05
0.000171862321775
-8.87006501696e-05
0.000202340093637
-9.12989054984e-05
0.000237468460498
-9.35993553442e-05
0.000277633499419
-9.24829575849e-05
0.000324000957646
-8.78552305037e-05
0.00037967903182
-0.000101481920834
0.000439875627212
-0.000443851415368
0.0013647562283
7.60759067056e-06
-9.80009821545e-05
1.51759607252e-05
-9.01185960769e-05
2.28994163454e-05
-8.56368365904e-05
3.10414274069e-05
-8.40935196467e-05
3.98462626728e-05
-8.46649185719e-05
4.95600154036e-05
-8.63910241069e-05
6.04377649528e-05
-8.87797637159e-05
7.27729856674e-05
-9.16900487129e-05
8.68820130322e-05
-9.50867010092e-05
0.000103158376023
-9.90071594034e-05
0.000122061053305
-0.000103490799944
0.000144174951656
-0.000108628659213
0.000170075291633
-0.000114614501878
0.000200428904725
-0.000121665061739
0.000235752685577
-0.000128930387502
0.000276114117525
-0.000132846727387
0.000321303385524
-0.000133044850489
0.000374358955619
-0.000154550071687
0.000615009968384
-0.000683849317032
-0.00268806740959
7.22064887092e-06
-0.000105223134991
1.43986720731e-05
-9.72953625399e-05
2.17385569059e-05
-9.29713618205e-05
2.94771707533e-05
-9.18218090516e-05
3.78681343695e-05
-9.3040714716e-05
4.71523662412e-05
-9.56539686488e-05
5.7580398291e-05
-9.91832505961e-05
6.94224346247e-05
-0.000103505814142
8.30298068841e-05
-0.000108658775
9.87556523985e-05
-0.000114722212721
0.00011707625
-0.000121809222198
0.000138527928538
-0.000130085068016
0.00016369107692
-0.000139786108329
0.000193201909652
-0.000151184895461
0.000227605266154
-0.000163341207541
0.000266598663332
-0.000171845410205
0.000308926610872
-0.000175373638989
0.000340467800877
-0.000186108759446
0.000258467551182
-0.000601718203161
-0.00165168896963
6.64418459106e-06
-0.000111866176262
1.3273278645e-05
-0.000103920793644
2.00507129845e-05
-9.97415611909e-05
2.72094192354e-05
-9.89691092381e-05
3.4983211647e-05
-0.000100799219278
4.35994892181e-05
-0.000104251715751
5.32977215555e-05
-0.000108860617592
6.43507386436e-05
-0.000114537502716
7.70724747655e-05
-0.000121350948163
9.18049539043e-05
-0.000129439022647
0.000108995968635
-0.00013899396038
0.000129166655467
-0.000150262963807
0.000152898498117
-0.000163529220707
0.0001807344421
-0.000179033410328
0.000213246410083
-0.000195864710647
0.000251013649693
-0.000209621308731
0.000294135404797
-0.000218498288718
0.000329679797754
-0.000221662307707
0.000358219671486
-0.000630405133453
-0.00077266855733
5.91174488514e-06
-0.000117774714292
1.1820568692e-05
-0.000109824149695
1.78733605299e-05
-0.000105785737555
2.42716335601e-05
-0.000105355212943
3.12301505542e-05
-0.00010774246067
3.89523733201e-05
-0.000111956749165
4.76687410139e-05
-0.000117559334169
5.76095272769e-05
-0.000124462857987
6.90724600313e-05
-0.00013280496559
8.23790561938e-05
-0.000142744163742
9.79415742382e-05
-0.000154557775886
0.000116289579871
-0.000168621778735
0.000137960925414
-0.000185215451022
0.000163426734321
-0.000204515607431
0.000192914783175
-0.00022536798904
0.000227156590051
-0.000243874546154
0.000264903527608
-0.000256250986747
0.00029566667502
-0.000252426886077
0.000336928641051
-0.000671523719966
-0.000193234503829
5.05658165452e-06
-0.000122826921269
1.0088306184e-05
-0.000114849575726
1.52341206575e-05
-0.000110922525124
2.0714764037e-05
-0.000110823811822
2.66777569304e-05
-0.0001136909326
3.32955392228e-05
-0.000118558871012
4.07610043356e-05
-0.000125009821565
4.93207239796e-05
-0.0001330113062
5.91846905172e-05
-0.000142664765138
7.06669228575e-05
-0.000154229417974
8.41418186023e-05
-0.000168040553388
0.000100033785149
-0.000184527823645
0.000118960099847
-0.000204159717213
0.000141425650295
-0.00022700048249
0.000167185167208
-0.000251145322948
0.000194770632614
-0.000271473253882
0.000225812244744
-0.000287299214303
0.000258382665715
-0.000285000502865
0.00031636421914
-0.000729284906471
0.000423524893878
4.03816969237e-06
-0.000126860525294
8.07345806469e-06
-0.000118878749948
1.2209548798e-05
-0.000115050190732
1.65946782547e-05
-0.000115197977196
2.13891232692e-05
-0.000118472426677
2.67448359231e-05
-0.000123900958706
3.27949407426e-05
-0.000131047512117
3.97082923296e-05
-0.000139916617334
4.76584211713e-05
-0.000150614085288
5.69227127079e-05
-0.00016349971638
6.7796275018e-05
-0.000178926434843
8.06535604548e-05
-0.0001974011719
9.60156401907e-05
-0.00021954140603
0.000114190135732
-0.000245195704182
0.000134172258519
-0.000271146367479
0.000152918699757
-0.000290233651154
0.000171841683945
-0.000306228712853
0.000214097538301
-0.000327257070384
0.000362965381377
-0.000878342010779
-0.00131008857191
2.88404468108e-06
-0.000129740656967
5.82268528026e-06
-0.000121812277514
8.86019197046e-06
-0.000118080653041
1.20786607668e-05
-0.000118407270127
1.5595946202e-05
-0.000121978910454
1.95199497862e-05
-0.000127813722189
2.39575970603e-05
-0.000135475230718
2.89931288101e-05
-0.000144946596083
3.47855098966e-05
-0.000156407627012
4.14416428167e-05
-0.000170163152894
4.92550642021e-05
-0.000186754061668
5.84553637002e-05
-0.000206617870999
6.92573388192e-05
-0.00023036295405
8.17740645809e-05
-0.000257732876578
9.4000886938e-05
-0.000283391704588
0.000101349305436
-0.000297595649044
0.000101996912382
-0.000306883070809
0.000114592957748
-0.000339851575921
0.000221195471417
-0.000984989404088
-0.000959046005064
1.67884224922e-06
-0.000131416791996
3.42871382921e-06
-0.000123558526356
5.25784259592e-06
-0.000119904545966
7.21201814229e-06
-0.000120354404698
9.35428281162e-06
-0.000124112754348
1.1759192755e-05
-0.000130209839388
1.44731773444e-05
-0.000138181561143
1.7551097344e-05
-0.000148020739251
2.09960930113e-05
-0.000159854520823
2.49141116462e-05
-0.00017408827251
2.92498640165e-05
-0.000191103579225
3.41512472549e-05
-0.000211534477117
3.9627978118e-05
-0.0002358577046
4.50432283466e-05
-0.000263166833795
4.88307399061e-05
-0.000287196048321
4.83406171396e-05
-0.000297117788784
4.1675669105e-05
-0.000300223872595
5.48772178842e-05
-0.000353054219972
4.36086124602e-05
-0.000973773025289
-0.000829335076453
4.39034195245e-07
-0.000131854534826
9.37739759976e-07
-0.0001240552387
1.48800145529e-06
-0.000120451458102
2.10887684453e-06
-0.00012097038271
2.83617440362e-06
-0.000124833936784
3.68674999595e-06
-0.000131053889923
4.56900932195e-06
-0.00013905811552
5.63438903946e-06
-0.000149083491181
6.75846516548e-06
-0.000160980330579
7.80556318544e-06
-0.00017514123707
8.630470751e-06
-0.000191940149209
8.98547064567e-06
-0.000211902450398
8.44541226662e-06
-0.000235333040344
6.35202957746e-06
-0.000261089402147
2.35095989628e-06
-0.000283209269676
-1.00643491957e-06
-0.000293770746147
-2.1261695116e-06
-0.000299109002267
-1.1600158824e-05
-0.000343580257001
-8.17893490197e-05
-0.000903642051008
-0.000701247259572
-8.22078578358e-07
-0.000131032500573
-1.60154972897e-06
-0.00012327524985
-2.35900866269e-06
-0.000119692334691
-3.0917913966e-06
-0.000120234601936
-3.80904989836e-06
-0.000124112581279
-4.61884109539e-06
-0.000130239515364
-5.32231412388e-06
-0.000138350523988
-6.25562924362e-06
-0.000148148234671
-7.46936764898e-06
-0.000159767684436
-9.17967746305e-06
-0.000173435101281
-1.17468601694e-05
-0.000189381715097
-1.56766144174e-05
-0.000207982901464
-2.17311836421e-05
-0.000229290720439
-3.0770056209e-05
-0.000252063263128
-4.13833743533e-05
-0.000272607351198
-4.76450912503e-05
-0.000287517251499
-4.45708601765e-05
-0.000302187084295
-5.95618466699e-05
-0.000328590527598
-0.000164782392767
-0.000798383135819
-0.000623097099561
-2.13242510944e-06
-0.000128901153246
-4.20264222662e-06
-0.000121205634841
-6.22532432347e-06
-0.000117669290862
-8.33957731539e-06
-0.000118118851641
-1.0480942389e-05
-0.000121968735015
-1.26776745767e-05
-0.000128039758517
-1.51231072881e-05
-0.000135902222603
-1.78844933685e-05
-0.000145385328202
-2.11355255851e-05
-0.00015651702726
-2.52636609021e-05
-0.000169309498885
-3.06782009826e-05
-0.000183972992971
-3.78561772211e-05
-0.000200812365516
-4.7909204558e-05
-0.00021924680997
-6.19201659479e-05
-0.000238061868673
-7.70820692317e-05
-0.000257454041835
-8.75756202244e-05
-0.000277029888006
-8.9426511889e-05
-0.000300339031161
-0.000111998094066
-0.000306020282531
-0.000233348160339
-0.000676980549471
-0.000560754272836
-3.48844228939e-06
-0.000125414397988
-6.81769470279e-06
-0.00011787764996
-1.01160461646e-05
-0.000114371417021
-1.34382318585e-05
-0.000114796210449
-1.69327498447e-05
-0.000118472917473
-2.06168754921e-05
-0.000124353788752
-2.45927381469e-05
-0.000131924459196
-2.89755530803e-05
-0.000141001315193
-3.39254644932e-05
-0.000151566973003
-4.00940955327e-05
-0.000163142147391
-4.71343152886e-05
-0.000176936198374
-5.6351108194e-05
-0.000191600630636
-6.84529337923e-05
-0.000207151364656
-8.35676378516e-05
-0.000222953962663
-0.000100802074628
-0.000240225756266
-0.000115157095429
-0.000262679307242
-0.000124680652508
-0.000290817412466
-0.000147771177663
-0.000282930153821
-0.000257679497822
-0.000567094473799
-0.000497144505499
-4.8007777208e-06
-0.000120615471714
-9.34201185698e-06
-0.000113337891556
-1.38514816387e-05
-0.000109862810389
-1.84358884575e-05
-0.000110211950565
-2.32143735654e-05
-0.000113693912846
-2.8242880652e-05
-0.000119324284281
-3.36267859731e-05
-0.000126539399261
-3.94744976621e-05
-0.000135152734411
-4.60659602602e-05
-0.000144975169321
-5.31458317256e-05
-0.000156062829368
-6.16609701959e-05
-0.000168422874342
-7.17534292552e-05
-0.000181511418492
-8.43498771099e-05
-0.00019455914995
-9.91237234847e-05
-0.000208184708364
-0.000116428343627
-0.000222925329467
-0.000133148062594
-0.000245962622314
-0.000153306285235
-0.000270660463921
-0.000181023986346
-0.000255212568672
-0.000252419145035
-0.000495727234844
-0.000433710319796
-5.9707237284e-06
-0.000114646375642
-1.17750683355e-05
-0.000107534843671
-1.74607123368e-05
-0.00010417803117
-2.32328109403e-05
-0.000104440234179
-2.92200436996e-05
-0.000107706610473
-3.55031534483e-05
-0.00011304076229
-4.21388073675e-05
-0.000119903176591
-4.92892467603e-05
-0.000128001889057
-5.6979648738e-05
-0.00013728466251
-6.53269348039e-05
-0.000147715966715
-7.47446492713e-05
-0.000159006191602
-8.5492950163e-05
-0.000170765191099
-9.80851667306e-05
-0.000181969633677
-0.000112495261449
-0.000193777632052
-0.00012855800515
-0.000206865335453
-0.0001457775752
-0.000228745117572
-0.000168160052227
-0.000248278832912
-0.000197065014011
-0.000226307735958
-0.000243996208587
-0.000448809613854
-0.000373543406599
-7.25415817301e-06
-0.000107393133005
-1.40837047849e-05
-0.000100706002325
-2.08823549447e-05
-9.73798707961e-05
-2.77708321915e-05
-9.75520125883e-05
-3.49082124404e-05
-0.000100569334566
-4.23451632869e-05
-0.000105603802283
-5.01354952914e-05
-0.000112113041319
-5.84970797401e-05
-0.000119640586769
-6.70300147626e-05
-0.000128752247185
-7.62528341088e-05
-0.000138493517897
-8.61986360372e-05
-0.000149061650561
-9.70562587844e-05
-0.000159908902506
-0.000108744808442
-0.00017028296811
-0.000122408413323
-0.000180115885349
-0.000136834986538
-0.000192440763491
-0.000150766374827
-0.000214815024961
-0.000171876525503
-0.000227169329124
-0.000201208627316
-0.000196975910378
-0.000260220957241
-0.000389788831654
-0.000323211677647
-8.23761322305e-06
-9.91555046192e-05
-1.62209283681e-05
-9.27226277812e-05
-2.40363995544e-05
-8.95643155356e-05
-3.19975627721e-05
-8.95910350339e-05
-4.02428549071e-05
-9.23242095481e-05
-4.8803693669e-05
-9.70436506933e-05
-5.79075645978e-05
-0.000103009966656
-6.68751602374e-05
-0.00011067389198
-7.64188120816e-05
-0.000119209152725
-8.63268007869e-05
-0.000128586546777
-9.62842121228e-05