/*--------------------------------*- C++ -*----------------------------------*\
| =========                 |                                                 |
| \\      /  F ield         | OpenFOAM: The Open Source CFD Toolbox           |
|  \\    /   O peration     | Version:  v2012                                 |
|   \\  /    A nd           | Website:  www.openfoam.com                      |
|    \\/     M anipulation  |                                                 |
\*---------------------------------------------------------------------------*/
FoamFile
{
    version     2.0;
    format      ascii;
    class       surfaceVectorField;
    location    "3.8";
    object      Uf_0;
}
// * * * * * * * * * * * * * * * * * * * * * * * * * * * * * * * * * * * * * //

dimensions      [0 1 -1 0 0 0 0];


internalField   nonuniform List<vector> 
3840
(
(1.5465191383e-05 0.000211886019513 7.82002338515e-22)
(-0.000212306035693 -3.01315908754e-05 7.57273082023e-22)
(0.000240659994534 7.24123476604e-05 6.22930703133e-22)
(0.000139004884472 7.67455063079e-06 1.03733637953e-21)
(0.00029770214308 -0.000208044509394 -3.23557790902e-23)
(0.00027998298123 -0.000268522540945 3.81862505014e-22)
(0.000284234879202 -0.00050728494523 -6.0192333244e-22)
(0.000298792746392 -0.000575295282164 -3.63155192885e-22)
(0.00026207808764 -0.00078853818926 -8.16483283404e-22)
(0.000280868893824 -0.000893623611056 -9.38628443703e-22)
(0.000250420550916 -0.0010568230838 -6.43039919243e-22)
(0.000267998093844 -0.00121333433353 -8.73213377276e-22)
(0.000242590435786 -0.00131876547877 -4.97193161962e-23)
(0.000261804006374 -0.0015287812144 -6.12285692402e-22)
(0.00023404549314 -0.00156824652085 5.93946536334e-22)
(0.000249446205963 -0.00184368154433 1.28757186821e-22)
(0.000218066027482 -0.00179397317918 7.75770630499e-22)
(0.000225863217131 -0.00214566017122 5.20568554258e-22)
(0.000177958382588 -0.0019720581539 4.38847509966e-22)
(0.00017830632714 -0.00241410313601 3.29524824826e-22)
(9.7446210287e-05 -0.00205585310519 4.83098832553e-23)
(8.40909436212e-05 -0.00263098955296 -5.01428831562e-23)
(-6.12738363367e-05 -0.00198075917809 -1.84079984091e-22)
(-7.47113556452e-05 -0.00274647593466 -1.61520364594e-22)
(-0.000328604580686 -0.00165694613068 -8.06250760687e-22)
(-0.000323361755041 -0.00267587838642 -4.64596034716e-22)
(-0.000664174281139 -0.000898559710012 -1.73523659056e-21)
(-0.000757924616129 -0.00228062582395 -1.5580947321e-21)
(-0.000753372312958 0.000244785660658 -2.20951694219e-21)
(-0.0011429471782 -0.00132967227161 -3.23852849325e-21)
(4.9451031296e-05 0.000946825648141 1.93839436337e-22)
(-0.00070182819653 0.00150365921304 -5.39261219267e-21)
(0.00523100086653 0.00132746473957 4.47735100443e-21)
(-0.000380508265417 -0.00683812354084 -1.44646666688e-21)
(0.0118446040998 -0.000269229620331 6.14028072782e-21)
(0.00159808780446 0.000120126736171 1.13492335175e-21)
(0.00861869077397 -0.00772112669982 3.44560894042e-21)
(0.00745125071644 0.00614455592342 9.68014293802e-22)
(0.0127921918246 -0.000384279105515 4.10165701102e-21)
(-4.20722146734e-06 -0.000156544732584 1.01260712304e-21)
(-5.62298961683e-05 -0.000260625156097 1.16219118202e-21)
(0.000295601417863 -0.000374267370045 7.96268181414e-22)
(0.000356223675591 -0.000309949119852 1.45531928845e-21)
(0.000408133276866 -0.000650982203453 5.10630912193e-23)
(0.00055619841618 -0.000602042471925 6.79952002536e-22)
(0.000427688697528 -0.000978143234094 -6.99860304148e-22)
(0.000625495819367 -0.000933904884656 -1.82905682011e-22)
(0.000422587302272 -0.00133216057583 -9.95358537574e-22)
(0.000634510274535 -0.00129750920225 -7.72744535792e-22)
(0.000419314330579 -0.00170307330696 -8.42459150434e-22)
(0.000638641394507 -0.00168621085388 -7.51682475929e-22)
(0.00041346236046 -0.00208061214315 -4.33809189384e-22)
(0.000639178791918 -0.00209171713009 -5.4895251517e-22)
(0.000392313956338 -0.00246045799092 5.53792047447e-23)
(0.000629446243841 -0.00251074314161 -1.00836337177e-22)
(0.000342848260467 -0.00282818563145 7.43227485852e-23)
(0.000593633437419 -0.00293134582912 1.50739611579e-22)
(0.000243198376144 -0.00316115652287 -1.59465568296e-22)
(0.000511594362394 -0.00334066478848 -1.06340533667e-22)
(6.38210152592e-05 -0.00343332854215 -2.59973131005e-22)
(0.000356612038623 -0.00371876651392 -2.06013905206e-22)
(-0.000236602120174 -0.00360161238919 -4.42036415219e-22)
(9.39673384122e-05 -0.00402959618346 -2.66744379228e-22)
(-0.000691839602558 -0.0035739603919 -1.21644000613e-21)
(-0.000350581915244 -0.00423353806903 -6.10397245145e-22)
(-0.00121782691423 -0.00330667283621 -3.06138663478e-21)
(-0.00102477844082 -0.0042398269379 -1.63291668647e-21)
(-0.00124073165 -0.0026481315585 -6.42162374373e-21)
(-0.0018011283712 -0.00374032498546 -3.40250907102e-21)
(-0.0010603027366 -0.00158919786612 -7.03291829589e-21)
(-0.00176055814331 -0.00192317153456 -8.25526258189e-21)
(-0.00230620601231 -0.00107076779718 -4.78889431956e-21)
(-0.00089888499751 -0.00950555360568 -3.79097346118e-21)
(-0.00101805402141 0.00377949241137 -4.03734308227e-21)
(-0.00325180016608 -0.00318016636156 -1.22724975033e-20)
(0.0091854963671 0.00963168136308 1.62406236441e-21)
(0.00159927535824 0.00401197381156 -1.14842735801e-20)
(0.0074225250597 0.0122213286116 3.10696748412e-21)
(0.000278830639844 -0.000305695967042 1.60490334743e-21)
(0.000248986086235 -0.000320541719685 1.44277451746e-21)
(0.00058349684574 -0.000586651097079 1.33900310957e-21)
(0.000636669330406 -0.00042457034761 1.74818862541e-21)
(0.000738001566656 -0.000901224846942 4.45983229305e-22)
(0.000870272982231 -0.000755891293582 9.76162713494e-22)
(0.000798094985895 -0.00126093560265 -2.55789913655e-22)
(0.000984753628287 -0.0011175243342 1.516670176e-22)
(0.000820164320699 -0.0016618648674 -5.29068474147e-22)
(0.00103507755523 -0.00151377227009 -3.17002014105e-22)
(0.000833175947063 -0.00209242105562 -4.58175840665e-22)
(0.00106893400347 -0.00194484878115 -3.80566283272e-22)
(0.000837704041594 -0.0025423793458 -2.15979662962e-22)
(0.00108909102247 -0.00240554613984 -2.60757385943e-22)
(0.000819601830425 -0.00301220058992 -5.47593034246e-24)
(0.0010991704434 -0.00289477830941 -2.86891614953e-23)
(0.000758179439881 -0.0034918975552 -2.99236706731e-23)
(0.00107377275546 -0.00340467828973 3.16666857301e-23)
(0.000626595591394 -0.00396659696215 -1.52888870577e-22)
(0.000986429988167 -0.0039318357974 -8.29621178683e-23)
(0.00038840800494 -0.00441629799366 -2.1278515343e-22)
(0.000806625317438 -0.00446446287373 -1.45652218101e-22)
(-9.3443770638e-06 -0.00481308666248 -4.35105209154e-22)
(0.000491102995026 -0.00497616527072 -1.76921338939e-22)
(-0.000642138091212 -0.0051253888672 -1.02687392548e-21)
(-3.79034293776e-05 -0.00545853685114 -5.0960532847e-22)
(-0.0015126476723 -0.00527292409821 -1.9740391227e-21)
(-0.000876874893613 -0.00584819103701 -1.05904968331e-21)
(-0.00215456851802 -0.00505152538212 -5.23614790917e-21)
(-0.00202221691801 -0.00582786308734 -1.70847731238e-21)
(-0.00177812908576 -0.00400489273823 -5.01331774718e-21)
(-0.00280701936966 -0.00500364845769 -4.55231680883e-21)
(-0.00248991830027 -0.00305564689712 -1.12745766449e-20)
(-0.00184813599479 -0.012159860916 -4.08159025635e-21)
(-0.00158254995895 -0.000992303876113 -1.97194280011e-20)
(-0.00530838953763 -0.0063709128313 -1.75847950512e-20)
(0.00152388517963 0.00110885716459 -1.00013684604e-20)
(-0.000507654600193 -0.000242435178651 -1.67523539489e-20)
(0.00421799793041 0.00156621815514 -1.09327028874e-21)
(0.000599654574143 -0.000321859928311 1.58605979544e-21)
(0.00057037496804 -0.000302826861641 1.24772679822e-21)
(0.000914116260965 -0.000642336115074 1.38534822933e-21)
(0.000956649849176 -0.000424154043497 1.70239576409e-21)
(0.00110605607911 -0.000988813564946 6.81846501789e-22)
(0.00121626940871 -0.000775718824729 1.08391213203e-21)
(0.0012110013185 -0.00137403457532 9.04549171505e-23)
(0.00136954548922 -0.00115880843715 3.83620039389e-22)
(0.00127230430272 -0.00180437559112 -1.6849982323e-22)
(0.00146508776087 -0.00157585269945 -1.7744447248e-23)
(0.00131811931815 -0.00226830144521 -1.8314782855e-22)
(0.00153264361203 -0.00203154055057 -1.20206684339e-22)
(0.00135188846294 -0.00277275383813 -7.34668844755e-23)
(0.00159342802772 -0.002525477448 -9.1661151031e-23)
(0.00136200213445 -0.00330798008316 8.45345457727e-24)
(0.001634587896 -0.00306210716104 1.16146337928e-23)
(0.00132212925643 -0.00387330991841 -2.13717614651e-23)
(0.00163903582746 -0.00364310554793 1.56768795884e-23)
(0.00119981047689 -0.0044765386741 -7.5725465392e-23)
(0.00159019831444 -0.0042722318591 -3.90024065912e-23)
(0.000954176552964 -0.00510353436284 -1.09788403611e-22)
(0.00143378945011 -0.00495037218008 -7.07331277737e-23)
(0.00052279564734 -0.00573512354344 -2.51421458255e-22)
(0.0011229404389 -0.005664967706 -1.28618192946e-22)
(-0.000187905679424 -0.00636847758184 -5.41781086293e-22)
(0.000595731448221 -0.00641502657434 -5.12083006971e-22)
(-0.0012764499679 -0.00692402578522 -7.93487872988e-22)
(-0.00032103690428 -0.00716621015102 -1.00891870805e-21)
(-0.00249200497209 -0.00726811718421 -1.02464621204e-21)
(-0.00167787859165 -0.0076533092796 -9.72621795497e-22)
(-0.00269877165812 -0.00690548772185 -3.620589318e-21)
(-0.00316951033004 -0.00797092422542 -1.31445486641e-21)
(-0.00411190067303 -0.00618398644007 -1.03918086627e-20)
(-0.00256963544017 -0.0150345570109 -4.89240055719e-21)
(-0.00314738137933 -0.00476809611081 -1.4617720999e-20)
(-0.00671979477271 -0.0107348736544 -1.34310124957e-20)
(0.00191156829319 -0.00496125456577 -7.84425577723e-21)
(-0.000318229495047 -0.00486514486607 -1.31785704305e-20)
(0.00408175077888 -0.00490695662874 -1.19352454745e-21)
(0.000919742321168 -0.000284532944243 1.36406276687e-21)
(0.000854457852602 -0.000264329161358 9.29028419456e-22)
(0.00125860133264 -0.000610661022411 1.40095966678e-21)
(0.00128230842674 -0.000374315636262 1.54209628867e-21)
(0.00148403712194 -0.000969592995936 7.85685669626e-22)
(0.00157475186805 -0.000721503128359 1.0408738343e-21)
(0.00162968803629 -0.00136500020592 2.7542067499e-22)
(0.00176456123033 -0.00110766050047 4.54942994465e-22)
(0.00173365595362 -0.0018024310329 3.05486916427e-23)
(0.00190223187993 -0.00152857862631 1.15612555171e-22)
(0.00182322440871 -0.00228724275274 -2.87200068199e-23)
(0.00201730290504 -0.00199199667361 -1.24514489052e-24)
(0.00190215085114 -0.00281906458384 -6.57963276269e-24)
(0.00212520460203 -0.002502894177 -1.45037530621e-23)
(0.00195782984776 -0.00340208330604 1.88380588039e-23)
(0.00221763155861 -0.00307423468489 1.0224918865e-23)
(0.00196612935655 -0.00405175602808 -1.95376553776e-24)
(0.00228890928923 -0.0037142639333 8.05160405434e-24)
(0.00189512316149 -0.00476375421063 -3.40100689729e-23)
(0.00230221766683 -0.00442915877255 -1.46983689987e-23)
(0.00169830353088 -0.00554906776181 -8.95629171092e-23)
(0.00221937128189 -0.00523407010565 -4.96393901001e-23)
(0.00130640900186 -0.00640972989328 -3.89279741662e-22)
(0.00198374402548 -0.00613366463665 -1.77707516847e-22)
(0.000610427583559 -0.00733095870747 -9.79220628733e-22)
(0.00151714650346 -0.00712852756273 -7.70551737049e-22)
(-0.000541203924354 -0.00830743397457 -1.18805263056e-21)
(0.000655644791961 -0.00821612667006 -1.77383247518e-21)
(-0.00212656514438 -0.00922433024999 -1.26243044987e-21)
(-0.000760796426576 -0.00923059867902 -1.90557279341e-21)
(-0.00289108994278 -0.00987194490192 -2.5862661056e-21)
(-0.00252179078373 -0.0106317285872 -2.51784957621e-21)
(-0.00479225103877 -0.00998999819697 -7.93160439023e-21)
(-0.00245159786708 -0.017592803512 -3.76180568896e-21)
(-0.00373735650045 -0.00992602002852 -1.19918619272e-20)
(-0.00677775118042 -0.0151923114699 -1.24313120757e-20)
(0.00168384162435 -0.00951548356014 -6.5278392007e-21)
(-0.000733905395495 -0.00988362706813 -1.19702370095e-20)
(0.00314753152334 -0.0101007749176 -1.14089515216e-21)
(0.0012101113584 -0.000235972334459 1.10706194126e-21)
(0.00109000897278 -0.000226287125642 7.86359726654e-22)
(0.0015962348616 -0.000533338876346 1.18201045618e-21)
(0.00157923953118 -0.000306829598083 1.26343899089e-21)
(0.00185933206386 -0.000879926515758 7.10131159137e-22)
(0.0019209303493 -0.000632771573777 8.94344580715e-22)
(0.00204676340323 -0.00127415206659 2.95134874646e-22)
(0.00215844343288 -0.00100148112773 4.08764284618e-22)
(0.00219806574867 -0.00170953741467 8.3818718638e-23)
(0.00233738004929 -0.00140872205964 1.23531488143e-22)
(0.00234102335922 -0.00220125539164 1.29711088673e-23)
(0.00250892350769 -0.00186553688807 2.53703667628e-23)
(0.00247863400915 -0.00275053900846 2.30079856555e-24)
(0.0026745055768 -0.00238145724495 -4.99150702697e-24)
(0.00259926378563 -0.00337622654784 -5.61535884599e-25)
(0.00284337069991 -0.00297493193972 -6.60564531886e-24)
(0.00268623127679 -0.00408165858472 -4.69299940659e-24)
(0.00299438176194 -0.00365665434084 -1.07751306463e-23)
(0.00270831197791 -0.00488812881803 -3.03276901259e-23)
(0.00310868107565 -0.00444069723257 -1.28341755102e-23)
(0.00261436707839 -0.00580476395431 -1.37783989838e-22)
(0.00313602182078 -0.0053546134543 -6.29951316746e-23)
(0.00232908681463 -0.00686477273253 -5.58979512234e-22)
(0.00304379273645 -0.00641840866106 -2.58653349128e-22)
(0.00173294155261 -0.00806065545245 -1.56516358349e-21)
(0.00271312188975 -0.00763703112894 -9.68685413575e-22)
(0.000678388135701 -0.00943252085004 -2.49135263802e-21)
(0.00202764017777 -0.00901952174638 -2.53258734667e-21)
(-0.000942850156737 -0.0109791155591 -3.16099191975e-21)
(0.000785928835372 -0.010505839301 -4.14236263294e-21)
(-0.00197827217786 -0.0124887268291 -3.69338915956e-21)
(-0.00101210295543 -0.0127821023879 -7.24930420863e-21)
(-0.00415010160391 -0.0137072915949 -8.26151337444e-21)
(-0.00123303696407 -0.0195684412234 -5.17161672914e-21)
(-0.00357444447196 -0.014971518278 -1.24096871581e-20)
(-0.00550963113878 -0.0189236710209 -1.27407366953e-20)
(0.000779964586683 -0.0150819446586 -6.583292961e-21)
(-0.000626643727193 -0.0142978620514 -1.25825081535e-20)
(0.00193717742159 -0.0165122062719 -1.61770039841e-22)
(0.00145569143638 -0.000182894679239 9.42736776283e-22)
(0.0012725141348 -0.000189896222626 8.09336362834e-22)
(0.00190434391798 -0.000449472228936 9.75773115416e-22)
(0.00184541716505 -0.000229305996113 1.2376028054e-21)
(0.00221617027858 -0.000764236050588 5.92977706197e-22)
(0.0022353270673 -0.000518026991155 8.5992384683e-22)
(0.00245179468068 -0.00113184815185 2.37160898115e-22)
(0.00252576227066 -0.000852182923035 3.94781216381e-22)
(0.00265561885354 -0.00155193750649 6.50831362676e-23)
(0.00275728763515 -0.001231484834 1.17859306068e-22)
(0.00286061712456 -0.00202920930507 7.40775086855e-24)
(0.00298614261775 -0.00166720107841 2.95932430581e-23)
(0.00307203640292 -0.00258587682192 -1.38979509114e-23)
(0.00323123134093 -0.00217304614727 -4.54727488062e-24)
(0.00328262714236 -0.00323313274149 -1.68192400805e-23)
(0.00349067743429 -0.00277018918853 -1.59655456346e-23)
(0.0034766203878 -0.00398187706054 -1.89163067498e-23)
(0.00374314661208 -0.00347547996878 -1.00406123131e-23)
(0.00362355801623 -0.00486721068459 -4.55016170589e-23)
(0.00399390064353 -0.0043113893109 -2.07441492684e-23)
(0.00367724375286 -0.00591321216986 -1.83864490964e-22)
(0.00418193632502 -0.00530980253626 -8.21413973582e-23)
(0.00356016664463 -0.0071381683089 -6.68359250469e-22)
(0.0042687109986 -0.00650768345133 -3.3689477788e-22)
(0.00314629463166 -0.00858032496483 -1.93610917675e-21)
(0.00415529884885 -0.0079258311331 -1.01098718096e-21)
(0.00231690745613 -0.0102479712958 -4.18359734159e-21)
(0.00369535529655 -0.00956375003304 -2.48125151167e-21)
(0.00096925556887 -0.012303780748 -8.23067492182e-21)
(0.00284182410668 -0.0114330815709 -4.90136671221e-21)
(1.29755448928e-05 -0.0146618249209 -8.7275317782e-21)
(0.00134599451924 -0.0143741358019 -1.00984672217e-20)
(-0.00231321445164 -0.017005413066 -9.65084005004e-21)
(0.00111054239996 -0.0209652394832 -7.2401706058e-21)
(-0.00238261240149 -0.0192237710807 -1.29135576908e-20)
(-0.00328747526779 -0.0216400157023 -1.55603419448e-20)
(0.000628003619261 -0.0203647949946 -6.16098523238e-21)
(0.000511305557077 -0.0178675295645 -1.55907418582e-20)
(0.00132165961833 -0.022644625746 -6.36203664013e-22)
(0.00164996932137 -0.000126880569412 1.10420239195e-21)
(0.00139903241765 -0.000152890738131 8.93283909911e-22)
(0.00216980758427 -0.000339173848371 1.12175353681e-21)
(0.00205733905679 -0.000139092204481 1.28822949539e-21)
(0.00253889727811 -0.000613686725958 6.61727357014e-22)
(0.00250950632846 -0.00037586923537 9.0319447079e-22)
(0.00282871314375 -0.000942668555224 2.75479624334e-22)
(0.00285449203694 -0.00066020864972 4.28579927362e-22)
(0.0030926166267 -0.00133121511925 8.23694128582e-23)
(0.00314569726591 -0.000995926019979 1.4108761616e-22)
(0.00336886546238 -0.00178242270207 1.7638217309e-23)
(0.00343734160815 -0.0013958122997 5.40610169803e-23)
(0.00366899677544 -0.00232562715621 -6.6148696038e-24)
(0.00377451568506 -0.0018730244741 7.44845512544e-24)
(0.00399013023147 -0.00297091932976 -9.1869178671e-24)
(0.00413604644688 -0.00245235693628 -8.19962159361e-24)
(0.00431625650106 -0.00375414326701 -1.18684548316e-23)
(0.00452631095206 -0.00315805128914 4.37289601654e-26)
(0.00462223441237 -0.00469136646635 -5.73839295677e-23)
(0.00493099971014 -0.0040168609014 -1.62053044737e-23)
(0.00486716348934 -0.00581818696703 -2.35171684274e-22)
(0.00530854044313 -0.00506608499554 -7.69794608239e-23)
(0.00498016611566 -0.00717581341123 -6.79522708372e-22)
(0.00562623330895 -0.00635473036668 -3.29105330811e-22)
(0.00485082755977 -0.00880751281964 -1.55612951588e-21)
(0.00578695948533 -0.00791933665108 -8.19075401123e-22)
(0.00437933944297 -0.0108117185761 -3.19902088229e-21)
(0.0056995813718 -0.00975923332472 -1.68843010929e-21)
(0.00345181258262 -0.0132831830588 -6.76915901207e-21)
(0.00531333904627 -0.0119481089837 -3.15124485621e-21)
(0.00273680380279 -0.0163571939039 -8.61110604928e-21)
(0.00442004011935 -0.0153414096671 -7.03059010125e-21)
(0.000394284621918 -0.0194851523957 -1.31496725006e-20)
(0.00423848601086 -0.0216175490018 -8.30472243385e-21)
(-0.000254105591031 -0.022550111622 -1.82375261123e-20)
(-0.000218727071912 -0.0232063068096 -1.68972599706e-20)
(0.00125776721086 -0.0245994298591 -1.00659602899e-20)
(0.00255753097807 -0.0204642009676 -1.67253689776e-20)
(0.00126367479224 -0.0275687074196 -3.15451577935e-21)
(0.00178655980313 -6.15296490406e-05 1.07731101335e-21)
(0.0014602141438 -0.000111954710311 7.98656015356e-22)
(0.00238273893972 -0.0002100346831 1.06967042937e-21)
(0.00220548525301 -3.17753143697e-05 1.15988730065e-21)
(0.00281333910262 -0.000426414031432 6.70047041137e-22)
(0.00272556743072 -0.000204184911448 8.3382486824e-22)
(0.00316130285469 -0.000701506288222 2.94187919188e-22)
(0.00312935260019 -0.00042399004026 4.10051191128e-22)
(0.00349130885007 -0.00103745477692 1.12779220282e-22)
(0.00348153469057 -0.000698170553769 1.36565016763e-22)
(0.00384933899137 -0.00145447975031 4.38712547968e-23)
(0.00385437596017 -0.00104307470058 5.10967382212e-23)
(0.00425086756847 -0.00195677796478 5.86370313562e-24)
(0.00427690501124 -0.00147179871642 1.07535499665e-23)
(0.00469667309884 -0.00258683347481 1.03102523366e-24)
(0.00476614998825 -0.00200995861595 1.59221330867e-24)
(0.00517614337528 -0.00335559036417 -4.29312068188e-24)
(0.00529501130366 -0.00268672944447 8.67163882396e-24)
(0.0056712329334 -0.00430946006793 -3.58008357299e-23)
(0.00588465226686 -0.00353212318141 -8.94076756613e-24)
(0.0061456382916 -0.00549006532302 -1.70913107361e-22)
(0.00648888999623 -0.00459076075169 -6.48582658088e-23)
(0.00653582545342 -0.00693947210154 -4.68658023562e-22)
(0.00707549018137 -0.00591947460037 -2.70142743979e-22)
(0.00675908031451 -0.00871431949655 -9.51375994534e-22)
(0.00756172601269 -0.00755819544262 -5.66003628375e-22)
(0.00675935504164 -0.0108981246466 -1.64065408322e-21)
(0.00788337057451 -0.00950645243444 -9.91781627696e-22)
(0.00643170158445 -0.0136561789112 -3.4126759454e-21)
(0.0080714160143 -0.0118942069549 -1.71189875071e-21)
(0.0061372190434 -0.0172006685455 -6.72420648582e-21)
(0.0079645490603 -0.0155431451599 -4.07198950449e-21)
(0.00388461946714 -0.0210076508108 -1.20523099039e-20)
(0.00804544528169 -0.0214107218771 -7.98468382738e-21)
(0.0027151202958 -0.0247823251077 -1.53851028359e-20)
(0.00355999883103 -0.0236781830755 -1.41988787037e-20)
(0.00258341087278 -0.0276367034635 -9.81392446703e-21)
(0.00540857272381 -0.022038548407 -1.41049503766e-20)
(0.00160168821368 -0.0310319527223 -3.00402739495e-21)
(0.00185501680566 1.51006647926e-05 8.81232302655e-22)
(0.00144476040661 -6.32852224427e-05 4.08155648395e-22)
(0.00252888470454 -6.3502905387e-05 9.24041739523e-22)
(0.00228372118919 9.41976667127e-05 7.98243062506e-22)
(0.00302326911737 -0.000204099938858 5.73829018231e-22)
(0.00286583815362 -8.61950543121e-07 6.17016406717e-22)
(0.00343306263194 -0.00040690624847 2.52428288704e-22)
(0.00333192240574 -0.000140442314948 3.27044814049e-22)
(0.00383187667957 -0.000676079971222 7.48825347023e-23)
(0.00375059320392 -0.000336265432579 1.05352918846e-22)
(0.00427753150603 -0.00102483290324 1.79790333909e-23)
(0.00420313626469 -0.000603561364257 1.80312764721e-23)
(0.00479046207256 -0.00147685088001 6.48206013953e-24)
(0.00472899554305 -0.000959336171207 5.48664602463e-24)
(0.00537413323221 -0.0020485410716 9.23282689897e-24)
(0.00533787667259 -0.00143013049982 7.85887693806e-25)
(0.00602419878323 -0.00278846251898 4.02399193971e-24)
(0.00603478410958 -0.0020462340674 3.7108706332e-24)
(0.00672719854641 -0.00371353620614 -3.7998197645e-23)
(0.00680949233475 -0.00284092690123 -1.1277441204e-23)
(0.00745714707733 -0.00488836087617 -1.64087902427e-22)
(0.00766334561806 -0.00386044534916 -7.16755453356e-23)
(0.0081603150255 -0.00635675192554 -3.67488348791e-22)
(0.00854368452789 -0.00517061149601 -2.58794968053e-22)
(0.00876863778796 -0.00818664270665 -6.06409261537e-22)
(0.00939149689531 -0.00681817717974 -4.975360134e-22)
(0.00929314385241 -0.0104592923687 -1.06302629519e-21)
(0.0101559709054 -0.00879351157114 -6.69291831512e-22)
(0.00971145221567 -0.0133576038353 -2.37121230981e-21)
(0.0109697233741 -0.011268479775 -1.00020862687e-21)
(0.0100487477399 -0.0171644956161 -5.33246684606e-21)
(0.0117714439144 -0.0150320158842 -2.6918891911e-21)
(0.0080411836322 -0.0215322368168 -1.01312526273e-20)
(0.0124131619424 -0.020493572779 -7.04305540027e-21)
(0.00642317454188 -0.0260289801394 -1.29187262444e-20)
(0.00806035730361 -0.0232141763178 -1.26734107972e-20)
(0.00442668589432 -0.029402250546 -7.29505330447e-21)
(0.00877896385907 -0.0224875260821 -1.24383261943e-20)
(0.00207275817809 -0.0326152842808 -1.31884166472e-21)
(0.00184325566454 0.000104296934042 3.25166408245e-22)
(0.00134008469557 -5.27607794117e-06 5.10059374769e-23)
(0.00259456462152 0.000116367982279 4.912177297e-22)
(0.00227125377128 0.000239428881971 5.52369909719e-22)
(0.0031523885572 6.06477388878e-05 3.70232202534e-22)
(0.00292120363604 0.000233861755764 4.70629063924e-22)
(0.00362639150593 -5.62743115323e-05 1.79969444191e-22)
(0.00344858075642 0.000193074008351 2.70879085204e-22)
(0.00409730244462 -0.000237444481619 4.85016606154e-23)
(0.00393162261421 9.3442707206e-05 8.10264718154e-23)
(0.00463236046189 -0.000499434660218 5.53888910578e-24)
(0.00446509954062 -7.58401769046e-05 9.51172222994e-24)
(0.00525989776886 -0.000864370714996 -2.09526421092e-25)
(0.00509396738515 -0.000332599965226 -3.97357975669e-24)
(0.00598835646886 -0.001362702857 -4.73606857196e-24)
(0.00583617483938 -0.000705086375235 -1.09637851375e-23)
(0.0068189033695 -0.00201644671043 -1.15905625105e-23)
(0.00668834373072 -0.00122444981563 -2.41399090531e-23)
(0.00774484834241 -0.00288479042508 -4.49547888946e-23)
(0.00767749570676 -0.00192623202269 -2.9567882674e-23)
(0.00874837144083 -0.00399824846063 -1.66382610962e-22)
(0.00877637571795 -0.00285700262107 -6.70733524269e-23)
(0.00978646505183 -0.00542887219756 -3.88842632662e-22)
(0.00997406731439 -0.00408823195921 -2.48160329791e-22)
(0.0108085150284 -0.00724916103029 -5.60418583374e-22)
(0.0112116243728 -0.00567791280642 -4.31898172877e-22)
(0.0118777256709 -0.00954956930364 -6.06474163189e-22)
(0.012456289941 -0.00762089551872 -6.1454296188e-22)
(0.0130787217738 -0.0124958954399 -1.32088550816e-21)
(0.0139160110492 -0.010112512617 -1.01256169493e-21)
(0.0142077711649 -0.0163323767386 -4.40247774531e-21)
(0.0156079055256 -0.0138345925869 -2.69828281996e-21)
(0.0126690647306 -0.0208808523499 -9.58521357022e-21)
(0.0169616090273 -0.0188547951675 -7.50844254868e-21)
(0.0105974111699 -0.0258948847128 -1.21930107471e-20)
(0.0130774793281 -0.0217014659652 -1.25117940259e-20)
(0.00641239734538 -0.0295152946603 -6.46211455456e-21)
(0.0123970884153 -0.02150559234 -1.22925655373e-20)
(0.00238672674526 -0.0323469658375 -2.63115747938e-21)
(0.00173591556709 0.000192015464664 2.78209438951e-22)
(0.00114765187258 5.79534745856e-05 -4.29111784328e-24)
(0.00256220172971 0.000315608864171 5.31781243943e-22)
(0.00214722627175 0.000402560044565 6.46153172116e-22)
(0.00318443488786 0.000367620122539 3.71275946594e-22)
(0.00286880118448 0.000501170315989 5.13321656679e-22)
(0.00372225390522 0.000355874633496 1.71936112829e-22)
(0.00346002656966 0.000575833575097 2.78902829143e-22)
(0.00426583808067 0.000280487924673 4.203653343e-23)
(0.00400682813273 0.00059106612452 6.51206440849e-23)
(0.00489058008918 0.000127599420066 -7.46632524479e-28)
(0.00461791728547 0.000540395535477 5.79558952016e-24)
(0.00563184000961 -0.000124009400304 -1.47278384731e-23)
(0.0053455537161 0.000407872286927 -6.68302007596e-24)
(0.00650531577171 -0.000503998666875 -3.03676256186e-23)
(0.00621607474356 0.000165675229592 -2.13440910811e-23)
(0.00751800084426 -0.00105061120691 -4.21172292165e-23)
(0.00723466044925 -0.000218762088807 -4.63512217713e-23)
(0.00867312083319 -0.00179627035887 -5.16864462063e-23)
(0.00842276089062 -0.000779582377716 -3.99268818037e-23)
(0.00996410132719 -0.00280092060669 -1.48851071256e-22)
(0.00978046425832 -0.00156370101241 -6.57248760266e-23)
(0.0113615200372 -0.00412870616281 -2.91215870006e-22)
(0.0113015544945 -0.00264744677574 -2.32677660801e-22)
(0.0128370076441 -0.00587149484918 -4.86022551383e-22)
(0.0129541954294 -0.00409595048097 -3.21626069483e-22)
(0.01447313678 -0.00814592156438 -1.02063049362e-21)
(0.014730567282 -0.00590592952547 -6.26743273032e-22)
(0.0163782018576 -0.0110221044612 -2.38995900674e-21)
(0.0167921016382 -0.00825067289597 -2.38158862905e-21)
(0.0182641823783 -0.0145520967224 -5.80424762334e-21)
(0.0191378394903 -0.0116582573911 -5.36457828731e-21)
(0.0173840470045 -0.0188177642977 -1.04350230043e-20)
(0.0212272347122 -0.0162691990344 -9.34602568652e-21)
(0.0149378314678 -0.0241357424051 -1.2611348816e-20)
(0.0183985413197 -0.0190391470198 -1.31003642739e-20)
(0.0083957240385 -0.0280479130679 -8.46160846207e-21)
(0.0163071191571 -0.0189398358571 -1.30648199997e-20)
(0.00287372258413 -0.0306327145018 -2.90618749477e-21)
(0.00151797912927 0.000315494114582 3.63652615322e-22)
(0.000831705307963 0.000127159001478 -8.40109436272e-23)
(0.00241859845362 0.000546127939281 6.27693584853e-22)
(0.00191612968851 0.000583069507854 5.35291708787e-22)
(0.00310471798804 0.000713160746633 4.20948539228e-22)
(0.00270135099536 0.000800681196093 4.62538232241e-22)
(0.00370317109675 0.000822751286281 1.72087360399e-22)
(0.00335010755599 0.00100483926755 2.5956538529e-22)
(0.00431515651184 0.000873861369346 2.88797001751e-23)
(0.0039555007848 0.0011518071554 5.70022476993e-23)
(0.00502556446255 0.000853732683823 -8.86683923274e-25)
(0.00463792301594 0.00124058342238 -2.30250779406e-24)
(0.00587686663455 0.000741858584073 -1.3299272684e-23)
(0.00545734677793 0.00125856539551 -1.04148153168e-23)
(0.00688896837846 0.000512557743832 -3.73276872339e-23)
(0.00644520554946 0.00117714369379 -1.89254463311e-23)
(0.00807750115006 0.00012712798579 -4.41608743585e-23)
(0.00761972162868 0.000966476354342 -4.43496432128e-23)
(0.00945837963496 -0.000449195660562 -5.3965311624e-23)
(0.00899859172025 0.0005966649661 -3.38925922365e-23)
(0.011037292688 -0.00127272811664 -1.49551465572e-22)
(0.0106033276082 2.07049416528e-05 -6.24194933575e-23)
(0.0128014881483 -0.0024149364258 -2.63087860279e-22)
(0.0124433848031 -0.000837777365349 -1.91160334884e-22)
(0.0147387156268 -0.00396073005984 -4.62346791132e-22)
(0.0144996744588 -0.00204512397394 -3.2207840193e-22)
(0.0169078075187 -0.00600095761798 -1.98770140845e-21)
(0.0167705371409 -0.00358751480612 -4.65920537345e-22)
(0.0193661187682 -0.00852347273628 -5.35620790961e-21)
(0.01931442282 -0.00556105730359 -2.21940285784e-21)
(0.0218915948868 -0.0114761441451 -8.90635635049e-21)
(0.0220903797354 -0.00832672694779 -5.25922691734e-21)
(0.022057572166 -0.0152288034569 -1.20113669561e-20)
(0.0249798181111 -0.012736657042 -8.59177628596e-21)
(0.0197045114768 -0.0206837722847 -1.35538354576e-20)
(0.0238572737975 -0.0154041490466 -1.22328044701e-20)
(0.0108704753691 -0.0249978490757 -7.50939903237e-21)
(0.0206185861787 -0.0149211541809 -1.20000660149e-20)
(0.00415688882583 -0.0269789488629 -3.99002441619e-22)
(0.00118202120772 0.000425001632132 8.76281498374e-23)
(0.000406239314888 0.000198215103723 -2.82778306399e-22)
(0.00215214668642 0.000789054623078 3.70136356175e-22)
(0.00155161264667 0.000776613440875 1.95603585257e-22)
(0.00289894422117 0.00109176378479 3.01155078303e-22)
(0.00239822476343 0.00112825739229 1.98326799524e-22)
(0.0035522342901 0.00134143756199 1.44480272591e-22)
(0.00310009947147 0.00147322210485 1.44277441543e-22)
(0.00422538076145 0.00153666279768 2.58200397302e-23)
(0.00376003850503 0.00176840926545 3.62026064237e-23)
(0.0050126413609 0.00167022659262 -1.18306391876e-23)
(0.00450420354246 0.00201753933932 -7.45908306226e-24)
(0.00596148711663 0.0017214096612 -1.60409889639e-23)
(0.00540604194913 0.00220954623436 -1.56833887603e-23)
(0.00709876257042 0.0016778782163 -2.594740231e-23)
(0.00648849793673 0.00231774566163 -1.094075168e-23)
(0.00845001319954 0.00150048427643 -3.40813610908e-23)
(0.0077966385613 0.00231833409606 -2.7348392787e-23)