/*--------------------------------*- C++ -*----------------------------------*\
| =========                 |                                                 |
| \\      /  F ield         | OpenFOAM: The Open Source CFD Toolbox           |
|  \\    /   O peration     | Version:  v2012                                 |
|   \\  /    A nd           | Website:  www.openfoam.com                      |
|    \\/     M anipulation  |                                                 |
\*---------------------------------------------------------------------------*/
FoamFile
{
    version     2.0;
    format      ascii;
    class       volScalarField;
    location    "5.5";
    object      epsilon;
}
// * * * * * * * * * * * * * * * * * * * * * * * * * * * * * * * * * * * * * //

dimensions      [0 2 -3 0 0 0 0];


internalField   nonuniform List<scalar> 
164
(
0.000581323011959
0.000584765398034
0.000589448429586
0.000597297701475
0.00061454469973
0.000662799625775
0.000819514403861
0.00134685058682
0.00295961618567
0.00742377978431
0.024686119139
0.133831044268
0.000581557544051
0.000585008644353
0.000589663080404
0.000597405701295
0.00061441053155
0.000662254863089
0.000818759551227
0.00134674648827
0.00294814121207
0.00715957395669
0.019759799223
0.0633898720564
0.000589719826484
0.000597392411502
0.000614209133607
0.000661670834768
0.000817600529142
0.00134595174587
0.00296564536037
0.00752608073819
0.0243398117575
0.100734420661
0.00058962939818
0.00059729641212
0.00061406577743
0.000661421397627
0.000817185114817
0.00134636291608
0.00299323207479
0.00805552374282
0.0305775912495
0.151822390676
0.000589412264875
0.000597177141884
0.000614132760596
0.000661739596842
0.000817385137486
0.00134667576723
0.00301226485034
0.00831012932722
0.032657259661
0.15645613934
0.000589104143591
0.000597146520465
0.00061473184158
0.000663418156207
0.000819952655626
0.00135046279653
0.00302960779613
0.00839209688089
0.0328720331086
0.156927697727
0.00058875287448
0.00059735833544
0.000616354040845
0.000667942565637
0.000828800214686
0.00136448253388
0.00304508193821
0.00828313361076
0.0319110051641
0.15672494768
0.000588396375923
0.000597924458467
0.000619358944917
0.000676482933527
0.000847350083177
0.00139525191093
0.00305698636438
0.00789465805743
0.0286636016359
0.151715056377
0.000588025207712
0.000598777920483
0.00062348633441
0.000688263076208
0.00087377952062
0.00143983026089
0.00307790756713
0.00749060517662
0.0247970036424
0.137904697659
0.000587561250039
0.000599612245117
0.000627713450278
0.000700348820574
0.000901000319691
0.00148545377132
0.00311631620705
0.00751303359152
0.0232723860039
0.102879982945
0.000586885337218
0.000599995851498
0.000630669780247
0.000709019164709
0.000920393384925
0.00151654704636
0.00314335823525
0.00771943041196
0.0254457815885
0.0917638832809
0.000585930438089
0.000599688000428
0.000631652008464
0.000712491270117
0.000928284355426
0.00152789056521
0.00313879959682
0.00774428148706
0.0279222221877
0.116294974481
0.000584731831316
0.000598812349351
0.000631061729585
0.000711879925704
0.000927108763358
0.00152461657896
0.00311580556944
0.00757175002918
0.0277361250607
0.135384372376
0.000583342201783
0.000597531564309
0.000629474871192
0.000709047451009
0.000921875876696
0.00151657191588
0.00309485247201
0.00738606696549
0.0257002178726
0.111197289877
0.000581733916715
0.000595720757339
0.000626685067519
0.000704014267459
0.000913732525982
0.00150644513599
0.0030774784493
0.00717708538493
0.023166871254
0.111258544621
0.000579905447324
0.000593371493438
0.000622695563825
0.000697079102798
0.000904144913716
0.00149678738612
0.00305301384216
0.00689474443739
0.0197545403547
0.098998851364
)
;

boundaryField
{
    back
    {
        lowReCorrection 0;
        blending        stepwise;
        n               2;
        type            epsilonWallFunction;
        value           nonuniform List<scalar> 
164
(
0.000581323011959
0.000584765398034
0.000589448429586
0.000597297701475
0.00061454469973
0.000662799625775
0.000819514403861
0.00134685058682
0.00295961618567
0.00742377978431
0.024686119139
0.133831044268
0.000581557544051
0.000585008644353
0.000589663080404
0.000597405701295
0.00061441053155
0.000662254863089
0.000818759551227
0.00134674648827
0.00294814121207
0.00715957395669
0.019759799223
0.0633898720564
0.000589719826484
0.000597392411502
0.000614209133607
0.000661670834768
0.000817600529142
0.00134595174587
0.00296564536037
0.00752608073819
0.0243398117575
0.100734420661
0.00058962939818
0.00059729641212
0.00061406577743
0.000661421397627
0.000817185114817
0.00134636291608
0.00299323207479
0.00805552374282
0.0305775912495
0.151822390676
0.000589412264875
0.000597177141884
0.000614132760596
0.000661739596842
0.000817385137486
0.00134667576723
0.00301226485034
0.00831012932722
0.032657259661
0.15645613934
0.000589104143591
0.000597146520465
0.00061473184158
0.000663418156207
0.000819952655626
0.00135046279653
0.00302960779613
0.00839209688089
0.0328720331086
0.156927697727
0.00058875287448
0.00059735833544
0.000616354040845
0.000667942565637
0.000828800214686
0.00136448253388
0.00304508193821
0.00828313361076
0.0319110051641
0.15672494768
0.000588396375923
0.000597924458467
0.000619358944917
0.000676482933527
0.000847350083177
0.00139525191093
0.00305698636438
0.00789465805743
0.0286636016359
0.151715056377
0.000588025207712
0.000598777920483
0.00062348633441
0.000688263076208
0.00087377952062
0.00143983026089
0.00307790756713
0.00749060517662
0.0247970036424
0.137904697659
0.000587561250039
0.000599612245117
0.000627713450278
0.000700348820574
0.000901000319691
0.00148545377132
0.00311631620705
0.00751303359152
0.0232723860039
0.102879982945
0.000586885337218
0.000599995851498
0.000630669780247
0.000709019164709
0.000920393384925
0.00151654704636
0.00314335823525
0.00771943041196
0.0254457815885
0.0917638832809
0.000585930438089
0.000599688000428
0.000631652008464
0.000712491270117
0.000928284355426
0.00152789056521
0.00313879959682
0.00774428148706
0.0279222221877
0.116294974481
0.000584731831316
0.000598812349351
0.000631061729585
0.000711879925704
0.000927108763358
0.00152461657896
0.00311580556944
0.00757175002918
0.0277361250607
0.135384372376
0.000583342201783
0.000597531564309
0.000629474871192
0.000709047451009
0.000921875876696
0.00151657191588
0.00309485247201
0.00738606696549
0.0257002178726
0.111197289877
0.000581733916715
0.000595720757339
0.000626685067519
0.000704014267459
0.000913732525982
0.00150644513599
0.0030774784493
0.00717708538493
0.023166871254
0.111258544621
0.000579905447324
0.000593371493438
0.000622695563825
0.000697079102798
0.000904144913716
0.00149678738612
0.00305301384216
0.00689474443739
0.0197545403547
0.098998851364
)
;
    }
    sides
    {
        lowReCorrection 0;
        blending        stepwise;
        n               2;
        type            epsilonWallFunction;
        value           nonuniform List<scalar> 0();
    }
    bottom
    {
        lowReCorrection 0;
        blending        stepwise;
        n               2;
        type            epsilonWallFunction;
        value           nonuniform List<scalar> 0();
    }
    front
    {
        lowReCorrection 0;
        blending        stepwise;
        n               2;
        type            epsilonWallFunction;
        value           nonuniform List<scalar> 
164
(
0.000581323011959
0.000584765398034
0.000589448429586
0.000597297701475
0.00061454469973
0.000662799625775
0.000819514403861
0.00134685058682
0.00295961618567
0.00742377978431
0.024686119139
0.133831044268
0.000581557544051
0.000585008644353
0.000589663080404
0.000597405701295
0.00061441053155
0.000662254863089
0.000818759551227
0.00134674648827
0.00294814121207
0.00715957395669
0.019759799223
0.0633898720564
0.000589719826484
0.000597392411502
0.000614209133607
0.000661670834768
0.000817600529142
0.00134595174587
0.00296564536037
0.00752608073819
0.0243398117575
0.100734420661
0.00058962939818
0.00059729641212
0.00061406577743
0.000661421397627
0.000817185114817
0.00134636291608
0.00299323207479
0.00805552374282
0.0305775912495
0.151822390676
0.000589412264875
0.000597177141884
0.000614132760596
0.000661739596842
0.000817385137486
0.00134667576723
0.00301226485034
0.00831012932722
0.032657259661
0.15645613934
0.000589104143591
0.000597146520465
0.00061473184158
0.000663418156207
0.000819952655626
0.00135046279653
0.00302960779613
0.00839209688089
0.0328720331086
0.156927697727
0.00058875287448
0.00059735833544
0.000616354040845
0.000667942565637
0.000828800214686
0.00136448253388
0.00304508193821
0.00828313361076
0.0319110051641
0.15672494768
0.000588396375923
0.000597924458467
0.000619358944917
0.000676482933527
0.000847350083177
0.00139525191093
0.00305698636438
0.00789465805743
0.0286636016359
0.151715056377
0.000588025207712
0.000598777920483
0.00062348633441
0.000688263076208
0.00087377952062
0.00143983026089
0.00307790756713
0.00749060517662
0.0247970036424
0.137904697659
0.000587561250039
0.000599612245117
0.000627713450278
0.000700348820574
0.000901000319691
0.00148545377132
0.00311631620705
0.00751303359152
0.0232723860039
0.102879982945
0.000586885337218
0.000599995851498
0.000630669780247
0.000709019164709
0.000920393384925
0.00151654704636
0.00314335823525
0.00771943041196
0.0254457815885
0.0917638832809
0.000585930438089
0.000599688000428
0.000631652008464
0.000712491270117
0.000928284355426
0.00152789056521
0.00313879959682
0.00774428148706
0.0279222221877
0.116294974481
0.000584731831316
0.000598812349351
0.000631061729585
0.000711879925704
0.000927108763358
0.00152461657896
0.00311580556944
0.00757175002918
0.0277361250607
0.135384372376
0.000583342201783
0.000597531564309
0.000629474871192
0.000709047451009
0.000921875876696
0.00151657191588
0.00309485247201
0.00738606696549
0.0257002178726
0.111197289877
0.000581733916715
0.000595720757339
0.000626685067519
0.000704014267459
0.000913732525982
0.00150644513599
0.0030774784493
0.00717708538493
0.023166871254
0.111258544621
0.000579905447324
0.000593371493438
0.000622695563825
0.000697079102798
0.000904144913716
0.00149678738612
0.00305301384216
0.00689474443739
0.0197545403547
0.098998851364
)
;
    }
    atmosphere
    {
        type            inletOutlet;
        inletValue      uniform 0.1;
        value           nonuniform List<scalar> 
16
(
0.1
0.1
0.1
0.1
0.1
0.1
0.1
0.1
0.1
0.1
0.1
0.1
0.1
0.1
0.111258544621
0.098998851364
)
;
    }
    floatingObject
    {
        lowReCorrection 0;
        blending        stepwise;
        n               2;
        type            epsilonWallFunction;
        value           nonuniform List<scalar> 0();
    }
    procBoundary5to0
    {
        type            processor;
        value           nonuniform List<scalar> 
12
(
0.00058089835819
0.000584347445102
0.000589077962478
0.000597056504709
0.000614556013959
0.00066307797548
0.000819227594612
0.00134397173424
0.00297714523963
0.00787263903007
0.0299685654073
0.153969187909
)
;
    }
    procBoundary5to3
    {
        type            processor;
        value           nonuniform List<scalar> 10(0.000578056562153 0.000591015415573 0.00061882229195 0.000690987404766 0.00089809159727 0.00149557104211 0.00304148758636 0.00680145496883 0.0192622121078 0.0970777291419);
    }
    procBoundary5to4
    {
        type            processor;
        value           nonuniform List<scalar> 
18
(
0.00057847641439
0.00057868926869
0.000581599250657
0.0005850730525
0.0005850730525
0.00058496077362
0.000584680190669
0.000584242525629
0.000583662059279
0.000582954908254
0.000582126011053
0.000581159803946
0.000580026503293
0.000578713633831
0.000577236450705
0.000575617835639
0.00057386398618
0.000572000570016
)
;
    }
}


// ************************************************************************* //
