/*--------------------------------*- C++ -*----------------------------------*\
| =========                 |                                                 |
| \\      /  F ield         | OpenFOAM: The Open Source CFD Toolbox           |
|  \\    /   O peration     | Version:  v2012                                 |
|   \\  /    A nd           | Website:  www.openfoam.com                      |
|    \\/     M anipulation  |                                                 |
\*---------------------------------------------------------------------------*/
FoamFile
{
    version     2.0;
    format      ascii;
    class       volScalarField;
    location    "0.5";
    object      epsilon_0;
}
// * * * * * * * * * * * * * * * * * * * * * * * * * * * * * * * * * * * * * //

dimensions      [0 2 -3 0 0 0 0];


internalField   nonuniform List<scalar> 
1984
(
0.0574774788872
0.0593026616873
0.0606022585376
0.0608105733392
0.0608810777709
0.0609371924943
0.0609913208388
0.0610442959834
0.0610959660813
0.0611461095969
0.0611945177756
0.0612409738544
0.0612852858767
0.061327545668
0.0613713090796
0.0614565536523
0.06194485022
0.0655257022575
0.0884427191861
0.210149468838
0.0593672644609
0.0561493890048
0.0581606627106
0.0584920446846
0.0585680419683
0.0586136358865
0.0586562951159
0.058698538702
0.0587403675988
0.0587815757615
0.0588219895377
0.0588614388628
0.058899821834
0.0589375869726
0.0589804925714
0.0590810323092
0.0596428253537
0.0632277870571
0.0828096945932
0.16857926037
0.0607771573734
0.0583055043329
0.0605721246207
0.0609455313694
0.0610237649108
0.061066689468
0.0611065228911
0.0611461079046
0.0611853142563
0.0612238456392
0.0612614342602
0.0612978640803
0.0613329832834
0.0613672178242
0.0614066177661
0.0615062895457
0.062082327046
0.0657167558185
0.0852286398558
0.16971394979
0.0610223465571
0.0586901391954
0.0610042830426
0.0613825139874
0.0614576628128
0.0614969701473
0.0615336056289
0.0615703657628
0.0616070154324
0.0616431231873
0.0616783701015
0.0617124804632
0.0617452665768
0.061777132348
0.0618142459105
0.0619127050541
0.0624933636178
0.0661502084019
0.085687265844
0.169918414497
0.061103248939
0.058778607611
0.0610974980984
0.061473193685
0.0615446802255
0.0615806145624
0.0616143569511
0.061648660424
0.0616832013086
0.0617175055374
0.0617511493533
0.061783819179
0.0618153041385
0.0618459888096
0.0618821807256
0.0619811188368
0.0625697165789
0.0662628787108
0.0858873648591
0.17004369528
0.0611661604709
0.0588273682684
0.061144749388
0.0615173507405
0.0615855555461
0.061618446873
0.0616495039762
0.0616814923239
0.0617140563309
0.0617466760955
0.0617789062118
0.0618103666053
0.0618408215346
0.0618706517751
0.0619063561901
0.0620066527559
0.0626063725916
0.0663484683557
0.0860945977902
0.170184788674
0.0612288235001
0.0588727057934
0.0611882116332
0.0615581858795
0.0616236007004
0.0616537918323
0.0616823665691
0.061712144216
0.061742778249
0.0617737341887
0.0618045434978
0.06183479781
0.0618642358187
0.0618932458868
0.0619285762679
0.0620307921873
0.0626445199035
0.0664471469934
0.0863423172875
0.170352432252
0.0612931578766
0.0589189738903
0.0612328814004
0.0616007101381
0.061663783738
0.0616916185003
0.0617179455098
0.0617456569352
0.0617744405544
0.0618037679808
0.0618331645051
0.0618622068068
0.0618906177358
0.0619188064534
0.0619538341639
0.0620585024705
0.0626891472598
0.0665637701835
0.0866338702821
0.170548312685
0.0613594256035
0.0589666467813
0.061279199795
0.0616452647859
0.0617063792365
0.0617321823659
0.0617565123776
0.0617823384278
0.0618093938437
0.06183717276
0.061865204303
0.0618930634968
0.0619204654171
0.0619478543965
0.0619826739836
0.0620903795347
0.0627410082282
0.0666993414203
0.0869699910466
0.170773194151
0.0614277411946
0.0590158119537
0.0613271808959
0.0616917779613
0.0617512531561
0.0617753196117
0.06179790224
0.0618220423708
0.0618475237245
0.0618738686487
0.0619006220636
0.0619273623154
0.0619538062982
0.0619804477569
0.0620151889561
0.0621265926528
0.0628004978285
0.0668547037222
0.0873516165819
0.171027814102
0.0614982048284
0.0590665361112
0.0613768408642
0.0617402034058
0.0617983081425
0.0618209020362
0.0618419766126
0.061864637505
0.0618887166226
0.0619137702578
0.0619393606121
0.0619650777519
0.0619906454344
0.0620166218082
0.0620514527503
0.0621673062249
0.0628680575095
0.0670308733123
0.0877799898736
0.171313005338
0.0615709050739
0.0591188898805
0.0614282206195
0.0617905385816
0.0618475022876
0.0618688603861
0.061888653631
0.0619100423368
0.0619329041396
0.0619568265024
0.0619813951042
0.062006210807
0.062031011376
0.0620564342213
0.0620915639387
0.0622127238554
0.0629442165537
0.0672290566609
0.0882566092176
0.171629730656
0.061645912083
0.0591729422288
0.0614813746912
0.0618428088186
0.0618988319078
0.0619191694105
0.0619378964185
0.0619582193977
0.0619800555831
0.0620030244294
0.0620267312044
0.0620507920809
0.0620749610004
0.0620999709027
0.0621356527372
0.0622630965884
0.0630296023068
0.0674506539829
0.088783209399
0.17197911257
0.0617232706983
0.0592287540409
0.0615363610896
0.0618970537055
0.0619523164048
0.0619718327327
0.0619897004277
0.0620091638195
0.062030175642
0.0620523813586
0.0620754083198
0.0620988840424
0.0621225827631
0.0621473503105
0.0621838859776
0.0623187298631
0.0631249503831
0.0676972693762
0.0893617643037
0.172362470047
0.0618029934807
0.0592863724903
0.0615932334591
0.0619533168772
0.0620079866356
0.0620268718821
0.0620440838118
0.0620628963419
0.0620832924111
0.0621049398543
0.062127492107
0.062150573911
0.0621739913106
0.062198717262
0.0622364648298
0.0623799838241
0.0632311143617
0.067970724357
0.089994503695
0.172781368662
0.0618850542549
0.0593458262895
0.0616520347505
0.0620116381698
0.0620658769803
0.0620843174552
0.062101074723
0.0621194520319
0.0621394477493
0.0621607659859
0.0621830566363
0.0622059698828
0.0622293216353
0.0622542484173
0.0622936265331
0.0624472881441
0.063349078423
0.0682730840436
0.0906839283267
0.173237680974
0.0619693761256
0.0594071174898
0.0617127909611
0.0620720480544
0.0621260142243
0.0621441953706
0.0621607082771
0.0621788712088
0.0621987104978
0.0622199335334
0.0622422141861
0.0622652111397
0.062288753837
0.0623141579878
0.0623556654672
0.0625211416687
0.0634799831026
0.0686066688905
0.0914328309928
0.173733658849
0.0620558231848
0.0594702191502
0.0617755052166
0.0621345518279
0.0621884128051
0.0622065274187
0.0622230026373
0.0622411796521
0.0622611070157
0.0622825000767
0.0623050389746
0.0623283971703
0.0623524162602
0.0623786304731
0.0624228554584
0.0626020957673
0.0636251139188
0.0689740897035
0.0922443039723
0.174271993494
0.0621441953091
0.0595350642354
0.061840147554
0.0621991376716
0.0622530586066
0.0622712968493
0.0622879816078
0.0623064482877
0.0623267500393
0.0623486169006
0.0623717329418
0.0623957760629
0.0624206099556
0.0624480198191
0.0624956466246
0.062690867057
0.0637859770692
0.069378275819
0.0931217201778
0.17485574452
0.0622341800094
0.0596015193001
0.0619066413292
0.0622657477037
0.0623199102096
0.0623385118444
0.0623556589363
0.0623746980839
0.0623956895434
0.0624183690249
0.0624424212786
0.0624675232529
0.0624935648913
0.0625226244632
0.0625744616543
0.0627882202117
0.0639642607266
0.0698225148275
0.0940687803014
0.175488496295
0.0623254176527
0.0596694293751
0.0619748623104
0.0623342914489
0.0623889141074
0.0624081162942
0.0624260061602
0.0624459364166
0.0624679713265
0.0624918477713
0.0625172470439
0.0625438415907
0.0625715504695
0.0626027970605
0.0626597992646
0.0628950441251
0.0641618747145
0.0703104021857
0.0950895894469
0.176175341732
0.0624174110044
0.0597385643715
0.0620446680337
0.0624046414439
0.0624599478382
0.0624800175191
0.0624989646634
0.0625201454796
0.0625436252628
0.0625691383266
0.0625963586799
0.0626249506458
0.0626548664669
0.0626889363735
0.0627522300337
0.0630123523909
0.0643809448062
0.0708457615727
0.0961886638422
0.176923639865
0.0625095347353
0.0598086092986
0.062115815011
0.0624765919423
0.0625328357088
0.0625540730589
0.0625744321396
0.0625972714666
0.0626226549218
0.0626503109029
0.0626799025755
0.0627110824177
0.06274384122
0.0627814891239
0.0628524014832
0.0631412913733
0.0646238158054
0.0714326873851
0.0973710192769
0.177742538801
0.0626010147574
0.0598791599529
0.062187985685
0.0625498672575
0.0626073360638
0.0626300805015
0.0626522540206
0.0626772174196
0.0627050317533
0.0627354155976
0.0627680182732
0.0628024770624
0.0628388286288
0.0628809491416
0.0629610396679
0.0632831387749
0.0648930148756
0.0720754096954
0.098642708495
0.178642113044
0.0626909093501
0.0599497087902
0.0622607729782
0.0626241090962
0.0626831306961
0.0627077676569
0.0627322132615
0.0627598343267
0.0627906840402
0.0628244714512
0.0628608286367
0.0628993758573
0.0629402054542
0.0629878593441
0.0630789527662
0.0634392892187
0.0651911078289
0.0727774951997
0.10000713004
0.179623313183
0.0627780971205
0.06001963367
0.0623336658878
0.0626988592076
0.0627598042101
0.0627867695855
0.0628140094724
0.0628448968451
0.062879478993
0.0629174527221
0.0629584330868
0.0630020206913
0.0630483762382
0.0631028199435
0.0632070390326
0.0636112668078
0.0655208823104
0.0735432484986
0.101464009827
0.180672721795
0.0628612201316
0.0600881511353
0.0624060055464
0.0627735214084
0.0628368129416
0.0628666029151
0.062897229331
0.0629320728407
0.0629711768986
0.0630142329077
0.0630608279552
0.0631105532749
0.0631636545339
0.0632263599476
0.0633461603958
0.0638005847308
0.0658849568429
0.0743761856832
0.103019555446
0.181807404907
0.0629387561269
0.0601543866313
0.0624770523314
0.0628474190949
0.0629135317655
0.0629467063224
0.0629813912138
0.0630209859936
0.0630655402825
0.0631147157034
0.0631680973824
0.0632252617331
0.0632865627234
0.0633592710663
0.063497455789
0.0640089249963
0.0662857731455
0.0752793766289
0.104679617425
0.183044738194
0.0630089115741
0.0602172680457
0.0625458800541
0.0629196975511
0.062989164619
0.0630263505117
0.0630658499285
0.0631110896874
0.0631621243995
0.0632186254497
0.0632801614102
0.0633462901877
0.0634174951352
0.0635022379503
0.063661964298
0.0642377883779
0.0667253005725
0.0762543875317
0.106437757547
0.184377201736
0.0630696409247
0.0602755477172
0.0626113947388
0.0629893398402
0.0630627588573
0.063104661381
0.0631498323746
0.0632017382874
0.0632604484837
0.0633256427099
0.0633968886066
0.0634737427198
0.0635568415805
0.063655971919
0.0638407176945
0.0644883797076
0.0672042701059
0.0772996279017
0.108287019289
0.185795638593
0.0631186674751
0.0603277961816
0.0626723191476
0.0630551476461
0.0631331840097
0.0631805902522
0.0632323919403
0.0632921115113
0.0633598453185
0.0634352934412
0.063518038786
0.0636076547108
0.0637049579883
0.0638211721195
0.0640346519547
0.0647613539863
0.0677216432547
0.0784094387257
0.110203179026
0.187221294497
0.063153506571
0.0603723929553
0.0627271765479
0.0631157254213
0.0631991148738
0.0632528982593
0.0633123989942
0.0633812165944
0.0634594908701
0.0635469603993
0.0636432459638
0.0637479626042
0.0638621325899
0.0639984764393
0.0642444857151
0.0650564004976
0.0682731054961
0.0795681073091
0.112098504764
0.188176951652
0.0631715379666
0.0604074820547
0.0627742606509
0.0631694669329
0.0632590198784
0.063320142025
0.0633885238952
0.0634678680712
0.0635583783071
0.0636598547988
0.0637719879333
0.0638944685989
0.0640285445968
0.0641883999543
0.0644705725703
0.0653718277861
0.0688500439012
0.0807339669439
0.11370428674
0.187200444093
0.0631728412313
0.0604291084783
0.0628109494568
0.0632144267568
0.0633111376043
0.0633806606
0.0634592200052
0.0635506684357
0.0636552962684
0.0637729901574
0.0639035536841
0.0640467989865
0.0642042099118
0.0643912547206
0.0647127074934
0.0657038978321
0.0694364332945
0.0818464257087
0.115018292106
0.187126341553
0.063167935295
0.0604275201389
0.0628318653182
0.0632477798686
0.0633534349563
0.0634325836945
0.0635226668313
0.0636278927175
0.063748710459
0.0638851356586
0.0640370000649
0.0642043525275
0.0643889117706
0.0646070476106
0.0649698748189
0.0660457671088
0.0700064371958
0.0828512296051
0.11616541684
0.187627382389
0.0631532667849
0.0604012171366
0.0628344629008
0.0632672075322
0.0633838376064
0.063474075639
0.0635772479491
0.063698002642
0.063836970228
0.0639944477915
0.0641706645939
0.0643660300526
0.0645820990763
0.0648353916515
0.0652401827583
0.0663873214569
0.0705237687181
0.0836710447431
0.117017388305
0.188053138415
0.0631239812715
0.0603486182099
0.0628164027779
0.0632703297371
0.0634000767492
0.0635029633134
0.063620918457
0.0637592111727
0.0639187890937
0.0641001141826
0.0643036462286
0.0645300372379
0.0647816314531
0.0650747915877
0.0655208906387
0.0667155181004
0.0709409541453
0.0842107707586
0.117401244747
0.188099188034
0.0630751243753
0.0602691004081
0.0627757361601
0.0632548171506
0.0633997905772
0.0635169301156
0.063651456099
0.063809530012
0.0639924033678
0.0642006302554
0.0644350008152
0.0646964650203
0.0649877970665
0.0653239489138
0.0658074232582
0.067014907233
0.0712026316229
0.084344356818
0.117034309191
0.187529048135
0.063002525655
0.0601626235106
0.0627109402303
0.0632183960758
0.0633805868282
0.0635136376489
0.0636666698714
0.0638469206855
0.0640559370371
0.0642944431957
0.0645634375963
0.0648641077299
0.065199720682
0.0655844819007
0.0661097193808
0.0672909405072
0.0712514053303
0.0839413050685
0.11565672532
0.186215396661
0.0629020850815
0.0600295373769
0.0626209068823
0.0631590582299
0.0633402039707
0.0634907968125
0.0636643338497
0.0638693433435
0.0641077064811
0.0643802109702
0.0646878131525
0.0650319443599
0.0654163936513
0.0658549624023
0.0664287312491
0.0675928570061
0.0712591092424
0.0828817965664
0.112586631906
0.184056577873
0.0627705839383
0.059870783383
0.0625050825668
0.0630752218096
0.0632766831408
0.0634462971492
0.063642335598
0.0638749091391
0.0641462982211
0.0644570401107
0.0648074932979
0.0651992911304
0.0656365575883
0.0661326785873
0.066758722437
0.0679078623263
0.0712661882027
0.081643868973
0.108054106415
0.178637024769
0.0626067293777
0.0596883651515
0.0623638127157
0.062966023919
0.0631885847014
0.063378440528
0.0635989527551
0.0638621759152
0.0641709683601
0.0645247570326
0.064922858561
0.0653666782573
0.0658605951135
0.0664175770084
0.0670994941079
0.0682380829479
0.0712853029222
0.0802857426507
0.103149971412
0.1765524662
0.0624114854434
0.0594862153131
0.0621990191377
0.0628317623279
0.0630753632475
0.0632861580859
0.0635329865478
0.0638305084734
0.064182238198
0.0645848922396
0.0650357427746
0.0655359243492
0.0660897636893
0.0667087237041
0.0674459019015
0.0685737487244
0.0713277193691
0.0789560721142
0.0984719462888
0.185078683696
0.062188114764
0.0592706567686
0.0620147349804
0.0626744669502
0.0629376653145
0.0631691941834
0.063443871275
0.0637802776463
0.0641823369016
0.0646406585027
0.0651495164777
0.0657107455117
0.066328512133
0.0670099212072
0.0678009088344
0.0689170759167
0.0714018714528
0.0777063386769
0.0929315458642
0.154090796258
0.0619426008251
0.0590507195882
0.0618177241834
0.0624984877353
0.0627778833597
0.0630281229689
0.063330480042
0.0637097041366
0.0641681793868
0.0646868720287
0.0652581455007
0.065887759169
0.0665773206543
0.0673215082444
0.0681657709148
0.0692688887609
0.071513915014
0.0767119261208
0.0899274574409
0.159998162322
0.0616837806258
0.0588378211761
0.0616175923022
0.0623109544106
0.0626000862615
0.0628620775499
0.0631802922142
0.0635737129289
0.0640444096969
0.0645928247572
0.0652207646542
0.0659450667718
0.0667553619052
0.0675963973619
0.068511253357
0.0696097576243
0.0716432037071
0.0759929058836
0.088742553633
0.17581720794
0.0614230637526
0.0586446136531
0.061426609192
0.0621220065272
0.0624089805757
0.0626586208587
0.0629005184208
0.0629274436178
0.0629795975393
0.0632984229507
0.0639192560554
0.0648550744208
0.0661034683783
0.0673816647302
0.0685968602166
0.069838550889
0.0717612654864
0.075516438376
0.0891596233474
0.207513991325
0.0611732450148
0.0584823046653
0.0612581157891
0.0619428549718
0.0622041611141
0.0623557758724
0.0620107572034
0.0591745834857
0.0725324964801
0.0707215513839
0.0712560709919
0.0737077099775
0.0606844501422
0.0647690544991
0.0674308269821
0.0694563574478
0.0716395493057
0.0750841187947
0.0875073396143
0.186909161109
0.0609503655277
0.0583624975383
0.0611284830288
0.0617851826854
0.0619656579042
0.0618293021418
0.0602015969927
0.0659596048626
0.0755495878398
0.0626085803554
0.0660246989368
0.0686554294623
0.0711746275119
0.0745446474102
0.0841298816556
0.157698915312
0.0607842641775
0.0582867755561
0.0610593398098
0.0617118990432
0.0618680528362
0.0616222639897
0.0595563528662
0.063002613931
0.0664701012489
0.0603258681056
0.064482714554
0.0674486080549
0.0702926876383
0.0737034676916
0.0801973113183
0.121819010932
0.0607842799678
0.058286783623
0.0610593442123
0.0617118986003
0.0618680461811
0.061622248764
0.0595563265051
0.0630026000433
0.0664702724865
0.0603261503259
0.064483277185
0.0674492754631
0.0702937018311
0.0737052678282
0.0802005230405
0.1218202318
0.0609503943891
0.0583625132257
0.0611284906793
0.0617851800515
0.061965640116
0.0618292660241
0.0602015455174
0.0659595671749
0.0755498521792
0.0626090203585
0.0660256887666
0.068656572907
0.0711762085196
0.0745471469899
0.0841340453645
0.157698867824
0.0611732838199
0.0584823254003
0.0612581245514
0.0619428468298
0.0622041295647
0.0623557143168
0.0620106743124
0.0591745014791
0.0725323913029
0.0707214696813
0.0712560456228
0.0737077916519
0.0606846720449
0.0647695964945
0.0674321249467
0.0694577159147
0.0716412885125
0.0750866677039
0.0875108529613
0.186906830868
0.0614230587715
0.0586445956184
0.0614265800354
0.062121968515
0.062408932366
0.0626585589667
0.0629004454782
0.0629273740062
0.0629795355405
0.0632983859703
0.0639192716114
0.0648551686798
0.0661037019984
0.0673822060463
0.0685981941973
0.0698399257517
0.0717629942995
0.0755188331027
0.0891622696541
0.207512419754
0.0616837459783
0.0588377754136
0.0616175339858
0.0623108878414
0.0626000127787
0.0628619970477
0.0631802087499
0.0635736373036
0.064044358034
0.0645928145746
0.0652208190772
0.0659452251025
0.066755682991
0.0675970205864
0.0685126280076
0.0696111084626
0.0716448593596
0.0759950987135
0.0887446094549
0.175818819961
0.0619425381498
0.0590506487289
0.061817640186
0.0624983957049
0.0627777874108
0.063028027033
0.0633303903714
0.0637096334172
0.0641681434878
0.064686889064
0.0652582346744
0.0658879613853
0.0665776995687
0.0673221820099
0.0681671423468
0.0692701794237
0.0715154612828
0.0767138973732
0.0899296424183
0.160000502649
0.0621880295776
0.0592705684834
0.0620146324002
0.0626743558116
0.0629375450734
0.0631690920315
0.0634437849958
0.0637802197428
0.0641823211895
0.0646407003748
0.0651496291415
0.0657109705728
0.0663289105459
0.0670105932166
0.0678022131906
0.0689182592448
0.0714032655813
0.0777080876515
0.0929334214734
0.15409249418
0.062411376995
0.0594861085076
0.0621988980285
0.0628316427759
0.0630752336119
0.063286045686
0.0635329103548
0.0638304708411
0.064182241276
0.0645849490564
0.0650358560892
0.0655361413423
0.0660901395991
0.0667093444651
0.0674470813424
0.0685747841805
0.0713289169743
0.0789574855568
0.0984732605039
0.185079647804
0.0626066345307
0.0596882726749
0.0623637137871
0.0629659188214
0.0631884891143
0.0633783566903
0.0635988944327
0.0638621560386
0.064170981702
0.064524812763
0.0649229412877
0.065366857694
0.0658609145748
0.0664181114285
0.067100513084
0.0682389526161
0.0712862829019
0.0802868145739
0.103150862454
0.176553029193
0.0627705101535
0.0598707150548
0.0625050068118
0.0630751472396
0.0632766112348
0.0634462430246
0.0636423093217
0.0638749116573
0.0641463497926
0.0644571249907
0.0648076220227
0.0651995210912
0.0656369293315
0.0661332403925
0.0667596946645
0.0679086756216
0.0712670572527
0.0816447291983
0.108054715474
0.17863730663
0.0629020459389
0.0600295055941
0.0626208694313
0.0631590175046
0.0633401665058
0.0634907709178
0.0636643333677
0.0638693777033
0.0641077807358
0.0643803322739
0.0646879678779
0.0650322058804
0.0654167776359
0.0658555136912
0.066429612526
0.0675935853036
0.0712598477953
0.0828824594347
0.112587034734
0.184056752505
0.0630025232185
0.0601626278933
0.0627109385881
0.0632183883177
0.0633805773537
0.0635136351836
0.0636666874686
0.0638469738168
0.0640560340824
0.0642945783008
0.0645636249101
0.0648643950632
0.065200111461
0.0655850142012
0.0661105138305
0.0672915842909
0.0712520216136
0.0839417924068
0.115656986134
0.186215497203
0.0630751472671
0.0602691305128
0.0627757597592
0.0632548321075
0.0633998000357
0.0635169418084
0.0636514820329
0.0638095872238
0.0639925037156
0.0642007682236
0.0644351913634
0.0646967526623
0.0649881723612
0.0653244511611
0.0658081189309
0.0670154625504
0.0712031275631
0.0843447038196
0.11703448027
0.187529097104
0.0631240145995
0.0603486590901
0.0628164359661
0.0632703512536
0.0634000886723
0.063502971543
0.063620937414
0.0637592557872
0.0639188731086
0.0641002437752
0.0643038273789
0.0645303116432
0.0647819767377
0.0650752506971
0.0655214794089
0.0667159787784
0.0709413354798
0.0842110068277
0.117401344244
0.188099209978
0.0631533067163
0.0604012646158
0.0628345086343
0.0632672492222
0.0633838763897
0.0634741144845
0.0635772919905
0.0636980567053
0.0638370435915
0.0639945599938
0.0641708303664
0.0643662838913
0.0645824148798
0.0648358027965
0.0652406681804
0.0663876917086
0.0705240503463
0.0836711912162
0.117017423402
0.188053128292
0.0631679790964
0.0604275720477
0.0628319180093
0.0632478310672
0.0633534851077
0.0634326344161
0.0635227202758
0.0636279493144
0.0637487740472
0.0638852175203
0.0640371136157
0.0642045594295
0.064389198046
0.0646074141992
0.0649702690058
0.0660460592007
0.0700066371768
0.0828513050837
0.116165390099
0.187627355408
0.0631728853624
0.0604291613784
0.0628110051545
0.0632144829983
0.0633111944065
0.0633807186831
0.0634592801601
0.0635507293783
0.0636553589041
0.0637730627686
0.0639036437477
0.0640469409656
0.0642044116055
0.0643915540109
0.0647130261367
0.0657041272547
0.0694365712247
0.0818464407042
0.115018240685
0.187126306448
0.0631715799317
0.060407533519
0.0627743167586
0.0631695255592
0.0632590807979
0.0633202052787
0.0633885893118
0.0634679332984
0.0635584427069
0.063659925066
0.0637720699949
0.0638945910724
0.0640287105608
0.0641886262117
0.0644708357639
0.0653720097275
0.0688501354412
0.0807339578278
0.113704234364
0.187200430869
0.0631535446242
0.0603724414976
0.0627272311311
0.0631157843132
0.0631991777944
0.0632529648354
0.0633124684115
0.0633812858067
0.0634595581709
0.0635470311228
0.063643325343
0.0637480758437
0.0638622822801
0.0639986745965
0.0642447112644
0.0650565474905
0.0682731703458
0.0795680882527
0.112098452256
0.188176934718
0.063118700909
0.0603278407202
0.0626723707498
0.0630552050238
0.0631332469393
0.0631806581625
0.0632324636439
0.0632921835474
0.0633599151511
0.0634353651233
0.0635181170046
0.0636077609943
0.0637050946028
0.0638213481986
0.0640348492403
0.0647614783855
0.0677216951171
0.0784094156457
0.110203127402
0.187221273236
0.0630696696727
0.0602755877726
0.0626114423853
0.0629893942114
0.0630628198508
0.0631047283736
0.0631499040077
0.0632018109168
0.0632605189723
0.0633257142015
0.0633969653882
0.0634738420147
0.063556965273
0.0636561281834
0.0638408955914
0.0644884938127
0.0672043157963
0.0772996040388
0.108286970134
0.185795616937
0.0630089364977
0.0602173040556
0.0625459236103
0.062919748112
0.0629892222257
0.0630264144864
0.0630659185991
0.0631111593482
0.0631621915544
0.0632186939868
0.063280235741
0.0633463821181
0.0634176050761
0.0635023741129
0.0636621234325
0.0642378998252
0.0667253471311
0.0762543647965
0.106437713387
0.184377181585
0.0629387798553
0.0601544211351
0.0624770937955
0.0628474671316
0.0629135865914
0.0629467669974
0.062981454562
0.0630210474237
0.0630655941584
0.0631147752185
0.063168169278
0.0632253480304
0.0632866591913
0.0633593832183
0.0634975906056
0.0640090353841
0.0662858279931
0.0752793579504
0.104679578637
0.183044719415
0.0628612411168
0.0600881823115
0.0624060431414
0.0627735653413
0.0628368638209
0.0628666611827
0.0628972919359
0.062932137006
0.0629712444713
0.0630143017579
0.063060902565
0.0631106319644
0.0631637347135
0.0632264422992
0.0633462458194
0.0638006589042
0.065885004124
0.0743761709385
0.103019518862
0.181807387681
0.0627781066936
0.0600196531373
0.0623336914857
0.0626988915069
0.0627598438933
0.0627868167648
0.0628140622432
0.0628449507553
0.0628795332389
0.0629175070609
0.0629584841806
0.0630020675324
0.0630484179792
0.0631028583971
0.0632070756148
0.0636113023294
0.0655209066293
0.0735432301137
0.101463977036
0.180672704978
0.0626909294021
0.0599497373997
0.0622608066255
0.0626241471339
0.0626831734759
0.062707815644
0.0627322672295
0.0627598926281
0.0627907472681
0.0628245396139
0.0628609004791
0.062899450404
0.0629402814175
0.062987934784
0.0630790236133
0.0634393430591
0.065191133436
0.0727774943341
0.10000711607
0.17962330734
0.0626010258837
0.0598791786496
0.0621880089218
0.0625498947102
0.0626073679979
0.0626301169463
0.0626522947668
0.0626772620225
0.0627050787237
0.0627354645474
0.0627680681284
0.0628025274709
0.0628388794698
0.0628809998972
0.0629610873425
0.0632831752876
0.0648930318317
0.0720754104507
0.0986427040691
0.178642112285
0.0625095492154
0.0598086298865
0.062115838976
0.0624766186716
0.0625328653492
0.06255410581
0.062574468125
0.062597310696
0.0626226971659
0.0626503559503
0.0626799498653
0.0627111315056
0.0627438916089
0.0627815399399
0.0628524496868
0.063141329847
0.0646238370343
0.0714326943165
0.09737102308
0.177742542997
0.0624174277179
0.0597385860881
0.0620446921652
0.0624046676753
0.0624599760297
0.0624800477197
0.062498997104
0.0625201805311
0.0625436631689
0.0625691792798
0.062596402489
0.0626249969313
0.0626549142786
0.0626889844669
0.0627522751487
0.0630123882712
0.0643809651337
0.0708457699899
0.0961886713662
0.176923646553
0.0623254329259
0.0596694489024
0.0619748826242
0.0623343153271
0.0623889406073
0.0624081446876
0.0624260363464
0.0624459688577
0.0624680063495
0.0624918857863
0.062517287974
0.0625438851221
0.062571594608
0.0626028402322
0.0626598380496
0.0628950731598
0.0641618889854
0.0703104061257
0.0950895939871
0.176175346781
0.0622341900468
0.0596015319207
0.0619066481882
0.0622657660788
0.0623199346709
0.0623385392488
0.0623556880363
0.0623747295494
0.0623957238719
0.062418407202
0.0624424642254
0.0624675711844
0.0624936114871
0.0625226671487
0.0625744968181
0.0627882427525
0.0639642673742
0.0698225104626
0.0940687764877
0.175488496483
0.0621441967468
0.0595350748064
0.0618401647836
0.0621991600143
0.0622530756013
0.0622713218729
0.0622880104379
0.0623064804421
0.0623267870279
0.0623486602231
0.0623717926125
0.06239583718
0.0624206645673
0.062448064446
0.0624956809044
0.0626908835744
0.0637859769192
0.0693782610286
0.0931217063928
0.17485573933
0.0620558438474
0.0594702491077
0.0617755345926
0.0621345869109
0.0621884331698
0.0622065426229
0.0622230243067
0.0622412114498
0.062261143295
0.0622825558849
0.0623051029063
0.0623284795599
0.0623524756311
0.0623786771452
0.0624228850838
0.0626021107509
0.0636251059892
0.0689740710907
0.0922442868294
0.174271987079
0.0619694059171
0.0594071568464
0.0617128291761
0.0620720945641
0.0621260427052
0.0621442171101
0.0621607280881
0.0621788890767
0.0621987335264
0.0622199644351
0.0622422830944
0.0622652986003
0.0622888092875
0.0623141873017
0.0623556819733
0.0625211424006
0.0634799717984
0.0686066502123
0.0914328199242
0.173733656689
0.0618850865399
0.0593458819077
0.0616520705319
0.0620116588355
0.0620658925052
0.06208433002
0.0621010865047
0.0621194585167
0.0621394571421
0.0621607816101
0.0621830978961
0.0622060516004
0.0622293790757
0.0622542584185
0.0622936258753
0.0624472769509
0.0633490637756
0.0682730725149
0.0906839333357
0.173237689898
0.0618030137635
0.059286405863
0.0615932507627
0.0619533311403
0.0620080007197
0.0620268860489
0.0620440970112
0.0620629065035
0.062083300417
0.0621049667982
0.0621275220377
0.0621506326889
0.0621740361821
0.0621987304339
0.0622364669453
0.0623799793877
0.0632311036339
0.0679707194437
0.0899945161343
0.172781382385
0.0617232879587
0.0592287735439
0.0615363725831
0.0618970651743
0.0619523294103
0.0619718472728
0.0619897158326
0.0620091777022
0.0620301916333
0.0620524120643
0.0620754588276
0.0620989641543
0.0621226144796
0.0621473681475
0.0621838962219
0.0623187323453
0.0631249479599
0.0676972705337
0.0893617849784
0.172362487769
0.0616459272454
0.0591729503386
0.0614813828342
0.0618428187574
0.0618988442339
0.061919184001
0.061937912399
0.0619582354371
0.0619800787896
0.0620030689906
0.062026773193
0.0620508577113
0.062074993395
0.0620999945601
0.0621356700619
0.0622631077544
0.0630296086725
0.0674506645121
0.088783239408
0.171979134684
0.0615709088484
0.0591188949263
0.0614282273968
0.0617905477026
0.0618475141589
0.0618688748114
0.0618886701622
0.0619100629551
0.0619329469828
0.0619568661442
0.0619814457414
0.0620062643306
0.0620310433676
0.0620564607032
0.0620915866722
0.0622127419009
0.0629442314105
0.0672290763368
0.0882566501055
0.171629758282
0.0614982075025
0.0590665406565
0.0613768472598
0.0617402120879
0.0617983194364
0.0618209159258
0.0618419942186
0.0618646693228
0.0618887538295
0.0619138246081
0.0619394181137
0.0619651123255
0.0619906755396
0.0620166507449
0.0620514800424
0.0621673308748
0.0628680797949
0.0670309015023
0.0877800410819
0.171313038061
0.061427744596
0.0590158168704
0.0613271873213
0.0616917862333
0.0617512635855
0.0617753325756
0.0617979212541
0.0618220711579
0.0618475614084
0.061873926427
0.061900647447
0.0619273893338
0.0619538350108
0.0619804781642
0.0620152200208
0.0621266226849
0.0628005265765
0.0668547394611
0.0873516769832
0.171027851608
0.0613594302272
0.0589666523151
0.0612792062944
0.0616452724645
0.0617063884053
0.0617321934984
0.0617565290794
0.0617823587548
0.0618094262184
0.0618372067444
0.0618652254796
0.0618930873737
0.0619204927394
0.0619478853371
0.0619827076114
0.0620904136958
0.0627410424971
0.0666993834311
0.0869700592799
0.170773235713
0.0612931637476
0.0589189800012
0.0612328878475
0.0616007169908
0.0616637912889
0.0616916270942
0.0617179571252
0.0617456732673
0.0617744618535
0.0618038063896
0.0618331904078
0.0618622280579
0.0618906430017
0.0619188370253
0.0619538690069
0.0620585396213