/*--------------------------------*- C++ -*----------------------------------*\
| =========                 |                                                 |
| \\      /  F ield         | OpenFOAM: The Open Source CFD Toolbox           |
|  \\    /   O peration     | Version:  v2012                                 |
|   \\  /    A nd           | Website:  www.openfoam.com                      |
|    \\/     M anipulation  |                                                 |
\*---------------------------------------------------------------------------*/
FoamFile
{
    version     2.0;
    format      ascii;
    class       volScalarField;
    location    "0.5";
    object      rAU;
}
// * * * * * * * * * * * * * * * * * * * * * * * * * * * * * * * * * * * * * //

dimensions      [-1 3 1 0 0 0 0];


internalField   nonuniform List<scalar> 
1984
(
8.26137677791e-06
8.21584200145e-06
8.2117733212e-06
8.21162194409e-06
8.21172046778e-06
8.2118142152e-06
8.21187882611e-06
8.21190138739e-06
8.21187566642e-06
8.21179973136e-06
8.21167045958e-06
8.21147987575e-06
8.21120062218e-06
8.21088110726e-06
8.21040374745e-06
8.20532995832e-06
8.18660654769e-06
8.22206156442e-06
8.18258277923e-06
1.21081954179e-05
8.21510551917e-06
8.13643369799e-06
8.12588713181e-06
8.12529134503e-06
8.12530742644e-06
8.12536931456e-06
8.12541632729e-06
8.1254281878e-06
8.12539559776e-06
8.12531718567e-06
8.12519158378e-06
8.12502057011e-06
8.12479123114e-06
8.12459657097e-06
8.125149525e-06
8.12433838982e-06
8.10795938113e-06
8.11739386547e-06
8.08996426361e-06
1.20201618456e-05
8.21084255907e-06
8.12518582578e-06
8.11399042658e-06
8.11316460039e-06
8.11300099674e-06
8.11287664415e-06
8.11274979744e-06
8.11261184789e-06
8.11245896593e-06
8.1122881747e-06
8.1120984439e-06
8.11188759427e-06
8.11163467085e-06
8.11140366704e-06
8.11170813016e-06
8.10959040211e-06
8.08994240169e-06
8.11112928161e-06
8.10162377852e-06
1.20932118494e-05
8.21094640993e-06
8.12477755525e-06
8.11347534526e-06
8.11265933884e-06
8.11250745836e-06
8.11238353269e-06
8.1122500203e-06
8.11210182438e-06
8.11193481803e-06
8.11174962509e-06
8.11154285375e-06
8.11131178025e-06
8.11103433998e-06
8.11077402491e-06
8.11098361899e-06
8.10867223914e-06
8.08908158098e-06
8.11033375702e-06
8.11677527667e-06
1.22022231752e-05
8.21077550565e-06
8.12458314476e-06
8.11325313922e-06
8.11243412855e-06
8.11229098141e-06
8.11217642684e-06
8.11205075426e-06
8.1119086497e-06
8.11174710025e-06
8.11156439318e-06
8.11136112752e-06
8.11113239807e-06
8.1108549442e-06
8.11059342109e-06
8.11077340265e-06
8.10847536054e-06
8.08941958445e-06
8.10986473032e-06
8.12234299382e-06
1.23153143574e-05
8.21061857608e-06
8.12441290848e-06
8.11307384868e-06
8.11225144082e-06
8.11211215829e-06
8.11200363402e-06
8.11188436183e-06
8.11174842846e-06
8.11159299752e-06
8.1114165488e-06
8.11121809661e-06
8.11099488448e-06
8.11072392812e-06
8.11047282048e-06
8.11065164717e-06
8.10844025448e-06
8.0902529916e-06
8.11013175455e-06
8.12702396499e-06
1.24550762321e-05
8.21051015153e-06
8.12430091432e-06
8.11296530333e-06
8.11214412987e-06
8.11200788341e-06
8.1119031788e-06
8.111788235e-06
8.11165662294e-06
8.11150535292e-06
8.11133306726e-06
8.11113867017e-06
8.1109197457e-06
8.11065501147e-06
8.11041627871e-06
8.11060208587e-06
8.108479354e-06
8.09117316496e-06
8.11059781487e-06
8.13040299442e-06
1.26209528555e-05
8.21040420256e-06
8.1241861396e-06
8.11285622663e-06
8.11203864644e-06
8.11190592181e-06
8.11180451315e-06
8.11169325655e-06
8.11156551301e-06
8.11141813823e-06
8.11124993676e-06
8.11106003782e-06
8.11084614784e-06
8.11058881879e-06
8.11036460503e-06
8.11056297589e-06
8.10851576001e-06
8.09199625315e-06
8.11114171924e-06
8.13316061618e-06
1.28180158212e-05
8.21029625542e-06
8.12406357017e-06
8.11273893257e-06
8.11192557162e-06
8.11179665144e-06
8.11169834363e-06
8.11159047617e-06
8.11146639252e-06
8.11132286468e-06
8.11115886238e-06
8.11097379554e-06
8.11076564088e-06
8.11051638399e-06
8.11030756012e-06
8.11052201188e-06
8.10853116381e-06
8.09265364991e-06
8.11166542209e-06
8.13559010349e-06
1.30509071124e-05
8.21018938491e-06
8.12393914684e-06
8.11261952504e-06
8.11181046765e-06
8.11168533128e-06
8.11158982458e-06
8.1114849704e-06
8.11136416908e-06
8.11122419958e-06
8.11106415586e-06
8.11088383842e-06
8.11068136884e-06
8.11043983954e-06
8.11024601922e-06
8.11047913169e-06
8.10852317671e-06
8.0931152837e-06
8.11210017913e-06
8.13784664265e-06
1.33249855768e-05
8.21008595815e-06
8.12381648817e-06
8.11250185409e-06
8.11169698738e-06
8.11157541436e-06
8.11148230189e-06
8.11137998109e-06
8.11126195532e-06
8.1111250293e-06
8.11096848737e-06
8.11079241754e-06
8.11059509957e-06
8.11036026803e-06
8.11018038795e-06
8.11043469534e-06
8.10849087407e-06
8.09336179233e-06
8.11239775054e-06
8.14002925392e-06
1.36467859992e-05
8.2099890013e-06
8.12369899756e-06
8.11238948515e-06
8.11158858762e-06
8.11147018388e-06
8.11137889024e-06
8.11127846455e-06
8.11116251503e-06
8.11102791115e-06
8.11087407139e-06
8.11070143505e-06
8.11050826006e-06
8.1102785373e-06
8.11011110188e-06
8.11038934374e-06
8.10843328246e-06
8.09337677339e-06
8.11251842421e-06
8.14219888758e-06
1.40244817794e-05
8.20990239319e-06
8.12359065667e-06
8.11228653746e-06
8.11148928781e-06
8.11137346046e-06
8.11128319247e-06
8.11118377152e-06
8.11106893196e-06
8.11093557347e-06
8.11078331581e-06
8.11061283445e-06
8.11042235565e-06
8.11019563196e-06
8.11003879353e-06
8.11034394432e-06
8.10834901894e-06
8.0931431392e-06
8.11242287082e-06
8.14438715926e-06
1.44684917555e-05
8.20983079871e-06
8.12349609258e-06
8.11219773531e-06
8.11140366509e-06
8.11128955885e-06
8.11119922623e-06
8.11109959603e-06
8.11098450701e-06
8.11085092709e-06
8.11069858735e-06
8.11052861672e-06
8.11033886131e-06
8.1101124963e-06
8.10996406503e-06
8.11029937141e-06
8.10823594967e-06
8.09264059759e-06
8.11206543069e-06
8.14659947441e-06
1.49923264902e-05
8.20977973474e-06
8.12342070618e-06
8.11212853003e-06
8.11133691979e-06
8.1112233485e-06
8.11113145638e-06
8.11102993721e-06
8.11091272893e-06
8.11077686298e-06
8.11062249544e-06
8.11045048094e-06
8.11025925289e-06
8.11003007457e-06
8.10988768685e-06
8.11025667102e-06
8.10809127006e-06
8.09184402044e-06
8.11138615724e-06
8.1488117639e-06
1.5613809912e-05
8.20975571115e-06
8.12337081355e-06
8.11208523358e-06
8.11129505847e-06
8.11118022978e-06
8.11108478408e-06
8.11097911442e-06
8.11085718123e-06
8.11071653957e-06
8.11055706377e-06
8.11038089299e-06
8.11018489217e-06
8.10994944849e-06
8.10981031434e-06
8.11021745209e-06
8.10791233607e-06
8.09072324532e-06
8.11029521664e-06
8.15095704174e-06
1.63569160393e-05
8.20976655874e-06
8.12335397428e-06
8.11207529149e-06
8.11128482798e-06
8.1111665146e-06
8.11106444435e-06
8.11095142505e-06
8.11082181333e-06
8.11067252863e-06
8.11050490554e-06
8.11032056356e-06
8.11011667774e-06
8.10987071969e-06
8.10973269105e-06
8.11018419815e-06
8.10770087507e-06
8.08925259921e-06
8.10865977276e-06
8.15288565901e-06
1.72543081664e-05
8.20982167522e-06
8.12337913603e-06
8.11210744088e-06
8.11131445968e-06
8.11118873493e-06
8.11107635818e-06
8.11095148572e-06
8.11080932441e-06
8.11064768677e-06
8.1104675733e-06
8.11027141208e-06
8.11005563361e-06
8.10979472737e-06
8.10965535552e-06
8.11015983544e-06
8.10745921973e-06
8.08743337743e-06
8.10631912599e-06
8.15477829041e-06
1.83428706758e-05
8.20993233629e-06
8.12345712484e-06
8.11219204234e-06
8.11139272449e-06
8.11125496443e-06
8.11112628881e-06
8.11098400025e-06
8.11082354288e-06
8.1106435178e-06
8.11044525815e-06
8.11023205031e-06
8.1099996513e-06
8.10971869629e-06
8.10957601644e-06
8.11014400458e-06
8.10718355219e-06
8.08530416146e-06
8.1030831927e-06
8.15996288573e-06
1.96642103404e-05
8.21011310344e-06
8.12360144551e-06
8.11234155195e-06
8.11153044127e-06
8.11137332907e-06
8.11122096656e-06
8.11105319595e-06
8.11086663111e-06
8.11066057888e-06
8.11043729716e-06
8.11020086286e-06
8.10994631589e-06
8.10963934031e-06
8.10949121612e-06
8.1101344878e-06
8.10687298319e-06
8.08293603685e-06
8.09868045162e-06
8.16985801431e-06
2.1283135041e-05
8.21038080398e-06
8.12382811595e-06
8.11257091572e-06
8.111739576e-06
8.11155291688e-06
8.11136600283e-06
8.11116198062e-06
8.11093897495e-06
8.11069751633e-06
8.11044074834e-06
8.11017366131e-06
8.10989030076e-06
8.10955009258e-06
8.10939350575e-06
8.11012022936e-06
8.10650969905e-06
8.08047999732e-06
8.09283531929e-06
8.18545674535e-06
2.32802858576e-05
8.2107577998e-06
8.12415758852e-06
8.11289782062e-06
8.11203382787e-06
8.11180257303e-06
8.11156591077e-06
8.1113110972e-06
8.11103832186e-06
8.11074965468e-06
8.1104492063e-06
8.1101428373e-06
8.10982300389e-06
8.10944125658e-06
8.10927225502e-06
8.11007852136e-06
8.10604103665e-06
8.07825759936e-06
8.0854660692e-06
8.20479451438e-06
2.57410317824e-05
8.21127364876e-06
8.12461623668e-06
8.11334396809e-06
8.11242801737e-06
8.1121302753e-06
8.11182261221e-06
8.11149743862e-06
8.11115782584e-06
8.11080755977e-06
8.11045163229e-06
8.11009641797e-06
8.10973182914e-06
8.10930003423e-06
8.10911684576e-06
8.10997856947e-06
8.10534807503e-06
8.07743203514e-06
8.07817236812e-06
8.2099852387e-06
2.85517216219e-05
8.21196825311e-06
8.12523874781e-06
8.11393576957e-06
8.11293757616e-06
8.1125410008e-06
8.11213246066e-06
8.11171110526e-06
8.11128348844e-06
8.11085491497e-06
8.11043059027e-06
8.11001671585e-06
8.10959917074e-06
8.10911012518e-06
8.10892117324e-06
8.10975769423e-06
8.10437664994e-06
8.07987581109e-06
8.07497369234e-06
8.23242134092e-06
3.20538277347e-05
8.21289752689e-06
8.12607167849e-06
8.11470472486e-06
8.11357614486e-06
8.11303261585e-06
8.11248185852e-06
8.1119314274e-06
8.11139088258e-06
8.11086588989e-06
8.11036037731e-06
8.10987903243e-06
8.10940149818e-06
8.10885224009e-06
8.10865922203e-06
8.10938106626e-06
8.10332822368e-06
8.08227428232e-06
8.0742759375e-06
8.33893073889e-06
3.76097698489e-05
8.21414375915e-06
8.12717929556e-06
8.11568672345e-06
8.11435002842e-06
8.11358863966e-06
8.11284032865e-06
8.11212068894e-06
8.11144051037e-06
8.11080260004e-06
8.11020554356e-06
8.10965058489e-06
8.10910897641e-06
8.10850197834e-06
8.10831067711e-06
8.10882933248e-06
8.10225760924e-06
8.08506055335e-06
8.07926609957e-06
8.49127075345e-06
4.54305413638e-05
8.21583446105e-06
8.12865272745e-06
8.11691791213e-06
8.1152455634e-06
8.11416308258e-06
8.11314672654e-06
8.11221531499e-06
8.11137256053e-06
8.11061071037e-06
8.10991875612e-06
8.10929026553e-06
8.1086859261e-06
8.10802995946e-06
8.10784051406e-06
8.10808915958e-06
8.101180333e-06
8.08805270071e-06
8.08988524748e-06
8.70336853027e-06
5.69816976552e-05
8.21818011292e-06
8.13062206477e-06
8.11841820328e-06
8.11620134669e-06
8.11465677681e-06
8.11329568568e-06
8.11211868248e-06
8.11110410417e-06
8.11022162373e-06
8.10944323026e-06
8.10874937783e-06
8.10809051715e-06
8.10739939498e-06
8.10720719292e-06
8.10714099138e-06
8.10008451098e-06
8.09135995581e-06
8.1029505513e-06
8.98822379017e-06
7.5195911021e-05
8.22155638839e-06
8.13326547206e-06
8.12013682993e-06
8.11704433409e-06
8.11487427825e-06
8.11311674099e-06
8.11169669256e-06
8.11053329933e-06
8.10955754145e-06
8.10871722826e-06
8.10797771046e-06
8.10728055486e-06
8.10657278174e-06
8.10636741091e-06
8.10597138782e-06
8.09912459333e-06
8.0949142246e-06
8.1140124657e-06
9.36164660875e-06
0.000106694341541
8.22668769774e-06
8.13675981709e-06
8.12177562692e-06
8.11735833003e-06
8.1144705135e-06
8.11236681045e-06
8.11078697642e-06
8.10955200025e-06
8.10854355811e-06
8.10768612896e-06
8.1069322647e-06
8.10621976575e-06
8.10551365291e-06
8.10527095866e-06
8.10457244491e-06
8.09848787071e-06
8.09825064461e-06
8.11908438002e-06
9.84576654049e-06
0.000169990616814
8.23514301711e-06
8.14078873897e-06
8.1222537859e-06
8.11629560148e-06
8.11295005625e-06
8.11077834864e-06
8.10924591037e-06
8.10808033329e-06
8.10713235912e-06
8.10631865521e-06
8.10558886711e-06
8.10488643667e-06
8.10419421094e-06
8.10386907618e-06
8.10293002125e-06
8.09844053306e-06
8.10029125471e-06
8.104387832e-06
1.04575443386e-05
0.000343400948735
8.24750728024e-06
8.14094399295e-06
8.11873614086e-06
8.11268058668e-06
8.10988898177e-06
8.10821039159e-06
8.10703604662e-06
8.10611634169e-06
8.10533246458e-06
8.10462500437e-06
8.10395432017e-06
8.10328220175e-06
8.10260733025e-06
8.10214538722e-06
8.10098410807e-06
8.09938782539e-06
8.09643007963e-06
8.00285355469e-06
1.11673906242e-05
0.00139313204505
8.17834291251e-06
8.12159044577e-06
8.10846609435e-06
8.10627269584e-06
8.10545394699e-06
8.10485078036e-06
8.10430943609e-06
8.10377280116e-06
8.10322739153e-06
8.10266902465e-06
8.10207460651e-06
8.10143716626e-06
8.10076365919e-06
8.10013221701e-06
8.09898857707e-06
8.09931950235e-06
8.09018414918e-06
8.00108854014e-06
1.24494789175e-05
0.00210375154064
8.11587575679e-06
8.09324906434e-06
8.09573092196e-06
8.0990687138e-06
8.10055360335e-06
8.10121690666e-06
8.1013938435e-06
8.10125953851e-06
8.10097212968e-06
8.10056521721e-06
8.10003270523e-06
8.09941154996e-06
8.09870794539e-06
8.09790508e-06
8.09689401971e-06
8.09771787331e-06
8.08426740114e-06
8.03045970212e-06
1.41595008327e-05
0.00227295501136
8.14516751356e-06
8.08496394609e-06
8.08819574671e-06
8.0935901574e-06
8.09642244004e-06
8.09792159094e-06
8.09859221244e-06
8.09880030592e-06
8.0987194821e-06
8.09840706747e-06
8.0979278872e-06
8.09729227901e-06
8.09651939713e-06
8.0955530797e-06
8.09456602072e-06
8.09492193439e-06
8.07953755062e-06
8.06661018637e-06
1.62393934764e-05
0.00249076289844
8.17045778286e-06
8.091823851e-06
8.08731770356e-06
8.09110479419e-06
8.09391217457e-06
8.09552364831e-06
8.09636475173e-06
8.09670353761e-06
8.09662676248e-06
8.09629040727e-06
8.09580746316e-06
8.09514492739e-06
8.09428312141e-06
8.09313996296e-06
8.0918670657e-06
8.0916844241e-06
8.07525264186e-06
8.11481314598e-06
1.86672723977e-05
0.00274186637461
8.1831498276e-06
8.09911712579e-06
8.08956721343e-06
8.09125600588e-06
8.09308768911e-06
8.09423460095e-06
8.09485191017e-06
8.0950178056e-06
8.09483367705e-06
8.09442760254e-06
8.09386587187e-06
8.0931192304e-06
8.0921062239e-06
8.0906481059e-06
8.08852572566e-06
8.0903827524e-06
8.07025090629e-06
8.19034276885e-06
2.14492645046e-05
0.0029870297223
8.19083168158e-06
8.10507719146e-06
8.09251214217e-06
8.09274730443e-06
8.09350808454e-06
8.09393382327e-06
8.09401933546e-06
8.09380164878e-06
8.09340549613e-06
8.09286615232e-06
8.09219787759e-06
8.09137943911e-06
8.09030743184e-06
8.08875607593e-06
8.08678217965e-06
8.0846032085e-06
8.06829526966e-06
8.28481695757e-06
2.43403176716e-05
0.00321217722844
8.19638376942e-06
8.10981157333e-06
8.09537115744e-06
8.09474622836e-06
8.09461351402e-06
8.09427679772e-06
8.09376181831e-06
8.0930745222e-06
8.09232610834e-06
8.09157353719e-06
8.09080943089e-06
8.09002378316e-06
8.0891061512e-06
8.08779440708e-06
8.08501864271e-06
8.07724724027e-06
8.06409594627e-06
8.35636266873e-06
2.68628677434e-05
0.00338178785774
8.20057767491e-06
8.11360983585e-06
8.09794637981e-06
8.09688443349e-06
8.09605253245e-06
8.09499421137e-06
8.09385665926e-06
8.09264418597e-06
8.09150286758e-06
8.09053667608e-06
8.08970824047e-06
8.08899714918e-06
8.08834005981e-06
8.08750772504e-06
8.08443999336e-06
8.07938078589e-06
8.05866617339e-06
8.31725973084e-06
2.79845121838e-05
0.003339889047
8.20403440282e-06
8.11679874249e-06
8.10028984747e-06
8.09901568873e-06
8.09762393792e-06
8.09589353449e-06
8.09411933782e-06
8.09229540954e-06
8.09076528892e-06
8.08969132799e-06
8.08890195935e-06
8.08829720623e-06
8.08805421023e-06
8.08848912996e-06
8.08829400478e-06
8.08661403271e-06
8.0548389734e-06
8.11267338968e-06
2.52783396058e-05
0.00320028748901
8.20702300323e-06
8.11952985972e-06
8.10245204557e-06
8.10106904745e-06
8.09919107692e-06
8.09680284064e-06
8.09436003946e-06
8.09180987513e-06
8.08998858456e-06
8.08901784702e-06
8.08835966769e-06
8.08783347445e-06
8.08801478078e-06
8.0901737381e-06
8.0923067002e-06
8.08812446625e-06
8.04478831098e-06
7.95079759389e-06
1.94833730959e-05
0.0027790636816
8.20948193842e-06
8.12178588868e-06
8.10443838638e-06
8.10299468058e-06
8.10064709574e-06
8.09756713479e-06
8.09434172818e-06
8.09083009312e-06
8.08904103047e-06
8.08866475017e-06
8.08817991391e-06
8.08738463295e-06
8.08775652821e-06
8.09217827892e-06
8.09548859271e-06
8.08139928892e-06
8.01628794265e-06
7.94855381686e-06
1.47965257381e-05
0.00104743115822
8.21135275907e-06
8.1235188235e-06
8.10624217993e-06
8.10475414109e-06
8.10190756817e-06
8.09804909861e-06
8.09371435452e-06
8.08879706768e-06
8.08803523304e-06
8.08925472937e-06
8.0886211804e-06
8.08618954251e-06
8.08604473762e-06
8.09438677591e-06
8.09942324503e-06
8.0786147224e-06
8.0991348683e-06
8.13524363975e-06
1.0860000844e-05
0.000155855746218
8.21262953264e-06
8.12470484567e-06
8.10785768431e-06
8.10632157367e-06
8.10290427517e-06
8.09813962914e-06
8.09193062723e-06
8.08472605331e-06
8.08651971317e-06
8.09110375185e-06
8.08876117132e-06
8.08226598052e-06
8.08408552678e-06
8.09689675464e-06
8.09748067952e-06
8.07093946355e-06
7.99388079943e-06
8.00904771518e-06
9.95180794108e-06
0.00011368013655
8.21332370123e-06
8.12536756074e-06
8.10930111132e-06
8.10774427086e-06
8.1037195173e-06
8.09815096561e-06
8.08970802848e-06
8.08161505677e-06
8.09310768561e-06
8.10053766485e-06
8.08891704689e-06
8.06530495525e-06
8.08244541646e-06
8.11441660533e-06
8.08882155921e-06
8.0176015608e-06
7.87472952708e-06
7.54837248212e-06
8.63632947253e-06
8.67385666313e-05
8.21347617286e-06
8.12557688465e-06
8.11050966434e-06
8.10890664402e-06
8.10418022422e-06
8.09760970481e-06
8.08525127365e-06
8.06532872214e-06
8.09848673134e-06
8.11622774021e-06
8.08745257119e-06
8.02896808136e-06
8.06690858344e-06
8.20030157715e-06
8.07424316e-06
7.96659274531e-06
7.83023475952e-06
7.70121620122e-06
8.73583647107e-06
0.00013654119549
8.21328641939e-06
8.12561309683e-06
8.1116452257e-06
8.10945402893e-06
8.10230282953e-06
8.09465326979e-06
8.07280755502e-06
7.99682481514e-06
8.10245614742e-06
8.18506934985e-06
8.13317194635e-06
8.00432731659e-06
7.85783448141e-06
7.83578089946e-06
7.66252418766e-06
7.87238741932e-06
7.84487674619e-06
7.68285023449e-06
7.63204773224e-06
8.21839187397e-05
8.21294244529e-06
8.12582241295e-06
8.11379811756e-06
8.11408092393e-06
8.10734711695e-06
8.09450023633e-06
8.09203923187e-06
8.15657331003e-06
8.13038715109e-06
7.88863270118e-06
7.73218006031e-06
7.95621747894e-06
7.89478885761e-06
7.70183098916e-06
7.34390038809e-06
2.84747806827e-05
8.21248514208e-06
8.12553991997e-06
8.11420324841e-06
8.11826291906e-06
8.11731906299e-06
8.09119434357e-06
8.09507911653e-06
8.1934206998e-06
8.15842766315e-06
8.03098855637e-06
8.01656906577e-06
8.01117258387e-06
7.88178498552e-06
7.7654247057e-06
7.11160754601e-06
7.66534979569e-06
8.21248497242e-06
8.12553979632e-06
8.11420330686e-06
8.11826305578e-06
8.11731911463e-06
8.09119456671e-06
8.0950798656e-06
8.19342083443e-06
8.15842742317e-06
8.03098840543e-06
8.01656868509e-06
8.01117195675e-06
7.88178341001e-06
7.76542335599e-06
7.11160665776e-06
7.66533993328e-06
8.21294202165e-06
8.12582214682e-06
8.1137983367e-06
8.11408127331e-06
8.10734770821e-06
8.09450149348e-06
8.09204082826e-06
8.15657453859e-06
8.13038769296e-06
7.88863317817e-06
7.73217998484e-06
7.95621625714e-06
7.89478669817e-06
7.70182810467e-06
7.34389792191e-06
2.84747155952e-05
8.21328579828e-06
8.1256127284e-06
8.11164561181e-06
8.10945463726e-06
8.10230375446e-06
8.09465501986e-06
8.07281009441e-06
7.99682728356e-06
8.10245864503e-06
8.18507159701e-06
8.13317305199e-06
8.00432764916e-06
7.85783342123e-06
7.83578155611e-06
7.66252297226e-06
7.87238583605e-06
7.84487493476e-06
7.68284593646e-06
7.63204539078e-06
8.2183824106e-05
8.21347610731e-06
8.12557701563e-06
8.11051037266e-06
8.10890756266e-06
8.10418142206e-06
8.09761111899e-06
8.08525294786e-06
8.06533095612e-06
8.0984895893e-06
8.11623048083e-06
8.08745381694e-06
8.02896865145e-06
8.06690895548e-06
8.20030393239e-06
8.07424222851e-06
7.9665916085e-06
7.8302332603e-06
7.70121408556e-06
8.73586329311e-06
0.000136541474187
8.21332428672e-06
8.12536838735e-06
8.10930239917e-06
8.10774579967e-06
8.10372135569e-06
8.09815305734e-06
8.08971049663e-06
8.08161803382e-06
8.09311064392e-06
8.10053988651e-06
8.08891811611e-06
8.06530493e-06
8.08244477454e-06
8.11441590191e-06
8.08881925117e-06
8.01759902848e-06
7.87472711589e-06
7.54837153927e-06
8.63635383478e-06
8.67391416378e-05
8.21263077333e-06
8.12470646451e-06
8.10785966936e-06
8.10632363697e-06
8.10290630169e-06
8.09814243174e-06
8.09193367049e-06
8.08472923133e-06
8.08652250362e-06
8.09110549526e-06
8.08876175545e-06
8.08226560251e-06
8.08408401199e-06
8.09689443006e-06
8.09747608059e-06
8.07093528581e-06
7.9938780816e-06
8.00903884001e-06
9.9518067197e-06
0.000113679960293
8.21135459377e-06
8.12352070696e-06
8.1062442722e-06
8.10475623449e-06
8.10190979764e-06
8.09805136883e-06
8.0937173597e-06
8.08880030831e-06
8.0880375671e-06
8.08925601738e-06
8.08862183061e-06
8.08618905222e-06
8.08604271684e-06
8.09438311298e-06
8.09941699041e-06
8.07860991056e-06
8.09913365902e-06
8.1352410291e-06
1.08599778814e-05
0.000155852387236
8.20948472795e-06
8.12178853783e-06
8.10444090917e-06
8.10299706474e-06
8.10064955231e-06
8.09756989713e-06
8.09434504004e-06
8.09083270673e-06
8.08904317965e-06
8.08866604253e-06
8.08818089402e-06
8.08738457697e-06
8.0877547862e-06
8.09217459888e-06
8.09548237886e-06
8.08139512815e-06
8.01628489924e-06
7.94855019738e-06
1.47965358632e-05
0.00104742746816
8.20702533647e-06
8.11953240608e-06
8.10245461743e-06
8.10107180788e-06
8.09919412495e-06
8.09680619946e-06
8.09436286076e-06
8.09181215912e-06
8.08999039276e-06
8.08901907493e-06
8.0883608651e-06
8.08783351582e-06
8.08801312195e-06
8.09017039949e-06
8.09230103766e-06
8.08812135004e-06
8.04478654132e-06
7.95079533766e-06
1.9483344015e-05
0.00277903886453
8.20403595274e-06
8.11680047704e-06
8.10029185989e-06
8.09901778189e-06
8.09762618631e-06
8.09589576319e-06
8.09412136705e-06
8.09229717939e-06
8.09076612115e-06
8.08969205104e-06
8.08890220829e-06
8.08829617968e-06
8.08805145159e-06
8.08848534389e-06
8.08828809299e-06
8.08661118283e-06
8.05483794506e-06
8.11266992784e-06
2.52783426128e-05
0.00320028115641
8.20057856411e-06
8.11361087643e-06
8.09794763263e-06
8.09688587134e-06
8.09605407538e-06
8.09499564966e-06
8.09385788007e-06
8.09264507224e-06
8.09150359128e-06
8.09053655427e-06
8.08970825884e-06
8.08899560078e-06
8.08833737029e-06
8.08750438934e-06
8.08443475399e-06
8.07937855125e-06
8.05866539313e-06
8.3172562452e-06
2.79845160765e-05
0.0033398874641
8.19638397986e-06
8.10981194431e-06
8.09537176426e-06
8.09474703903e-06
8.09461445166e-06
8.09427782749e-06
8.09376270359e-06
8.09307510798e-06
8.09232640935e-06
8.09157346199e-06
8.09080903357e-06
8.09002209666e-06
8.08910346516e-06
8.08779145364e-06
8.08501460842e-06
8.07724617793e-06
8.06409523996e-06
8.3563591609e-06
2.68628828602e-05
0.00338178720191
8.19083129477e-06
8.10507705655e-06
8.09251246761e-06
8.09274812289e-06
8.0935093328e-06
8.09393533511e-06
8.09402091259e-06
8.09380291002e-06
8.09340634514e-06
8.09286635839e-06
8.09219798455e-06
8.0913783998e-06
8.09030562271e-06
8.08875391659e-06
8.08677983456e-06
8.08460262785e-06
8.06829450886e-06
8.28481397277e-06
2.43403222981e-05
0.00321217630554
8.18314926802e-06
8.09911671407e-06
8.08956709838e-06
8.09125631087e-06
8.09308838447e-06
8.09423563226e-06
8.09485311895e-06
8.09501906715e-06
8.0948350346e-06
8.0944281526e-06
8.09386634555e-06
8.0931187027e-06
8.09210544775e-06
8.09064697922e-06
8.08852482259e-06
8.09038230987e-06
8.07025028126e-06
8.19034079162e-06
2.14492625567e-05
0.00298702885159
8.17045632418e-06
8.09182298786e-06
8.08731700987e-06
8.091104057e-06
8.09391155517e-06
8.09552327986e-06
8.09636465923e-06
8.09670377392e-06
8.09662773095e-06
8.09629145548e-06
8.09580839375e-06
8.09514479327e-06
8.09428291588e-06
8.09313950618e-06
8.09186636938e-06
8.09168397029e-06
8.07525212639e-06
8.11481064091e-06
1.86672676381e-05
0.00274186553489
8.14516553188e-06
8.08496302124e-06
8.08819514622e-06
8.0935897445e-06
8.09642221397e-06
8.09792155708e-06
8.09859244459e-06
8.09880090734e-06
8.09872048602e-06
8.09840846424e-06
8.09792971813e-06
8.09729290906e-06
8.09651949275e-06
8.09555308417e-06
8.0945654331e-06
8.09492153562e-06
8.07953726236e-06
8.06660898323e-06
1.62393870862e-05
0.0024907621724
8.11587925167e-06
8.09324865931e-06
8.09573045072e-06
8.09906832665e-06
8.1005533299e-06
8.10121677408e-06
8.10139389031e-06
8.10126005164e-06
8.10097314197e-06
8.10056651125e-06
8.10003449738e-06
8.09941271673e-06
8.098708961e-06
8.09790535842e-06
8.09689357812e-06
8.09771750794e-06
8.08426727639e-06
8.03045926036e-06
1.41594934391e-05
0.0022729543915
8.17834749618e-06
8.12159062016e-06
8.10846587843e-06
8.10627240071e-06
8.10545364453e-06
8.10485056035e-06
8.10430937052e-06
8.10377307768e-06
8.10322816767e-06
8.10267011497e-06
8.10207609609e-06
8.10143811508e-06
8.10076452076e-06
8.10013277131e-06
8.09898818473e-06
8.0993191388e-06
8.09018410991e-06
8.00108865497e-06
1.24494747894e-05
0.00210375116461
8.24750735846e-06
8.1409440872e-06
8.1187359896e-06
8.11268030446e-06
8.10988862626e-06
8.10821004809e-06
8.10703581561e-06
8.10611638135e-06
8.10533296363e-06
8.10462581778e-06
8.10395546626e-06
8.10328294161e-06
8.10260801257e-06
8.10214584146e-06
8.10098371494e-06
8.09938742597e-06
8.09643010073e-06
8.00285382681e-06
1.11673882758e-05
0.00139312355664
8.23514280371e-06
8.1407885287e-06
8.12225355361e-06
8.11629529062e-06
8.11294966302e-06
8.11077792506e-06
8.10924556579e-06
8.10808020992e-06
8.10713261001e-06
8.10631917472e-06
8.10558965258e-06
8.10488696489e-06
8.10419474329e-06
8.10386947173e-06
8.10292967597e-06
8.09844031153e-06
8.10029123908e-06
8.10438857828e-06
1.04575445304e-05
0.000343399466721
8.22668755225e-06
8.13675956891e-06
8.12177537316e-06
8.11735801816e-06
8.1144701402e-06
8.11236640307e-06
8.11078663363e-06
8.109551841e-06
8.10854359649e-06
8.10768634976e-06
8.10693269785e-06
8.10622010643e-06
8.10551407221e-06
8.10527130667e-06
8.10457213961e-06
8.09848729162e-06
8.09825059674e-06
8.11908469517e-06
9.8457664209e-06
0.000169990276213
8.22155638721e-06
8.13326530266e-06
8.1201366094e-06
8.11704406441e-06
8.11487397746e-06
8.11311642122e-06
8.1116963811e-06
8.1105330778e-06
8.10955723019e-06
8.10871706723e-06
8.10797778512e-06
8.10728072463e-06
8.1065731042e-06
8.10636763698e-06
8.10597127013e-06
8.0991239852e-06
8.09491400692e-06
8.1140115638e-06
9.36164537639e-06
0.000106694216323
8.21818002713e-06
8.13062188882e-06
8.11841801574e-06
8.11620113644e-06
8.11465652839e-06
8.11329532823e-06
8.11211816018e-06
8.11110340775e-06
8.11022086843e-06
8.1094427573e-06
8.10874916952e-06
8.10809052426e-06
8.10739958976e-06
8.10720743881e-06
8.10714077267e-06
8.10008463538e-06
8.09135988515e-06
8.10295018665e-06
8.98822240128e-06
7.51958461542e-05
8.21583437948e-06
8.12865256172e-06
8.1169177137e-06
8.11524526713e-06
8.11416258107e-06
8.11314591979e-06
8.11221418995e-06
8.11137119531e-06
8.11060942876e-06
8.10991831765e-06
8.10929002487e-06
8.10868591398e-06
8.10803016155e-06
8.10784077099e-06
8.1080889912e-06
8.10118057392e-06
8.0880507586e-06
8.08987846444e-06
8.70335642177e-06
5.69816531072e-05
8.21414382179e-06
8.12717918959e-06
8.11568648466e-06
8.11434960743e-06
8.11358796168e-06
8.11283935029e-06
8.11211958471e-06
8.11143939062e-06
8.11080145341e-06
8.11020508613e-06
8.10965043922e-06
8.10910908658e-06
8.10850233136e-06
8.10831098758e-06
8.10882925343e-06
8.10225778738e-06
8.08505862249e-06
8.07925765477e-06
8.49126263946e-06
4.54305175014e-05
8.21289732141e-06
8.12607141393e-06
8.11470444264e-06
8.11357582832e-06
8.11303225502e-06
8.11248147485e-06
8.11193085916e-06
8.111390267e-06
8.11086535223e-06
8.11035998455e-06
8.10987866867e-06
8.10940120285e-06
8.1088520534e-06
8.10865909228e-06
8.109380926e-06
8.1033284239e-06
8.08227421312e-06
8.07427471037e-06
8.33893114625e-06
3.7609766293e-05
8.21196816519e-06
8.12523859828e-06
8.11393559817e-06
8.11293735197e-06
8.11254070803e-06
8.11213212322e-06
8.11171076457e-06
8.11128307044e-06
8.11085451838e-06
8.11043023379e-06
8.11001644162e-06
8.10959899941e-06
8.10911003868e-06
8.10892113217e-06
8.10975759777e-06
8.10437665177e-06
8.07987583794e-06
8.07497323228e-06
8.23242127001e-06
3.2053830557e-05
8.21127352619e-06
8.12461602434e-06
8.11334373437e-06
8.11242777348e-06
8.11213002982e-06
8.11182235377e-06
8.11149715477e-06
8.11115751927e-06
8.11080721808e-06
8.11045125443e-06
8.1100960569e-06
8.10973151353e-06
8.10929975558e-06
8.10911660494e-06
8.10997840813e-06
8.10534808139e-06
8.07743198949e-06
8.07817214167e-06
8.20998560443e-06
2.85517301057e-05
8.21075749987e-06
8.12415729051e-06
8.11289758571e-06
8.11203361359e-06
8.11180234986e-06
8.11156568428e-06
8.11131084731e-06
8.11103803752e-06
8.11074931609e-06
8.11044881558e-06
8.110142447e-06
8.10982261804e-06
8.10944087431e-06
8.10927189774e-06
8.11007827877e-06
8.10604103553e-06
8.07825755873e-06
8.08546594217e-06
8.20479465778e-06
2.57410396533e-05
8.21038041802e-06
8.12382786447e-06
8.11257077032e-06
8.1117394091e-06
8.11155268647e-06
8.11136572665e-06
8.11116168745e-06
8.11093865736e-06
8.11069715998e-06
8.11044036498e-06
8.11017324736e-06
8.10988984844e-06
8.10954964745e-06
8.10939310784e-06
8.11011997433e-06
8.10650968835e-06
8.08047996636e-06
8.09283517915e-06
8.18545682767e-06
2.32802942863e-05
8.21011292768e-06
8.12360134897e-06
8.11234153791e-06
8.11153026573e-06
8.11137312732e-06
8.11122072499e-06
8.11105290323e-06
8.11086628406e-06
8.11066021557e-06
8.11043687631e-06
8.11020032905e-06
8.10994564259e-06
8.10963868919e-06
8.10949071267e-06
8.11013420096e-06
8.10687297511e-06
8.08293601691e-06
8.09868025255e-06
8.16985808832e-06
2.12831430074e-05
8.20993255111e-06
8.12345716956e-06
8.11219195556e-06
8.11139250692e-06
8.11125467346e-06
8.11112604361e-06
8.11098365626e-06
8.11082320234e-06
8.11064305601e-06
8.11044469316e-06
8.11023107811e-06
8.10999871401e-06
8.10971789576e-06
8.10957548207e-06
8.11014368573e-06
8.10718351556e-06
8.08530412285e-06
8.10308300103e-06
8.15996286192e-06
1.96642181101e-05
8.2098216508e-06
8.12337894277e-06
8.11210721776e-06
8.11131397795e-06
8.11118843592e-06