/*--------------------------------*- C++ -*----------------------------------*\
| =========                 |                                                 |
| \\      /  F ield         | OpenFOAM: The Open Source CFD Toolbox           |
|  \\    /   O peration     | Version:  v2012                                 |
|   \\  /    A nd           | Website:  www.openfoam.com                      |
|    \\/     M anipulation  |                                                 |
\*---------------------------------------------------------------------------*/
FoamFile
{
    version     2.0;
    format      ascii;
    class       surfaceScalarField;
    location    "5.2";
    object      alphaPhi0.water;
}
// * * * * * * * * * * * * * * * * * * * * * * * * * * * * * * * * * * * * * //

dimensions      [0 3 -1 0 0 0 0];
oriented        oriented;


internalField   nonuniform List<scalar> 
306
(
-0.000199475741608
2.72130148347e-05
-0.000228909111152
2.94362101297e-05
-0.000260832593888
3.19273943606e-05
-0.000295861289818
3.50342570463e-05
-0.000334227570527
3.83732921134e-05
-0.000375741886956
4.15149366202e-05
-0.000420876635095
4.51351575833e-05
-0.000467789445111
4.69125386592e-05
-0.000487523304387
3.7053331422e-05
1.91675360039e-05
4.02275719884e-05
-1.92653080294e-06
4.87179137718e-07
2.13169517011e-07
-0.000200053655366
5.4344280338e-05
-0.000229346228997
5.87322349451e-05
-0.000261324706735
6.3910514365e-05
-0.000296398367217
7.01131052898e-05
-0.000335175165223
7.71571777624e-05
-0.000378744266397
8.50845775411e-05
-0.000429306856836
9.56982025541e-05
-0.000488783767591
0.000106389737595
-0.000543495686302
0.000103448193787
5.28750005087e-05
6.34463531765e-05
-1.55617445102e-07
1.06677862672e-07
5.75533328932e-08
-0.000197851300649
-0.000226521830881
8.7405622629e-05
-0.000257764295871
9.51567742424e-05
-0.000292173529735
0.000104527370382
-0.00033076367403
0.00011575329506
-0.000374855467261
0.000129177199377
-0.000426934324589
0.000147777239302
-0.000488043793674
0.00016749934692
-0.000547383408238
0.000167652793738
5.79599444075e-05
8.66104434604e-05
-5.72342432088e-08
-7.57657722638e-09
2.31221156275e-10
-0.00022007010196
-0.000249895365641
0.000124983939475
-0.000282611106045
0.000137245200201
-0.000319226691374
0.000152373587891
-0.000361493888843
0.000171443688214
-0.000410823447469
0.000197106964362
-0.000468635650341
0.000225312300021
-0.000530775495999
0.000229801978389
1.54846256563e-05
0.000113250801714
3.21256974111e-11
-6.04826458585e-07
-9.83035981898e-12
-0.000238075066807
0.000152568801833
-0.000268063844142
0.00016723155549
-0.000301090475358
0.000185403135211
-0.000337838698767
0.000208190692025
-0.000379135762823
0.000238404390932
-0.000425445913654
0.000271623052531
-0.000477460088919
0.000281826267141
-5.70571579364e-05
0.000150181074433
2.96361424813e-10
-1.97942055493e-06
2.29487748546e-12
-0.000223503223889
0.000177440967186
-0.00024985782725
0.00019358379497
-0.00027744633804
0.000212992192692
-0.000305941515007
0.000236685419737
-0.000334006737866
0.000266470118312
-0.000362190284474
0.000299806243283
-0.000399919919827
0.000319563115889
-0.000101188369609
0.000202680491239
-5.74328667717e-11
-7.80233986781e-07
-6.88811260381e-12
-0.000207339594273
0.000199516187663
-0.000230048614989
0.000216290917258
-0.000252918082427
0.000235858803212
-0.000274423135573
0.000258189958756
-0.00029237494679
0.000284423170545
-0.000307763747076
0.000315195299418
-0.000333711416955
0.000345514696266
-9.39960627749e-05
0.000254499188898
-8.80599896921e-09
2.30324427279e-06
8.35511671924e-10
-0.000190584857467
0.000218969681347
-0.000210251328901
0.000235957798717
-0.000229714439747
0.000255317936598
-0.000248316000616
0.000276787726796
-0.000265083964041
0.000301190842355
-0.000279725755463
0.000329833460232
-0.000294253931069
0.000360041997162
-7.86292727089e-05
0.000277285301253
-8.58885246925e-10
6.00433409533e-06
-1.69725570307e-11
-0.000173645380975
0.00023607160806
-0.000190799898416
0.000253112191885
-0.00020784975561
0.000272366712054
-0.000224866192238
0.000293802680377
-0.000241703580781
0.000318027122621
-0.000257814137648
0.000345944146381
-0.000264384036654
0.000366613778
-6.46033123963e-05
0.000275330266083
8.01906207174e-11
8.52637563591e-06
-3.85953663807e-12
-0.000156776678145
0.000250960784005
-0.000171553167036
0.000267886384512
-0.000186042636793
0.000286854607589
-0.000200522718261
0.000308281647477
-0.000215413255096
0.000332916964479
-0.000228275841562
0.00035880659267
-0.000231489202022
0.000369827795326
-5.28665874366e-05
0.000260520679997
-6.41056232671e-08
9.2037621574e-06
2.50262957854e-09
-0.00014013184541
0.000263632733032
-0.000152460779818
0.000280212819873
-0.000164317571643
0.000298710348019
-0.000175597022606
0.000319560600272
-0.000186256221788
0.000343576023977
-0.000193787601181
0.00036633756807
-0.000193041077444
0.000369081145623
-4.37192764016e-05
0.000245269521948
-2.43799188295e-09
8.79150438287e-06
7.02355134012e-11
-0.000123810388721
0.000274324417662
-0.000133895797147
0.000290296807616
-0.000143118299439
0.000307932206579
-0.000151037222633
0.000327479895982
-0.000156801125759
0.000349340035836
-0.00015897126449
0.000368507610721
-0.000157052567923
0.00036716269061
-3.82674599258e-05
0.000238512023688
-1.41163769583e-07
7.93060941742e-06
3.0865258235e-09
-0.000107987593404
0.000283128823361
-0.000116123837428
0.000298432634295
-0.000123209140331
0.000315017900662
-0.000128479783598
0.000332752198055
-0.000130676575336
0.000351537151306
-0.000129550272185
0.00036738123042
-0.000129099535321
0.000366712020918
-3.55990843912e-05
0.000240986556075
-8.55955654149e-09
7.93744764377e-06
2.52448604735e-08
-9.30049848911e-05
0.000290410253747
-9.94827785022e-05
0.000304911205863
-0.000104884637293
0.000320421372511
-0.000108560456761
0.000336430898878
-0.000109449456359
0.000352435555544
-0.000107464099073
0.000365395849829
-0.00010725993718
0.00036650777354
-3.37931646172e-05
0.000249882925519
-3.78718700931e-07
9.85474656262e-06
4.5969155665e-09
-7.86806762895e-05
0.000296258299624
-8.3873436961e-05
0.000310105683801
-8.80645347535e-05
0.000324615025931
-9.0836968393e-05
0.000339206717947
-9.15400314254e-05
0.000353146978161
-9.01294102896e-05
0.000363985014297
-8.96219125364e-05
0.000366000349797
-2.98938617519e-05
0.000257807386182
-1.36154107394e-07
1.33006154994e-05
1.17903915118e-08
-6.50737582219e-05
-6.91818492546e-05
-7.24463273313e-05
-7.45921057189e-05
-7.53371248294e-05
-7.45145605372e-05
-7.36769525785e-05
-2.54815897746e-05
-1.02200379345e-07
)
;

boundaryField
{
    back
    {
        type            calculated;
        value           uniform 0;
    }
    sides
    {
        type            calculated;
        value           uniform 0;
    }
    bottom
    {
        type            calculated;
        value           nonuniform List<scalar> 0();
    }
    front
    {
        type            calculated;
        value           uniform 0;
    }
    atmosphere
    {
        type            calculated;
        value           nonuniform List<scalar> 
16
(
-2.14818132368e-06
-4.58674272664e-11
2.77648174246e-11
-4.62361515845e-12
1.14131113865e-11
2.70736804003e-11
-9.66406138547e-09
-3.3691901512e-12
3.79809120127e-12
-6.66105044552e-08
2.78526385415e-13
-1.44177280603e-07
-3.07178258418e-08
-3.58071046599e-07
-1.4334766039e-07
-9.04393406224e-08
)
;
    }
    floatingObject
    {
        type            calculated;
        value           nonuniform List<scalar> 0();
    }
    procBoundary1to0
    {
        type            processor;
        value           nonuniform List<scalar> 10(0.000301057079793 0.000314215542237 0.000327881995501 0.000341355557081 0.000353898450495 0.000363162250509 0.00036516249922 0.000263486618831 1.74944044669e-05 2.93448873902e-11);
    }
    procBoundary1to2
    {
        type            processor;
        value           nonuniform List<scalar> 
18
(
0.000172267013125
0.000172926804115
0.000171279744887
8.09207538296e-05
0.000192631373967
0.00011484933107
0.000210492292565
0.000198633662489
0.000185263003035
0.000171128459109
0.00015654054948
0.00014188462806
0.000127455226784
0.000113118152123
9.91810048593e-05
8.57229197726e-05
7.28335212935e-05
6.02758724346e-05
)
;
    }
}


// ************************************************************************* //
