/*--------------------------------*- C++ -*----------------------------------*\
| =========                 |                                                 |
| \\      /  F ield         | OpenFOAM: The Open Source CFD Toolbox           |
|  \\    /   O peration     | Version:  v2012                                 |
|   \\  /    A nd           | Website:  www.openfoam.com                      |
|    \\/     M anipulation  |                                                 |
\*---------------------------------------------------------------------------*/
FoamFile
{
    version     2.0;
    format      ascii;
    class       volScalarField;
    location    "5.2";
    object      epsilon;
}
// * * * * * * * * * * * * * * * * * * * * * * * * * * * * * * * * * * * * * //

dimensions      [0 2 -3 0 0 0 0];


internalField   nonuniform List<scalar> 
167
(
0.00052011231533
0.00052742331095
0.000537521201284
0.000554509631577
0.000590034435961
0.000683189006474
0.00098737194353
0.00219388095456
0.00748716704659
0.0288834559904
0.0955078833377
0.230259357359
0.000537475893513
0.000543695543477
0.000553050087571
0.000570198885535
0.000608460030833
0.000710082303038
0.00103132904358
0.00225630705306
0.0074256897037
0.0262028410048
0.0745302981786
0.175458114382
0.000592153566745
0.000598904969121
0.000609262619199
0.00062857533647
0.000671612105331
0.000784047074516
0.00113015589911
0.00241651059532
0.00775652726636
0.0270288118469
0.076381613253
0.176177493511
0.000621671050222
0.000632352477874
0.000652313095971
0.000696565363525
0.000810848465134
0.00115478635387
0.00239356652526
0.007409876303
0.0255589704368
0.0744639609488
0.175991828586
0.000642202464499
0.000661939429383
0.000705476936138
0.000816535989061
0.00114151179864
0.00226185290508
0.00670187869092
0.0233938755315
0.072690582361
0.17609562236
0.000646834986677
0.000665922999203
0.000707694658475
0.00081260903788
0.001108633682
0.00207986621694
0.00592715994681
0.0217869967063
0.0727651639593
0.176345914797
0.000649534887217
0.000667850594385
0.000707777126598
0.000807365417452
0.00108340484126
0.00196343708782
0.00543623106835
0.0204173307605
0.0702552971394
0.174748511678
0.00065159454064
0.000669151510841
0.000707534164983
0.000804403523315
0.00107845064085
0.00196556963204
0.00538744554757
0.0192393366725
0.0647740654842
0.17106234351
0.000653487911447
0.000670286266515
0.000707092538664
0.000800987125501
0.00107214098858
0.00196550243079
0.00533367645433
0.018023250032
0.0584705579541
0.166616052935
0.000655366993634
0.000671399595376
0.000706441824939
0.00079580000009
0.00105423237379
0.00190353550331
0.00508219658095
0.0167945111498
0.0533357698011
0.163011624998
0.000657268797041
0.000672545857596
0.000705797228727
0.000790057854099
0.00103109581009
0.00180938016654
0.00471174658772
0.0157586424584
0.0512330872444
0.161803558482
0.000659170309456
0.0006737025757
0.000705156071099
0.000784023760249
0.00100525836552
0.00170047127315
0.00430099522073
0.0149102645963
0.0512082485229
0.162150645473
0.000661046527229
0.000674823021449
0.000704457787918
0.000778112399852
0.000981705742562
0.00160734232072
0.00395140339717
0.0141195860034
0.0511852618183
0.162681324952
0.000662881410461
0.000675899084008
0.000703701156464
0.000772437389062
0.00096167588927
0.00153637793857
0.00367006370935
0.0132605141428
0.0506683974026
0.163037471062
0.000664668433192
0.000676957323539
0.000703004037906
0.000767141048525
0.000944011074643
0.00147993966661
0.00344735250664
0.0123130024131
0.0484550410734
0.162526069499
0.000666389265766
0.000678027726483
0.000702531230587
0.000762673401184
0.000928660728963
0.00142964866484
0.00324856401285
0.0114288994811
0.0452408776553
0.160007746381
)
;

boundaryField
{
    back
    {
        lowReCorrection 0;
        blending        stepwise;
        n               2;
        type            epsilonWallFunction;
        value           nonuniform List<scalar> 
167
(
0.00052011231533
0.00052742331095
0.000537521201284
0.000554509631577
0.000590034435961
0.000683189006474
0.00098737194353
0.00219388095456
0.00748716704659
0.0288834559904
0.0955078833377
0.230259357359
0.000537475893513
0.000543695543477
0.000553050087571
0.000570198885535
0.000608460030833
0.000710082303038
0.00103132904358
0.00225630705306
0.0074256897037
0.0262028410048
0.0745302981786
0.175458114382
0.000592153566745
0.000598904969121
0.000609262619199
0.00062857533647
0.000671612105331
0.000784047074516
0.00113015589911
0.00241651059532
0.00775652726636
0.0270288118469
0.076381613253
0.176177493511
0.000621671050222
0.000632352477874
0.000652313095971
0.000696565363525
0.000810848465134
0.00115478635387
0.00239356652526
0.007409876303
0.0255589704368
0.0744639609488
0.175991828586
0.000642202464499
0.000661939429383
0.000705476936138
0.000816535989061
0.00114151179864
0.00226185290508
0.00670187869092
0.0233938755315
0.072690582361
0.17609562236
0.000646834986677
0.000665922999203
0.000707694658475
0.00081260903788
0.001108633682
0.00207986621694
0.00592715994681
0.0217869967063
0.0727651639593
0.176345914797
0.000649534887217
0.000667850594385
0.000707777126598
0.000807365417452
0.00108340484126
0.00196343708782
0.00543623106835
0.0204173307605
0.0702552971394
0.174748511678
0.00065159454064
0.000669151510841
0.000707534164983
0.000804403523315
0.00107845064085
0.00196556963204
0.00538744554757
0.0192393366725
0.0647740654842
0.17106234351
0.000653487911447
0.000670286266515
0.000707092538664
0.000800987125501
0.00107214098858
0.00196550243079
0.00533367645433
0.018023250032
0.0584705579541
0.166616052935
0.000655366993634
0.000671399595376
0.000706441824939
0.00079580000009
0.00105423237379
0.00190353550331
0.00508219658095
0.0167945111498
0.0533357698011
0.163011624998
0.000657268797041
0.000672545857596
0.000705797228727
0.000790057854099
0.00103109581009
0.00180938016654
0.00471174658772
0.0157586424584
0.0512330872444
0.161803558482
0.000659170309456
0.0006737025757
0.000705156071099
0.000784023760249
0.00100525836552
0.00170047127315
0.00430099522073
0.0149102645963
0.0512082485229
0.162150645473
0.000661046527229
0.000674823021449
0.000704457787918
0.000778112399852
0.000981705742562
0.00160734232072
0.00395140339717
0.0141195860034
0.0511852618183
0.162681324952
0.000662881410461
0.000675899084008
0.000703701156464
0.000772437389062
0.00096167588927
0.00153637793857
0.00367006370935
0.0132605141428
0.0506683974026
0.163037471062
0.000664668433192
0.000676957323539
0.000703004037906
0.000767141048525
0.000944011074643
0.00147993966661
0.00344735250664
0.0123130024131
0.0484550410734
0.162526069499
0.000666389265766
0.000678027726483
0.000702531230587
0.000762673401184
0.000928660728963
0.00142964866484
0.00324856401285
0.0114288994811
0.0452408776553
0.160007746381
)
;
    }
    sides
    {
        lowReCorrection 0;
        blending        stepwise;
        n               2;
        type            epsilonWallFunction;
        value           nonuniform List<scalar> 
12
(
0.00052011231533
0.00052742331095
0.000537521201284
0.000554509631577
0.000590034435961
0.000683189006474
0.00098737194353
0.00219388095456
0.00748716704659
0.0288834559904
0.0955078833377
0.230259357359
)
;
    }
    bottom
    {
        lowReCorrection 0;
        blending        stepwise;
        n               2;
        type            epsilonWallFunction;
        value           nonuniform List<scalar> 0();
    }
    front
    {
        lowReCorrection 0;
        blending        stepwise;
        n               2;
        type            epsilonWallFunction;
        value           nonuniform List<scalar> 
167
(
0.00052011231533
0.00052742331095
0.000537521201284
0.000554509631577
0.000590034435961
0.000683189006474
0.00098737194353
0.00219388095456
0.00748716704659
0.0288834559904
0.0955078833377
0.230259357359
0.000537475893513
0.000543695543477
0.000553050087571
0.000570198885535
0.000608460030833
0.000710082303038
0.00103132904358
0.00225630705306
0.0074256897037
0.0262028410048
0.0745302981786
0.175458114382
0.000592153566745
0.000598904969121
0.000609262619199
0.00062857533647
0.000671612105331
0.000784047074516
0.00113015589911
0.00241651059532
0.00775652726636
0.0270288118469
0.076381613253
0.176177493511
0.000621671050222
0.000632352477874
0.000652313095971
0.000696565363525
0.000810848465134
0.00115478635387
0.00239356652526
0.007409876303
0.0255589704368
0.0744639609488
0.175991828586
0.000642202464499
0.000661939429383
0.000705476936138
0.000816535989061
0.00114151179864
0.00226185290508
0.00670187869092
0.0233938755315
0.072690582361
0.17609562236
0.000646834986677
0.000665922999203
0.000707694658475
0.00081260903788
0.001108633682
0.00207986621694
0.00592715994681
0.0217869967063
0.0727651639593
0.176345914797
0.000649534887217
0.000667850594385
0.000707777126598
0.000807365417452
0.00108340484126
0.00196343708782
0.00543623106835
0.0204173307605
0.0702552971394
0.174748511678
0.00065159454064
0.000669151510841
0.000707534164983
0.000804403523315
0.00107845064085
0.00196556963204
0.00538744554757
0.0192393366725
0.0647740654842
0.17106234351
0.000653487911447
0.000670286266515
0.000707092538664
0.000800987125501
0.00107214098858
0.00196550243079
0.00533367645433
0.018023250032
0.0584705579541
0.166616052935
0.000655366993634
0.000671399595376
0.000706441824939
0.00079580000009
0.00105423237379
0.00190353550331
0.00508219658095
0.0167945111498
0.0533357698011
0.163011624998
0.000657268797041
0.000672545857596
0.000705797228727
0.000790057854099
0.00103109581009
0.00180938016654
0.00471174658772
0.0157586424584
0.0512330872444
0.161803558482
0.000659170309456
0.0006737025757
0.000705156071099
0.000784023760249
0.00100525836552
0.00170047127315
0.00430099522073
0.0149102645963
0.0512082485229
0.162150645473
0.000661046527229
0.000674823021449
0.000704457787918
0.000778112399852
0.000981705742562
0.00160734232072
0.00395140339717
0.0141195860034
0.0511852618183
0.162681324952
0.000662881410461
0.000675899084008
0.000703701156464
0.000772437389062
0.00096167588927
0.00153637793857
0.00367006370935
0.0132605141428
0.0506683974026
0.163037471062
0.000664668433192
0.000676957323539
0.000703004037906
0.000767141048525
0.000944011074643
0.00147993966661
0.00344735250664
0.0123130024131
0.0484550410734
0.162526069499
0.000666389265766
0.000678027726483
0.000702531230587
0.000762673401184
0.000928660728963
0.00142964866484
0.00324856401285
0.0114288994811
0.0452408776553
0.160007746381
)
;
    }
    atmosphere
    {
        type            inletOutlet;
        inletValue      uniform 0.1;
        value           uniform 0.1;
    }
    floatingObject
    {
        lowReCorrection 0;
        blending        stepwise;
        n               2;
        type            epsilonWallFunction;
        value           nonuniform List<scalar> 0();
    }
    procBoundary1to0
    {
        type            processor;
        value           nonuniform List<scalar> 10(0.000668017358444 0.000679068325247 0.000702219401792 0.000758882174743 0.000915086350198 0.00138320439812 0.00307363951585 0.0107184904181 0.0409420667452 0.147228557949);
    }
    procBoundary1to2
    {
        type            processor;
        value           nonuniform List<scalar> 
18
(
0.000513969296289
0.000532490102067
0.000586850767567
0.000614746260781
0.000614746260781
0.000631595260324
0.000631595260324
0.000636510361744
0.000639595481338
0.000642066540478
0.000644368848804
0.000646649391273
0.000648936621607
0.000651215673396
0.000653461912804
0.00065565551848
0.00065777415304
0.000659799145213
)
;
    }
}


// ************************************************************************* //
