/*--------------------------------*- C++ -*----------------------------------*\
| =========                 |                                                 |
| \\      /  F ield         | OpenFOAM: The Open Source CFD Toolbox           |
|  \\    /   O peration     | Version:  v2012                                 |
|   \\  /    A nd           | Website:  www.openfoam.com                      |
|    \\/     M anipulation  |                                                 |
\*---------------------------------------------------------------------------*/
FoamFile
{
    version     2.0;
    format      ascii;
    class       volScalarField;
    location    "5.2";
    object      k_0;
}
// * * * * * * * * * * * * * * * * * * * * * * * * * * * * * * * * * * * * * //

dimensions      [0 2 -2 0 0 0 0];


internalField   nonuniform List<scalar> 
167
(
0.001332969625
0.00134543186348
0.00136255035334
0.00139111027244
0.00144990784894
0.00159875803849
0.00204366331842
0.00347987945686
0.00788800499201
0.0194023767194
0.0430640603161
0.0774284122573
0.00165051944896
0.0016632281807
0.00168225164997
0.00171684950954
0.00179281725211
0.00198725582536
0.00254866537072
0.00429516764984
0.00950325795015
0.0220265716954
0.0442184204801
0.0782522723578
0.00176064130255
0.00177399856264
0.00179439344781
0.00183211561839
0.00191481577292
0.0021229645641
0.00270898680812
0.00449614651541
0.00978346888914
0.0224870571014
0.0449476720922
0.0784660162654
0.00181867493681
0.00183944780511
0.00187795587777
0.00196195587767
0.00217107312785
0.00274820472164
0.00446764154653
0.00948976136193
0.0216642448984
0.0441921782412
0.0784108788895
0.00185850028158
0.00189638634779
0.00197865403966
0.0021812136496
0.00272710330138
0.00430220292656
0.0088752179657
0.0204228384782
0.0434877312804
0.0784417051741
0.0018674270884
0.00190398707398
0.00198279857337
0.00217421465219
0.00267448417177
0.00406822458348
0.00817734681544
0.0194765889129
0.0435174722274
0.078516016003
0.00187261992894
0.00190765951858
0.00198295260825
0.00216485135258
0.00263375375178
0.0039149478334
0.00771933564296
0.0186515084889
0.0425109394552
0.0780411468697
0.00187657651656
0.00191013602125
0.00198249878466
0.00215955347272
0.00262571852301
0.0039177820771
0.00767308333715
0.0179270177704
0.0402700426885
0.0769397783692
0.00188020999973
0.00191229490005
0.00198167374583
0.00215343454866
0.00261546704595
0.00391769277937
0.00762194418762
0.0171634026495
0.0376131302634
0.0756007111275
0.00188381259438
0.00191441183056
0.00198045778036
0.00214412751098
0.00258626021112
0.00383491115476
0.00738044065417
0.0163741801419
0.0353774911596
0.0745064212993
0.00188745524624
0.00191659015976
0.00197925287831
0.0021338010076
0.00254828110504
0.00370738654679
0.00701728748511
0.0156937665261
0.0344414692962
0.0741378575841
0.00189109382992
0.0019187871049
0.00197805403985
0.00212292247853
0.00250553101596
0.00355708452917
0.00660329387933
0.01512533096
0.034430336501
0.0742438424592
0.0018946805841
0.00192091395973
0.00197674797444
0.00211223812305
0.00246624115262
0.0034259964275
0.00624044507682
0.0145857677739
0.0344200321818
0.0744057422111
0.00189818503869
0.0019229554576
0.00197533228747
0.00210195546779
0.00243258003381
0.00332440066779
0.0059406010574
0.0139879765217
0.0341879267476
0.0745142965937
0.00190159497747
0.0019249620854
0.0019740275023
0.00209233619147
0.00240269906187
0.00324248015265
0.00569777263952
0.0133134505352
0.0331849089204
0.0743583951031
0.00190487572721
0.00192699071398
0.00197314231127
0.00208420477326
0.00237658146846
0.00316860085207
0.00547657372686
0.0126682782762
0.0317006864786
0.0735882810401
)
;

boundaryField
{
    back
    {
        type            kqRWallFunction;
        value           nonuniform List<scalar> 
167
(
0.001332969625
0.00134543186348
0.00136255035334
0.00139111027244
0.00144990784894
0.00159875803849
0.00204366331842
0.00347987945686
0.00788800499201
0.0194023767194
0.0430640603161
0.0774284122573
0.00165051944896
0.0016632281807
0.00168225164997
0.00171684950954
0.00179281725211
0.00198725582536
0.00254866537072
0.00429516764984
0.00950325795015
0.0220265716954
0.0442184204801
0.0782522723578
0.00176064130255
0.00177399856264
0.00179439344781
0.00183211561839
0.00191481577292
0.0021229645641
0.00270898680812
0.00449614651541
0.00978346888914
0.0224870571014
0.0449476720922
0.0784660162654
0.00181867493681
0.00183944780511
0.00187795587777
0.00196195587767
0.00217107312785
0.00274820472164
0.00446764154653
0.00948976136193
0.0216642448984
0.0441921782412
0.0784108788895
0.00185850028158
0.00189638634779
0.00197865403966
0.0021812136496
0.00272710330138
0.00430220292656
0.0088752179657
0.0204228384782
0.0434877312804
0.0784417051741
0.0018674270884
0.00190398707398
0.00198279857337
0.00217421465219
0.00267448417177
0.00406822458348
0.00817734681544
0.0194765889129
0.0435174722274
0.078516016003
0.00187261992894
0.00190765951858
0.00198295260825
0.00216485135258
0.00263375375178
0.0039149478334
0.00771933564296
0.0186515084889
0.0425109394552
0.0780411468697
0.00187657651656
0.00191013602125
0.00198249878466
0.00215955347272
0.00262571852301
0.0039177820771
0.00767308333715
0.0179270177704
0.0402700426885
0.0769397783692
0.00188020999973
0.00191229490005
0.00198167374583
0.00215343454866
0.00261546704595
0.00391769277937
0.00762194418762
0.0171634026495
0.0376131302634
0.0756007111275
0.00188381259438
0.00191441183056
0.00198045778036
0.00214412751098
0.00258626021112
0.00383491115476
0.00738044065417
0.0163741801419
0.0353774911596
0.0745064212993
0.00188745524624
0.00191659015976
0.00197925287831
0.0021338010076
0.00254828110504
0.00370738654679
0.00701728748511
0.0156937665261
0.0344414692962
0.0741378575841
0.00189109382992
0.0019187871049
0.00197805403985
0.00212292247853
0.00250553101596
0.00355708452917
0.00660329387933
0.01512533096
0.034430336501
0.0742438424592
0.0018946805841
0.00192091395973
0.00197674797444
0.00211223812305
0.00246624115262
0.0034259964275
0.00624044507682
0.0145857677739
0.0344200321818
0.0744057422111
0.00189818503869
0.0019229554576
0.00197533228747
0.00210195546779
0.00243258003381
0.00332440066779
0.0059406010574
0.0139879765217
0.0341879267476
0.0745142965937
0.00190159497747
0.0019249620854
0.0019740275023
0.00209233619147
0.00240269906187
0.00324248015265
0.00569777263952
0.0133134505352
0.0331849089204
0.0743583951031
0.00190487572721
0.00192699071398
0.00197314231127
0.00208420477326
0.00237658146846
0.00316860085207
0.00547657372686
0.0126682782762
0.0317006864786
0.0735882810401
)
;
    }
    sides
    {
        type            kqRWallFunction;
        value           nonuniform List<scalar> 
12
(
0.001332969625
0.00134543186348
0.00136255035334
0.00139111027244
0.00144990784894
0.00159875803849
0.00204366331842
0.00347987945686
0.00788800499201
0.0194023767194
0.0430640603161
0.0774284122573
)
;
    }
    bottom
    {
        type            kqRWallFunction;
        value           nonuniform List<scalar> 0();
    }
    front
    {
        type            kqRWallFunction;
        value           nonuniform List<scalar> 
167
(
0.001332969625
0.00134543186348
0.00136255035334
0.00139111027244
0.00144990784894
0.00159875803849
0.00204366331842
0.00347987945686
0.00788800499201
0.0194023767194
0.0430640603161
0.0774284122573
0.00165051944896
0.0016632281807
0.00168225164997
0.00171684950954
0.00179281725211
0.00198725582536
0.00254866537072
0.00429516764984
0.00950325795015
0.0220265716954
0.0442184204801
0.0782522723578
0.00176064130255
0.00177399856264
0.00179439344781
0.00183211561839
0.00191481577292
0.0021229645641
0.00270898680812
0.00449614651541
0.00978346888914
0.0224870571014
0.0449476720922
0.0784660162654
0.00181867493681
0.00183944780511
0.00187795587777
0.00196195587767
0.00217107312785
0.00274820472164
0.00446764154653
0.00948976136193
0.0216642448984
0.0441921782412
0.0784108788895
0.00185850028158
0.00189638634779
0.00197865403966
0.0021812136496
0.00272710330138
0.00430220292656
0.0088752179657
0.0204228384782
0.0434877312804
0.0784417051741
0.0018674270884
0.00190398707398
0.00198279857337
0.00217421465219
0.00267448417177
0.00406822458348
0.00817734681544
0.0194765889129
0.0435174722274
0.078516016003
0.00187261992894
0.00190765951858
0.00198295260825
0.00216485135258
0.00263375375178
0.0039149478334
0.00771933564296
0.0186515084889
0.0425109394552
0.0780411468697
0.00187657651656
0.00191013602125
0.00198249878466
0.00215955347272
0.00262571852301
0.0039177820771
0.00767308333715
0.0179270177704
0.0402700426885
0.0769397783692
0.00188020999973
0.00191229490005
0.00198167374583
0.00215343454866
0.00261546704595
0.00391769277937
0.00762194418762
0.0171634026495
0.0376131302634
0.0756007111275
0.00188381259438
0.00191441183056
0.00198045778036
0.00214412751098
0.00258626021112
0.00383491115476
0.00738044065417
0.0163741801419
0.0353774911596
0.0745064212993
0.00188745524624
0.00191659015976
0.00197925287831
0.0021338010076
0.00254828110504
0.00370738654679
0.00701728748511
0.0156937665261
0.0344414692962
0.0741378575841
0.00189109382992
0.0019187871049
0.00197805403985
0.00212292247853
0.00250553101596
0.00355708452917
0.00660329387933
0.01512533096
0.034430336501
0.0742438424592
0.0018946805841
0.00192091395973
0.00197674797444
0.00211223812305
0.00246624115262
0.0034259964275
0.00624044507682
0.0145857677739
0.0344200321818
0.0744057422111
0.00189818503869
0.0019229554576
0.00197533228747
0.00210195546779
0.00243258003381
0.00332440066779
0.0059406010574
0.0139879765217
0.0341879267476
0.0745142965937
0.00190159497747
0.0019249620854
0.0019740275023
0.00209233619147
0.00240269906187
0.00324248015265
0.00569777263952
0.0133134505352
0.0331849089204
0.0743583951031
0.00190487572721
0.00192699071398
0.00197314231127
0.00208420477326
0.00237658146846
0.00316860085207
0.00547657372686
0.0126682782762
0.0317006864786
0.0735882810401
)
;
    }
    atmosphere
    {
        type            inletOutlet;
        inletValue      uniform 0.1;
        value           uniform 0.1;
    }
    floatingObject
    {
        type            kqRWallFunction;
        value           nonuniform List<scalar> 0();
    }
    procBoundary1to0
    {
        type            processor;
        value           nonuniform List<scalar> 10(0.00190797707045 0.00192896183454 0.00197255839596 0.0020772920255 0.00235336543699 0.00309959934254 0.00527816877733 0.0121377187135 0.0296593180124 0.0696160468497);
    }
    procBoundary1to2
    {
        type            processor;
        value           nonuniform List<scalar> 
18
(
0.00132245309917
0.00164029645258
0.00175011439628
0.00180514426745
0.00180514426745
0.00183797906699
0.00183797906699
0.00184750222996
0.00185346722405
0.00185823803433
0.00186267753698
0.00186706985925
0.00187146987919
0.00187584902705
0.00188016013068
0.00188436545191
0.00188842259745
0.00189229635012
)
;
    }
}


// ************************************************************************* //
