/*--------------------------------*- C++ -*----------------------------------*\
| =========                 |                                                 |
| \\      /  F ield         | OpenFOAM: The Open Source CFD Toolbox           |
|  \\    /   O peration     | Version:  v2012                                 |
|   \\  /    A nd           | Website:  www.openfoam.com                      |
|    \\/     M anipulation  |                                                 |
\*---------------------------------------------------------------------------*/
FoamFile
{
    version     2.0;
    format      ascii;
    class       surfaceScalarField;
    location    "5.2";
    object      phi;
}
// * * * * * * * * * * * * * * * * * * * * * * * * * * * * * * * * * * * * * //

dimensions      [0 3 -1 0 0 0 0];
oriented        oriented;


internalField   nonuniform List<scalar> 
306
(
-0.000199483067341
2.72118231018e-05
-0.000228916445551
2.94344564866e-05
-0.000260839876858
3.19246580248e-05
-0.000295868730347
3.50301717288e-05
-0.000334234400473
3.83669917071e-05
-0.000375738999889
4.15058819167e-05
-0.000420845048564
4.51071660297e-05
-0.000467722707185
4.68784191179e-05
-0.000505196989109
3.74745262588e-05
-0.000580361633894
7.51662966196e-05
-0.000870045739349
0.000289683595317
8.75301163982e-05
-0.000200060612641
5.43417872079e-05
-0.000229353456134
5.87284717651e-05
-0.0002613326109
6.39050873384e-05
-0.000296406900211
7.01058189377e-05
-0.000335186269712
7.71477537484e-05
-0.000378749105003
8.5070038979e-05
-0.000429318931293
9.56781615968e-05
-0.000488844555775
0.000106404846155
-0.000554830460952
0.000103460617767
-0.000594376013316
0.000114713085539
-0.000404400094239
9.97084401719e-05
9.64065308704e-05
-0.000197859676845
-0.00022653048757
8.7400742708e-05
-0.000257773651488
9.51495177751e-05
-0.000292184295835
0.000104517805207
-0.00033077679976
0.000115741633105
-0.000374865610482
0.000129160221239
-0.000426927758223
0.000147741511864
-0.000487974486207
0.000167452404727
-0.000552119421123
0.000167605809988
-0.000589197238299
0.000151792924159
-0.000495180692493
5.69008505131e-06
5.91048542553e-05
-0.00022008261474
-0.000249908402945
0.000124976654479
-0.000282624925377
0.000137235639898
-0.000319243736223
0.00015236184025
-0.000361508875619
0.000171426766829
-0.000410834414484
0.000197068331509
-0.000468660100471
0.000225278973492
-0.000531090339571
0.000230036372939
-0.000570599384137
0.000191302229983
-0.000517562259271
-4.73466799373e-05
7.62799144612e-05
-0.000238091749017
0.000152563151682
-0.000268080230393
0.000167225413509
-0.000301110492659
0.000185393511481
-0.000337861163186
0.000208178911046
-0.000379170351887
0.000238378871135
-0.000425500849957
0.000271610408258
-0.000477602751961
0.000282138392443
-0.000531703077822
0.000245412002788
-0.00057445572829
-4.61650936844e-06
0.000135970636456
-0.000223522151777
0.000177437378705
-0.000249875723112
0.000193580264666
-0.000277466579687
0.000212985816336
-0.000305964195875
0.0002366780498
-0.000334039475296
0.000266455540654
-0.000362243480683
0.000299815372274
-0.000399905884937
0.000319800899998
-0.000478679840695
0.000324187111621
-0.000608260222918
0.000125064356745
0.000212964666852
-0.000207359489629
0.000199516119479
-0.000230068166451
0.00021629022646
-0.000252937275757
0.000235856391694
-0.000274445660876
0.000258187965253
-0.000292410855309
0.000284422115666
-0.000307831049758
0.000315236500075
-0.000333843309527
0.0003458135834
-0.000409026520966
0.000399368562684
-0.000605977330793
0.000321997665118
0.000264603229087
-0.000190604743439
0.000218973066196
-0.000210273012443
0.000235959787833
-0.000229733724685
0.000255318557918
-0.000248332780298
0.000276788504224
-0.000265097890925
0.00030118853233
-0.000279718662964
0.000329858143676
-0.000294218207599
0.000360313508588
-0.000324726332624
0.000429876387706
-0.000465452994704
0.000462699275869
0.000311476065815
-0.000173665697723
0.000236078300251
-0.000190820517863
0.000253115885999
-0.000207869323988
0.000272368765652
-0.000224882746104
0.000293803317771
-0.000241713168267
0.000318020148903
-0.000257798137678
0.000345943902222
-0.000264402804322
0.00036691846539
-0.000256148453295
0.000421622359815
-0.000302239105174
0.000508784919629
0.000334558754777
-0.000156797411852
0.000250970388948
-0.000171572649974
0.000267892377421
-0.000186061596814
0.000286859044261
-0.000200540309692
0.000308283317983
-0.000215429861688
0.00033291078475
-0.000228281868823
0.00035879662206
-0.000231478156894
0.000370115025589
-0.000203788690023
0.000393933201708
-0.000175949996579
0.000480937559703
0.000321802779514
-0.000140152118861
0.000263646448142
-0.000152480738279
0.000280222210737
-0.000164337819483
0.000298717381206
-0.000175617654821
0.000319564344889
-0.0001862773665
0.000343571489852
-0.000193807754228
0.000366327669318
-0.000192996064051
0.000369303597749
-0.000165270707993
0.000366208054042
-0.000100259839559
0.000415918126272
0.000295318178943
-0.000123831432555
0.000274338987912
-0.000133917371543
0.000290309327595
-0.000143140796578
0.000307941995922
-0.000151061317539
0.000327485983657
-0.000156828064811
0.000349339166986
-0.000158998570319
0.000368498803326
-0.000157009808376
0.000367315099003
-0.000142073494984
0.000351271780874
-7.39931595034e-05
0.000347828324948
0.00027818309297
-0.000108009990011
0.000283146418501
-0.000116147230274
0.000298447704239
-0.00012323398728
0.000315029889677
-0.000128507471742
0.000332760537236
-0.000130709122338
0.00035154171618
-0.000129590076495
0.000367380375735
-0.000129123674558
0.000366848957941
-0.000128297406517
0.000350445364764
-9.04382772258e-05
0.000309965386961
0.000277525358301
-9.30288455595e-05
0.000290430152144
-9.95081331301e-05
0.000304928232809
-0.000104911864767
0.0003204348717
-0.000108590851367
0.000336440773792
-0.000109490268256
0.000352442188717
-0.000107508711062
0.0003653996183
-0.000107322395101
0.000366662992819
-0.000116579506465
0.000359702336773
-0.000139025198731
0.00033241114221
0.000294470312581
-7.87061447552e-05
0.000296280316511
-8.39010621602e-05
0.000310124602474
-8.80945977271e-05
0.000324630099117
-9.08702140033e-05
0.000339217884834
-9.15808339527e-05
0.000353154306187
-9.01702232605e-05
0.000363989951203
-8.96688835976e-05
0.000366162096103
-9.80320146839e-05
0.00036806546775
-0.00015461994459
0.000388993217554
0.000329807288189
-6.51011467897e-05
-6.92120497674e-05
-7.24799647369e-05
-7.46295996301e-05
-7.53816814553e-05
-7.45626125262e-05
-7.37331958708e-05
-7.92459384526e-05
-0.000149922928281
)
;

boundaryField
{
    back
    {
        type            calculated;
        value           uniform 0;
    }
    sides
    {
        type            calculated;
        value           uniform 0;
    }
    bottom
    {
        type            calculated;
        value           nonuniform List<scalar> 0();
    }
    front
    {
        type            calculated;
        value           uniform 0;
    }
    atmosphere
    {
        type            calculated;
        value           nonuniform List<scalar> 
16
(
-0.000957575414812
-0.00041327637665
-0.000457878225381
-0.000534736694908
-0.000634145998679
-0.000685327282561
-0.000657607313667
-0.000512303963259
-0.000325314772027
-0.000163185464165
-7.37664979632e-05
-5.68488282279e-05
-8.97760904226e-05
-0.000155968644255
-0.000189950643171
-0.000191464117206
)
;
    }
    floatingObject
    {
        type            calculated;
        value           nonuniform List<scalar> 0();
    }
    procBoundary1to0
    {
        type            processor;
        value           nonuniform List<scalar> 10(0.000301081999553 0.000314237231421 0.000327899687594 0.000341369410841 0.000353907884832 0.000363172071886 0.000365333180291 0.000373578258399 0.000459670660075 0.000371349264466);
    }
    procBoundary1to2
    {
        type            processor;
        value           nonuniform List<scalar> 
18
(
0.000172272528881
0.000172932217314
0.000171285734827
8.09168261884e-05
0.000192641422732
0.000114843318201
0.000210506949639
0.00019864953396
0.000185282243637
0.000171149283338
0.000156561928046
0.000141906832823
0.000127477558283
0.000113140432736
9.92040611138e-05
8.57466574034e-05
7.28579980903e-05
6.03011161557e-05
)
;
    }
}


// ************************************************************************* //
