/*--------------------------------*- C++ -*----------------------------------*\
| =========                 |                                                 |
| \\      /  F ield         | OpenFOAM: The Open Source CFD Toolbox           |
|  \\    /   O peration     | Version:  v2012                                 |
|   \\  /    A nd           | Website:  www.openfoam.com                      |
|    \\/     M anipulation  |                                                 |
\*---------------------------------------------------------------------------*/
FoamFile
{
    version     2.0;
    format      ascii;
    class       volScalarField;
    location    "5.7";
    object      alpha.water;
}
// * * * * * * * * * * * * * * * * * * * * * * * * * * * * * * * * * * * * * //

dimensions      [0 0 0 0 0 0 0];


internalField   nonuniform List<scalar> 
167
(
1.00000040253
1.00000046988
1.00000021503
1.00000000008
1.00000000057
0.993309690589
0.457339638154
2.76176714416e-48
2.00620763721e-37
1.00000174917
1.00000118972
1.00000000002
1.0000000003
0.990168689492
0.430413917141
-2.99915917943e-14
-9.20791269064e-15
1.00000307488
1.00000184081
1
1.00000000007
0.986559324484
0.405913542695
-1.21889030793e-11
-9.62737735619e-13
1.00000221217
1.00000309624
1.00000172045
1
1
0.982834755368
0.384765354607
-2.53943784133e-12
-1.56745293488e-10
1.00000076423
1.00000234211
1.0000011186
1
1
0.979434242975
0.367576165363
-3.02138923722e-10
-1.64747940312e-12
1.0000000346
1.00000102291
1.00000014247
1
1
0.976475408684
0.354403625022
-4.16069176947e-12
-7.42754275529e-11
0.999995929894
0.999999537622
0.999999948118
0.999999941112
1
0.999999998181
0.973608750353
0.344677271102
-4.75852018208e-12
-6.19609738058e-09
0.99998923116
0.999996658192
0.999998670357
0.999999202481
0.999999385866
0.999999874206
0.999999997353
0.971644398153
0.337171388246
-5.52581634674e-13
-1.78471526793e-09
0.999982459143
0.999994811248
0.999995042078
0.999995213955
0.999996690789
0.999999487071
0.999999951646
0.970397990325
0.3324261392
-1.36981274503e-08
-1.90451540646e-08
0.999981608701
0.999990087494
0.999991662667
0.999992224547
0.999998667564
0.999999813994
0.97028628634
0.331300137419
-2.74653403604e-11
9.61236466792e-09
0.999966973173
0.999985238717
0.999987187412
0.999988883492
0.999996902243
0.999999675855
0.970264068746
0.333105659628
8.72910541981e-06
1.38744662053e-08
0.999966837389
0.999974601785
0.999983685979
0.999988492726
0.999991327449
0.999999580977
0.969627573791
0.336051146128
4.12658245536e-05
9.03110137314e-06
0.999966808726
0.999966837389
0.999983734458
0.999987480388
0.99999382796
0.99999940101
0.968450238507
0.338926208497
4.88449291507e-05
1.71187949909e-06
0.999966798991
0.999972817669
0.999983035086
0.999987679357
0.999995946442
0.999999096273
0.967118829411
0.341053337532
1.45636405901e-06
-8.00466860246e-09
0.999966655688
0.999970601223
0.99998341689
0.999983893543
0.999990025335
0.999993196581
0.999998785403
0.966919019417
0.343154335914
-3.79737450725e-09
-2.0901348486e-08
0.999966655688
0.999981942909
0.999987429871
0.99998687573
0.999990127207
0.999993215737
0.999998530268
0.96903493445
0.344789673183
3.73643947983e-09
2.88238295048e-06
0.999981184983
0.999992402079
0.999992574914
0.999992574978
0.999992412745
0.999993363602
0.999998233521
0.977533534721
0.346488594639
5.08898218164e-05
1.83669950976e-05
)
;

boundaryField
{
    back
    {
        type            zeroGradient;
    }
    sides
    {
        type            zeroGradient;
    }
    bottom
    {
        type            zeroGradient;
    }
    front
    {
        type            zeroGradient;
    }
    atmosphere
    {
        type            inletOutlet;
        inletValue      uniform 0;
        value           nonuniform List<scalar> 
17
(
0
0
0
0
0
0
0
0
0
0
1.38744662053e-08
9.03110137314e-06
1.71187949909e-06
0
0
0
1.83669950976e-05
)
;
    }
    floatingObject
    {
        type            zeroGradient;
    }
    procBoundary11to9
    {
        type            processor;
        value           nonuniform List<scalar> 9(0.999997854065 0.99999757942 0.999999186119 1.00000000006 0.999999780786 0.995866449802 0.485937065607 3.00595919509e-47 -1.59166313578e-31);
    }
    procBoundary11to10
    {
        type            processor;
        value           nonuniform List<scalar> 
23
(
1.00000004487
1.00000131933
1.00000131933
1.00000243749
1.00000243749
1.00000106868
1.00000007676
0.999998455499
0.999998455499
0.999995725151
0.999995725151
0.999992238246
0.999989713884
0.999979321554
0.999979321554
0.999979371286
0.999973994848
0.999969670894
0.999966818246
0.999966818246
0.999966912177
0.999973577243
0.999985275519
)
;
    }
}


// ************************************************************************* //
