/*--------------------------------*- C++ -*----------------------------------*\
| =========                 |                                                 |
| \\      /  F ield         | OpenFOAM: The Open Source CFD Toolbox           |
|  \\    /   O peration     | Version:  v2012                                 |
|   \\  /    A nd           | Website:  www.openfoam.com                      |
|    \\/     M anipulation  |                                                 |
\*---------------------------------------------------------------------------*/
FoamFile
{
    version     2.0;
    format      ascii;
    class       volScalarField;
    location    "5.7";
    object      k_0;
}
// * * * * * * * * * * * * * * * * * * * * * * * * * * * * * * * * * * * * * //

dimensions      [0 2 -2 0 0 0 0];


internalField   nonuniform List<scalar> 
167
(
0.0016582408591
0.00171129414084
0.00185147788017
0.00225884959207
0.00349758190672
0.00712058925887
0.0160656037654
0.0344992712586
0.073682467029
0.00171512160829
0.00186887244359
0.00231866275743
0.00367905513247
0.00757312667053
0.0170450800531
0.0362772081915
0.0748969164434
0.00171932607875
0.0018874351761
0.00238176532334
0.00386683250495
0.00800420577516
0.0177173111562
0.0369237794477
0.0750380680789
0.00165631748889
0.0017237026713
0.00190517301725
0.00243780323724
0.00403041382742
0.0083663224557
0.0181310610864
0.0370128742494
0.0749059212569
0.0016557573047
0.00172806457252
0.00192171748651
0.00248578768188
0.00416475207513
0.00865870332379
0.018399512844
0.0368587383904
0.074651916112
0.00165521827254
0.00173286055915
0.00194074322996
0.00254360177316
0.00431777072624
0.00898277374902
0.0189232093039
0.0374383767435
0.0748586924153
0.00161956318646
0.00165474709172
0.00173839259924
0.00196460814555
0.00262003604986
0.00450236980675
0.00926458622799
0.0191654604236
0.0373882088324
0.0746942204095
0.00159820077107
0.00161685140573
0.00165420736566
0.00174388541485
0.00198862811546
0.00269913028749
0.00469094727362
0.00953357763493
0.019296398756
0.0369865841437
0.0743477188477
0.00159448532453
0.00161412247028
0.0016536956383
0.00174920602423
0.00201149524642
0.00277170064117
0.00487400802789
0.00982359704357
0.0194186733269
0.0364840752289
0.0739154920845
0.00161130802766
0.00165315116237
0.00175456042067
0.00203357355577
0.00284323878734
0.00506111863416
0.010129508821
0.0195184555342
0.0357990113633
0.0692280986609
0.00160813396909
0.00165234068425
0.00176011807896
0.00205839747599
0.00292714056041
0.00528475614438
0.0104886437752
0.0196490796768
0.0347082182761
0.059796283798
0.00160367440795
0.00165035736384
0.00176569474506
0.00208990020594
0.0030385767906
0.00555465192678
0.0108576993393
0.0197242837567
0.0335001162445
0.0536537747394
0.00159561864661
0.0016446667191
0.00176811048505
0.00212194876027
0.00316117363177
0.00583225038967
0.0111684063768
0.0196637573214
0.0323464225441
0.0500171045295
0.00157819836308
0.00162870724313
0.00175860837677
0.00213865408511
0.00325654590931
0.00604983335441
0.0113833352648
0.0194829612017
0.0311138868324
0.0543846823373
0.0015142322891
0.00153763725429
0.00158767693088
0.00171864474557
0.00210847835654
0.00325879896175
0.0060915049415
0.0113660958032
0.0191604968177
0.0301021326222
0.053714040011
0.00141824315548
0.00143997854043
0.00148602293492
0.00160721224585
0.00197085190505
0.00305459351628
0.00577418733389
0.0109593178582
0.0187887163727
0.0299267153091
0.0478630199147
0.0011483474836
0.00116698512767
0.00120311973814
0.00129412971464
0.00156512065198
0.00238488434043
0.00454880679649
0.00910249952638
0.0168663430253
0.0288110621729
0.0477439137439
)
;

boundaryField
{
    back
    {
        type            kqRWallFunction;
        value           nonuniform List<scalar> 
167
(
0.0016582408591
0.00171129414084
0.00185147788017
0.00225884959207
0.00349758190672
0.00712058925887
0.0160656037654
0.0344992712586
0.073682467029
0.00171512160829
0.00186887244359
0.00231866275743
0.00367905513247
0.00757312667053
0.0170450800531
0.0362772081915
0.0748969164434
0.00171932607875
0.0018874351761
0.00238176532334
0.00386683250495
0.00800420577516
0.0177173111562
0.0369237794477
0.0750380680789
0.00165631748889
0.0017237026713
0.00190517301725
0.00243780323724
0.00403041382742
0.0083663224557
0.0181310610864
0.0370128742494
0.0749059212569
0.0016557573047
0.00172806457252
0.00192171748651
0.00248578768188
0.00416475207513
0.00865870332379
0.018399512844
0.0368587383904
0.074651916112
0.00165521827254
0.00173286055915
0.00194074322996
0.00254360177316
0.00431777072624
0.00898277374902
0.0189232093039
0.0374383767435
0.0748586924153
0.00161956318646
0.00165474709172
0.00173839259924
0.00196460814555
0.00262003604986
0.00450236980675
0.00926458622799
0.0191654604236
0.0373882088324
0.0746942204095
0.00159820077107
0.00161685140573
0.00165420736566
0.00174388541485
0.00198862811546
0.00269913028749
0.00469094727362
0.00953357763493
0.019296398756
0.0369865841437
0.0743477188477
0.00159448532453
0.00161412247028
0.0016536956383
0.00174920602423
0.00201149524642
0.00277170064117
0.00487400802789
0.00982359704357
0.0194186733269
0.0364840752289
0.0739154920845
0.00161130802766
0.00165315116237
0.00175456042067
0.00203357355577
0.00284323878734
0.00506111863416
0.010129508821
0.0195184555342
0.0357990113633
0.0692280986609
0.00160813396909
0.00165234068425
0.00176011807896
0.00205839747599
0.00292714056041
0.00528475614438
0.0104886437752
0.0196490796768
0.0347082182761
0.059796283798
0.00160367440795
0.00165035736384
0.00176569474506
0.00208990020594
0.0030385767906
0.00555465192678
0.0108576993393
0.0197242837567
0.0335001162445
0.0536537747394
0.00159561864661
0.0016446667191
0.00176811048505
0.00212194876027
0.00316117363177
0.00583225038967
0.0111684063768
0.0196637573214
0.0323464225441
0.0500171045295
0.00157819836308
0.00162870724313
0.00175860837677
0.00213865408511
0.00325654590931
0.00604983335441
0.0113833352648
0.0194829612017
0.0311138868324
0.0543846823373
0.0015142322891
0.00153763725429
0.00158767693088
0.00171864474557
0.00210847835654
0.00325879896175
0.0060915049415
0.0113660958032
0.0191604968177
0.0301021326222
0.053714040011
0.00141824315548
0.00143997854043
0.00148602293492
0.00160721224585
0.00197085190505
0.00305459351628
0.00577418733389
0.0109593178582
0.0187887163727
0.0299267153091
0.0478630199147
0.0011483474836
0.00116698512767
0.00120311973814
0.00129412971464
0.00156512065198
0.00238488434043
0.00454880679649
0.00910249952638
0.0168663430253
0.0288110621729
0.0477439137439
)
;
    }
    sides
    {
        type            kqRWallFunction;
        value           nonuniform List<scalar> 
11
(
0.0011483474836
0.00116698512767
0.00120311973814
0.00129412971464
0.00156512065198
0.00238488434043
0.00454880679649
0.00910249952638
0.0168663430253
0.0288110621729
0.0477439137439
)
;
    }
    bottom
    {
        type            kqRWallFunction;
        value           nonuniform List<scalar> 0();
    }
    front
    {
        type            kqRWallFunction;
        value           nonuniform List<scalar> 
167
(
0.0016582408591
0.00171129414084
0.00185147788017
0.00225884959207
0.00349758190672
0.00712058925887
0.0160656037654
0.0344992712586
0.073682467029
0.00171512160829
0.00186887244359
0.00231866275743
0.00367905513247
0.00757312667053
0.0170450800531
0.0362772081915
0.0748969164434
0.00171932607875
0.0018874351761
0.00238176532334
0.00386683250495
0.00800420577516
0.0177173111562
0.0369237794477
0.0750380680789
0.00165631748889
0.0017237026713
0.00190517301725
0.00243780323724
0.00403041382742
0.0083663224557
0.0181310610864
0.0370128742494
0.0749059212569
0.0016557573047
0.00172806457252
0.00192171748651
0.00248578768188
0.00416475207513
0.00865870332379
0.018399512844
0.0368587383904
0.074651916112
0.00165521827254
0.00173286055915
0.00194074322996
0.00254360177316
0.00431777072624
0.00898277374902
0.0189232093039
0.0374383767435
0.0748586924153
0.00161956318646
0.00165474709172
0.00173839259924
0.00196460814555
0.00262003604986
0.00450236980675
0.00926458622799
0.0191654604236
0.0373882088324
0.0746942204095
0.00159820077107
0.00161685140573
0.00165420736566
0.00174388541485
0.00198862811546
0.00269913028749
0.00469094727362
0.00953357763493
0.019296398756
0.0369865841437
0.0743477188477
0.00159448532453
0.00161412247028
0.0016536956383
0.00174920602423
0.00201149524642
0.00277170064117
0.00487400802789
0.00982359704357
0.0194186733269
0.0364840752289
0.0739154920845
0.00161130802766
0.00165315116237
0.00175456042067
0.00203357355577
0.00284323878734
0.00506111863416
0.010129508821
0.0195184555342
0.0357990113633
0.0692280986609
0.00160813396909
0.00165234068425
0.00176011807896
0.00205839747599
0.00292714056041
0.00528475614438
0.0104886437752
0.0196490796768
0.0347082182761
0.059796283798
0.00160367440795
0.00165035736384
0.00176569474506
0.00208990020594
0.0030385767906
0.00555465192678
0.0108576993393
0.0197242837567
0.0335001162445
0.0536537747394
0.00159561864661
0.0016446667191
0.00176811048505
0.00212194876027
0.00316117363177
0.00583225038967
0.0111684063768
0.0196637573214
0.0323464225441
0.0500171045295
0.00157819836308
0.00162870724313
0.00175860837677
0.00213865408511
0.00325654590931
0.00604983335441
0.0113833352648
0.0194829612017
0.0311138868324
0.0543846823373
0.0015142322891
0.00153763725429
0.00158767693088
0.00171864474557
0.00210847835654
0.00325879896175
0.0060915049415
0.0113660958032
0.0191604968177
0.0301021326222
0.053714040011
0.00141824315548
0.00143997854043
0.00148602293492
0.00160721224585
0.00197085190505
0.00305459351628
0.00577418733389
0.0109593178582
0.0187887163727
0.0299267153091
0.0478630199147
0.0011483474836
0.00116698512767
0.00120311973814
0.00129412971464
0.00156512065198
0.00238488434043
0.00454880679649
0.00910249952638
0.0168663430253
0.0288110621729
0.0477439137439
)
;
    }
    atmosphere
    {
        type            inletOutlet;
        inletValue      uniform 0.1;
        value           nonuniform List<scalar> 
17
(
0.1
0.1
0.1
0.1
0.1
0.1
0.1
0.1
0.1
0.0692280986609
0.059796283798
0.0536537747394
0.0500171045295
0.1
0.1
0.1
0.0477439137439
)
;
    }
    floatingObject
    {
        type            kqRWallFunction;
        value           nonuniform List<scalar> 0();
    }
    procBoundary11to9
    {
        type            processor;
        value           nonuniform List<scalar> 9(0.0016588842216 0.00170781315722 0.00183621072354 0.00220761441971 0.00333885159249 0.00666694758299 0.0148082279436 0.0307278223531 0.0663086603398);
    }
    procBoundary11to10
    {
        type            processor;
        value           nonuniform List<scalar> 
23
(
0.00163490683616
0.00165755697367
0.00165755697367
0.00165690613607
0.00165690613607
0.00162750332948
0.00162489924742
0.00162225063172
0.00162225063172
0.0016018933942
0.0016018933942
0.00158685097908
0.00158258490603
0.00159066657647
0.00159066657647
0.0015864784027
0.00158103782375
0.00157216100629
0.00155436526062
0.00155436526062
0.00150045214723
0.0014051689021
0.00113599723211
)
;
    }
}


// ************************************************************************* //
