/*--------------------------------*- C++ -*----------------------------------*\
| =========                 |                                                 |
| \\      /  F ield         | OpenFOAM: The Open Source CFD Toolbox           |
|  \\    /   O peration     | Version:  v2012                                 |
|   \\  /    A nd           | Website:  www.openfoam.com                      |
|    \\/     M anipulation  |                                                 |
\*---------------------------------------------------------------------------*/
FoamFile
{
    version     2.0;
    format      ascii;
    class       volScalarField;
    location    "5.7";
    object      nut;
}
// * * * * * * * * * * * * * * * * * * * * * * * * * * * * * * * * * * * * * //

dimensions      [0 2 -1 0 0 0 0];


internalField   nonuniform List<scalar> 
167
(
0.000448008858503
0.000455658449837
0.000475772234507
0.000531357906682
0.000674727884988
0.000971817257488
0.00144147412567
0.00209465393922
0.00305683279154
0.000456179703537
0.000478015922597
0.00053821333839
0.000690557234388
0.000998140554458
0.00147826552527
0.00212738292029
0.00306443589095
0.000456716650708
0.000480287571384
0.000545013086532
0.00070545896945
0.0010191399584
0.00149650010272
0.0021328397927
0.00306213509017
0.000447752733259
0.000457225686028
0.000482266326266
0.00055040968916
0.000716707183349
0.00103305232943
0.00150144856323
0.00212467787973
0.00305735237421
0.000447651929534
0.000457685575414
0.000483920008766
0.000554314084195
0.000724112567679
0.00104117883997
0.00149964996628
0.00211174532435
0.00305415235227
0.000447540872737
0.000458176652649
0.000485785491897
0.000558919865271
0.00073221468537
0.001050186619
0.00150256320171
0.0020999468186
0.00304533643898
0.000442611134522
0.000447438495999
0.000458756368216
0.000488220210905
0.000565358190738
0.000742295677918
0.00105717045749
0.00149936138127
0.00208145326491
0.00303670446616
0.000439669519928
0.000442237293764
0.000447340227919
0.000459385560805
0.00049087178812
0.000572660764334
0.000754106124974
0.00106463649831
0.001491344595
0.0020550879529
0.00302005218991
0.000439162684531
0.000441861474181
0.000447248445314
0.000460007076222
0.000493406884468
0.000579343994723
0.000765610059098
0.00107351345884
0.00148497812896
0.00202238211675
0.00269499973799
0.000441471968853
0.000447152382629
0.000460636264441
0.000495887786198
0.000585942263621
0.000777212023753
0.0010833375669
0.00147878060521
0.00197502709924
0.00246826670742
0.00044103193147
0.000447020642542
0.000461290688397
0.000498673378445
0.00059366031836
0.000791110725435
0.00109532189509
0.0014722083342
0.00191455966868
0.00234110783622
0.000440417680752
0.00044673255259
0.000461952495663
0.000502214975093
0.000603791114621
0.000807891596985
0.00110846930875
0.00146633099054
0.00186698844823
0.00223356374508
0.000439315189913
0.000445953093922
0.000462218299849
0.000505820588896
0.000614744384491
0.000824754932219
0.0011196474517
0.00145899229885
0.00182986036731
0.00218107739506
0.000436933383183
0.000443801369499
0.000460957614048
0.000507630225948
0.000623082792998
0.000837738823694
0.00112629362811
0.00144872494928
0.00182986991065
0.00251584369572
0.000428056435181
0.000431335517359
0.000438230388787
0.000455725759022
0.000503926941874
0.00062257866846
0.000838724090207
0.001122454374
0.00143426747724
0.00182404750014
0.00319677877861
0.000414361230165
0.000417523414931
0.000424092570681
0.000440823614814
0.000487243156219
0.000602593778142
0.000815676343898
0.00109933870022
0.00141439418769
0.00178210655227
0.00316479688395
0.000279550494195
0.000281811083218
0.000286093981257
0.000296510745418
0.000325254370412
0.000398337942861
0.000541310383853
0.000747607266469
0.000990560493421
0.0012602973622
0.00157423297379
)
;

boundaryField
{
    back
    {
        type            nutkWallFunction;
        blending        stepwise;
        Cmu             0.09;
        kappa           0.41;
        E               9.8;
        value           nonuniform List<scalar> 
167
(
4.7946199058e-05
4.86520394166e-05
5.04722009664e-05
5.53945241621e-05
6.79002318407e-05
9.40275062706e-05
0.000135982034623
0.000242218276176
0.000343939866347
4.87018619971e-05
5.06879173541e-05
5.60542503166e-05
6.94476385199e-05
9.66113245498e-05
0.000139580486207
0.000247391325905
0.000346083516897
4.87556715845e-05
5.09142280354e-05
5.67322611304e-05
7.09810698423e-05
9.8921693457e-05
0.000141856393589
0.000249067804318
0.0003462486167
4.79209511015e-05
4.88104116705e-05
5.11249670478e-05
5.73127622322e-05
7.22510842638e-05
0.000100737450447
0.000143110285712
0.000249055125429
0.000345913663572
4.79129564329e-05
4.88637547114e-05
5.1316129347e-05
5.77882336045e-05
7.32348696453e-05
0.000102107628728
0.000143812339588
0.000248340508741
0.00034542519437
4.79049198476e-05
4.8921982856e-05
5.15341855728e-05
5.83532820793e-05
7.43298567199e-05
0.000103599343549
0.000145279559383
0.000249370005234
0.000345525210345
4.74300347163e-05
4.78977648274e-05
4.89893807826e-05
5.18086514083e-05
5.90997617142e-05
7.5633978534e-05
0.000104855721839
0.000145855281435
0.000248741671417
0.00034503763773
4.71436937399e-05
4.7393764282e-05
4.78900312422e-05
4.90575098732e-05
5.20882785731e-05
5.98773155256e-05
7.69760397162e-05
0.000106054950361
0.000146027806562
0.000247073798136
0.000344048849846
4.70938446539e-05
4.73572480691e-05
4.7882731898e-05
4.91237073062e-05
5.23533931861e-05
6.05816742792e-05
7.82569914427e-05
0.000107348053219
0.000146208132255
0.000244982616676
0.00033447435655
4.73195144087e-05
4.78750033398e-05
4.91903277607e-05
5.26089362218e-05
6.12684857055e-05
7.95408710489e-05
0.000108702638769
0.000146326702825
0.000242030542774
0.00032043327803
4.72769073257e-05
4.78637713891e-05
4.92594172847e-05
5.28947481483e-05
6.20640847383e-05
8.10490129812e-05
0.000110278785787
0.000146508952499
0.000237571554774
0.00030090263667
4.72170808843e-05
4.78371124218e-05
4.93287735514e-05
5.32554970759e-05
6.31029315592e-05
8.28325869097e-05
0.000111891730059
0.00014656208939
0.000232806036728
0.000286495331922
4.71090051832e-05
4.77616955841e-05
4.93582806197e-05
5.36201824212e-05
6.42225537994e-05
8.46189579438e-05
0.000113233019535
0.000146236670746
0.00022879665178
0.000278209229621
4.68745592319e-05
4.75504340033e-05
4.92368821533e-05
5.38076586034e-05
6.50763912642e-05
8.59879998743e-05
0.000114126034423
0.000145538451892
0.00022637237476
0.000296056131493
4.60009132567e-05
4.63231156164e-05
4.70022833134e-05
4.87249652844e-05
5.34580603435e-05
6.50797669954e-05
8.6212667075e-05
0.000113978428625
0.000144377749537
0.000223622347508
0.000311546672701
4.46507384616e-05
4.49612715406e-05
4.56094689929e-05
4.72625599644e-05
5.18411721863e-05
6.3187699818e-05
8.41185550131e-05
0.000112037104763
0.000142957212127
0.000221956703789
0.000298596459747
4.0550876553e-05
4.08497640362e-05
4.14202625168e-05
4.28137258492e-05
4.66617828139e-05
5.64250001444e-05
7.54161454324e-05
0.000102840586746
0.000135647743993
0.00021537940537
0.000271023156234
)
;
    }
    sides
    {
        type            nutkWallFunction;
        blending        stepwise;
        Cmu             0.09;
        kappa           0.41;
        E               9.8;
        value           nonuniform List<scalar> 
11
(
2.14862812543e-05
2.16463850352e-05
2.19519581715e-05
2.26982060042e-05
2.47580955289e-05
2.99793064997e-05
4.01188418544e-05
5.47328412737e-05
7.21863876565e-05
0.000111440218303
0.000141311222689
)
;
    }
    bottom
    {
        type            nutkWallFunction;
        blending        stepwise;
        Cmu             0.09;
        kappa           0.41;
        E               9.8;
        value           nonuniform List<scalar> 0();
    }
    front
    {
        type            nutkWallFunction;
        blending        stepwise;
        Cmu             0.09;
        kappa           0.41;
        E               9.8;
        value           nonuniform List<scalar> 
167
(
4.7946199058e-05
4.86520394166e-05
5.04722009664e-05
5.53945241621e-05
6.79002318407e-05
9.40275062706e-05
0.000135982034623
0.000242218276176
0.000343939866347
4.87018619971e-05
5.06879173541e-05
5.60542503166e-05
6.94476385199e-05
9.66113245498e-05
0.000139580486207
0.000247391325905
0.000346083516897
4.87556715845e-05
5.09142280354e-05
5.67322611304e-05
7.09810698423e-05
9.8921693457e-05
0.000141856393589
0.000249067804318
0.0003462486167
4.79209511015e-05
4.88104116705e-05
5.11249670478e-05
5.73127622322e-05
7.22510842638e-05
0.000100737450447
0.000143110285712
0.000249055125429
0.000345913663572
4.79129564329e-05
4.88637547114e-05
5.1316129347e-05
5.77882336045e-05
7.32348696453e-05
0.000102107628728
0.000143812339588
0.000248340508741
0.00034542519437
4.79049198476e-05
4.8921982856e-05
5.15341855728e-05
5.83532820793e-05
7.43298567199e-05
0.000103599343549
0.000145279559383
0.000249370005234
0.000345525210345
4.74300347163e-05
4.78977648274e-05
4.89893807826e-05
5.18086514083e-05
5.90997617142e-05
7.5633978534e-05
0.000104855721839
0.000145855281435
0.000248741671417
0.00034503763773
4.71436937399e-05
4.7393764282e-05
4.78900312422e-05
4.90575098732e-05
5.20882785731e-05
5.98773155256e-05
7.69760397162e-05
0.000106054950361
0.000146027806562
0.000247073798136
0.000344048849846
4.70938446539e-05
4.73572480691e-05
4.7882731898e-05
4.91237073062e-05
5.23533931861e-05
6.05816742792e-05
7.82569914427e-05
0.000107348053219
0.000146208132255
0.000244982616676
0.00033447435655
4.73195144087e-05
4.78750033398e-05
4.91903277607e-05
5.26089362218e-05
6.12684857055e-05
7.95408710489e-05
0.000108702638769
0.000146326702825
0.000242030542774
0.00032043327803
4.72769073257e-05
4.78637713891e-05
4.92594172847e-05
5.28947481483e-05
6.20640847383e-05
8.10490129812e-05
0.000110278785787
0.000146508952499
0.000237571554774
0.00030090263667
4.72170808843e-05
4.78371124218e-05
4.93287735514e-05
5.32554970759e-05
6.31029315592e-05
8.28325869097e-05
0.000111891730059
0.00014656208939
0.000232806036728
0.000286495331922
4.71090051832e-05
4.77616955841e-05
4.93582806197e-05
5.36201824212e-05
6.42225537994e-05
8.46189579438e-05
0.000113233019535
0.000146236670746
0.00022879665178
0.000278209229621
4.68745592319e-05
4.75504340033e-05
4.92368821533e-05
5.38076586034e-05
6.50763912642e-05
8.59879998743e-05
0.000114126034423
0.000145538451892
0.00022637237476
0.000296056131493
4.60009132567e-05
4.63231156164e-05
4.70022833134e-05
4.87249652844e-05
5.34580603435e-05
6.50797669954e-05
8.6212667075e-05
0.000113978428625
0.000144377749537
0.000223622347508
0.000311546672701
4.46507384616e-05
4.49612715406e-05
4.56094689929e-05
4.72625599644e-05
5.18411721863e-05
6.3187699818e-05
8.41185550131e-05
0.000112037104763
0.000142957212127
0.000221956703789
0.000298596459747
4.0550876553e-05
4.08497640362e-05
4.14202625168e-05
4.28137258492e-05
4.66617828139e-05
5.64250001444e-05
7.54161454324e-05
0.000102840586746
0.000135647743993
0.00021537940537
0.000271023156234
)
;
    }
    atmosphere
    {
        type            calculated;
        value           nonuniform List<scalar> 
17
(
0.009
0.009
0.009
0.009
0.009
0.009
0.009
0.009
0.00269499973799
0.00246826670742
0.00234110783622
0.00223356374508
0.00218107739506
0.00251584369572
0.009
0.009
0.00157423297379
)
;
    }
    floatingObject
    {
        type            nutkWallFunction;
        blending        stepwise;
        Cmu             0.09;
        kappa           0.41;
        E               9.8;
        value           nonuniform List<scalar> 0();
    }
    procBoundary11to9
    {
        type            processor;
        value           nonuniform List<scalar> 9(0.000448076813216 0.000455165313082 0.000473744416311 0.000525196752881 0.00065955938981 0.000941232452202 0.00138085737955 0.00200934990657 0.00308510337448);
    }
    procBoundary11to10
    {
        type            processor;
        value           nonuniform List<scalar> 
23
(
0.000444677427404
0.00044792919092
0.00044792919092
0.000447843572715
0.000447843572715
0.000443702091635
0.00044334848763
0.000442983408923
0.000442983408923
0.000440171389727
0.000440171389727
0.000438098942777
0.000437517450056
0.000438639657702
0.000438639657702
0.000438063463009
0.000437314728819
0.000436094358307
0.000433642854131
0.000433642854131
0.000426103038193
0.000412434249272
0.000278035658242
)
;
    }
}


// ************************************************************************* //
