/*--------------------------------*- C++ -*----------------------------------*\
| =========                 |                                                 |
| \\      /  F ield         | OpenFOAM: The Open Source CFD Toolbox           |
|  \\    /   O peration     | Version:  v2012                                 |
|   \\  /    A nd           | Website:  www.openfoam.com                      |
|    \\/     M anipulation  |                                                 |
\*---------------------------------------------------------------------------*/
FoamFile
{
    version     2.0;
    format      ascii;
    class       volVectorField;
    location    "2.2";
    object      ddtCorrDdt0(U);
}
// * * * * * * * * * * * * * * * * * * * * * * * * * * * * * * * * * * * * * //

dimensions      [0 1 -2 0 0 0 0];


internalField   nonuniform List<vector> 
166
(
(-0.0184765388497 0.00273493082535 4.18428686869e-22)
(-0.0155443064049 0.00724194067653 -5.3404794415e-23)
(-0.0154991606844 0.0124525472891 -2.13921101734e-23)
(-0.0157352729295 0.0173874705134 6.48208829829e-23)
(-0.0157331764109 0.0224427552394 1.55866577537e-23)
(-0.0155580971141 0.0274743879478 -3.6080025599e-23)
(-0.0152083426194 0.0324588015758 -8.6565966493e-25)
(-0.0146237825675 0.0372871377346 1.9954291991e-24)
(-0.0137004448311 0.0418505533589 2.26981183646e-23)
(-0.0122861614756 0.0459151389048 1.58633188213e-23)
(-0.0102719471617 0.0491881930617 1.90087233536e-23)
(-0.00736908289278 0.051215495023 9.47913669054e-23)
(-0.0032321614534 0.0512219414919 6.33678269919e-22)
(0.00237277279266 0.0480998754323 1.56402563546e-21)
(0.00991385428638 0.0410049981701 2.25207156511e-21)
(0.0201407941313 0.0256717494633 3.67769652981e-21)
(0.0301975084245 0.0063183337726 2.5851531294e-21)
(0.0157023426489 -0.00493433994549 9.23386482799e-21)
(-0.350212693011 -0.0610789358482 9.8589669726e-21)
(0.0599113802738 -0.318083108743 2.58833038214e-20)
(-0.0233797726914 0.00275987969763 3.20104027607e-22)
(-0.0205029364257 0.00722124782776 -2.86688062123e-22)
(-0.0205249073012 0.0124882840765 -1.51320709347e-22)
(-0.0207980064726 0.0174314944174 1.86933663044e-22)
(-0.0208284471961 0.0225883654631 4.98918872202e-23)
(-0.020661813618 0.0277698030894 3.80926123004e-23)
(-0.0202612751039 0.0329763115117 4.08359286838e-23)
(-0.0195548658167 0.03818805858 -4.18568501101e-24)
(-0.0183454329301 0.0432746979437 6.76345273071e-23)
(-0.0164560576212 0.0480425040681 1.51565632334e-22)
(-0.0135570296416 0.0522853175081 6.91638727363e-25)
(-0.00930894920397 0.0557041012652 3.90280136888e-24)
(-0.00306970146797 0.05761001458 4.85720081595e-23)
(0.00578886404143 0.0571748058317 6.23372377564e-22)
(0.0182631867052 0.0537927420406 4.54331317782e-21)
(0.0353573309506 0.0432940538164 8.28117212023e-21)
(0.0566114121282 0.0359803246422 1.50458692308e-20)
(0.063636143416 0.0290055611535 1.25059815886e-20)
(-0.213706968835 -0.0356590773702 1.01706208886e-20)
(0.00772664620164 -0.107989681956 2.6859458965e-20)
(-0.0282456105487 0.00279928103348 1.98305475251e-22)
(-0.025442681946 0.00716385430106 -3.41104320013e-22)
(-0.0255705811618 0.0124423181822 4.98934350361e-23)
(-0.0259209398898 0.0174224469032 1.32322700291e-22)
(-0.0260554119183 0.022693587604 4.69850579416e-23)
(-0.0259887476904 0.0280554503341 1.10693202167e-22)
(-0.0256757469145 0.0335588920622 2.88770390556e-23)
(-0.024956620633 0.0391980069142 3.61428042902e-23)
(-0.0237014223902 0.044940269573 -7.79610173261e-23)
(-0.0216075744508 0.0506921752648 -6.3914578941e-23)
(-0.0182857005051 0.0563234501646 -1.66733190869e-23)
(-0.0132099810131 0.0616724812867 1.11057396143e-22)
(-0.00573534972208 0.066316307609 -3.85729582255e-25)
(0.00526286911708 0.0697139662761 7.54733972465e-22)
(0.0210625123972 0.071848445294 5.66088641474e-21)
(0.0424065871462 0.0693038740174 7.89168728131e-21)
(0.0718458611884 0.0766940204078 -1.77826161522e-20)
(0.0956015235655 0.0760281794218 -1.00261039534e-20)
(-0.17633094457 0.0213303673516 -1.16072227986e-21)
(-0.25988399949 0.330235716911 -3.57664880236e-21)
(-0.0330857732586 0.00281735449398 2.67285930671e-22)
(-0.030410616251 0.0070643906289 -8.92213184467e-23)
(-0.0306457796877 0.0123258441421 2.87499836809e-22)
(-0.0311232377494 0.0173069420034 2.18732134438e-22)
(-0.0314064920918 0.0226557464147 3.97384034212e-23)
(-0.0315333286661 0.0281790974675 7.5965971032e-24)
(-0.0314436525359 0.0340040335595 1.04451746871e-22)
(-0.0309730699066 0.0401513247476 -1.7615880374e-23)
(-0.0299343841413 0.0466230954558 1.20869231067e-22)
(-0.0279887935581 0.0534560041183 1.55308363098e-22)
(-0.0247585858203 0.0606771003893 5.32170650189e-23)
(-0.0196349860181 0.0682441750129 3.5191045299e-22)
(-0.0118863798103 0.076105126452 -4.13211299709e-23)
(-0.000311303611485 0.0841928541961 -1.61227904829e-22)
(0.0167129167066 0.0926004378569 3.69634784636e-21)
(0.0390969195205 0.100073949744 4.72341782156e-21)
(0.0710757230232 0.121816049124 -2.92921245827e-20)
(0.104475245889 0.129878738562 -2.58144817382e-20)
(-0.277292158866 0.143591748642 -6.45537528565e-20)
(-0.938166771599 0.804227463623 1.86789717855e-19)
(-0.0378157166988 0.00280171925975 4.05519086414e-22)
(-0.0352955104353 0.00686936951577 -1.82994116953e-22)
(-0.0356482575806 0.0120547329335 4.9795214544e-22)
(-0.0363123562317 0.0170160681964 2.04612052659e-22)
(-0.0368436617728 0.0224115587684 -1.8815535832e-24)
(-0.0372797446063 0.0280497110861 -1.86449731971e-23)
(-0.0375543971158 0.0341254255959 6.75122068918e-23)
(-0.0375425705495 0.0407100186779 -2.23576199556e-22)
(-0.0370284135341 0.0479178605337 2.23884484783e-22)
(-0.0356931273492 0.0558603007884 1.73833532372e-22)
(-0.0331318718555 0.0646650864303 -3.51523260841e-22)
(-0.0287918149746 0.0745384758774 2.59694875313e-22)
(-0.0218525699453 0.0856952630616 -6.80392774343e-22)
(-0.0113326263708 0.098495383016 -2.72439196944e-22)
(0.00440539211221 0.11335515552 -5.89861263545e-21)
(0.0249854143017 0.130846382252 6.84261323649e-21)
(0.0542075327451 0.163580813062 -6.00098128483e-20)
(0.0915805422659 0.177945772112 1.27599722781e-20)
(-0.253709753083 0.337579620675 -1.4003966439e-19)
(-2.28732256612 -0.116143917268 3.09920758995e-19)
(-0.042388747687 0.00274203331388 9.403717229e-23)
(-0.0400462063531 0.00658523116178 1.25078423037e-22)
(-0.0405343122313 0.0116297606087 1.41243237222e-22)
(-0.0414225021537 0.0164624639517 -6.86320828945e-23)
(-0.0423007839041 0.0218170541262 -3.60502121051e-23)
(-0.0431746471026 0.027494867264 2.98481528586e-23)
(-0.0439883541697 0.0337409856086 5.61064227663e-23)
(-0.0446337986281 0.0406771782159 3.53822194684e-24)
(-0.0449189889685 0.0484734888397 1.29080005042e-22)
(-0.0446016627318 0.0573492475489 5.73093638651e-23)
(-0.0433016352367 0.0675697869922 -9.98681207102e-23)
(-0.0405225036021 0.0795121693226 1.60475091428e-22)
(-0.0355791511394 0.0936447864883 -4.57320643006e-22)
(-0.0276353834209 0.110680693471 -5.12508218521e-22)
(-0.0154190365452 0.131247459221 -2.7774398707e-21)
(0.000848989149651 0.157980005976 7.26098937621e-21)
(0.0245644497453 0.197849801563 -4.26451104861e-21)
(0.0619575267073 0.21244388718 -5.62345036994e-23)
(0.117387264154 0.170040229316 7.98084087201e-20)
(1.3492662698 -2.80308439201 9.33962246121e-21)
(-0.0467720123437 0.00263831572865 -4.37173184632e-23)
(-0.0445983947171 0.00617560733175 -6.98051190486e-22)
(-0.0452993802715 0.0109916473544 -6.84091634613e-22)
(-0.04644639538 0.0155991514664 -1.82675032282e-22)
(-0.0477000567833 0.020798532124 -5.22689927626e-24)
(-0.0490906168558 0.0264006670795 1.22466476118e-22)
(-0.0505749482845 0.0326726407167 5.05654515495e-23)
(-0.0520826858315 0.0397743633342 -9.226899629e-23)
(-0.0534622358439 0.0479473560156 -7.91437252943e-24)
(-0.0545138957782 0.0574780272187 -3.23326324156e-24)
(-0.0549592306195 0.0687454341802 -1.07525022972e-22)
(-0.0544095278977 0.082263906449 4.74971866859e-22)
(-0.0524020608539 0.0986867002814 -4.77886337905e-23)
(-0.0483327965756 0.118990354123 -5.40575147791e-23)
(-0.0414821344743 0.144091979222 -9.12389221304e-22)
(-0.0316561427261 0.179023020668 1.63805689573e-20)
(-0.0166793366565 0.224119566638 3.97659817376e-20)
(-0.00202012444197 0.23809907867 8.53421683001e-20)
(0.262533555748 0.037989202846 6.88570440124e-19)
(1.97457926729 1.80955950094 -5.40666980666e-19)
(-0.050793531299 0.00250291085254 1.6508959139e-22)
(-0.0488259102347 0.00561777197815 -7.67614048639e-22)
(-0.0497339810157 0.010096027203 -3.63516751096e-24)
(-0.0511929115488 0.01439372844 1.91231082053e-22)
(-0.0528908035191 0.0192954012798 9.83798180349e-23)
(-0.0548758072325 0.0246523811367 1.18416348194e-23)
(-0.0571529154386 0.0307556137805 -1.65510245208e-23)
(-0.0596676120942 0.0377962797937 1.36173653416e-22)
(-0.0623279096617 0.0460481510733 2.3997774657e-22)
(-0.0650219233724 0.0558548718202 4.54349361062e-23)
(-0.0675808157206 0.0676760098465 -2.02652387163e-23)
(-0.0697692663102 0.0820818444597 7.1908599613e-22)
(-0.0713705328288 0.0998308676012 -1.06654205817e-22)
(-0.0721315370529 0.122048254258 7.526777101e-22)
(-0.0719679032124 0.149724831502 4.9470606962e-21)
(-0.0708591690625 0.189255857801 -1.08662991261e-20)
(-0.068267585521 0.236762053036 -4.41072292125e-20)
(-0.0849369289111 0.260457829575 -4.39148076943e-21)
(-0.00265642034017 0.259504556379 -5.11502347122e-21)
(-0.755525421243 1.53711002965 -2.13281180134e-20)
(-0.0543583378611 0.00228271348571 2.62739522134e-22)
(-0.0526366554339 0.00490247896956 -5.52786634818e-22)
(-0.0537413124222 0.00892823814695 3.02066834584e-22)
(-0.0574305171033 0.00200810438067 3.51490171156e-22)
(-0.0598946996554 0.00168050004925 -4.39001112668e-22)
(-0.0616320483541 0.00129409333486 3.29558651655e-22)
)
;

boundaryField
{
    back
    {
        type            calculated;
        value           uniform (0 0 0);
    }
    sides
    {
        type            calculated;
        value           nonuniform List<vector> 0();
    }
    bottom
    {
        type            calculated;
        value           uniform (0 0 0);
    }
    front
    {
        type            calculated;
        value           uniform (0 0 0);
    }
    atmosphere
    {
        type            calculated;
        value           nonuniform List<vector> 8((0.077113489243 -0.318083108743 -1.05412279774e-20) (0.12976003636 -0.107989681956 -1.00219314814e-20) (0.21770217388 0.330235716911 -1.04087631083e-20) (-0.81149974045 0.804227463623 9.18131262378e-21) (14.3144241774 -0.116143917268 -2.50092333279e-20) (1.34446796954 -2.80308439201 9.44605048097e-21) (1.96863469806 1.80955950094 -5.40805089494e-19) (-0.755450259682 1.53711002965 -2.13344517785e-20));
    }
    floatingObject
    {
        type            calculated;
        value           nonuniform List<vector> 0();
    }
    procBoundary9to6
    {
        type            processor;
        value           nonuniform List<vector> 4((-0.00404004495351 -0.0118221652527 -3.64380292856e-21) (-0.0315248724834 -0.0273414682923 2.32541312754e-21) (-0.498521516737 -0.0629909524919 -4.64848516671e-20) (-0.0482717827561 -0.181044977535 1.61061650706e-19));
    }
    procBoundary9to7
    {
        type            processor;
        value           nonuniform List<vector> 
16
(
(-0.0134851809427 0.00268326054222 3.5645408329e-22)
(-0.0105610195514 0.00726605328588 -1.49303555755e-22)
(-0.0105338286266 0.0124331718722 1.88230330967e-22)
(-0.0107420844023 0.0173386048254 2.50477363915e-22)
(-0.0107375453074 0.0223013136648 -6.43478081875e-24)
(-0.0106058102706 0.0272300882092 6.58667963854e-24)
(-0.0103720954693 0.0320462694033 -1.23666898956e-23)
(-0.0100356950726 0.0366867803128 4.29387066733e-23)
(-0.00952970863761 0.0409467375919 4.28247320452e-24)
(-0.00880147802392 0.0446168116844 -6.55043955919e-23)
(-0.0078707798853 0.047383531883 6.52566136723e-23)
(-0.00661257015288 0.048704792698 1.53092845587e-23)
(-0.005047257933 0.047913582501 4.3401994267e-22)
(-0.00326400684472 0.0437258041807 -8.60052863974e-22)
(-0.00164959090373 0.0349011747257 6.05039734824e-23)
(3.02366590574e-05 0.018107165846 -6.02585314374e-21)
)
;
    }
    procBoundary9to10
    {
        type            processor;
        value           nonuniform List<vector> 
15
(
(-0.0555430281197 0.0127632648096 3.73088111178e-22)
(-0.0577309046315 0.0172311283339 5.40629215115e-23)
(-0.0603685972407 0.0221702555364 -1.83978622314e-23)
(-0.0634922346778 0.0278905554242 -6.63224941268e-24)
(-0.0670943674989 0.034604441381 8.01922055906e-23)
(-0.071156683624 0.0425965498509 8.96241963585e-23)
(-0.0756489356626 0.0522299995505 -6.00853580347e-24)
(-0.0805073788542 0.0640116507952 -2.53582517378e-22)
(-0.0559360789584 0.00401878883531 -5.37954493284e-22)
(-0.0555430281197 0.0127632648096 3.73088111178e-22)
(-0.0572715527656 0.00747984176313 5.88069600556e-22)
(-0.0559360789584 0.00401878883531 -5.37954493284e-22)
(-0.0586284186927 0.00296654185252 1.61644633393e-22)
(-0.0605877673572 0.00177420374658 -9.11953688176e-22)
(-0.0625445858369 0.000869585318069 -5.42660681741e-22)
)
;
    }
    procBoundary9to11
    {
        type            processor;
        value           nonuniform List<vector> 9((-0.0856910571807 0.0785177953669 1.39763739209e-22) (-0.0911757461672 0.0964926080048 -3.97407069127e-22) (-0.0970792830307 0.118938706851 1.80917322417e-22) (-0.103819094684 0.146472475747 -2.58738630434e-21) (-0.111329798929 0.184838030516 1.10294756411e-20) (-0.121516610811 0.228958719975 3.92312388867e-21) (-0.155767256984 0.259305292496 -7.3617054079e-21) (0.0767574630311 0.417084568018 9.75507864919e-20) (-0.246803392102 -1.23487955447 1.79628692438e-19));
    }
}


// ************************************************************************* //
