/*--------------------------------*- C++ -*----------------------------------*\
| =========                 |                                                 |
| \\      /  F ield         | OpenFOAM: The Open Source CFD Toolbox           |
|  \\    /   O peration     | Version:  v2012                                 |
|   \\  /    A nd           | Website:  www.openfoam.com                      |
|    \\/     M anipulation  |                                                 |
\*---------------------------------------------------------------------------*/
FoamFile
{
    version     2.0;
    format      ascii;
    class       volVectorField;
    location    "2.2";
    object      U_0;
}
// * * * * * * * * * * * * * * * * * * * * * * * * * * * * * * * * * * * * * //

dimensions      [0 1 -1 0 0 0 0];


internalField   nonuniform List<vector> 
166
(
(0.0651737706966 0.000253473011458 -7.29765949402e-22)
(0.0631947498516 0.0011633119336 -1.50439970883e-22)
(0.0624162521 0.00165396952573 -2.1051453254e-22)
(0.0628106652419 0.00236517768427 7.41509393919e-23)
(0.0637863382372 0.0030453166879 4.20961393921e-24)
(0.0651175276508 0.00378899851392 -1.59714808224e-23)
(0.0667544211642 0.00460764841094 -1.15697672639e-23)
(0.0687082338214 0.00551673532781 -1.17742047207e-23)
(0.0709921421801 0.00654099646723 1.20805647068e-23)
(0.0736298116421 0.00770224353522 -9.13570206311e-24)
(0.0767002438085 0.00901383679061 -1.78061025134e-23)
(0.0802400022352 0.0105047834262 -1.05493284323e-23)
(0.08435731336 0.0122211763756 -2.84616991676e-23)
(0.089330819885 0.0142158791082 4.25481820332e-22)
(0.0955268998306 0.0164647939134 1.87528429703e-24)
(0.102835406005 0.0190092444584 -1.42526150125e-21)
(0.111689117934 0.0212106018514 -3.81894388059e-21)
(0.115983472499 0.0214039543242 -1.1164213076e-20)
(0.0887939801009 0.0185109341631 -1.1119011168e-20)
(0.0398323446368 -0.0308012201066 -1.99066165137e-21)
(0.0643296427042 0.000390794837796 -8.55192362403e-22)
(0.0624173676 0.00154728541241 -1.20719655465e-22)
(0.0616476615963 0.00228019530481 -5.55744321961e-23)
(0.0620197217137 0.00326905098436 5.57931841518e-23)
(0.0629410342147 0.00421461492413 1.1101277927e-23)
(0.0641990958031 0.00523616769815 2.16107929083e-23)
(0.0657424960118 0.00635096143923 2.0648264615e-23)
(0.0675849778506 0.00756673557783 -7.10951810293e-24)
(0.0697266291171 0.00891970942663 7.27713372039e-24)
(0.0722045583874 0.0104632483589 3.41772265438e-23)
(0.0750566976255 0.0122128754398 -1.51239581859e-23)
(0.0783530088418 0.0141975758443 2.07451201989e-23)
(0.0821586094959 0.0165350998522 -6.07250348241e-23)
(0.0867405080028 0.0193119876497 -3.35022703465e-22)
(0.0925024120122 0.0224516012116 -2.3150071604e-21)
(0.0994146966911 0.0269130808745 -4.22148817407e-21)
(0.108383771919 0.0289670910582 -9.02051882267e-21)
(0.116988389998 0.0306008755705 -1.57637537917e-20)
(0.111297779534 0.0328067981318 -1.56012598226e-20)
(0.0625475485456 -0.00799248067149 1.4790661911e-21)
(0.0632202875712 0.000516661302565 -7.60360969587e-22)
(0.0613739593585 0.00191649398796 1.09714267642e-22)
(0.0606279153181 0.002886572258 -3.1372660496e-23)
(0.0609698766648 0.00412591104645 -5.06340289137e-23)
(0.0618329503756 0.00531482793387 -2.8784234993e-23)
(0.0630096678114 0.00659209490812 5.35653987215e-24)
(0.0644510422956 0.00797740069916 1.29678499916e-24)
(0.0661466502648 0.00948089227246 5.02096299273e-24)
(0.0681249463277 0.0111398051518 -2.14399428552e-23)
(0.0703998633203 0.0130103233331 -1.68212249872e-23)
(0.0729888175807 0.0151347663123 -1.64063061878e-24)
(0.0759425389193 0.0175501763604 1.822388813e-23)
(0.0793500360802 0.0204082701402 -1.19238639403e-22)
(0.0833679487447 0.0238583725339 -9.10025290374e-22)
(0.088459314118 0.0276926617684 -3.19700523391e-21)
(0.0947666128889 0.033755622609 -7.86093436975e-21)
(0.103487323671 0.0354835816399 -1.46531648071e-20)
(0.114605416568 0.038112717612 -1.19006540264e-20)
(0.123193885602 0.047229783648 -1.35231919487e-20)
(0.099225371584 0.0025740199815 -3.01791522366e-21)
(0.0618822224566 0.000632828968527 -7.43667780365e-22)
(0.0601099882362 0.00226084848214 -8.09593758929e-23)
(0.0593850323361 0.00345465654187 -1.78053239564e-22)
(0.0596943947313 0.00492825134475 -7.13801448385e-23)
(0.0604866453224 0.00634515391883 -4.14292651315e-23)
(0.0615707606588 0.00785935343721 -1.65561189538e-23)
(0.0628983593243 0.00947698127794 -2.15356001822e-23)
(0.0644474155951 0.011225179142 -1.69573958786e-23)
(0.0662428047731 0.0131544715096 4.4449956043e-23)
(0.0682744923453 0.0153060855188 3.67576065627e-23)
(0.0705644749 0.0177301597687 -7.42961439582e-24)
(0.0731287425545 0.0205025644393 4.54937405242e-23)
(0.0760438437934 0.0237438279915 -1.0566666794e-22)
(0.0793896204192 0.0276423445636 -8.85074108755e-22)
(0.0836080465961 0.0319970118238 -3.61935363653e-21)
(0.089202722495 0.0391357414541 -7.57303842863e-21)
(0.0973723666319 0.0404381459418 -1.62400363951e-20)
(0.109404203357 0.0436676478802 -1.3998744738e-20)
(0.130084151484 0.0585100650822 -2.18237891071e-20)
(0.156462602087 -0.00823938862497 1.05324153012e-20)
(0.0603244927085 0.00074456123372 -8.15054836238e-22)
(0.0586321154167 0.00258683453118 9.01819686526e-23)
(0.0579191231716 0.00398864315427 -5.08218000588e-22)
(0.0581937507864 0.00566369237216 -1.77515937327e-22)
(0.0589161890523 0.00728094706279 -6.50218405626e-23)
(0.0599034592478 0.00901124260376 -2.31324883678e-24)
(0.0611060076386 0.0108439701967 -6.91722756223e-24)
(0.0625093288937 0.0128120820271 -6.06103749042e-24)
(0.0641137242792 0.0149527225265 -9.38352128647e-24)
(0.0658992751552 0.0173151950374 7.67843224241e-24)
(0.0678718839579 0.0199639798693 -4.32998805888e-23)
(0.0700281642461 0.0229709203642 -1.48238636272e-23)
(0.0723841849198 0.0264403182879 -1.03584705109e-22)
(0.0750222089858 0.0305643690049 -8.33324440577e-22)
(0.0782939731775 0.0351783922272 -3.38010825122e-21)
(0.083058920849 0.0427478024634 -5.1607464689e-21)
(0.0904683730335 0.0436722104254 -1.67643648124e-20)
(0.102252382167 0.0470096414632 -2.04742381678e-20)
(0.134661623762 0.0603134861531 -2.51451184229e-20)
(0.259229772288 0.00243355326764 5.03134312476e-21)
(0.0585601479162 0.000852231270177 -7.42736670649e-22)
(0.056948726358 0.00288008521315 -3.59391178578e-22)
(0.0562411663461 0.00447003722077 -5.57748453491e-22)
(0.0564778231857 0.00633991723947 -1.04360134153e-22)
(0.0571436943372 0.00814083305184 -4.78879953182e-23)
(0.0580439728348 0.0100585366399 -1.44457532444e-24)
(0.0591260052814 0.0120753981792 -6.87180053045e-24)
(0.0603764118336 0.0142203543374 -8.6565961972e-24)
(0.0617838506919 0.0165298958195 -2.16256825813e-23)
(0.0633358148051 0.0190484566946 -8.4194469803e-24)
(0.0650055734695 0.0218357784905 -3.48591127989e-23)
(0.0667690811778 0.0249536905454 -5.36600703151e-23)
(0.068600593488 0.0284972319353 -7.91259387106e-23)
(0.0705574973836 0.0326212605945 -2.89934409161e-22)
(0.0729295971168 0.0372239436339 -1.62350852758e-21)
(0.0768224839775 0.0444662488509 -2.25171853487e-21)
(0.0832104696201 0.0450966332664 -3.30409719316e-21)
(0.0936836916137 0.0480765563837 -1.10120481616e-20)
(0.131083523347 0.0555490761344 -1.2812176049e-20)
(0.30443333379 0.117645515446 -2.43465274528e-21)
(0.0566301294374 0.000959499381283 -4.3658379867e-22)
(0.0550890913169 0.0031471846492 1.10777902273e-22)
(0.054404891387 0.0049083973943 1.39602706006e-22)
(0.0546007615952 0.00696070103197 8.75948924244e-23)
(0.0552009359469 0.00892840675359 8.54636450673e-24)
(0.0560134920117 0.011002487518 -9.08157448108e-24)
(0.0569824081081 0.0131709765127 -8.817466538e-24)
(0.0580941441175 0.0154610244543 -1.97671726353e-23)
(0.0593281019308 0.0178998489104 -1.73875737802e-23)
(0.0606637943324 0.0205214724272 -1.20564746944e-23)
(0.0620657120935 0.023374295682 -2.9932879543e-23)
(0.0634822880864 0.0265033718658 -6.68773923837e-23)
(0.0648775181496 0.029979385904 -5.43918367011e-23)
(0.0662616563226 0.0339060653883 -2.04335883093e-22)
(0.0679075473573 0.0382185905456 -1.30014238351e-21)
(0.0709954736253 0.0444170885017 -2.37637215874e-21)
(0.0762415119836 0.0447337889382 -9.55033827791e-22)
(0.0845548140058 0.0468516882472 -6.37907893328e-21)
(0.0936019492537 0.0493090242412 -1.7778049147e-20)
(0.0951689633568 0.36887188909 -3.55781262138e-20)
(0.0545207203948 0.00103504428307 -3.10043391645e-22)
(0.0530549677345 0.0033873932327 5.33396576824e-22)
(0.0523967456511 0.00530648763032 2.24025558837e-22)
(0.0525592912249 0.00750926189544 5.03204525981e-23)
(0.0530991877883 0.00963046370856 -4.71114217228e-23)
(0.0538309305296 0.0118488308321 -9.33894371659e-24)
(0.0547044181713 0.0141507265601 2.44022991712e-24)
(0.055696189083 0.0165570312624 3.62837725978e-24)
(0.0567807816112 0.0190886262675 4.71768602333e-24)
(0.0579361244749 0.0217729544948 -2.93252558605e-24)
(0.0591200618062 0.0246333206295 -1.74613598793e-23)
(0.0602738744744 0.0277041037822 -9.95217791207e-23)
(0.0613617132617 0.031020359751 -4.36418940132e-23)
(0.0623790989253 0.0346148126307 -5.2491511716e-22)
(0.0636017130718 0.0384707962396 -2.48466345567e-21)
(0.0659932144205 0.0435506315013 -7.4877564804e-21)
(0.0696852602578 0.0437574376297 -1.45060251747e-20)
(0.0740434261746 0.045030774706 -9.30664268201e-21)
(0.0412636763521 0.0540900978363 -5.81433683078e-21)
(-0.201742067881 0.239035642161 -8.23812176331e-21)
(0.0522299383912 0.00111893671841 -2.65901555574e-22)
(0.0508560189345 0.0036091560452 6.07379238567e-22)
(0.0502180325437 0.00566882303905 1.18197215459e-22)
(0.0498087683616 0.00120505584736 -3.09233172828e-22)
(0.0472725293594 0.00128104237492 5.27440415561e-23)
(0.0446125720777 0.00136344360009 -4.04841536651e-23)
)
;

boundaryField
{
    back
    {
        type            noSlip;
    }
    sides
    {
        type            noSlip;
    }
    bottom
    {
        type            noSlip;
    }
    front
    {
        type            noSlip;
    }
    atmosphere
    {
        type            pressureInletOutletVelocity;
        value           nonuniform List<vector> 8((0 -0.0308012201066 0) (0 -0.00799248067149 0) (0 0.0025740199815 0) (0 -0.00823938862497 0) (0 0.00243355326764 0) (0.30443333379 0.117645515446 -2.43465274528e-21) (0.0951689633568 0.36887188909 -3.55781262138e-20) (-0.201742067881 0.239035642161 -8.23812176331e-21));
    }
    floatingObject
    {
        type            movingWallVelocity;
        value           nonuniform List<vector> 0();
    }
    procBoundary9to6
    {
        type            processor;
        value           nonuniform List<vector> 4((0.112997562607 0.0122496517024 -7.07420268437e-21) (0.112533843256 0.0102781781406 -6.88119956952e-21) (0.0571031692777 0.00583994387205 -8.87830718065e-21) (0.0184490534087 -0.0437652752501 9.76025681245e-21));
    }
    procBoundary9to7
    {
        type            processor;
        value           nonuniform List<vector> 
16
(
(0.0657483794979 0.000127584995377 -5.94556942383e-22)
(0.0637028185184 0.000757574127072 -1.06421836391e-22)
(0.0629209888956 0.000991101955356 -2.84362090529e-22)
(0.0633325501309 0.00142231371365 7.10518351096e-23)
(0.0643524212075 0.00182131116417 -2.21726845998e-25)
(0.0657433746215 0.00227229182034 -1.40889207054e-24)
(0.0674543246725 0.00278107939178 -2.82960221577e-24)
(0.0694991357983 0.00335101313569 -1.64749144627e-23)
(0.0718882835159 0.00402024103732 2.35267350708e-23)
(0.0746551674675 0.00477901798658 1.12137958562e-23)
(0.0778581668119 0.0056330663986 -6.66776788427e-24)
(0.0815422695244 0.00659541195762 6.32762424427e-23)
(0.085832056228 0.00763359146297 4.00612545257e-22)
(0.0909624417746 0.00875265147488 1.63749000797e-21)
(0.0973187064422 0.010039665891 7.72286025001e-22)
(0.104678442305 0.0105686107877 -1.07782370297e-21)
)
;
    }
    procBoundary9to10
    {
        type            processor;
        value           nonuniform List<vector> 
15
(
(0.0503611223146 0.00801370892444 2.37444018553e-23)
(0.0508563409892 0.0102703237074 -5.92455742017e-23)
(0.0515227264623 0.0126150340314 -1.18264426515e-23)
(0.0523136422047 0.01503077425 2.12745557875e-24)
(0.0532024479837 0.0175290965844 3.73474192843e-24)
(0.0541667286427 0.0201298681646 1.38443143762e-23)
(0.055183620501 0.0228488457835 7.95896059643e-24)
(0.0562053851309 0.0256908346896 1.26709141417e-23)
(0.0485227741263 0.00381384703819 5.77489176009e-22)
(0.0503611223146 0.00801370892444 2.37444018553e-23)
(0.0479134207918 0.00600349224877 -2.63867854598e-22)
(0.0485227741263 0.00381384703819 5.77489176009e-22)
(0.0460737686906 0.00400193866993 1.43499360256e-22)
(0.0434987979915 0.00417224117086 6.08733998722e-22)
(0.0418273972561 0.0014294976891 8.26564480399e-22)
)
;
    }
    procBoundary9to11
    {
        type            processor;
        value           nonuniform List<vector> 9((0.0571912188037 0.0286782177443 -3.6251377038e-23) (0.0580966508172 0.0318121710186 5.50958673033e-23) (0.0589498681614 0.0350933462545 -3.34415309524e-22) (0.0599911022266 0.0385911952025 -2.55772093076e-21) (0.0615560126729 0.0429356255996 -6.81392854018e-21) (0.0633851451533 0.0433903082267 -1.76079399395e-20) (0.0627156131799 0.043137435515 -1.25572852559e-20) (0.018813748069 0.0592027355398 -1.38508566213e-20) (-0.250214278355 0.0139745235416 -1.12729609825e-20));
    }
}


// ************************************************************************* //
