/*--------------------------------*- C++ -*----------------------------------*\
| =========                 |                                                 |
| \\      /  F ield         | OpenFOAM: The Open Source CFD Toolbox           |
|  \\    /   O peration     | Version:  v2012                                 |
|   \\  /    A nd           | Website:  www.openfoam.com                      |
|    \\/     M anipulation  |                                                 |
\*---------------------------------------------------------------------------*/
FoamFile
{
    version     2.0;
    format      ascii;
    class       surfaceVectorField;
    location    "2.2";
    object      Uf;
}
// * * * * * * * * * * * * * * * * * * * * * * * * * * * * * * * * * * * * * //

dimensions      [0 1 -1 0 0 0 0];


internalField   nonuniform List<vector> 
300
(
(0.0638539471288 0.000791982828476 -4.38035842887e-22)
(0.0644367668717 0.00036048649644 -7.87212577364e-22)
(0.0624956071753 0.00152064443153 -1.81493027284e-22)
(0.0624964042405 0.00145564873271 -1.38472900577e-22)
(0.0623011336706 0.00223529907398 -6.7860412703e-23)
(0.0617377909599 0.00214017397045 -1.34255723539e-22)
(0.0629828606021 0.00296806000783 3.9757499814e-23)
(0.0621179338743 0.00305860176901 6.67544318649e-23)
(0.0641352579931 0.00374976269087 -5.83506163969e-24)
(0.0630668894725 0.00394201432929 8.00209021465e-24)
(0.0656200759773 0.00459695900517 -1.38476140676e-23)
(0.0643646353642 0.00489489717638 3.14531778009e-24)
(0.0674183097505 0.00552592512564 -1.16659636495e-23)
(0.0659613922625 0.00593134067704 4.82022522585e-24)
(0.0695431011066 0.00656027379033 7.89012324228e-26)
(0.0678537320732 0.00706193144821 -9.39177413115e-24)
(0.072014408868 0.0077139150769 1.4879857862e-24)
(0.0700966970374 0.00831531900514 1.01908225907e-23)
(0.0748850452666 0.00899493146336 -1.31936259935e-23)
(0.07268220426 0.0097259164828 1.36971515844e-23)
(0.0782150798109 0.0104500214843 -1.34468221682e-23)
(0.0756828903814 0.0113044574087 -1.62176660962e-23)
(0.0820806454294 0.012057895951 -1.4451025627e-23)
(0.0791720807177 0.0130743973607 5.56503261961e-24)
(0.086678301439 0.013898130047 2.13978097689e-22)
(0.0831987637258 0.0151071177352 -3.96811737611e-23)
(0.092334304564 0.0159426399494 2.40786217297e-22)
(0.0881258159996 0.0174583346338 6.15808238386e-23)
(0.0991838311393 0.0182859857433 -6.68622974683e-22)
(0.0942317272092 0.0200673217655 -1.11011987064e-21)
(0.107369101538 0.0207083836548 -2.58525624387e-21)
(0.101606093129 0.0233746417406 -2.72960079132e-21)
(0.113849850057 0.0227054242146 -7.38888882403e-21)
(0.110758877887 0.025299114041 -6.30293013794e-21)
(0.0995079991946 0.0195582237724 -1.09542707802e-20)
(0.117384134341 0.0260768423401 -1.32968821428e-20)
(0.0617132340998 -0.0120085771625 -6.33324368863e-21)
(0.0978056335487 0.0248477849829 -1.31845497299e-20)
(0.0496481732457 -0.0226037416169 -1.97925112768e-22)
(0.0629744033995 0.00105159838056 -4.87649635053e-22)
(0.063385202764 0.000492345981116 -8.04042706535e-22)
(0.0616530358268 0.00202914224382 -9.12355968314e-23)
(0.0615188974188 0.0018311077153 -1.04188528786e-23)
(0.0614511599379 0.0030007123337 3.59121029315e-25)
(0.060766256879 0.00275541561402 -4.42118921594e-23)
(0.0620942216345 0.00399750534064 3.49990222655e-23)
(0.0611211747238 0.00393776952565 4.83755608103e-24)
(0.0631828666571 0.00505262209273 1.69824696344e-23)
(0.0620118050317 0.00507656492172 -8.27289561738e-24)
(0.064585013512 0.00618679531482 2.18131570735e-23)
(0.063230494143 0.00629796981294 1.44132070334e-23)
(0.0662824727187 0.0074273059134 7.09441474422e-24)
(0.0647209143022 0.00762069001442 1.14709038664e-23)
(0.0682838818567 0.00878227288702 7.2014722714e-25)
(0.0664987980482 0.00905331788087 -6.29202713079e-25)
(0.0706102402117 0.0102915104741 2.23999883889e-23)
(0.0685874899189 0.010631227457 -6.77718754426e-24)
(0.0733023086453 0.0119815267472 1.06731114817e-23)
(0.0709922101814 0.0124069100837 9.55377421424e-24)
(0.076418294045 0.0138988970001 2.79418869162e-24)
(0.0737655251915 0.0144065956112 -8.42417179599e-24)
(0.0800320088844 0.016107148184 -1.96651155145e-23)
(0.0769638076383 0.0166596388747 2.01724268477e-23)
(0.0843175604086 0.0186437208194 -1.92078447612e-22)
(0.0806621355457 0.019292447867 -8.95038236968e-23)
(0.0896204408632 0.0216472286961 -1.28932526409e-21)
(0.0851222224904 0.0224126292266 -6.12081695641e-22)
(0.0961400136102 0.0250641285697 -3.17109768728e-21)
(0.090814722731 0.0258726683513 -2.69311200569e-21)
(0.104313099899 0.0289930645252 -6.44727468539e-21)
(0.0976770622521 0.0310185367638 -5.91722818973e-21)
(0.113238730743 0.0328031709646 -1.22109234567e-20)
(0.10694872504 0.0328865279621 -1.17239968811e-20)
(0.11265464449 0.0328591810448 -1.55271610926e-20)
(0.117328099984 0.0349481581129 -1.38244464463e-20)
(0.084973389182 0.0145234227637 -7.04923115405e-21)
(0.1161412305 0.039587616785 -1.44048187276e-20)
(0.0762319886127 -0.00188512783898 -8.83191111577e-22)
(0.0618300939943 0.00129485273243 -3.2681192436e-22)
(0.0620903905451 0.000613610342589 -7.48685705196e-22)
(0.0605523384906 0.00251263954222 3.66048517934e-23)
(0.0603011552668 0.00218628392843 1.08374451261e-23)
(0.0603461082277 0.00372115195202 -3.97334571077e-23)
(0.0595577898351 0.00334065639916 -1.0236996645e-22)
(0.0609439552318 0.00496950504798 -3.84343618019e-23)
(0.0598728665485 0.00476527080721 -5.80194377799e-23)
(0.061961706206 0.00627766555593 -1.08421582184e-23)
(0.0607036887747 0.00614066744155 -3.45453747277e-23)
(0.0632712973242 0.00767325461935 4.07095382633e-24)
(0.0618349480789 0.00761032768831 -5.00540767648e-24)
(0.0648443726655 0.00919340946795 3.74728640913e-24)
(0.0632007989133 0.00918825596602 -9.54879317566e-24)
(0.0666918640616 0.0108362943236 -8.12653748448e-24)
(0.0648559446829 0.0108930031018 -5.9517629722e-24)
(0.0688378342848 0.012673164565 -1.96234017189e-23)
(0.0667506352814 0.0127679678626 1.20539704367e-23)
(0.0713025786872 0.0147312811437 -9.54350906341e-24)
(0.0689340828071 0.0148611220333 1.11152642597e-23)
(0.0741262601105 0.0170768999321 8.95406636008e-24)
(0.0714198567242 0.0172175390556 -4.25882813175e-24)
(0.0773865033492 0.019781725337 -4.96662813346e-23)
(0.0742588832699 0.0198916955683 3.46262228175e-23)
(0.0812178763474 0.0229271701166 -5.09507071726e-22)
(0.077516539002 0.0230156513385 -1.12605459679e-22)
(0.0859460944929 0.026649667012 -2.01586843724e-21)
(0.0813995311656 0.0267530221959 -8.91847660144e-22)
(0.0918868493425 0.0311671218057 -5.43924250815e-21)
(0.0862970566744 0.0308984999903 -3.34861597591e-21)
(0.0997287549423 0.0362716481025 -1.11939503855e-20)
(0.0925723618436 0.0375012021673 -7.62553989671e-21)
(0.109973835257 0.041725707062 -1.33375198707e-20)
(0.101494591071 0.0391984162167 -1.56439650301e-20)
(0.118122350884 0.0453817368797 -1.27021040813e-20)
(0.113672027723 0.0421545148268 -1.3102246857e-20)
(0.107769027344 0.0382256060389 -8.23877868512e-21)
(0.12329707508 0.0533408633802 -1.69817422312e-20)
(0.118586219916 0.00456384154913 4.00195823751e-21)
(0.0604614693401 0.00151971137993 -4.1103633571e-22)
(0.0605707265633 0.000727452704589 -7.74508407365e-22)
(0.0592297357504 0.00296464954975 -1.28137373117e-22)
(0.0588562692797 0.00251897908382 1.45900498473e-24)
(0.0590162654846 0.00440143979939 -1.20655947122e-22)
(0.0581210538783 0.00388828094119 -3.3762855199e-22)
(0.0595607097019 0.00587967283077 -5.41304507058e-23)
(0.0583946889022 0.0055303301365 -1.2143472583e-22)
(0.0604947051136 0.00741915398531 -2.87086241857e-23)
(0.0591642632602 0.00712046601687 -5.29433215395e-23)
(0.0616986840106 0.00905939128782 -1.86251546785e-23)
(0.0601947646243 0.00881825511433 -9.00848206179e-24)
(0.0631389750797 0.0108109022544 -1.9247842557e-23)
(0.0614493342804 0.0106235527288 -1.33877203937e-23)
(0.0648194064299 0.0127298220039 1.4228744949e-23)
(0.0629370554284 0.0125668264014 -1.34412571334e-23)
(0.0667510001207 0.0148593047221 4.27926364153e-23)
(0.0646211534428 0.0146924364987 1.99548667728e-23)
(0.0689446403886 0.0172101426636 1.63999451914e-23)
(0.0665832005262 0.0170463105972 2.40503411505e-23)
(0.0714260554502 0.019879870855 2.14133283256e-23)
(0.0687500214632 0.0196863534096 -2.74390917187e-23)
(0.0742506504811 0.0229623233741 -2.83129555267e-23)
(0.0711762491285 0.0226869408996 1.96353616808e-23)
(0.0775098104635 0.0265765884247 -4.94946048097e-22)
(0.0739020167488 0.0261608115585 -1.09555928236e-22)
(0.0814837682133 0.0309091713674 -2.22459519881e-21)
(0.0770666336654 0.0302992443792 -8.60299360937e-22)
(0.0866553076165 0.0361566060955 -5.53491336447e-21)
(0.0810492937352 0.0349214728011 -3.50553047073e-21)
(0.0939029229834 0.0421993063751 -1.20755545413e-20)
(0.0865294034328 0.0424144802035 -6.2674136044e-21)
(0.104426046464 0.0488763234812 -1.54086920165e-20)
(0.0948174700658 0.0438957939909 -1.70011378941e-20)
(0.118575328717 0.0552454029594 -1.7381885007e-20)
(0.107302866346 0.0473132427618 -1.73040264294e-20)
(0.134841153126 0.0496856506381 -4.74100530859e-21)
(0.12885631693 0.0618026469207 -2.33499132307e-20)
(0.186058536336 0.00525866866231 9.91025419923e-21)
(0.0588776915152 0.00173201284574 -3.6201306667e-22)
(0.0588387659931 0.000836526080613 -7.75640747837e-22)
(0.0576900278142 0.00338521938222 -2.08032173888e-22)
(0.0572031197754 0.00282491760482 -1.36499234656e-22)
(0.0574631983734 0.00502835096105 -3.38407330698e-22)
(0.0564779822898 0.00439055653007 -5.28454401263e-22)
(0.0579525717261 0.00670364676432 -1.20247596664e-22)
(0.0567194553709 0.00622950791525 -1.39438497222e-22)
(0.0587996950713 0.00845877746192 -3.32431794155e-23)
(0.0574091966151 0.00801150152157 -5.66373987579e-23)
(0.0598885175938 0.0103111694778 -3.77104777707e-24)
(0.0583424351161 0.0099119549905 -1.05144359082e-24)
(0.0611883578154 0.0122849833398 -7.58113497014e-24)
(0.059475572758 0.0119196703714 -6.26719516075e-24)
(0.0626945164824 0.0144263695189 -7.71513530951e-24)
(0.0607956988385 0.0140667174148 -8.91265804773e-24)
(0.0644009448695 0.0167538841177 1.212571508e-24)
(0.0622936264073 0.0163916117867 -1.32571937282e-23)
(0.0663057003966 0.0193589800453 -1.97886957596e-23)
(0.0639780285674 0.0189431496776 1.02916623713e-24)
(0.0684167319325 0.0222831576029 -2.92170583636e-23)
(0.0658256816159 0.0217856914044 -4.22811857886e-23)
(0.0707499543539 0.0256288551394 -6.1607611029e-23)
(0.0678302883469 0.0249895072697 -2.92957691437e-23)
(0.0733671007349 0.0295230580231 -4.74909241076e-22)
(0.0700074500296 0.0286582529129 -1.00306968526e-22)
(0.0765035542713 0.0341728666453 -2.14123463285e-21)
(0.0724163870988 0.0329719739009 -5.67045822613e-22)
(0.0807730171322 0.0397844901782 -4.23803071066e-21)
(0.0754372216182 0.0378033727594 -2.570191947e-21)
(0.0872048234019 0.0462861560693 -1.11929969571e-20)
(0.0800273941197 0.045483238485 -3.57388005451e-21)
(0.0972438297635 0.0537725037206 -1.8896472307e-20)
(0.0873309876841 0.0467664440544 -1.02995884605e-20)
(0.116848929309 0.0619683758541 -2.32720546531e-20)
(0.0991068492659 0.0501151834682 -1.55415271018e-20)
(0.178545620237 0.0584034759364 -8.69865372285e-21)
(0.132420358307 0.0617321004619 -1.91598431648e-20)
(0.26269976868 0.0491303897694 3.95547409265e-21)
(0.0570901211816 0.00192492348423 -5.50126915822e-22)
(0.0569138955893 0.000942764516506 -5.89148470949e-22)
(0.0559435118303 0.00376794822904 -4.56921462031e-22)
(0.0553601518733 0.00309997707116 -1.2857673846e-22)
(0.055698032632 0.00559642827721 -3.29485567787e-22)
(0.0546495619696 0.00484258254924 -2.12950957188e-22)
(0.0561363593826 0.00746176790447 -7.58282993157e-23)
(0.0548541889772 0.00686756669087 -8.1552920006e-24)
(0.0569065385626 0.00940097538767 -2.44456629332e-23)
(0.0554700686944 0.00882333366053 -1.99875235056e-23)
(0.0578852475082 0.0114391252095 -3.5475909745e-24)
(0.0563043694224 0.010895408448 -4.06375176633e-24)
(0.0590406762284 0.0135985391051 -7.59871823834e-24)
(0.0573162313315 0.0130724282188 -7.33537504838e-24)
(0.0603626505001 0.0159145532179 -1.44547164664e-23)
(0.0584797310938 0.0153842047244 -1.48463558975e-23)
(0.0618423923844 0.0184237236826 -1.34405989991e-23)
(0.0597844450193 0.0178651976175 -1.88909010798e-23)
(0.0634647853713 0.0211843429226 -2.14633237919e-23)
(0.0612173116141 0.0205578238938 -8.35613768465e-24)
(0.0652106670373 0.024258616114 -4.23598965688e-23)
(0.0627511901453 0.0235201087351 -3.43684821002e-23)
(0.0670635547095 0.0277275250027 -6.79951266408e-23)
(0.0643610117661 0.0268111442555 -5.37933235997e-23)
(0.06905020648 0.0317186866557 -1.92443550063e-22)
(0.0660157653079 0.0305210285748 -7.13382049051e-23)
(0.0713594106032 0.0363781142346 -9.96003136761e-22)
(0.067756309925 0.0347900343205 -2.50915481537e-22)
(0.0746954474171 0.0419430915906 -1.90604129085e-21)
(0.0698715613266 0.0395443657928 -1.48806989963e-21)
(0.0801215227473 0.0484074598853 -2.68047155792e-21)
(0.0735624805363 0.0466627854527 -2.13096493086e-21)
(0.088977194719 0.0561629967475 -6.94464325534e-21)
(0.0795752144005 0.0477431726547 -1.88261153249e-21)
(0.111869812614 0.0657861411267 -1.14293156135e-20)
(0.0894834683011 0.0504810083534 -8.05542655848e-21)
(0.215712468461 0.0691095585754 -6.5057153493e-21)
(0.129094815524 0.0555796684777 -1.47263830138e-20)
(0.250235113799 0.236678193451 -2.14802824513e-20)
(0.0551344726913 0.00210176355209 -1.67598293587e-22)
(0.0548121801314 0.00103241903582 -3.71973097355e-22)
(0.0540321039259 0.00411353824343 1.15393766383e-22)
(0.0533484319969 0.00334665577677 3.1166719612e-22)
(0.0537747235799 0.00611647156933 1.08379318598e-22)
(0.0526467210475 0.00524977321503 1.76816301644e-22)
(0.05415554411 0.00815345760397 4.76854838095e-23)
(0.0528172916052 0.00743740547455 6.99953825061e-23)
(0.0548430425253 0.0102540846529 3.94387661277e-25)
(0.0533695553987 0.0095501639144 -1.86533230453e-23)
(0.0557134250435 0.0124445639848 -7.85153584021e-24)
(0.0541140020998 0.0117704363834 -8.49968490634e-24)
(0.0567328127625 0.0147532634301 -1.45830127076e-23)
(0.0550076462999 0.014089202828 -2.44310943776e-24)
(0.057885839756 0.0172089977474 -1.92825405109e-23)
(0.0560240654207 0.0165327667431 -7.51481707506e-24)
(0.0591546327161 0.0198423998287 -1.38064397654e-23)
(0.0571510418699 0.0191285697397 -4.69387898938e-24)
(0.0605147056248 0.0226947269048 -2.1261295993e-23)
(0.0583648574813 0.0219113579154 -5.68550500555e-24)
(0.0619274258925 0.0258298946311 -4.58019091312e-23)
(0.0596156808973 0.0249223682987 -2.50675294582e-23)
(0.0633552646001 0.0292997176899 -5.71364018641e-23)
(0.0608906218305 0.028208388326 -7.62569933363e-23)
(0.0647933926122 0.0332019548167 -1.29810136379e-22)
(0.0621127260658 0.0318318820721 -5.00448256347e-23)
(0.0663935393118 0.0376231330923 -7.42982244407e-22)
(0.0633341635405 0.0358753348841 -3.57239335118e-22)
(0.0688881499625 0.0426963652218 -1.71299353964e-21)
(0.0647973045248 0.0403101701003 -1.84338910291e-21)
(0.0732445121776 0.048611829744 -1.33310490543e-21)
(0.0676462514295 0.0464411884086 -4.87109492599e-21)
(0.0802581986804 0.0561002080502 -2.99339483564e-21)
(0.0720865497633 0.0473744638923 -7.63215707818e-21)
(0.089346088805 0.0672246777268 -1.13524939588e-20)
(0.0783582280499 0.0493135059428 -7.40819446275e-21)
(0.0982944011149 0.139002242397 -2.97009501159e-20)
(0.0573116728335 0.0545352909127 -1.0993401141e-20)
(-0.0803527145172 0.30177900125 -2.52988314909e-20)
(0.0530067906075 0.00224699723262 1.07292392351e-22)
(0.0525652400575 0.00110957435989 -2.84726331434e-22)
(0.0519521776603 0.00442468269202 3.73089731381e-22)
(0.0511708366227 0.00356855839847 5.60880972813e-22)
(0.0516875827218 0.00657469817903 1.38432365552e-22)
(0.0504967786678 0.00561533587058 1.73125485749e-22)
(0.0520164579133 0.00876068886656 3.65657565137e-24)
(0.0526263420953 0.0110067557405 -2.75473956129e-23)
(0.0533992008146 0.0133336751193 -3.0912585039e-24)
(0.0542987341739 0.0157671871891 4.62508619475e-24)
(0.0553017029717 0.0183242808931 7.07384444648e-24)
(0.0563859902253 0.0210355235932 3.42705577044e-24)
(0.0575217546043 0.0239416431035 -9.49173847076e-24)
(0.0586616345926 0.0270523674869 -5.55226136634e-23)
(0.0597618481812 0.0304279555517 -6.9165417107e-23)
(0.0608064284739 0.034103649567 -2.77474024373e-22)
(0.0619347672181 0.0381236218971 -1.45764619362e-21)
(0.0637681019254 0.0425388622265 -5.00149048926e-21)
(0.0668631975376 0.0478655360669 -1.11701470987e-20)
(0.0708362514227 0.0550547733667 -1.20469567053e-20)
(0.0567908827257 0.0670458577094 -7.0491016449e-21)
(-0.0820416900977 0.0997831055759 -6.59128251598e-21)
(0.0507121736693 0.00238864848432 1.68862249028e-22)
(0.0501766537288 0.00119106188294 -2.82219662234e-22)
(0.0497105246861 0.00470555211827 3.60916727181e-22)
(0.0476563845 0.0012678713146 -1.2806304201e-22)
(0.0450204629051 0.00134197168621 6.37693860539e-24)
)
;

boundaryField
{
    back
    {
        type            calculated;
        value           uniform (0 0 0);
    }
    sides
    {
        type            calculated;
        value           nonuniform List<vector> 0();
    }
    bottom
    {
        type            calculated;
        value           uniform (0 0 0);
    }
    front
    {
        type            calculated;
        value           uniform (0 0 0);
    }
    atmosphere
    {
        type            calculated;
        value           nonuniform List<vector> 8((0 -0.0316857425684 0) (0 -0.0120606510642 0) (0 -0.00412907172135 0) (0 -0.0177874107756 0) (0 -0.0182390239936 0) (0.302154376228 0.0815694880344 -7.98508396784e-22) (0.102430707145 0.469584131254 -4.21620565059e-20) (-0.204737521113 0.246279394274 -8.43560647582e-21));
    }
    floatingObject
    {
        type            calculated;
        value           nonuniform List<vector> 0();
    }
    procBoundary9to6
    {
        type            processor;
        value           nonuniform List<vector> 4((0.112755919838 0.0166536710897 -5.45094056836e-21) (0.114236959412 0.0155736847521 -8.91873791563e-21) (0.0662390169459 0.0113100370443 -1.04433571354e-20) (0.0299712947035 -0.0406433544859 5.47632149225e-21));
    }
    procBoundary9to7
    {
        type            processor;
        value           nonuniform List<vector> 
16
(
(0.0652287020554 0.000228573954719 -6.56732141268e-22)
(0.0632250182235 0.00106173908268 -1.30332866428e-22)
(0.0624524038399 0.00149632567268 -2.46490778385e-22)
(0.0628506605915 0.00213619309774 7.38359328535e-23)
(0.0638485629003 0.00274559015105 2.09695388886e-24)
(0.0652118022653 0.00341206867206 -8.77399169868e-24)
(0.066890321273 0.00414354837805 -7.54399025936e-24)
(0.0688880287797 0.00494818906324 -1.39026274348e-23)
(0.0712502662943 0.00585513710116 1.78005432416e-23)
(0.0739631289399 0.00686723969025 5.59533314857e-25)
(0.0771378766859 0.00798972388187 -1.15505576027e-23)
(0.0807798539062 0.00923657324848 2.71310302332e-23)
(0.0850389146415 0.0106044237268 1.93027242378e-22)
(0.0901702648359 0.0121052702534 1.03620388092e-21)
(0.0965750388975 0.0137560249257 4.03196089161e-22)
(0.104028466584 0.0150626293417 -1.26653242664e-21)
)
;
    }
    procBoundary9to10
    {
        type            processor;
        value           nonuniform List<vector> 
15
(
(0.0506314208692 0.00794385195799 4.05165880046e-23)
(0.0511236079276 0.010196017355 -5.20448360081e-23)
(0.0517872267717 0.0125471813229 -1.07400887055e-23)
(0.0525742580524 0.014986074544 2.63012315854e-24)
(0.0534670661462 0.0175316251096 5.21214083138e-24)
(0.0544398015948 0.0202079226503 1.21240846331e-23)
(0.0554585307971 0.0230412003872 3.31698791646e-24)
(0.0565045363044 0.0260517371646 -3.31084927597e-24)
(0.0488539868597 0.00377046314936 5.84724962631e-22)
(0.0494425745748 0.00699060293288 7.52097082021e-23)
(0.0482118255364 0.00594534540835 -6.68639532236e-23)
(0.0482923005305 0.00252032759909 1.33643051369e-22)
(0.045765899418 0.00263599305581 9.6147916559e-23)
(0.0431253794016 0.00274461234865 2.81088441195e-22)
(0.0422759225212 0.00141042075398 3.92557140085e-22)
)
;
    }
    procBoundary9to11
    {
        type            processor;
        value           nonuniform List<vector> 9((0.0575143052171 0.0292755144419 -6.45249982196e-23) (0.0584360994004 0.0327414909177 1.7726272871e-24) (0.0593130433135 0.0364814196434 -4.19631204477e-22) (0.0603809266607 0.040532494884 -2.50266796349e-21) (0.062318747084 0.0457687568189 -7.13945463104e-21) (0.0648969696009 0.0467707585247 -1.6215906231e-20) (0.0663656794985 0.0476326947834 -1.10061393786e-20) (0.0245682616049 0.0613508338844 -9.00642279008e-21) (-0.226855862209 0.120323800592 -8.2896755634e-21));
    }
}


// ************************************************************************* //
