/*--------------------------------*- C++ -*----------------------------------*\
| =========                 |                                                 |
| \\      /  F ield         | OpenFOAM: The Open Source CFD Toolbox           |
|  \\    /   O peration     | Version:  v2012                                 |
|   \\  /    A nd           | Website:  www.openfoam.com                      |
|    \\/     M anipulation  |                                                 |
\*---------------------------------------------------------------------------*/
FoamFile
{
    version     2.0;
    format      ascii;
    class       volScalarField;
    location    "1.1";
    object      p_rgh;
}
// * * * * * * * * * * * * * * * * * * * * * * * * * * * * * * * * * * * * * //

dimensions      [1 -1 -2 0 0 0 0];


internalField   nonuniform List<scalar> 
166
(
8858.81646844
8855.12566045
8850.82900712
8845.86894257
8840.17711172
8833.67869949
8826.29436078
8817.92505027
8808.35527005
8796.93932434
7444.91898216
1064.75094537
-0.0277080247615
8868.7816897
8866.17955314
8863.05595428
8859.36585181
8855.05557306
8850.06112154
8844.30587531
8837.70318228
8830.15868221
8821.56328825
8811.69225322
8799.80077401
7460.43670134
1077.77689299
-0.0225931405743
8879.67665213
8879.11235317
8875.51018542
8873.43310152
8870.87556023
8867.7982885
8864.15306964
8859.8818365
8854.91489866
8849.16839515
8842.5449696
8834.9359267
8826.21990433
8816.16140922
8803.92640489
7489.31000935
1103.21397307
-0.0170140144808
8884.54790738
8884.009461
8883.26388443
8882.10693229
8880.53381639
8878.52295024
8876.04268005
8873.05199033
8869.50042462
8865.32677092
8860.45697802
8854.80141722
8848.25411594
8840.69434355
8831.99031684
8821.90892209
8809.59032786
7533.36526571
1143.50440165
-0.0115524374172
8889.77408692
8889.26693465
8888.56312247
8887.46231506
8885.96395568
8884.04662281
8881.67805319
8878.8166005
8875.41081293
8871.39783782
8866.70104286
8861.22703788
8854.86386294
8847.48237956
8838.94378915
8829.03318874
8816.8876736
7593.7989346
1201.49805081
-0.00604537634744
8895.34215189
8894.87144974
8894.21959211
8893.19020326
8891.78784865
8889.99176728
8887.77006267
8885.08164881
8881.87559021
8878.08923787
8873.64556084
8868.44984277
8862.38698704
8855.32268639
8847.11518677
8837.58213867
8825.90279391
7671.57351699
1280.08110394
-0.000773534042059
8901.2335811
8900.80404536
8900.21448946
8899.27128549
8897.98556511
8896.33794434
8894.29776566
8891.82581587
8888.8734625
8885.38044915
8881.2719495
8876.4547994
8870.81372202
8864.21131703
8856.50356099
8847.55506396
8836.71487314
7767.11452944
1383.1037472
0.0037804689864
8907.42438315
8907.04006683
8906.52324226
8905.67965302
8904.52973472
8903.05635537
8901.23053134
8899.01641946
8896.36970371
8893.23507801
8889.54302062
8885.2055085
8880.11076336
8874.11942342
8867.07677446
8858.89045442
8849.35638334
7879.45558352
1514.23255903
0.00660093568901
8913.88508415
8913.55025794
8913.11613909
8912.3824466
8911.38527839
8910.11007631
8908.52817848
8906.60929339
8904.31572511
8901.59996172
8898.40130562
8894.64170923
8890.21910751
8884.99788399
8878.79653602
8871.46155882
8863.7883669
8006.5481673
1678.00797457
0.00538386045769
)
;

boundaryField
{
    back
    {
        type            fixedFluxPressure;
        gradient        uniform 0;
        value           nonuniform List<scalar> 
166
(
8858.81646844
8855.12566045
8850.82900712
8845.86894257
8840.17711172
8833.67869949
8826.29436078
8817.92505027
8808.35527005
8796.93932434
7444.91898216
1064.75094537
-0.0277080247615
8868.7816897
8866.17955314
8863.05595428
8859.36585181
8855.05557306
8850.06112154
8844.30587531
8837.70318228
8830.15868221
8821.56328825
8811.69225322
8799.80077401
7460.43670134
1077.77689299
-0.0225931405743
8879.67665213
8879.11235317
8875.51018542
8873.43310152
8870.87556023
8867.7982885
8864.15306964
8859.8818365
8854.91489866
8849.16839515
8842.5449696
8834.9359267
8826.21990433
8816.16140922
8803.92640489
7489.31000935
1103.21397307
-0.0170140144808
8884.54790738
8884.009461
8883.26388443
8882.10693229
8880.53381639
8878.52295024
8876.04268005
8873.05199033
8869.50042462
8865.32677092
8860.45697802
8854.80141722
8848.25411594
8840.69434355
8831.99031684
8821.90892209
8809.59032786
7533.36526571
1143.50440165
-0.0115524374172
8889.77408692
8889.26693465
8888.56312247
8887.46231506
8885.96395568
8884.04662281
8881.67805319
8878.8166005
8875.41081293
8871.39783782
8866.70104286
8861.22703788
8854.86386294
8847.48237956
8838.94378915
8829.03318874
8816.8876736
7593.7989346
1201.49805081
-0.00604537634744
8895.34215189
8894.87144974
8894.21959211
8893.19020326
8891.78784865
8889.99176728
8887.77006267
8885.08164881
8881.87559021
8878.08923787
8873.64556084
8868.44984277
8862.38698704
8855.32268639
8847.11518677
8837.58213867
8825.90279391
7671.57351699
1280.08110394
-0.000773534042059
8901.2335811
8900.80404536
8900.21448946
8899.27128549
8897.98556511
8896.33794434
8894.29776566
8891.82581587
8888.8734625
8885.38044915
8881.2719495
8876.4547994
8870.81372202
8864.21131703
8856.50356099
8847.55506396
8836.71487314
7767.11452944
1383.1037472
0.0037804689864
8907.42438315
8907.04006683
8906.52324226
8905.67965302
8904.52973472
8903.05635537
8901.23053134
8899.01641946
8896.36970371
8893.23507801
8889.54302062
8885.2055085
8880.11076336
8874.11942342
8867.07677446
8858.89045442
8849.35638334
7879.45558352
1514.23255903
0.00660093568901
8913.88508415
8913.55025794
8913.11613909
8912.3824466
8911.38527839
8910.11007631
8908.52817848
8906.60929339
8904.31572511
8901.59996172
8898.40130562
8894.64170923
8890.21910751
8884.99788399
8878.79653602
8871.46155882
8863.7883669
8006.5481673
1678.00797457
0.00538386045769
)
;
    }
    sides
    {
        type            fixedFluxPressure;
        gradient        nonuniform List<scalar> 0();
        value           nonuniform List<scalar> 0();
    }
    bottom
    {
        type            fixedFluxPressure;
        gradient        uniform 0;
        value           nonuniform List<scalar> 7(8879.67665213 8884.54790738 8889.77408692 8895.34215189 8901.2335811 8907.42438315 8913.88508415);
    }
    front
    {
        type            fixedFluxPressure;
        gradient        uniform 0;
        value           nonuniform List<scalar> 
166
(
8858.81646844
8855.12566045
8850.82900712
8845.86894257
8840.17711172
8833.67869949
8826.29436078
8817.92505027
8808.35527005
8796.93932434
7444.91898216
1064.75094537
-0.0277080247615
8868.7816897
8866.17955314
8863.05595428
8859.36585181
8855.05557306
8850.06112154
8844.30587531
8837.70318228
8830.15868221
8821.56328825
8811.69225322
8799.80077401
7460.43670134
1077.77689299
-0.0225931405743
8879.67665213
8879.11235317
8875.51018542
8873.43310152
8870.87556023
8867.7982885
8864.15306964
8859.8818365
8854.91489866
8849.16839515
8842.5449696
8834.9359267
8826.21990433
8816.16140922
8803.92640489
7489.31000935
1103.21397307
-0.0170140144808
8884.54790738
8884.009461
8883.26388443
8882.10693229
8880.53381639
8878.52295024
8876.04268005
8873.05199033
8869.50042462
8865.32677092
8860.45697802
8854.80141722
8848.25411594
8840.69434355
8831.99031684
8821.90892209
8809.59032786
7533.36526571
1143.50440165
-0.0115524374172
8889.77408692
8889.26693465
8888.56312247
8887.46231506
8885.96395568
8884.04662281
8881.67805319
8878.8166005
8875.41081293
8871.39783782
8866.70104286
8861.22703788
8854.86386294
8847.48237956
8838.94378915
8829.03318874
8816.8876736
7593.7989346
1201.49805081
-0.00604537634744
8895.34215189
8894.87144974
8894.21959211
8893.19020326
8891.78784865
8889.99176728
8887.77006267
8885.08164881
8881.87559021
8878.08923787
8873.64556084
8868.44984277
8862.38698704
8855.32268639
8847.11518677
8837.58213867
8825.90279391
7671.57351699
1280.08110394
-0.000773534042059
8901.2335811
8900.80404536
8900.21448946
8899.27128549
8897.98556511
8896.33794434
8894.29776566
8891.82581587
8888.8734625
8885.38044915
8881.2719495
8876.4547994
8870.81372202
8864.21131703
8856.50356099
8847.55506396
8836.71487314
7767.11452944
1383.1037472
0.0037804689864
8907.42438315
8907.04006683
8906.52324226
8905.67965302
8904.52973472
8903.05635537
8901.23053134
8899.01641946
8896.36970371
8893.23507801
8889.54302062
8885.2055085
8880.11076336
8874.11942342
8867.07677446
8858.89045442
8849.35638334
7879.45558352
1514.23255903
0.00660093568901
8913.88508415
8913.55025794
8913.11613909
8912.3824466
8911.38527839
8910.11007631
8908.52817848
8906.60929339
8904.31572511
8901.59996172
8898.40130562
8894.64170923
8890.21910751
8884.99788399
8878.79653602
8871.46155882
8863.7883669
8006.5481673
1678.00797457
0.00538386045769
)
;
    }
    atmosphere
    {
        type            totalPressure;
        rho             rho;
        psi             none;
        gamma           1;
        p0              uniform 0;
        value           nonuniform List<scalar> 9(-0.00646350899137 -0.00524354576009 -0.00406712833166 -0.00298295624406 -0.00203132219383 -0.00124610671347 -0.000655777879393 -0.000267631723591 -6.86685355437e-05);
    }
    floatingObject
    {
        type            fixedFluxPressure;
        gradient        nonuniform List<scalar> 0();
        value           nonuniform List<scalar> 0();
    }
    procBoundary0to1
    {
        type            processor;
        value           nonuniform List<scalar> 10(8842.3015043 8836.73447959 8830.41017204 8823.26472063 8815.20607206 8806.02980303 8795.19768997 7440.69395906 1061.87913395 -0.0325151002485);
    }
    procBoundary0to2
    {
        type            processor;
        value           nonuniform List<scalar> 
14
(
8855.063135
8851.41091196
8847.17380167
8864.56586485
8861.94947381
8861.94947381
8875.16850397
8874.5835776
8870.89891312
8870.89891312
8878.33533914
8878.33533914
8877.13732394
8877.13732394
)
;
    }
    procBoundary0to4
    {
        type            processor;
        value           nonuniform List<scalar> 8(8920.58181852 8920.30561392 8919.95733215 8919.33876205 8918.50922254 8917.45547197 8916.14176256 8914.54963608);
    }
    procBoundary0to5
    {
        type            processor;
        value           nonuniform List<scalar> 
12
(
8912.64955891
8910.40529913
8907.7680874
8904.67621582
8901.04640917
8896.77109141
8891.68497302
8885.14552944
8879.66443998
8144.10910206
1876.87631119
-0.00504531651476
)
;
    }
}


// ************************************************************************* //
