/*--------------------------------*- C++ -*----------------------------------*\
| =========                 |                                                 |
| \\      /  F ield         | OpenFOAM: The Open Source CFD Toolbox           |
|  \\    /   O peration     | Version:  v2012                                 |
|   \\  /    A nd           | Website:  www.openfoam.com                      |
|    \\/     M anipulation  |                                                 |
\*---------------------------------------------------------------------------*/
FoamFile
{
    version     2.0;
    format      ascii;
    class       volVectorField;
    location    "1.1";
    object      U;
}
// * * * * * * * * * * * * * * * * * * * * * * * * * * * * * * * * * * * * * //

dimensions      [0 1 -1 0 0 0 0];


internalField   nonuniform List<vector> 
166
(
(0.125615126407 -0.0355935606218 -1.18299117385e-23)
(0.128965064354 -0.0407801114161 -1.12802863669e-23)
(0.132780970165 -0.0461254304376 -1.9692302716e-23)
(0.137082506689 -0.0516540564374 6.02079628931e-24)
(0.141891575973 -0.057406034422 -5.13813903434e-23)
(0.147222391987 -0.0634098513503 5.53574080945e-23)
(0.153085718846 -0.0696041012954 2.64670714639e-22)
(0.159432583249 -0.0760262942513 6.92539782175e-22)
(0.16588370717 -0.0831315041233 1.07332126238e-21)
(0.171612011056 -0.0923487772978 -1.44289139669e-21)
(0.174537670074 -0.105457685241 -3.49902179808e-21)
(0.176732295692 -0.107192478057 -1.18553407948e-21)
(0.145477135605 -0.113704614908 -9.44250816117e-22)
(0.124924191514 -0.0233125264545 -2.89935268144e-23)
(0.127488180438 -0.027802887254 -3.48701226454e-23)
(0.130507767955 -0.0323974841709 -3.28683103643e-23)
(0.133997528532 -0.0371140680528 -1.68055749918e-23)
(0.137975121272 -0.0419711097944 -2.48762711955e-23)
(0.142462656502 -0.0469896528773 -1.88196509436e-23)
(0.147485523996 -0.0522042677083 -1.08986905685e-22)
(0.153064070607 -0.0576417753138 5.09216186867e-23)
(0.159215526417 -0.063251780461 2.1597273512e-22)
(0.165888517286 -0.0690393967778 7.37547032767e-23)
(0.172720444324 -0.0753252874717 -2.01945037883e-22)
(0.178911790579 -0.0838564583896 -4.33785000876e-21)
(0.182196010972 -0.0973881917591 -2.54766014777e-21)
(0.18334383159 -0.0979072431529 5.60072049022e-22)
(0.151489219127 -0.10241221495 8.00700933574e-23)
(0.118481288087 -0.0025024628163 -1.34905664744e-22)
(0.122423210104 -0.00509803608282 1.18697132788e-21)
(0.1269576464 -0.0169734224967 -2.50098129177e-23)
(0.129152415289 -0.0209257732555 -1.50821775899e-23)
(0.131805735796 -0.0249572114009 -1.91790598118e-23)
(0.134930639604 -0.0290792681343 -3.23996737016e-23)
(0.138542536537 -0.0333063954553 -2.85348757848e-23)
(0.142660566924 -0.0376535710167 -1.51607138908e-23)
(0.147308880752 -0.042137623957 -4.00985382709e-23)
(0.152515877628 -0.0467866817491 -4.32216451255e-23)
(0.15830778361 -0.0516241236829 3.88390972161e-23)
(0.164708650601 -0.0566082005985 1.40190409663e-22)
(0.171666672705 -0.0617136518332 -1.15444053802e-23)
(0.178834352855 -0.0671146232388 -6.17349225553e-22)
(0.185448089584 -0.0747828582188 -4.87957810359e-21)
(0.189093327468 -0.0886623487186 -3.29506281155e-21)
(0.188873742441 -0.0878981928627 -4.08332522018e-21)
(0.156864942292 -0.0902010964815 -5.39917055232e-21)
(0.121852211506 -0.00224372917611 -1.40344013277e-22)
(0.125969606956 -0.00445102417075 2.66204067223e-21)
(0.127430442611 -0.0080957330754 6.18323726665e-23)
(0.128856702108 -0.0115361073873 -1.46065141792e-22)
(0.130662649134 -0.0149726448104 -4.19269705822e-23)
(0.132921798953 -0.0184629343097 -2.02169761955e-23)
(0.135652024564 -0.0220211771473 -1.31135700134e-23)
(0.138866660537 -0.0256557202661 -2.27145146131e-24)
(0.142581567524 -0.0293774900598 -4.14972684783e-23)
(0.14681670602 -0.0331974168303 -2.20220130425e-23)
(0.1515975599 -0.0371273287879 -3.49315357916e-24)
(0.156954801422 -0.0411879839292 -8.41491364884e-23)
(0.162919660919 -0.0453973311397 8.47789694792e-23)
(0.169522571602 -0.0497191811358 3.1551566328e-22)
(0.17671295158 -0.054101744662 2.58011068475e-22)
(0.184152653134 -0.0585635719783 9.77110154468e-23)
(0.191116970674 -0.0651395834342 -1.16674688379e-20)
(0.195134472879 -0.0792982225097 -5.82855771713e-21)
(0.193164435818 -0.0770449062346 -4.95400881656e-21)
(0.161500250267 -0.0772402460602 -5.69626427244e-21)
(0.124783163845 -0.00197493826587 -8.90329470617e-22)
(0.12906911727 -0.00378826766733 -9.8574234299e-24)
(0.130587476752 -0.00697576784061 -3.48954615707e-22)
(0.13205438352 -0.00994785385331 -2.27759507694e-22)
(0.133905709756 -0.012918471531 -4.85314953449e-23)
(0.136219447318 -0.0159352178521 -1.36383226537e-23)
(0.13901399643 -0.0190087828954 -1.66247807174e-23)
(0.14230244542 -0.0221443651491 -1.33304870823e-24)
(0.146100430917 -0.0253491077248 -3.14188586245e-23)
(0.150427917242 -0.0286294059785 -2.26970702382e-23)
(0.155310758061 -0.0319913942691 2.26917814062e-23)
(0.160780826266 -0.0354476771091 -1.9194876044e-23)
(0.166872984179 -0.0390090720666 5.38379607286e-23)
(0.17362261199 -0.0426418965292 1.06021890179e-22)
(0.18098107775 -0.0462735903313 1.28142328547e-22)
(0.188612168779 -0.04976473046 -1.80745747277e-22)
(0.195822129439 -0.0549937001358 -5.89396728297e-21)
(0.20020443635 -0.0693081867057 -8.90836276651e-21)
(0.196106728995 -0.0653164269165 -1.06703636268e-20)
(0.165301616859 -0.0637448963551 -9.35971648849e-21)
(0.127263228919 -0.00169648429011 -1.35670396737e-21)
(0.13171082738 -0.003112657532 -6.43904964322e-22)
(0.133283377938 -0.00583199636956 -4.74071771524e-22)
(0.13478646534 -0.00832436840009 -2.89234424959e-22)
(0.136676273246 -0.0108192697042 -5.7654218168e-23)
(0.13903527356 -0.0133533870742 -4.38861184911e-24)
(0.141881986696 -0.0159339086745 -7.52650125683e-24)
(0.145228646448 -0.018562922688 -6.28157703567e-25)
(0.149089807958 -0.0212436666466 -3.13268511316e-23)
(0.153484406273 -0.0239776662658 -8.69128922692e-24)
(0.158437456047 -0.0267648283205 1.41900768797e-23)
(0.163980664237 -0.029608981514 -2.16135047926e-23)
(0.170150946827 -0.0325125760366 8.65337221614e-23)
(0.17698733711 -0.0354427342116 1.91463436444e-22)
(0.184443803683 -0.0383142483811 8.08376545422e-23)
(0.192177805359 -0.0408359964498 6.66089748511e-22)
(0.199484126222 -0.0444819331088 1.45089099714e-21)
(0.204196669409 -0.0587610009849 -5.32966875613e-21)
(0.19761473138 -0.0528825551834 -1.0952686244e-20)
(0.168196464328 -0.0499232536608 -9.1264920009e-21)
(0.129283223464 -0.00140852778231 -1.37384104668e-21)
(0.133885852099 -0.00242696293393 2.60473713707e-22)
(0.135508355373 -0.00466900568795 3.39930254237e-22)
(0.137043803295 -0.00667112014008 -7.8749914315e-23)
(0.138966085103 -0.00868238341856 -2.79251773381e-23)
(0.141361976606 -0.0107273051069 -1.64230693768e-23)
(0.14424981463 -0.0128096067257 -1.16090799721e-23)
(0.14764024193 -0.0149284706286 -8.24711609744e-24)
(0.151545722472 -0.0170832976311 -3.39444082786e-23)
(0.155982913466 -0.0192706093248 -1.13238839926e-23)
(0.160974509495 -0.0214837239078 5.19184244876e-24)
(0.166550384836 -0.0237171415424 -3.44498567525e-23)
(0.172747714745 -0.0259636227709 5.79934099589e-23)
(0.179608632073 -0.02818999426 1.15526843205e-22)
(0.187092836993 -0.0303102163232 1.37553284818e-22)
(0.194841726801 -0.0319093194208 -1.7426788931e-21)
(0.202021236733 -0.0337422816622 -1.20904264226e-20)
(0.20702385598 -0.0477257260254 -3.9715226145e-21)
(0.197718767792 -0.0399087902315 5.69041701538e-21)
(0.17022334886 -0.036204409992 4.80528060395e-21)
(0.130835534747 -0.00111087105779 -8.60874030277e-22)
(0.135587064912 -0.0017338835212 -8.74608533034e-23)
(0.137253466649 -0.00349099421353 2.06120833162e-22)
(0.138819057157 -0.00499196370722 -4.32918341149e-23)
(0.140769095546 -0.00651349052559 -2.46094916407e-23)
(0.143195008065 -0.00806519117566 -2.15138856238e-23)
(0.146114828255 -0.00964728000693 -2.12191746827e-23)
(0.149536698076 -0.0112564914376 -3.41627087889e-23)
(0.153469895006 -0.0128887119365 -3.36168590154e-23)
(0.157927305653 -0.0145356353801 -2.56449148926e-23)
(0.162927531278 -0.0161838711041 -2.72368218626e-23)
(0.168496396565 -0.0178180716748 -4.69199662151e-23)
(0.174668868772 -0.0194193520513 4.30356975217e-23)
(0.181489719456 -0.0209514418356 1.50673644773e-22)
(0.188934082965 -0.0223445777453 -3.47425485599e-22)
(0.196637329511 -0.0231556720675 -5.65725682542e-22)
(0.203382256238 -0.0229948406107 -2.85202673886e-21)
(0.208658623866 -0.0363048638727 -4.64104538171e-21)
(0.196544901217 -0.026689519105 -1.51358453905e-21)
(0.171581171665 -0.0230809593554 -2.05533195472e-21)
(0.131913837315 -0.000802837273208 -9.40360352021e-22)
(0.136807123559 -0.00103624777614 9.41018722832e-22)
(0.138509737887 -0.00230051803779 9.58024318226e-23)
(0.14010726052 -0.00328741369117 -3.88233785859e-23)
(0.142081477305 -0.00431601723558 -1.87420278819e-23)
(0.144532328776 -0.00537308010198 -2.01850934198e-23)
(0.14747776272 -0.00645588304876 -4.99055806942e-24)
(0.150921748061 -0.00755974877624 -2.88193214349e-23)
(0.154869901682 -0.00867778420612 -3.64006219408e-23)
(0.159328889137 -0.00979743210539 -2.53639475929e-23)
(0.164311877507 -0.0108989619782 -5.73971224002e-23)
(0.169837082222 -0.0119571475778 -6.69789969776e-23)
(0.175933407173 -0.01293873934 3.59182557774e-23)
(0.182643392584 -0.013795253517 2.35293493544e-22)
(0.189972828201 -0.0144806303102 -2.81798685493e-22)
(0.19764286449 -0.0147833024446 -1.35663849548e-21)
(0.203574814884 -0.0125221247155 -1.10528167715e-20)
(0.20917815237 -0.0246523947622 -2.69369763923e-21)
(0.194351905745 -0.0135726460246 5.14317444918e-21)
(0.172860064892 -0.0115027172831 4.10115510184e-21)
)
;

boundaryField
{
    back
    {
        type            noSlip;
    }
    sides
    {
        type            noSlip;
    }
    bottom
    {
        type            noSlip;
    }
    front
    {
        type            noSlip;
    }
    atmosphere
    {
        type            pressureInletOutletVelocity;
        value           nonuniform List<vector> 9((0 -0.113704614908 0) (0 -0.10241221495 0) (0 -0.0902010964815 0) (0 -0.0772402460602 0) (0 -0.0637448963551 0) (0 -0.0499232536608 0) (0 -0.036204409992 0) (0 -0.0230809593554 0) (0 -0.0115027172831 0));
    }
    floatingObject
    {
        type            movingWallVelocity;
        value           nonuniform List<vector> 0();
    }
    procBoundary0to1
    {
        type            processor;
        value           nonuniform List<vector> 10((0.131196284651 -0.0561052256052 4.59690645463e-23) (0.135766474491 -0.0623624653971 -8.82183526333e-24) (0.140821322012 -0.068895154596 1.80660592355e-23) (0.146365621013 -0.0756291286843 7.30667179202e-23) (0.152353910295 -0.0826351129313 2.8724294108e-22) (0.158393262794 -0.0904938669478 -1.57127154657e-22) (0.163643123316 -0.10026877792 -5.59861592266e-21) (0.166215365173 -0.11287283825 -1.01307235716e-20) (0.169165237455 -0.115714556314 -6.2109236908e-21) (0.138909737902 -0.124176967021 -5.50879069789e-21));
    }
    procBoundary0to2
    {
        type            processor;
        value           nonuniform List<vector> 
14
(
(0.120272755718 -0.0386520775709 2.2761093803e-24)
(0.123467031297 -0.0442859249026 -2.06075517595e-23)
(0.127102556792 -0.0500945918431 -1.6261770945e-23)
(0.120252414635 -0.0256123623441 -2.44773454498e-23)
(0.122715346297 -0.0305444323718 -2.72647524652e-23)
(0.122715346297 -0.0305444323718 -2.72647524652e-23)
(0.114682871663 -0.00275052495156 -1.2340840137e-21)
(0.118442581231 -0.00572624772721 -1.10772313528e-22)
(0.122803408903 -0.0189121338706 -1.95435733869e-23)
(0.122803408903 -0.0189121338706 -1.95435733869e-23)
(0.123823449123 -0.00918705634473 1.62969560492e-22)
(0.123823449123 -0.00918705634473 1.62969560492e-22)
(0.125204261994 -0.0130826868233 -9.22817876945e-23)
(0.125204261994 -0.0130826868233 -9.22817876945e-23)
)
;
    }
    procBoundary0to4
    {
        type            processor;
        value           nonuniform List<vector> 8((0.132526645431 -0.000483842837201 -4.39823104458e-22) (0.137535789558 -0.000333589571185 -7.39220444638e-24) (0.139267886949 -0.0010933462714 -1.42431565812e-22) (0.140909570185 -0.00155363427491 -3.79620257785e-23) (0.142900912205 -0.00209246906686 -3.03794564953e-23) (0.145373326469 -0.00265498778538 -2.44521641262e-23) (0.148342086079 -0.00324152518326 -4.30791020313e-24) (0.15180288298 -0.00384732462814 -3.81830803188e-24));
    }
    procBoundary0to5
    {
        type            processor;
        value           nonuniform List<vector> 
12
(
(0.155758876899 -0.00446408641675 -6.97778147391e-24)
(0.16020607227 -0.00507593652529 -1.6217146858e-23)
(0.165153245603 -0.00565796431646 -3.23382265501e-23)
(0.170604953546 -0.00617696731728 -2.97698502169e-23)
(0.176578349848 -0.00658487217549 1.68629241231e-23)
(0.183099462245 -0.00680423894786 9.32812007852e-23)
(0.190142355075 -0.00673379965273 -7.73343046969e-23)
(0.197926254714 -0.00696487942841 -1.02931424736e-21)
(0.202879140538 -0.00260484828388 5.46382472012e-22)
(0.208740611709 -0.0129525606373 -1.58636833649e-21)
(0.191481810586 -0.00107150149015 -3.35856892562e-21)
(0.172722379815 -0.00264523532195 -3.57999138127e-21)
)
;
    }
}


// ************************************************************************* //
