/*--------------------------------*- C++ -*----------------------------------*\
| =========                 |                                                 |
| \\      /  F ield         | OpenFOAM: The Open Source CFD Toolbox           |
|  \\    /   O peration     | Version:  v2012                                 |
|   \\  /    A nd           | Website:  www.openfoam.com                      |
|    \\/     M anipulation  |                                                 |
\*---------------------------------------------------------------------------*/
FoamFile
{
    version     2.0;
    format      ascii;
    class       volScalarField;
    location    "4.8";
    object      ddt0(k);
}
// * * * * * * * * * * * * * * * * * * * * * * * * * * * * * * * * * * * * * //

dimensions      [0 2 -3 0 0 0 0];


internalField   nonuniform List<scalar> 
164
(
-0.000547711871164
-0.000675996853815
-0.000718659425457
-0.000736149918089
-0.000741891964379
-0.000734672131475
-0.000707882480498
-0.000675391372514
-0.000636292735411
-0.000640830727617
-0.000685683409641
-0.000884654885867
-0.000905355739882
-0.0011274092997
-0.000552970475213
-0.000680665414251
-0.000723354879757
-0.000741611480052
-0.000750632188907
-0.000755086972706
-0.00075647170783
-0.000759775606344
-0.000754550692685
-0.000764471147437
-0.000787549825681
-0.00082148867091
-0.000844892838711
-0.0010264234878
-0.000558518911455
-0.000685677794267
-0.0007282014047
-0.000746597857821
-0.000756683341909
-0.000763933458599
-0.000770117318225
-0.000775877810614
-0.000784055905208
-0.000796281626094
-0.00081441715813
-0.000831890845396
-0.000849136071882
-0.000979133036116
-0.000563954910866
-0.000691025454479
-0.000733384799286
-0.000751659643614
-0.000761865531057
-0.000769663534344
-0.000776886922705
-0.000784090708607
-0.000793042041253
-0.000805308010847
-0.000821641862761
-0.000838720762202
-0.000861189456658
-0.000957008590489
-0.000569279651606
-0.00069643219826
-0.000738627765083
-0.000756629807352
-0.000766518027071
-0.000774088197124
-0.000781360934561
-0.000788906199467
-0.000797435158102
-0.000808158484841
-0.000821373035092
-0.000836509844328
-0.000861539854611
-0.000942307178651
-0.000574396031245
-0.000701775084367
-0.000743837602112
-0.000761449392551
-0.000770944686001
-0.000778085590853
-0.000784937798397
-0.000792168202477
-0.000800135896207
-0.000809440745713
-0.000820363463441
-0.000834149728671
-0.000859961012339
-0.000934111349201
-0.00057916966481
-0.000706979976029
-0.000748880584518
-0.000766088534013
-0.00077509972933
-0.000781794942805
-0.000788150968444
-0.000794880084014
-0.000802243301896
-0.000810566615608
-0.000820420695144
-0.000834099339365
-0.000861984045356
-0.000937236631915
-0.000583496509632
-0.000711935397713
-0.000753665743387
-0.00077047480577
-0.000779011296031
-0.000785215996038
-0.000791122236914
-0.000797363962631
-0.000804188316397
-0.000811872212806
-0.000821294450067
-0.000836045170347
-0.000868752674509
-0.000953505721663
-0.000587495677453
-0.000716521035743
-0.000758143864677
-0.000774557732711
-0.000782654852247
-0.000788414502007
-0.000793888068761
-0.000799727267213
-0.000806153367924
-0.000813483008011
-0.000822878787367
-0.000839070567711
-0.000876493734607
-0.000969090484578
-0.000590951815182
-0.000720725326482
-0.000762261169593
-0.000778308287107
-0.000786003045842
-0.000791376921176
-0.000796479421113
-0.00080198560977
-0.000808106581088
-0.000815139595444
-0.00082438129129
-0.000840992670168
-0.000879922357554
-0.000972748878542
-0.000594043223326
-0.000724503702065
-0.000765994964203
-0.000781707368034
-0.000789032807553
-0.000794063836249
-0.000798851535684
-0.00080406972726
-0.000809958380576
-0.000816713282149
-0.000825619570057
-0.000841703536405
-0.000879711851821
-0.000969608407297
-0.00081155989026
-0.000818178710608
-0.000826842835325
-0.000842598771166
-0.000880208503195
-0.000970173263276
-0.000843657522506
-0.0008810036238
-0.000970857913252
-0.000963791837716
)
;

boundaryField
{
    back
    {
        type            calculated;
        value           nonuniform List<scalar> 
164
(
-0.000547711871164
-0.000675996853815
-0.000718659425457
-0.000736149918089
-0.000741891964379
-0.000734672131475
-0.000707882480498
-0.000675391372514
-0.000636292735411
-0.000640830727617
-0.000685683409641
-0.000884654885867
-0.000905355739882
-0.0011274092997
-0.000552970475213
-0.000680665414251
-0.000723354879757
-0.000741611480052
-0.000750632188907
-0.000755086972706
-0.00075647170783
-0.000759775606344
-0.000754550692685
-0.000764471147437
-0.000787549825681
-0.00082148867091
-0.000844892838711
-0.0010264234878
-0.000558518911455
-0.000685677794267
-0.0007282014047
-0.000746597857821
-0.000756683341909
-0.000763933458599
-0.000770117318225
-0.000775877810614
-0.000784055905208
-0.000796281626094
-0.00081441715813
-0.000831890845396
-0.000849136071882
-0.000979133036116
-0.000563954910866
-0.000691025454479
-0.000733384799286
-0.000751659643614
-0.000761865531057
-0.000769663534344
-0.000776886922705
-0.000784090708607
-0.000793042041253
-0.000805308010847
-0.000821641862761
-0.000838720762202
-0.000861189456658
-0.000957008590489
-0.000569279651606
-0.00069643219826
-0.000738627765083
-0.000756629807352
-0.000766518027071
-0.000774088197124
-0.000781360934561
-0.000788906199467
-0.000797435158102
-0.000808158484841
-0.000821373035092
-0.000836509844328
-0.000861539854611
-0.000942307178651
-0.000574396031245
-0.000701775084367
-0.000743837602112
-0.000761449392551
-0.000770944686001
-0.000778085590853
-0.000784937798397
-0.000792168202477
-0.000800135896207
-0.000809440745713
-0.000820363463441
-0.000834149728671
-0.000859961012339
-0.000934111349201
-0.00057916966481
-0.000706979976029
-0.000748880584518
-0.000766088534013
-0.00077509972933
-0.000781794942805
-0.000788150968444
-0.000794880084014
-0.000802243301896
-0.000810566615608
-0.000820420695144
-0.000834099339365
-0.000861984045356
-0.000937236631915
-0.000583496509632
-0.000711935397713
-0.000753665743387
-0.00077047480577
-0.000779011296031
-0.000785215996038
-0.000791122236914
-0.000797363962631
-0.000804188316397
-0.000811872212806
-0.000821294450067
-0.000836045170347
-0.000868752674509
-0.000953505721663
-0.000587495677453
-0.000716521035743
-0.000758143864677
-0.000774557732711
-0.000782654852247
-0.000788414502007
-0.000793888068761
-0.000799727267213
-0.000806153367924
-0.000813483008011
-0.000822878787367
-0.000839070567711
-0.000876493734607
-0.000969090484578
-0.000590951815182
-0.000720725326482
-0.000762261169593
-0.000778308287107
-0.000786003045842
-0.000791376921176
-0.000796479421113
-0.00080198560977
-0.000808106581088
-0.000815139595444
-0.00082438129129
-0.000840992670168
-0.000879922357554
-0.000972748878542
-0.000594043223326
-0.000724503702065
-0.000765994964203
-0.000781707368034
-0.000789032807553
-0.000794063836249
-0.000798851535684
-0.00080406972726
-0.000809958380576
-0.000816713282149
-0.000825619570057
-0.000841703536405
-0.000879711851821
-0.000969608407297
-0.00081155989026
-0.000818178710608
-0.000826842835325
-0.000842598771166
-0.000880208503195
-0.000970173263276
-0.000843657522506
-0.0008810036238
-0.000970857913252
-0.000963791837716
)
;
    }
    sides
    {
        type            calculated;
        value           nonuniform List<scalar> 0();
    }
    bottom
    {
        type            calculated;
        value           nonuniform List<scalar> 
11
(
-0.000547711871164
-0.000552970475213
-0.000558518911455
-0.000563954910866
-0.000569279651606
-0.000574396031245
-0.00057916966481
-0.000583496509632
-0.000587495677453
-0.000590951815182
-0.000594043223326
)
;
    }
    front
    {
        type            calculated;
        value           nonuniform List<scalar> 
164
(
-0.000547711871164
-0.000675996853815
-0.000718659425457
-0.000736149918089
-0.000741891964379
-0.000734672131475
-0.000707882480498
-0.000675391372514
-0.000636292735411
-0.000640830727617
-0.000685683409641
-0.000884654885867
-0.000905355739882
-0.0011274092997
-0.000552970475213
-0.000680665414251
-0.000723354879757
-0.000741611480052
-0.000750632188907
-0.000755086972706
-0.00075647170783
-0.000759775606344
-0.000754550692685
-0.000764471147437
-0.000787549825681
-0.00082148867091
-0.000844892838711
-0.0010264234878
-0.000558518911455
-0.000685677794267
-0.0007282014047
-0.000746597857821
-0.000756683341909
-0.000763933458599
-0.000770117318225
-0.000775877810614
-0.000784055905208
-0.000796281626094
-0.00081441715813
-0.000831890845396
-0.000849136071882
-0.000979133036116
-0.000563954910866
-0.000691025454479
-0.000733384799286
-0.000751659643614
-0.000761865531057
-0.000769663534344
-0.000776886922705
-0.000784090708607
-0.000793042041253
-0.000805308010847
-0.000821641862761
-0.000838720762202
-0.000861189456658
-0.000957008590489
-0.000569279651606
-0.00069643219826
-0.000738627765083
-0.000756629807352
-0.000766518027071
-0.000774088197124
-0.000781360934561
-0.000788906199467
-0.000797435158102
-0.000808158484841
-0.000821373035092
-0.000836509844328
-0.000861539854611
-0.000942307178651
-0.000574396031245
-0.000701775084367
-0.000743837602112
-0.000761449392551
-0.000770944686001
-0.000778085590853
-0.000784937798397
-0.000792168202477
-0.000800135896207
-0.000809440745713
-0.000820363463441
-0.000834149728671
-0.000859961012339
-0.000934111349201
-0.00057916966481
-0.000706979976029
-0.000748880584518
-0.000766088534013
-0.00077509972933
-0.000781794942805
-0.000788150968444
-0.000794880084014
-0.000802243301896
-0.000810566615608
-0.000820420695144
-0.000834099339365
-0.000861984045356
-0.000937236631915
-0.000583496509632
-0.000711935397713
-0.000753665743387
-0.00077047480577
-0.000779011296031
-0.000785215996038
-0.000791122236914
-0.000797363962631
-0.000804188316397
-0.000811872212806
-0.000821294450067
-0.000836045170347
-0.000868752674509
-0.000953505721663
-0.000587495677453
-0.000716521035743
-0.000758143864677
-0.000774557732711
-0.000782654852247
-0.000788414502007
-0.000793888068761
-0.000799727267213
-0.000806153367924
-0.000813483008011
-0.000822878787367
-0.000839070567711
-0.000876493734607
-0.000969090484578
-0.000590951815182
-0.000720725326482
-0.000762261169593
-0.000778308287107
-0.000786003045842
-0.000791376921176
-0.000796479421113
-0.00080198560977
-0.000808106581088
-0.000815139595444
-0.00082438129129
-0.000840992670168
-0.000879922357554
-0.000972748878542
-0.000594043223326
-0.000724503702065
-0.000765994964203
-0.000781707368034
-0.000789032807553
-0.000794063836249
-0.000798851535684
-0.00080406972726
-0.000809958380576
-0.000816713282149
-0.000825619570057
-0.000841703536405
-0.000879711851821
-0.000969608407297
-0.00081155989026
-0.000818178710608
-0.000826842835325
-0.000842598771166
-0.000880208503195
-0.000970173263276
-0.000843657522506
-0.0008810036238
-0.000970857913252
-0.000963791837716
)
;
    }
    atmosphere
    {
        type            calculated;
        value           nonuniform List<scalar> 0();
    }
    floatingObject
    {
        type            calculated;
        value           nonuniform List<scalar> 4(-0.000636292735411 -0.000640830727617 -0.000685683409641 -0.000884654885867);
    }
    procBoundary8to3
    {
        type            processor;
        value           nonuniform List<scalar> 8(-0.000543032252844 -0.000672323493943 -0.000715044660324 -0.000731029377146 -0.000733400355374 -0.000723301384442 -0.000690776241011 -0.000613716805674);
    }
    procBoundary8to6
    {
        type            processor;
        value           nonuniform List<scalar> 
16
(
-0.000882413315564
-0.00118753167731
-0.00152423516544
-0.00140805430978
-0.00132848179566
-0.00126868606393
-0.00122691671922
-0.00118737271113
-0.00117260617123
-0.00119203513554
-0.00120200007899
-0.00118756684793
-0.00117041394961
-0.00116792393967
-0.00116694338152
-0.00114977031179
)
;
    }
    procBoundary8to7
    {
        type            processor;
        value           nonuniform List<scalar> 
17
(
-0.000596674435961
-0.000727869825866
-0.00076933294671
-0.000784742260187
-0.000791726185461
-0.000796446176062
-0.000800954505017
-0.000805914799785
-0.000805914799785
-0.000812944822916
-0.00081939558118
-0.000828040508292
-0.000828040508292
-0.000843734630301
-0.000879051068515
-0.000879051068515
-0.000947434394481
)
;
    }
}


// ************************************************************************* //
