/*--------------------------------*- C++ -*----------------------------------*\
| =========                 |                                                 |
| \\      /  F ield         | OpenFOAM: The Open Source CFD Toolbox           |
|  \\    /   O peration     | Version:  v2012                                 |
|   \\  /    A nd           | Website:  www.openfoam.com                      |
|    \\/     M anipulation  |                                                 |
\*---------------------------------------------------------------------------*/
FoamFile
{
    version     2.0;
    format      ascii;
    class       volScalarField;
    location    "4.8";
    object      rAU;
}
// * * * * * * * * * * * * * * * * * * * * * * * * * * * * * * * * * * * * * //

dimensions      [-1 3 1 0 0 0 0];


internalField   nonuniform List<scalar> 
164
(
2.20409061206e-05
2.18962171506e-05
2.18698692267e-05
2.18607040049e-05
2.18530174885e-05
2.1846994256e-05
2.18584867261e-05
2.18393436283e-05
2.19799244717e-05
2.19351860453e-05
2.18602039264e-05
2.1882693832e-05
2.1855977554e-05
2.17653621132e-05
2.20405597958e-05
2.18962656622e-05
2.18714944253e-05
2.18645051857e-05
2.18513007432e-05
2.1845847074e-05
2.1852843685e-05
2.18422667105e-05
2.18479468432e-05
2.18172087368e-05
2.18345849433e-05
2.18128719532e-05
2.17761469941e-05
2.17571168474e-05
2.2040253937e-05
2.18955794731e-05
2.18705806005e-05
2.18642041731e-05
2.18607958495e-05
2.18576630856e-05
2.18531367167e-05
2.18358309312e-05
2.18294764078e-05
2.18296688922e-05
2.18303095253e-05
2.18289457002e-05
2.17431035586e-05
2.17500012785e-05
2.20399744775e-05
2.18949271786e-05
2.18697576558e-05
2.18630831701e-05
2.18591893154e-05
2.18568767216e-05
2.18532168917e-05
2.1840300507e-05
2.18264200348e-05
2.18183477114e-05
2.1822337368e-05
2.18118234925e-05
2.17961567503e-05
2.17659075497e-05
2.20395543346e-05
2.18941697207e-05
2.18687290928e-05
2.18620925694e-05
2.18579904715e-05
2.18554621124e-05
2.18535582847e-05
2.18525979158e-05
2.18521934212e-05
2.18181789714e-05
2.18034033257e-05
2.18172969284e-05
2.18053668986e-05
2.1782502571e-05
2.20391385576e-05
2.18933865489e-05
2.18677203515e-05
2.18614065241e-05
2.18574961586e-05
2.18551600478e-05
2.1853602148e-05
2.18543996349e-05
2.18622171722e-05
2.18456303829e-05
2.18210779522e-05
2.18177137271e-05
2.18163079365e-05
2.18048579805e-05
2.20389390033e-05
2.18926541572e-05
2.18668557529e-05
2.18608828576e-05
2.18570173973e-05
2.18546099154e-05
2.18530379287e-05
2.18529213611e-05
2.1855220432e-05
2.18511238483e-05
2.18362035694e-05
2.18250693487e-05
2.18256028848e-05
2.18396613063e-05
2.20387511966e-05
2.18919923316e-05
2.1866064829e-05
2.18603605351e-05
2.18565493754e-05
2.18541087488e-05
2.18525331192e-05
2.18514106066e-05
2.18511163178e-05
2.18483882908e-05
2.18398951801e-05
2.18321947939e-05
2.1832195849e-05
2.17973807803e-05
2.20384535612e-05
2.18913319901e-05
2.18652777455e-05
2.18598291266e-05
2.1856179712e-05
2.18538237769e-05
2.18521989285e-05
2.18507197874e-05
2.18494269446e-05
2.18469251371e-05
2.18413420267e-05
2.18360482855e-05
2.18295029682e-05
2.17858635658e-05
2.20381559205e-05
2.18906872741e-05
2.18645666814e-05
2.18594008003e-05
2.185592198e-05
2.18537781246e-05
2.18524724816e-05
2.18511474371e-05
2.18496142283e-05
2.18464839949e-05
2.18413192029e-05
2.18362040456e-05
2.18252491563e-05
2.17914467468e-05
2.2037909987e-05
2.18902700668e-05
2.18641487438e-05
2.18592676603e-05
2.18558616173e-05
2.18538041306e-05
2.18529525476e-05
2.1852311014e-05
2.18512137695e-05
2.18485394771e-05
2.18408421358e-05
2.18230491375e-05
2.18092867431e-05
2.17870979583e-05
2.18530733855e-05
2.18533769453e-05
2.18507445779e-05
2.18157896796e-05
2.17758908886e-05
2.17592217106e-05
2.18183322256e-05
2.17557110269e-05
2.1760244319e-05
2.17928237142e-05
)
;

boundaryField
{
    back
    {
        type            calculated;
        value           nonuniform List<scalar> 
164
(
2.20409061206e-05
2.18962171506e-05
2.18698692267e-05
2.18607040049e-05
2.18530174885e-05
2.1846994256e-05
2.18584867261e-05
2.18393436283e-05
2.19799244717e-05
2.19351860453e-05
2.18602039264e-05
2.1882693832e-05
2.1855977554e-05
2.17653621132e-05
2.20405597958e-05
2.18962656622e-05
2.18714944253e-05
2.18645051857e-05
2.18513007432e-05
2.1845847074e-05
2.1852843685e-05
2.18422667105e-05
2.18479468432e-05
2.18172087368e-05
2.18345849433e-05
2.18128719532e-05
2.17761469941e-05
2.17571168474e-05
2.2040253937e-05
2.18955794731e-05
2.18705806005e-05
2.18642041731e-05
2.18607958495e-05
2.18576630856e-05
2.18531367167e-05
2.18358309312e-05
2.18294764078e-05
2.18296688922e-05
2.18303095253e-05
2.18289457002e-05
2.17431035586e-05
2.17500012785e-05
2.20399744775e-05
2.18949271786e-05
2.18697576558e-05
2.18630831701e-05
2.18591893154e-05
2.18568767216e-05
2.18532168917e-05
2.1840300507e-05
2.18264200348e-05
2.18183477114e-05
2.1822337368e-05
2.18118234925e-05
2.17961567503e-05
2.17659075497e-05
2.20395543346e-05
2.18941697207e-05
2.18687290928e-05
2.18620925694e-05
2.18579904715e-05
2.18554621124e-05
2.18535582847e-05
2.18525979158e-05
2.18521934212e-05
2.18181789714e-05
2.18034033257e-05
2.18172969284e-05
2.18053668986e-05
2.1782502571e-05
2.20391385576e-05
2.18933865489e-05
2.18677203515e-05
2.18614065241e-05
2.18574961586e-05
2.18551600478e-05
2.1853602148e-05
2.18543996349e-05
2.18622171722e-05
2.18456303829e-05
2.18210779522e-05
2.18177137271e-05
2.18163079365e-05
2.18048579805e-05
2.20389390033e-05
2.18926541572e-05
2.18668557529e-05
2.18608828576e-05
2.18570173973e-05
2.18546099154e-05
2.18530379287e-05
2.18529213611e-05
2.1855220432e-05
2.18511238483e-05
2.18362035694e-05
2.18250693487e-05
2.18256028848e-05
2.18396613063e-05
2.20387511966e-05
2.18919923316e-05
2.1866064829e-05
2.18603605351e-05
2.18565493754e-05
2.18541087488e-05
2.18525331192e-05
2.18514106066e-05
2.18511163178e-05
2.18483882908e-05
2.18398951801e-05
2.18321947939e-05
2.1832195849e-05
2.17973807803e-05
2.20384535612e-05
2.18913319901e-05
2.18652777455e-05
2.18598291266e-05
2.1856179712e-05
2.18538237769e-05
2.18521989285e-05
2.18507197874e-05
2.18494269446e-05
2.18469251371e-05
2.18413420267e-05
2.18360482855e-05
2.18295029682e-05
2.17858635658e-05
2.20381559205e-05
2.18906872741e-05
2.18645666814e-05
2.18594008003e-05
2.185592198e-05
2.18537781246e-05
2.18524724816e-05
2.18511474371e-05
2.18496142283e-05
2.18464839949e-05
2.18413192029e-05
2.18362040456e-05
2.18252491563e-05
2.17914467468e-05
2.2037909987e-05
2.18902700668e-05
2.18641487438e-05
2.18592676603e-05
2.18558616173e-05
2.18538041306e-05
2.18529525476e-05
2.1852311014e-05
2.18512137695e-05
2.18485394771e-05
2.18408421358e-05
2.18230491375e-05
2.18092867431e-05
2.17870979583e-05
2.18530733855e-05
2.18533769453e-05
2.18507445779e-05
2.18157896796e-05
2.17758908886e-05
2.17592217106e-05
2.18183322256e-05
2.17557110269e-05
2.1760244319e-05
2.17928237142e-05
)
;
    }
    sides
    {
        type            calculated;
        value           nonuniform List<scalar> 0();
    }
    bottom
    {
        type            calculated;
        value           nonuniform List<scalar> 
11
(
2.20409061206e-05
2.20405597958e-05
2.2040253937e-05
2.20399744775e-05
2.20395543346e-05
2.20391385576e-05
2.20389390033e-05
2.20387511966e-05
2.20384535612e-05
2.20381559205e-05
2.2037909987e-05
)
;
    }
    front
    {
        type            calculated;
        value           nonuniform List<scalar> 
164
(
2.20409061206e-05
2.18962171506e-05
2.18698692267e-05
2.18607040049e-05
2.18530174885e-05
2.1846994256e-05
2.18584867261e-05
2.18393436283e-05
2.19799244717e-05
2.19351860453e-05
2.18602039264e-05
2.1882693832e-05
2.1855977554e-05
2.17653621132e-05
2.20405597958e-05
2.18962656622e-05
2.18714944253e-05
2.18645051857e-05
2.18513007432e-05
2.1845847074e-05
2.1852843685e-05
2.18422667105e-05
2.18479468432e-05
2.18172087368e-05
2.18345849433e-05
2.18128719532e-05
2.17761469941e-05
2.17571168474e-05
2.2040253937e-05
2.18955794731e-05
2.18705806005e-05
2.18642041731e-05
2.18607958495e-05
2.18576630856e-05
2.18531367167e-05
2.18358309312e-05
2.18294764078e-05
2.18296688922e-05
2.18303095253e-05
2.18289457002e-05
2.17431035586e-05
2.17500012785e-05
2.20399744775e-05
2.18949271786e-05
2.18697576558e-05
2.18630831701e-05
2.18591893154e-05
2.18568767216e-05
2.18532168917e-05
2.1840300507e-05
2.18264200348e-05
2.18183477114e-05
2.1822337368e-05
2.18118234925e-05
2.17961567503e-05
2.17659075497e-05
2.20395543346e-05
2.18941697207e-05
2.18687290928e-05
2.18620925694e-05
2.18579904715e-05
2.18554621124e-05
2.18535582847e-05
2.18525979158e-05
2.18521934212e-05
2.18181789714e-05
2.18034033257e-05
2.18172969284e-05
2.18053668986e-05
2.1782502571e-05
2.20391385576e-05
2.18933865489e-05
2.18677203515e-05
2.18614065241e-05
2.18574961586e-05
2.18551600478e-05
2.1853602148e-05
2.18543996349e-05
2.18622171722e-05
2.18456303829e-05
2.18210779522e-05
2.18177137271e-05
2.18163079365e-05
2.18048579805e-05
2.20389390033e-05
2.18926541572e-05
2.18668557529e-05
2.18608828576e-05
2.18570173973e-05
2.18546099154e-05
2.18530379287e-05
2.18529213611e-05
2.1855220432e-05
2.18511238483e-05
2.18362035694e-05
2.18250693487e-05
2.18256028848e-05
2.18396613063e-05
2.20387511966e-05
2.18919923316e-05
2.1866064829e-05
2.18603605351e-05
2.18565493754e-05
2.18541087488e-05
2.18525331192e-05
2.18514106066e-05
2.18511163178e-05
2.18483882908e-05
2.18398951801e-05
2.18321947939e-05
2.1832195849e-05
2.17973807803e-05
2.20384535612e-05
2.18913319901e-05
2.18652777455e-05
2.18598291266e-05
2.1856179712e-05
2.18538237769e-05
2.18521989285e-05
2.18507197874e-05
2.18494269446e-05
2.18469251371e-05
2.18413420267e-05
2.18360482855e-05
2.18295029682e-05
2.17858635658e-05
2.20381559205e-05
2.18906872741e-05
2.18645666814e-05
2.18594008003e-05
2.185592198e-05
2.18537781246e-05
2.18524724816e-05
2.18511474371e-05
2.18496142283e-05
2.18464839949e-05
2.18413192029e-05
2.18362040456e-05
2.18252491563e-05
2.17914467468e-05
2.2037909987e-05
2.18902700668e-05
2.18641487438e-05
2.18592676603e-05
2.18558616173e-05
2.18538041306e-05
2.18529525476e-05
2.1852311014e-05
2.18512137695e-05
2.18485394771e-05
2.18408421358e-05
2.18230491375e-05
2.18092867431e-05
2.17870979583e-05
2.18530733855e-05
2.18533769453e-05
2.18507445779e-05
2.18157896796e-05
2.17758908886e-05
2.17592217106e-05
2.18183322256e-05
2.17557110269e-05
2.1760244319e-05
2.17928237142e-05
)
;
    }
    atmosphere
    {
        type            calculated;
        value           nonuniform List<scalar> 0();
    }
    floatingObject
    {
        type            calculated;
        value           nonuniform List<scalar> 4(2.19799244717e-05 2.19351860453e-05 2.18602039264e-05 2.1882693832e-05);
    }
    procBoundary8to3
    {
        type            processor;
        value           nonuniform List<scalar> 8(2.2040714223e-05 2.18959715299e-05 2.18690667618e-05 2.18595602196e-05 2.1859549093e-05 2.18503761619e-05 2.18659031188e-05 2.19847162369e-05);
    }
    procBoundary8to6
    {
        type            processor;
        value           nonuniform List<scalar> 
16
(
2.19146484638e-05
2.17510755131e-05
2.17058550635e-05
2.17201209023e-05
2.17176753628e-05
2.17279488698e-05
2.17425037387e-05
2.17492716066e-05
2.17576790996e-05
2.16913566668e-05
2.17047722249e-05
2.17252339281e-05
2.17173059443e-05
2.17052854158e-05
2.17055136867e-05
2.17370157596e-05
)
;
    }
    procBoundary8to7
    {
        type            processor;
        value           nonuniform List<scalar> 
17
(
2.20378743811e-05
2.18900360101e-05
2.18639088312e-05
2.1859276062e-05
2.18559033253e-05
2.18537438959e-05
2.18530122631e-05
2.18530300226e-05
2.18530300226e-05
2.18546315095e-05
2.18577028808e-05
2.18669446486e-05
2.18669446486e-05
2.18797288035e-05
2.18340025069e-05
2.18340025069e-05
2.17589317186e-05
)
;
    }
}


// ************************************************************************* //
