/*--------------------------------*- C++ -*----------------------------------*\
| =========                 |                                                 |
| \\      /  F ield         | OpenFOAM: The Open Source CFD Toolbox           |
|  \\    /   O peration     | Version:  v2012                                 |
|   \\  /    A nd           | Website:  www.openfoam.com                      |
|    \\/     M anipulation  |                                                 |
\*---------------------------------------------------------------------------*/
FoamFile
{
    version     2.0;
    format      ascii;
    class       volVectorField;
    location    "3.4";
    object      ddtCorrDdt0(U);
}
// * * * * * * * * * * * * * * * * * * * * * * * * * * * * * * * * * * * * * //

dimensions      [0 1 -2 0 0 0 0];


internalField   nonuniform List<vector> 
164
(
(-0.119646281058 -0.0790437613442 -4.54441784146e-22)
(-0.130998573813 -0.0933522322332 -7.01896648911e-22)
(-0.144532766214 -0.109274426657 -8.90979309537e-22)
(-0.160012497725 -0.127295024863 -5.00165796809e-22)
(-0.177260774118 -0.148401707792 -4.31832610482e-22)
(-0.196213435876 -0.173982735749 -5.13835600786e-23)
(-0.21622087144 -0.206034815132 8.15303646351e-23)
(-0.235198841958 -0.246620646167 1.77186282893e-21)
(-0.254148915118 -0.303461351415 7.75330330551e-21)
(-0.262912866027 -0.351401157386 -4.05090917462e-21)
(-0.254501416483 -0.331736365031 -2.6988374887e-20)
(-0.0462445561533 -0.475798839521 -6.92600784079e-19)
(-16.6265898622 -8.71230891337 3.74860872149e-18)
(-0.0779982769407 -0.00473735414994 -2.02825006765e-22)
(-0.0785687317113 -0.0151181964724 4.04369176818e-23)
(-0.0801207695159 -0.0254407720165 1.16353374784e-22)
(-0.0824248488998 -0.0361595466943 -1.4058073671e-23)
(-0.09029040995 -0.0601153867911 -1.26304046656e-22)
(-0.0964663528258 -0.0737669842143 -8.15020479587e-22)
(-0.104600585933 -0.0888735957225 -1.92051337569e-21)
(-0.115028969733 -0.105339012442 -3.45677342247e-21)
(-0.127465155486 -0.12313809051 -4.13042900968e-21)
(-0.141357664729 -0.142647140053 -3.21695057087e-21)
(-0.156141436787 -0.164878552153 -2.5525043362e-21)
(-0.171365712619 -0.191049704678 -9.93022248601e-22)
(-0.185546788344 -0.222066272264 -5.04300502359e-22)
(-0.19567999596 -0.259478306979 2.31104458505e-21)
(-0.202647439952 -0.309957959831 -7.64888459497e-21)
(-0.191160943752 -0.340872361163 2.43626364707e-21)
(-0.170999521881 -0.3196934976 -1.26076174097e-20)
(0.00302254440152 -0.348749542763 -3.3802450753e-20)
(7.36833781963 -1.45178626019 -1.57358257838e-18)
(-0.0675953133676 -0.00503028684953 2.060538145e-22)
(-0.0679303599856 -0.0160389463658 2.11702272366e-22)
(-0.0689427547609 -0.0270540074209 4.08346030589e-23)
(-0.0704046969441 -0.0386233230649 1.72093175943e-22)
(-0.0726197711751 -0.0511215534251 1.07610026772e-22)
(-0.0758053234365 -0.0649202116645 -2.06851771668e-22)
(-0.080547992805 -0.0804243392137 -2.37509936582e-21)
(-0.0874238184552 -0.097627142494 -5.77204921749e-21)
(-0.0969082465966 -0.116201994817 -1.07589662648e-20)
(-0.108501907613 -0.135595086328 -1.27517457483e-20)
(-0.121065121184 -0.15583198859 -8.77741302876e-21)
(-0.133762573268 -0.178166939243 -4.87384021867e-21)
(-0.146245295429 -0.203413412267 1.41898454097e-20)
(-0.156268657957 -0.230986357327 2.1745333906e-20)
(-0.160267818442 -0.261379857198 1.13192260215e-20)
(-0.159312291874 -0.304632254918 2.55954980189e-20)
(-0.137531509169 -0.331856030063 2.58012817624e-20)
(-0.125033122918 -0.317715121241 -6.44298604173e-21)
(-0.0767080900771 -0.404390995477 1.04040643025e-20)
(1.06701187307 0.0984891800042 -1.01971979873e-18)
(-0.0567841895852 -0.00519452123744 6.76868059441e-24)
(-0.0568799059316 -0.0165386011467 -4.3936816937e-24)
(-0.0572958380507 -0.0279417228588 1.71681932947e-22)
(-0.0578422969731 -0.0399848393115 7.70516826444e-22)
(-0.0587102050791 -0.0532102213091 1.68000879488e-21)
(-0.0601775108876 -0.0681348100796 1.52466565329e-21)
(-0.0627020717807 -0.0853896224047 -1.87888467741e-21)
(-0.067635776216 -0.105083074335 -8.81889522457e-21)
(-0.0767930989375 -0.126147163165 -4.48034034553e-20)
(-0.0883148043097 -0.147100767148 -5.21744817711e-20)
(-0.10015359209 -0.167449716535 -4.6116736498e-20)
(-0.1117675186 -0.189581667321 -1.06067075554e-19)
(-0.124074657644 -0.213085156734 8.55193095856e-20)
(-0.132995913909 -0.235430966662 2.5515860245e-19)
(-0.133902119514 -0.256369869306 2.02807405775e-19)
(-0.127541729955 -0.287351112827 1.20541324042e-19)
(-0.100940302224 -0.299882770259 3.67656576023e-20)
(-0.074248389983 -0.288615306945 -4.42213265288e-21)
(-0.0524652322857 -0.308457093513 -4.75880765758e-19)
(-12.000588045 7.89536169791 1.35809896786e-18)
(-0.0458174798976 -0.005222959439 -8.65386329647e-23)
(-0.0456796475167 -0.0165958079903 3.26735229601e-22)
(-0.0454756865848 -0.0280431353169 8.14697226542e-22)
(-0.0450178249175 -0.0401785729438 2.83229262306e-21)
(-0.0444596677264 -0.0535904913289 7.39489902515e-21)
(-0.0439728857076 -0.0689606044059 1.3001879687e-20)
(-0.044153388437 -0.087554885764 4.26493545506e-21)
(-0.0467889546306 -0.110805233864 -4.60123987392e-20)
(-0.0572439491421 -0.1354467262 -4.23284174608e-19)
(-0.0675595453995 -0.157949151797 2.2427838455e-20)
(-0.0780170708416 -0.178137430553 -5.09852091838e-19)
(-0.0856500567233 -0.201315520021 -8.84215997211e-19)
(-0.103414729308 -0.22055735997 -1.43972867871e-19)
(-0.115585923031 -0.235043878909 5.15184732613e-19)
(-0.116077711889 -0.248206014831 8.20149472465e-19)
(-0.110697296202 -0.264869994959 4.78101777361e-19)
(-0.0912736141536 -0.257208566609 1.95278511049e-20)
(-0.0638975907918 -0.223120791927 7.28626290237e-20)
(0.103205672088 -0.252534576858 4.74665859968e-20)
(-25.5068479777 8.90851641273 -1.0859108066e-18)
(-0.0350027598565 -0.00512316982702 3.55400707884e-22)
(-0.0346753637167 -0.0162127580426 1.08949570269e-21)
(-0.0338559201319 -0.0273127179198 3.35295664967e-21)
(-0.0321946597802 -0.0391280880099 8.94877188491e-21)
(-0.0294337060265 -0.0523305160911 2.31813940548e-20)
(-0.0256433531426 -0.0676480663115 1.86924261997e-20)
(-0.0214129677082 -0.0867385145955 -1.29204569196e-19)
(-0.0187361277585 -0.116060527276 -4.48314264653e-19)
(-0.0320592235553 -0.14448565875 -1.45279965104e-18)
(-0.0460375827724 -0.165583856881 -2.03647994435e-19)
(-0.0594073213231 -0.189845475194 1.22576952872e-18)
(-0.0724944576814 -0.219608965756 -6.01394150256e-19)
(-0.100854617697 -0.237535586225 5.70859364581e-19)
(-0.105807158136 -0.232989509166 8.86918969473e-19)
(-0.103502467788 -0.235350655537 1.80347372943e-18)
(-0.0998387387629 -0.255595515205 1.19944679832e-18)
(-0.0917937463752 -0.259229872601 3.46611250755e-19)
(-0.100377934746 -0.240047160524 1.41265628234e-20)
(-0.141048192183 -0.363405349925 8.88645701433e-19)
(-4.71106938272 -27.167874572 -2.96659168723e-18)
(-0.024629431905 -0.00493984649555 6.71474820403e-22)
(-0.0242323904288 -0.0154372505888 2.40108951253e-21)
(-0.0232112946238 -0.0255733778723 8.31128050442e-21)
(-0.0210775405427 -0.0358101119737 2.28187358968e-20)
(-0.0169289228873 -0.0468574510354 4.44566716896e-20)
(-0.0088826919551 -0.0601173219801 -8.50428508891e-20)
(0.00713579647314 -0.0802645488129 -8.64324761972e-19)
(0.0389323266668 -0.119364694234 -2.66416455724e-18)
(-0.00699586055475 -0.163053887368 -2.00742807321e-18)
(-0.0183622956273 -0.191650480949 1.15583144301e-19)
(-0.0200501751443 -0.22968301876 1.55826262801e-18)
(-0.0181860633361 -0.270169958063 7.23498237043e-18)
(-0.14181690579 -0.262459157303 -3.07642291213e-18)
(-0.132203123834 -0.218064658164 5.48694124713e-18)
(-0.09523739713 -0.217908867523 2.96441091414e-18)
(-0.076492228799 -0.247055092444 9.7103562689e-19)
(-0.0577664715861 -0.278876309485 8.40504437672e-20)
(-0.042165709976 -0.295252796779 -1.40546747405e-19)
(-0.152901627196 -0.476122907731 -1.93449609208e-19)
(11.5827557933 -4.14639371415 8.83837249922e-19)
(-0.0147530263135 -0.00474160116719 8.07925715008e-22)
(-0.0144131767597 -0.0147651274679 4.06637101557e-21)
(-0.0135174653728 -0.0241769434836 1.51034556148e-20)
(-0.0115834218339 -0.032873586192 4.20395541273e-20)
(-0.00782349642355 -0.0397664404069 1.18018594361e-19)
(-0.00085937097345 -0.0438384758846 2.15665774576e-19)
(0.0153513765545 -0.0469867976658 3.1985437602e-19)
(0.0510418682028 -0.0202436195647 9.8750177416e-19)
(-0.00532310676682 -0.00459748607372 1.38465673657e-21)
(-0.00520883174927 -0.0141732677105 6.44490481039e-21)
(-0.00483002814358 -0.0227653576013 1.90719887581e-20)
(-0.00393111659788 -0.0301215814086 2.69791783927e-20)
(-0.00224012350182 -0.0357937070864 7.0615031461e-22)
(-8.93614387489e-05 -0.0371286466473 -9.15707216773e-20)
(0.00352442894737 -0.0342092056123 -2.33339945275e-19)
(0.0133371213542 -0.0144542300637 -9.94613274859e-19)
(0.00385109130007 -0.00462495918884 1.3086990237e-21)
(0.00361827335995 -0.0142524352128 6.59871176959e-21)
(0.00302928266444 -0.0228825680713 1.8977522105e-20)
(0.00184197898473 -0.0302369471451 2.58292262651e-20)
(-0.000199390944038 -0.03570885109 -2.59278119441e-22)
(-0.00270742075161 -0.0372817145887 -8.00005293483e-20)
(-0.00633611199052 -0.0344978768998 -2.41846914676e-19)
(-0.0161056003429 -0.0144539384496 -9.93930853009e-19)
(0.0132067691666 -0.00481939059749 4.29834991478e-22)
(0.0127754095317 -0.0149908515609 4.44903661816e-21)
(0.0117170713811 -0.02453718905 1.48535679572e-20)
(0.00955979633574 -0.0333835058674 4.16883405304e-20)
(0.00551271185816 -0.0405619039514 1.20531654298e-19)
(-0.00191185663189 -0.0440905164238 2.19156952921e-19)
(-0.0178613762448 -0.0466870274715 3.34798358348e-19)
(-0.0536702093859 -0.0201798482955 1.05041797478e-18)
)
;

boundaryField
{
    back
    {
        type            calculated;
        value           uniform (0 0 0);
    }
    sides
    {
        type            calculated;
        value           nonuniform List<vector> 0();
    }
    bottom
    {
        type            calculated;
        value           uniform (0 0 0);
    }
    front
    {
        type            calculated;
        value           uniform (0 0 0);
    }
    atmosphere
    {
        type            calculated;
        value           nonuniform List<vector> 7((-21.8818889487 -8.71230891337 3.2292721073e-18) (8.68995511284 -1.45178626019 -1.63748152487e-18) (0.106159877029 0.0984891800042 -8.43655084296e-20) (2.24993157431 7.89536169791 3.39021250183e-19) (-0.245058679811 8.90851641273 -1.05705775258e-18) (5.88547286458 -27.167874572 4.96895527586e-18) (12.2878534987 -4.14639371415 2.43600025672e-18));
    }
    floatingObject
    {
        type            calculated;
        value           nonuniform List<vector> 8((0 3.16573587756e-14 -3.95716984695e-15) (0 0 -3.95716984695e-15) (0 0 0) (0 6.33147175512e-14 -3.95716984695e-15) (-7.9143396939e-15 0 0) (0 0 -3.95716984695e-15) (0 0 -3.95716984695e-15) (0 0 0));
    }
    procBoundary3to4
    {
        type            processor;
        value           nonuniform List<vector> 
13
(
(-0.132452743766 -0.0682626581578 -6.12382431957e-23)
(-0.144706466939 -0.0804039831348 -1.05516354651e-22)
(-0.159336465192 -0.0940676838228 -1.66780549891e-22)
(-0.0876880039408 -0.00430464913807 -3.12023013642e-22)
(-0.0884518084296 -0.0138015216568 -1.13298478054e-22)
(-0.0904734837375 -0.0231509390078 -1.89111961968e-23)
(-0.0934463359605 -0.0328232676068 1.24496282548e-23)
(-0.103202828891 -0.0540788220934 -1.60990215497e-23)
(-0.11044285016 -0.0660459142047 -1.95891392343e-22)
(-0.11044285016 -0.0660459142047 -1.95891392343e-22)
(-0.0857363952429 -0.0476749426468 -6.48765661243e-23)
(-0.0857363952429 -0.0476749426468 -6.48765661243e-23)
(-0.0857363952429 -0.0476749426468 -6.48765661243e-23)
)
;
    }
    procBoundary3to5
    {
        type            processor;
        value           nonuniform List<vector> 10((-0.176520009992 -0.109890667746 -4.80655406079e-23) (-0.196458293126 -0.128659381403 -4.09045644839e-22) (-0.21972676621 -0.151675659278 -1.3387916486e-21) (-0.246542291677 -0.181154156645 -2.64894797054e-22) (-0.276533444315 -0.21856432395 -2.18197482115e-21) (-0.309129962248 -0.275342563273 3.75160182359e-21) (-0.353468225993 -0.325340330203 -1.29919888311e-20) (-0.400975602847 -0.310676538281 -5.84683441919e-20) (-0.423019047925 -0.446203246375 -2.6508528306e-19) (-13.4790377247 0.710009482945 1.14087596214e-18));
    }
    procBoundary3to6
    {
        type            processor;
        value           nonuniform List<vector> 8((-0.146707082015 -0.0640885687469 -8.60214949015e-19) (-0.0954515785204 -0.135633872347 8.35527242942e-19) (-0.0633560937624 -0.178772982596 5.52347702469e-19) (-0.0514448324499 -0.225056908223 4.93835795591e-19) (-0.0164500971535 -0.234975440559 6.10626310274e-20) (0.0415024675198 -0.212656988992 -1.37382221079e-19) (0.203977584315 -0.186978427695 3.91058282393e-20) (18.5888924464 12.4976402341 -3.65287617437e-18));
    }
    procBoundary3to8
    {
        type            processor;
        value           nonuniform List<vector> 8((0.0229118242434 -0.00504743341249 3.45404765627e-22) (0.0224726986445 -0.0157508372638 2.12235289659e-21) (0.0213780446632 -0.0260594517599 8.14161442211e-21) (0.0191681923536 -0.0364262681993 2.33922791262e-20) (0.0149996205144 -0.0475197972969 4.34575647686e-20) (0.00717416415694 -0.0604564239388 -8.76571726363e-20) (-0.00924969096413 -0.0803908552413 -8.60571301463e-19) (-0.0409611733706 -0.119645656537 -2.66471396726e-18));
    }
}


// ************************************************************************* //
