/*--------------------------------*- C++ -*----------------------------------*\
| =========                 |                                                 |
| \\      /  F ield         | OpenFOAM: The Open Source CFD Toolbox           |
|  \\    /   O peration     | Version:  v2012                                 |
|   \\  /    A nd           | Website:  www.openfoam.com                      |
|    \\/     M anipulation  |                                                 |
\*---------------------------------------------------------------------------*/
FoamFile
{
    version     2.0;
    format      ascii;
    class       volScalarField;
    location    "3.4";
    object      nut;
}
// * * * * * * * * * * * * * * * * * * * * * * * * * * * * * * * * * * * * * //

dimensions      [0 2 -1 0 0 0 0];


internalField   nonuniform List<scalar> 
164
(
0.000679123942216
0.000681295259037
0.000683670474018
0.000686322068185
0.000689607242361
0.000695058828949
0.000707817140498
0.000740767881032
0.000814790213116
0.000947590659253
0.00116106649195
0.00154574416075
0.00216715451059
0.000428966076145
0.000637702127634
0.000658664971354
0.000667148718064
0.000673755451423
0.000675915327386
0.000678101251868
0.00068046329723
0.000683036657858
0.000685845386931
0.000689146861545
0.000694190414666
0.000705520154201
0.000736042970572
0.000810157554959
0.000950042483216
0.00118072664585
0.00161705077318
0.00230477931292
0.000427601726138
0.000635838842126
0.000656843091661
0.000665416910152
0.000669585612772
0.000672260771194
0.000674549774855
0.000676883848372
0.00067943190605
0.000682220644046
0.00068522042733
0.000688639243575
0.000693733878818
0.000705066757598
0.000735924129794
0.000812223761207
0.000956515424938
0.00119045540981
0.0016542842605
0.00294667952035
0.000426186756258
0.000633980017858
0.000655009746051
0.000663636120336
0.000667861206657
0.000670566243775
0.000672846290967
0.000675147675768
0.000677731976841
0.000680685452114
0.000683871847232
0.000687436556367
0.000693047558035
0.000705991898446
0.000740140386819
0.000820897163483
0.00096734617142
0.00119346273991
0.0016441562618
0.00267288452182
0.000424767796481
0.000632201755065
0.000653233639503
0.000661848135799
0.000665999919616
0.000668468231981
0.000670218483699
0.000671683245769
0.000673686345602
0.000676589096797
0.000679970025402
0.000683686503055
0.000690506305644
0.000707167929038
0.000747913264992
0.000835684882372
0.000982935440726
0.00119864856931
0.00164667091514
0.00263493954212
0.000423404234182
0.000630595978474
0.000651592481558
0.000660084225607
0.000663888133708
0.000665417337227
0.000664973515016
0.00066186481721
0.000661694040134
0.00066398165631
0.000667925305383
0.000672536235029
0.000682349928007
0.000705998564585
0.00075799086636
0.000856702790291
0.00100507560785
0.00121040675588
0.00159194009847
0.00247209314155
0.000422159896999
0.00062925874735
0.000650178560749
0.000658406170217
0.000661456835586
0.000660886747696
0.000654665294212
0.000636651663802
0.000461943568987
0.000460088363784
0.000463694651763
0.000468818159353
0.000656052244895
0.000699439102095
0.000771537091943
0.000885052557473
0.00103456357551
0.0012322118832
0.00161282531591
0.00231096095772
0.000421095784163
0.000628165640075
0.000649025323747
0.000656946526946
0.00065914462062
0.000656335279345
0.000644085658113
0.000445487496502
0.000420379008381
0.000627567965064
0.000648423137961
0.000656163812247
0.000657833673878
0.000653636029715
0.000637982114924
0.000434169347424
0.000420376085157
0.000627565479525
0.000648421586403
0.000656163218841
0.000657833890184
0.000653636184153
0.00063798451475
0.000434173387145
0.000421091743222
0.000628160011999
0.000649021768591
0.00065694499573
0.00065914505522
0.000656338197445
0.000644093557034
0.00044549515242
)
;

boundaryField
{
    back
    {
        type            nutkWallFunction;
        blending        stepwise;
        Cmu             0.09;
        kappa           0.41;
        E               9.8;
        value           nonuniform List<scalar> 
164
(
7.00512596671e-05
7.02550446427e-05
7.04781788399e-05
7.07271291992e-05
7.10351041029e-05
7.15474319738e-05
7.27622966011e-05
7.59520772674e-05
8.31773720935e-05
9.59935984862e-05
0.000115896473797
0.000151060959971
0.000270176619102
5.99392308047e-05
6.61768517202e-05
6.8143692567e-05
6.89346500196e-05
6.95499669142e-05
6.975203956e-05
6.99571658098e-05
7.01791982132e-05
7.04213536221e-05
7.06857704403e-05
7.0996140511e-05
7.14705954297e-05
7.2549055749e-05
7.55058993168e-05
8.27521988717e-05
9.62500572439e-05
0.000117586333376
0.000157819182358
0.000288515320225
5.97672087207e-05
6.60019593838e-05
6.7973460803e-05
6.87732997233e-05
6.91615486915e-05
6.94111155602e-05
6.96256161036e-05
6.98448302609e-05
7.00843623717e-05
7.03471245982e-05
7.06302582684e-05
7.09526089392e-05
7.14337284463e-05
7.25184587257e-05
7.55219006802e-05
8.29904735429e-05
9.68943871499e-05
0.000118401617601
0.000158515087252
0.00031632398348
5.95884973984e-05
6.5827214556e-05
6.78019415236e-05
6.8607216265e-05
6.90009620205e-05
6.92536438302e-05
6.94673734184e-05
6.96833374624e-05
6.99259389611e-05
7.02048690605e-05
7.05065328993e-05
7.08431408782e-05
7.13748910024e-05
7.26219892626e-05
7.59612208636e-05
8.3867927298e-05
9.79495375822e-05
0.000118657329978
0.000156119097745
0.000313578042087
5.94090140167e-05
6.56597487677e-05
6.76355401028e-05
6.84402611018e-05
6.88274512687e-05
6.90580255501e-05
6.92219780132e-05
6.9359400487e-05
6.95457021489e-05
6.98214751092e-05
7.01426796796e-05
7.04931827537e-05
7.11418024956e-05
7.27572876873e-05
7.67485042016e-05
8.53279525062e-05
9.94389482243e-05
0.000119057885392
0.000154960389376
0.000319312227216
5.92362789791e-05
6.5508182045e-05
6.74815382571e-05
6.82753127127e-05
6.86300147315e-05
6.87718752187e-05
6.87291088146e-05
6.84409226456e-05
6.84146497048e-05
6.86358727071e-05
6.90153954407e-05
6.94548930079e-05
7.03969093672e-05
7.26908767755e-05
7.77788460188e-05
8.73838998672e-05
0.000101528876876
0.000120294819879
0.000153649074038
0.000287114269533
5.90783092538e-05
6.53815354727e-05
6.73485724631e-05
6.81180198747e-05
6.840125607e-05
6.83417870088e-05
6.77464873988e-05
6.60290889462e-05
6.41101463384e-05
6.38753700727e-05
6.43593006032e-05
6.50596719622e-05
6.79545982222e-05
7.21215016448e-05
7.90986958803e-05
9.00583318921e-05
0.000104229169441
0.000122173932345
0.000156637978797
0.000281791946755
5.8942936104e-05
6.52776667829e-05
6.72397299032e-05
6.79807183762e-05
6.81842360064e-05
6.79160471971e-05
6.67592536467e-05
6.20378053766e-05
5.88515651791e-05
6.52209751692e-05
6.71831082668e-05
6.79072219824e-05
6.806042191e-05
6.7659248972e-05
6.6175084942e-05
6.05814505748e-05
5.88513064414e-05
6.52207830364e-05
6.7182968317e-05
6.79071515246e-05
6.80604241194e-05
6.76592781742e-05
6.61752943936e-05
6.05818551584e-05
5.89425548331e-05
6.52772240285e-05
6.72394144715e-05
6.79805405782e-05
6.81842129239e-05
6.79162436489e-05
6.67598344144e-05
6.20385686167e-05
)
;
    }
    sides
    {
        type            nutkWallFunction;
        blending        stepwise;
        Cmu             0.09;
        kappa           0.41;
        E               9.8;
        value           nonuniform List<scalar> 0();
    }
    bottom
    {
        type            nutkWallFunction;
        blending        stepwise;
        Cmu             0.09;
        kappa           0.41;
        E               9.8;
        value           nonuniform List<scalar> 10(3.18570925063e-05 3.17651921755e-05 3.16697163417e-05 3.15738261098e-05 3.14815393959e-05 3.13971397288e-05 3.13248116993e-05 3.12759928284e-05 3.12758545837e-05 3.13246079843e-05);
    }
    front
    {
        type            nutkWallFunction;
        blending        stepwise;
        Cmu             0.09;
        kappa           0.41;
        E               9.8;
        value           nonuniform List<scalar> 
164
(
7.00512596671e-05
7.02550446427e-05
7.04781788399e-05
7.07271291992e-05
7.10351041029e-05
7.15474319738e-05
7.27622966011e-05
7.59520772674e-05
8.31773720935e-05
9.59935984862e-05
0.000115896473797
0.000151060959971
0.000270176619102
5.99392308047e-05
6.61768517202e-05
6.8143692567e-05
6.89346500196e-05
6.95499669142e-05
6.975203956e-05
6.99571658098e-05
7.01791982132e-05
7.04213536221e-05
7.06857704403e-05
7.0996140511e-05
7.14705954297e-05
7.2549055749e-05
7.55058993168e-05
8.27521988717e-05
9.62500572439e-05
0.000117586333376
0.000157819182358
0.000288515320225
5.97672087207e-05
6.60019593838e-05
6.7973460803e-05
6.87732997233e-05
6.91615486915e-05
6.94111155602e-05
6.96256161036e-05
6.98448302609e-05
7.00843623717e-05
7.03471245982e-05
7.06302582684e-05
7.09526089392e-05
7.14337284463e-05
7.25184587257e-05
7.55219006802e-05
8.29904735429e-05
9.68943871499e-05
0.000118401617601
0.000158515087252
0.00031632398348
5.95884973984e-05
6.5827214556e-05
6.78019415236e-05
6.8607216265e-05
6.90009620205e-05
6.92536438302e-05
6.94673734184e-05
6.96833374624e-05
6.99259389611e-05
7.02048690605e-05
7.05065328993e-05
7.08431408782e-05
7.13748910024e-05
7.26219892626e-05
7.59612208636e-05
8.3867927298e-05
9.79495375822e-05
0.000118657329978
0.000156119097745
0.000313578042087
5.94090140167e-05
6.56597487677e-05
6.76355401028e-05
6.84402611018e-05
6.88274512687e-05
6.90580255501e-05
6.92219780132e-05
6.9359400487e-05
6.95457021489e-05
6.98214751092e-05
7.01426796796e-05
7.04931827537e-05
7.11418024956e-05
7.27572876873e-05
7.67485042016e-05
8.53279525062e-05
9.94389482243e-05
0.000119057885392
0.000154960389376
0.000319312227216
5.92362789791e-05
6.5508182045e-05
6.74815382571e-05
6.82753127127e-05
6.86300147315e-05
6.87718752187e-05
6.87291088146e-05
6.84409226456e-05
6.84146497048e-05
6.86358727071e-05
6.90153954407e-05
6.94548930079e-05
7.03969093672e-05
7.26908767755e-05
7.77788460188e-05
8.73838998672e-05
0.000101528876876
0.000120294819879
0.000153649074038
0.000287114269533
5.90783092538e-05
6.53815354727e-05
6.73485724631e-05
6.81180198747e-05
6.840125607e-05
6.83417870088e-05
6.77464873988e-05
6.60290889462e-05
6.41101463384e-05
6.38753700727e-05
6.43593006032e-05
6.50596719622e-05
6.79545982222e-05
7.21215016448e-05
7.90986958803e-05
9.00583318921e-05
0.000104229169441
0.000122173932345
0.000156637978797
0.000281791946755
5.8942936104e-05
6.52776667829e-05
6.72397299032e-05
6.79807183762e-05
6.81842360064e-05
6.79160471971e-05
6.67592536467e-05
6.20378053766e-05
5.88515651791e-05
6.52209751692e-05
6.71831082668e-05
6.79072219824e-05
6.806042191e-05
6.7659248972e-05
6.6175084942e-05
6.05814505748e-05
5.88513064414e-05
6.52207830364e-05
6.7182968317e-05
6.79071515246e-05
6.80604241194e-05
6.76592781742e-05
6.61752943936e-05
6.05818551584e-05
5.89425548331e-05
6.52772240285e-05
6.72394144715e-05
6.79805405782e-05
6.81842129239e-05
6.79162436489e-05
6.67598344144e-05
6.20385686167e-05
)
;
    }
    atmosphere
    {
        type            calculated;
        value           nonuniform List<scalar> 7(0.00216715451059 0.00230477931292 0.009 0.00267288452182 0.00263493954212 0.009 0.00231096095772);
    }
    floatingObject
    {
        type            nutkWallFunction;
        blending        stepwise;
        Cmu             0.09;
        kappa           0.41;
        E               9.8;
        value           nonuniform List<scalar> 8(3.4084818579e-05 3.39594484403e-05 3.42178632316e-05 3.45918329224e-05 3.29780857256e-05 3.22001736795e-05 3.22003898051e-05 3.29784933782e-05);
    }
    procBoundary3to4
    {
        type            processor;
        value           nonuniform List<scalar> 
13
(
0.000680039065518
0.000682032515608
0.000684237796509
0.000430244717269
0.000639504814529
0.000660419612047
0.000668790195435
0.000675119120649
0.000677117552748
0.000677117552748
0.000671204714606
0.000671204714606
0.000671204714606
)
;
    }
    procBoundary3to5
    {
        type            processor;
        value           nonuniform List<scalar> 10(0.000686767131744 0.000690118650198 0.000696257566971 0.000711199427187 0.000747888761043 0.000822926498974 0.00094847276706 0.00114610734443 0.00148780693128 0.00205535365417);
    }
    procBoundary3to6
    {
        type            processor;
        value           nonuniform List<scalar> 8(0.000486308701387 0.000732047139591 0.000821225735653 0.000937504862608 0.00107451505082 0.00125690672049 0.00169723309205 0.00257253161553);
    }
    procBoundary3to8
    {
        type            processor;
        value           nonuniform List<scalar> 8(0.000422155602273 0.000629251186783 0.00065017384296 0.000658404409416 0.000661458263654 0.000660891565598 0.000654666750094 0.000636644265823);
    }
}


// ************************************************************************* //
