/*--------------------------------*- C++ -*----------------------------------*\
| =========                 |                                                 |
| \\      /  F ield         | OpenFOAM: The Open Source CFD Toolbox           |
|  \\    /   O peration     | Version:  v2012                                 |
|   \\  /    A nd           | Website:  www.openfoam.com                      |
|    \\/     M anipulation  |                                                 |
\*---------------------------------------------------------------------------*/
FoamFile
{
    version     2.0;
    format      ascii;
    class       volScalarField;
    location    "0.9";
    object      ddt0(epsilon);
}
// * * * * * * * * * * * * * * * * * * * * * * * * * * * * * * * * * * * * * //

dimensions      [0 2 -4 0 0 0 0];


internalField   nonuniform List<scalar> 
167
(
-0.0482005609882
-0.0479717217756
-0.0471578890293
-0.0444326083112
-0.0369259569772
-0.0210317382839
0.00202849007387
0.0168990848916
0.00935545352586
-0.0479374311451
-0.0471092541698
-0.0443108511832
-0.036515085495
-0.0197484845069
0.00525350928272
0.0221917181003
0.0123108966961
-0.0479105506352
-0.0470729674528
-0.0442199910423
-0.0361870151863
-0.0186646015451
0.00809336017593
0.0269802094938
0.0142486647695
-0.0481238094644
-0.0478903704563
-0.047047690534
-0.0441557771998
-0.0359308835871
-0.0177589729967
0.0105637462767
0.0312654492159
0.0184532240639
-0.0481091204006
-0.0478754410403
-0.0470315496897
-0.0441136705034
-0.0357359651717
-0.0170109117819
0.012686418095
0.0348156562425
0.0184188817458
-0.0480981213387
-0.0478651998943
-0.0470228186942
-0.0440894772296
-0.0355918707241
-0.0163928271019
0.0145922751554
0.0386853584859
0.0226855698397
-0.0481772740272
-0.048090782345
-0.0478588343727
-0.0470199132084
-0.0440793831967
-0.0354898716724
-0.0158949895048
0.0161676107333
0.0418836146971
0.0303089153847
-0.048228486874
-0.0481733499418
-0.0480859953013
-0.0478555569793
-0.0470213838024
-0.0440798293382
-0.0354210503245
-0.0154919405188
0.0175124169589
0.0443438438408
0.0105684020218
-0.0482274455949
-0.0481710829949
-0.0480835937361
-0.0478547659419
-0.047026019464
-0.0440877382999
-0.0353782524506
-0.0151740234217
0.0186577978699
0.0475271920284
0.00441773055733
-0.0481710767524
-0.0480836001911
-0.0478563293335
-0.0470331829943
-0.0441007729108
-0.0353546078649
-0.0149265056985
0.0195616645562
0.0498525487395
0.0130362628758
-0.0481755415304
-0.0480877254315
-0.0478618610884
-0.0470440167444
-0.0441183554942
-0.0353448490037
-0.0147291212479
0.0203387773021
0.0516757668629
0.0232209261168
-0.0481912613764
-0.04810328801
-0.0478787560057
-0.0470656570003
-0.0441462347291
-0.0353507769703
-0.0145842716669
0.0208977185309
0.0530939659199
0.0300710979601
-0.0482376126553
-0.048150168368
-0.0479274767143
-0.047118986111
-0.044204688693
-0.0353875507294
-0.014480511304
0.021411321062
0.0541519572079
0.031574568973
-0.0483272677707
-0.0482428575575
-0.048024671599
-0.0472236768452
-0.0443179640013
-0.0354850782548
-0.0144544189529
0.0217791502401
0.0548166873243
0.0313679295173
-0.0482876486365
-0.0482395192285
-0.0481639258619
-0.0479580762053
-0.0471777610793
-0.0443071064339
-0.0355093870608
-0.0144335631556
0.0220190551487
0.055132282522
0.0314072295912
-0.0464556025597
-0.0464195421585
-0.0463598659248
-0.0461816308064
-0.0454658027729
-0.0427537564425
-0.0342833883751
-0.0137025857509
0.0221378437039
0.0532605396604
0.0280116077665
-0.047482394687
-0.0474248216686
-0.0473462499491
-0.0471696933756
-0.0465222308964
-0.0439692569784
-0.0353815328345
-0.0124918946345
0.0331612691454
0.0868023661274
0.0592408922098
)
;

boundaryField
{
    back
    {
        type            calculated;
        value           nonuniform List<scalar> 
167
(
-0.0482005609882
-0.0479717217756
-0.0471578890293
-0.0444326083112
-0.0369259569772
-0.0210317382839
0.00202849007387
0.0168990848916
0.00935545352586
-0.0479374311451
-0.0471092541698
-0.0443108511832
-0.036515085495
-0.0197484845069
0.00525350928272
0.0221917181003
0.0123108966961
-0.0479105506352
-0.0470729674528
-0.0442199910423
-0.0361870151863
-0.0186646015451
0.00809336017593
0.0269802094938
0.0142486647695
-0.0481238094644
-0.0478903704563
-0.047047690534
-0.0441557771998
-0.0359308835871
-0.0177589729967
0.0105637462767
0.0312654492159
0.0184532240639
-0.0481091204006
-0.0478754410403
-0.0470315496897
-0.0441136705034
-0.0357359651717
-0.0170109117819
0.012686418095
0.0348156562425
0.0184188817458
-0.0480981213387
-0.0478651998943
-0.0470228186942
-0.0440894772296
-0.0355918707241
-0.0163928271019
0.0145922751554
0.0386853584859
0.0226855698397
-0.0481772740272
-0.048090782345
-0.0478588343727
-0.0470199132084
-0.0440793831967
-0.0354898716724
-0.0158949895048
0.0161676107333
0.0418836146971
0.0303089153847
-0.048228486874
-0.0481733499418
-0.0480859953013
-0.0478555569793
-0.0470213838024
-0.0440798293382
-0.0354210503245
-0.0154919405188
0.0175124169589
0.0443438438408
0.0105684020218
-0.0482274455949
-0.0481710829949
-0.0480835937361
-0.0478547659419
-0.047026019464
-0.0440877382999
-0.0353782524506
-0.0151740234217
0.0186577978699
0.0475271920284
0.00441773055734
-0.0481710767524
-0.0480836001911
-0.0478563293335
-0.0470331829943
-0.0441007729108
-0.0353546078649
-0.0149265056985
0.0195616645562
0.0498525487395
0.0130362628758
-0.0481755415304
-0.0480877254315
-0.0478618610884
-0.0470440167444
-0.0441183554942
-0.0353448490037
-0.0147291212479
0.0203387773021
0.0516757668629
0.0232209261168
-0.0481912613764
-0.04810328801
-0.0478787560057
-0.0470656570003
-0.0441462347291
-0.0353507769703
-0.0145842716669
0.0208977185309
0.0530939659199
0.0300710979601
-0.0482376126553
-0.048150168368
-0.0479274767143
-0.047118986111
-0.044204688693
-0.0353875507294
-0.014480511304
0.021411321062
0.0541519572079
0.031574568973
-0.0483272677707
-0.0482428575575
-0.048024671599
-0.0472236768452
-0.0443179640013
-0.0354850782548
-0.0144544189529
0.0217791502401
0.0548166873243
0.0313679295173
-0.0482876486365
-0.0482395192285
-0.0481639258619
-0.0479580762053
-0.0471777610793
-0.0443071064339
-0.0355093870608
-0.0144335631556
0.0220190551487
0.055132282522
0.0314072295912
-0.0464556025597
-0.0464195421585
-0.0463598659248
-0.0461816308064
-0.0454658027729
-0.0427537564425
-0.0342833883751
-0.0137025857509
0.0221378437039
0.0532605396604
0.0280116077665
-0.047482394687
-0.0474248216686
-0.0473462499491
-0.0471696933756
-0.0465222308964
-0.0439692569784
-0.0353815328345
-0.0124918946344
0.0331612691454
0.0868023661274
0.0592408922098
)
;
    }
    sides
    {
        type            calculated;
        value           nonuniform List<scalar> 
11
(
-0.047482394687
-0.0474248216686
-0.0473462499491
-0.0471696933756
-0.0465222308964
-0.0439692569784
-0.0353815328345
-0.0124918946344
0.0331612691454
0.0868023661274
0.0592408922098
)
;
    }
    bottom
    {
        type            calculated;
        value           nonuniform List<scalar> 0();
    }
    front
    {
        type            calculated;
        value           nonuniform List<scalar> 
167
(
-0.0482005609882
-0.0479717217756
-0.0471578890293
-0.0444326083112
-0.0369259569772
-0.0210317382839
0.00202849007387
0.0168990848916
0.00935545352586
-0.0479374311451
-0.0471092541698
-0.0443108511832
-0.036515085495
-0.0197484845069
0.00525350928272
0.0221917181003
0.0123108966961
-0.0479105506352
-0.0470729674528
-0.0442199910423
-0.0361870151863
-0.0186646015451
0.00809336017593
0.0269802094938
0.0142486647695
-0.0481238094644
-0.0478903704563
-0.047047690534
-0.0441557771998
-0.0359308835871
-0.0177589729967
0.0105637462767
0.0312654492159
0.0184532240639
-0.0481091204006
-0.0478754410403
-0.0470315496897
-0.0441136705034
-0.0357359651717
-0.0170109117819
0.012686418095
0.0348156562425
0.0184188817458
-0.0480981213387
-0.0478651998943
-0.0470228186942
-0.0440894772296
-0.0355918707241
-0.0163928271019
0.0145922751554
0.0386853584859
0.0226855698397
-0.0481772740272
-0.048090782345
-0.0478588343727
-0.0470199132084
-0.0440793831967
-0.0354898716724
-0.0158949895048
0.0161676107333
0.0418836146971
0.0303089153847
-0.048228486874
-0.0481733499418
-0.0480859953013
-0.0478555569793
-0.0470213838024
-0.0440798293382
-0.0354210503245
-0.0154919405188
0.0175124169589
0.0443438438408
0.0105684020218
-0.0482274455949
-0.0481710829949
-0.0480835937361
-0.0478547659419
-0.047026019464
-0.0440877382999
-0.0353782524506
-0.0151740234217
0.0186577978699
0.0475271920284
0.00441773055734
-0.0481710767524
-0.0480836001911
-0.0478563293335
-0.0470331829943
-0.0441007729108
-0.0353546078649
-0.0149265056985
0.0195616645562
0.0498525487395
0.0130362628758
-0.0481755415304
-0.0480877254315
-0.0478618610884
-0.0470440167444
-0.0441183554942
-0.0353448490037
-0.0147291212479
0.0203387773021
0.0516757668629
0.0232209261168
-0.0481912613764
-0.04810328801
-0.0478787560057
-0.0470656570003
-0.0441462347291
-0.0353507769703
-0.0145842716669
0.0208977185309
0.0530939659199
0.0300710979601
-0.0482376126553
-0.048150168368
-0.0479274767143
-0.047118986111
-0.044204688693
-0.0353875507294
-0.014480511304
0.021411321062
0.0541519572079
0.031574568973
-0.0483272677707
-0.0482428575575
-0.048024671599
-0.0472236768452
-0.0443179640013
-0.0354850782548
-0.0144544189529
0.0217791502401
0.0548166873243
0.0313679295173
-0.0482876486365
-0.0482395192285
-0.0481639258619
-0.0479580762053
-0.0471777610793
-0.0443071064339
-0.0355093870608
-0.0144335631556
0.0220190551487
0.055132282522
0.0314072295912
-0.0464556025597
-0.0464195421585
-0.0463598659248
-0.0461816308064
-0.0454658027729
-0.0427537564425
-0.0342833883751
-0.0137025857509
0.0221378437039
0.0532605396604
0.0280116077665
-0.047482394687
-0.0474248216686
-0.0473462499491
-0.0471696933756
-0.0465222308964
-0.0439692569784
-0.0353815328345
-0.0124918946344
0.0331612691454
0.0868023661274
0.0592408922098
)
;
    }
    atmosphere
    {
        type            calculated;
        value           uniform 0;
    }
    floatingObject
    {
        type            calculated;
        value           nonuniform List<scalar> 0();
    }
    procBoundary11to9
    {
        type            processor;
        value           nonuniform List<scalar> 9(-0.0482400806029 -0.0480156486447 -0.0472224570154 -0.044591229253 -0.0374311262967 -0.022534843604 -0.00159459495372 0.0111418147641 0.00596185285065);
    }
    procBoundary11to10
    {
        type            processor;
        value           nonuniform List<scalar> 
23
(
-0.048284349041
-0.0481693862306
-0.0481693862306
-0.0481441797232
-0.0481441797232
-0.0482104658893
-0.0481956454488
-0.0481848652223
-0.0481848652223
-0.0482322833413
-0.0482322833413
-0.0482753935954
-0.0482754044461
-0.0482285700162
-0.0482285700162
-0.0482340830353
-0.0482503865975
-0.0482964654518
-0.0483835538847
-0.0483835538847
-0.0483294225683
-0.0464863136737
-0.0475325831527
)
;
    }
}


// ************************************************************************* //
