/*--------------------------------*- C++ -*----------------------------------*\
| =========                 |                                                 |
| \\      /  F ield         | OpenFOAM: The Open Source CFD Toolbox           |
|  \\    /   O peration     | Version:  v2012                                 |
|   \\  /    A nd           | Website:  www.openfoam.com                      |
|    \\/     M anipulation  |                                                 |
\*---------------------------------------------------------------------------*/
FoamFile
{
    version     2.0;
    format      ascii;
    class       volScalarField;
    location    "0.9";
    object      p;
}
// * * * * * * * * * * * * * * * * * * * * * * * * * * * * * * * * * * * * * //

dimensions      [1 -1 -2 0 0 0 0];


internalField   nonuniform List<scalar> 
167
(
3412.07543614
2919.11620271
2425.83130655
1932.20284858
1438.12365811
943.642716394
451.609811792
98.4018258105
-9.73910086199
2925.40860606
2432.93696764
1940.23923633
1447.20745892
953.932404615
462.708590739
104.140640654
-9.7548082302
2931.77033346
2440.0816518
1948.27376116
1456.23463242
964.083402124
473.689422514
109.889395974
-9.77072979014
3429.01811176
2938.10334037
2447.15982338
1956.19345181
1465.0861505
973.976160717
484.433206483
115.593646485
-9.78302582711
3434.61260698
2944.31862223
2454.07698597
1963.89848038
1473.65694129
983.497115272
494.800849682
121.1157672
-9.80313495055
3440.04809186
2950.33621009
2460.74950146
1971.3028226
1481.86132976
992.567397647
504.708686339
126.462210495
-9.80766081743
3934.56120624
3445.25604077
2956.0843125
2467.10301336
1978.33054861
1489.62459088
1001.12371885
514.089601648
131.56648533
-9.8288602234
4428.05591565
3939.03826373
3450.17447215
2961.49854699
2473.07123708
1984.91360921
1496.87551716
1009.08722351
522.831898391
136.261734453
-9.85581668126
4431.87299047
3943.21053259
3454.74787952
2966.52152123
2478.5954392
1990.9941068
1503.56376335
1016.42808557
530.923739625
140.703092339
-9.83034132531
3947.03056968
3458.92701757
2971.10216954
2483.62264322
1996.51629474
1509.62879248
1023.08965921
538.311370792
144.871262088
-9.83182791663
3950.45684349
3462.66874895
2975.19576658
2488.10619231
2001.42974267
1515.00938272
1028.96729797
544.746302163
148.394535428
-9.90203717214
3953.4527899
3465.93554089
2978.76386965
2492.00678221
2005.69454843
1519.66580645
1034.02511519
550.217255664
151.19172084
-9.98191582941
3955.98764153
3468.69596959
2981.77469471
2495.29315334
2009.28205638
1523.576901
1038.27202805
554.817059604
153.558430203
-10.0050074384
3958.04092485
3470.92916356
2984.20698266
2497.94394091
2012.17220599
1526.7282461
1041.69959326
558.544072653
155.607142324
-9.94656471801
4446.93557872
3959.59656557
3472.61843949
2986.04316664
2499.93970206
2014.34161248
1529.08735763
1044.25483908
561.381462321
157.519938422
-9.85157605146
4447.83145048
3960.56960058
3473.67714239
2987.19571794
2501.19095896
2015.69036296
1530.5539721
1045.94697795
563.689002623
159.739745413
-9.59867526607
4448.00679763
3960.78366935
3473.93475144
2987.50322159
2501.54560916
2016.05830929
1530.95475169
1046.50262523
563.215628326
157.268143658
-10.3051515126
)
;

boundaryField
{
    back
    {
        type            calculated;
        value           nonuniform List<scalar> 
167
(
3412.07543614
2919.11620271
2425.83130655
1932.20284858
1438.12365811
943.642716394
451.609811792
98.4018258105
-9.73910086199
2925.40860606
2432.93696764
1940.23923633
1447.20745892
953.932404615
462.708590739
104.140640654
-9.7548082302
2931.77033346
2440.0816518
1948.27376116
1456.23463242
964.083402124
473.689422514
109.889395974
-9.77072979014
3429.01811176
2938.10334037
2447.15982338
1956.19345181
1465.0861505
973.976160717
484.433206483
115.593646485
-9.78302582711
3434.61260698
2944.31862223
2454.07698597
1963.89848039
1473.65694129
983.497115272
494.800849682
121.1157672
-9.80313495055
3440.04809186
2950.33621009
2460.74950146
1971.3028226
1481.86132976
992.567397647
504.708686339
126.462210495
-9.80766081743
3934.56120624
3445.25604077
2956.0843125
2467.10301336
1978.33054861
1489.62459088
1001.12371885
514.089601647
131.56648533
-9.8288602234
4428.05591565
3939.03826373
3450.17447215
2961.49854699
2473.07123708
1984.91360921
1496.87551716
1009.08722351
522.831898391
136.261734453
-9.85581668126
4431.87299047
3943.21053259
3454.74787952
2966.52152123
2478.5954392
1990.9941068
1503.56376335
1016.42808557
530.923739625
140.703092339
-9.83034132531
3947.03056968
3458.92701757
2971.10216954
2483.62264322
1996.51629474
1509.62879248
1023.08965921
538.311370792
144.871262088
-9.83182791663
3950.45684349
3462.66874895
2975.19576658
2488.10619231
2001.42974267
1515.00938272
1028.96729797
544.746302163
148.394535428
-9.90203717214
3953.4527899
3465.93554089
2978.76386965
2492.00678221
2005.69454843
1519.66580645
1034.02511519
550.217255664
151.19172084
-9.98191582941
3955.98764153
3468.69596959
2981.77469471
2495.29315334
2009.28205638
1523.576901
1038.27202805
554.817059604
153.558430203
-10.0050074384
3958.04092485
3470.92916356
2984.20698266
2497.94394091
2012.17220599
1526.7282461
1041.69959326
558.544072653
155.607142324
-9.94656471801
4446.93557872
3959.59656557
3472.61843949
2986.04316664
2499.93970206
2014.34161248
1529.08735763
1044.25483908
561.381462321
157.519938422
-9.85157605146
4447.83145048
3960.56960058
3473.67714239
2987.19571794
2501.19095896
2015.69036296
1530.5539721
1045.94697795
563.689002623
159.739745413
-9.59867526607
4448.00679763
3960.78366935
3473.93475144
2987.50322159
2501.54560916
2016.05830929
1530.95475169
1046.50262523
563.215628326
157.268143658
-10.3051515126
)
;
    }
    sides
    {
        type            calculated;
        value           nonuniform List<scalar> 
11
(
4448.00679763
3960.78366935
3473.93475144
2987.50322159
2501.54560916
2016.05830929
1530.95475169
1046.50262523
563.215628326
157.268143658
-10.3051515126
)
;
    }
    bottom
    {
        type            calculated;
        value           nonuniform List<scalar> 0();
    }
    front
    {
        type            calculated;
        value           nonuniform List<scalar> 
167
(
3412.07543614
2919.11620271
2425.83130655
1932.20284858
1438.12365811
943.642716394
451.609811792
98.4018258105
-9.73910086199
2925.40860606
2432.93696764
1940.23923633
1447.20745892
953.932404615
462.708590739
104.140640654
-9.7548082302
2931.77033346
2440.0816518
1948.27376116
1456.23463242
964.083402124
473.689422514
109.889395974
-9.77072979014
3429.01811176
2938.10334037
2447.15982338
1956.19345181
1465.0861505
973.976160717
484.433206483
115.593646485
-9.78302582711
3434.61260698
2944.31862223
2454.07698597
1963.89848039
1473.65694129
983.497115272
494.800849682
121.1157672
-9.80313495055
3440.04809186
2950.33621009
2460.74950146
1971.3028226
1481.86132976
992.567397647
504.708686339
126.462210495
-9.80766081743
3934.56120624
3445.25604077
2956.0843125
2467.10301336
1978.33054861
1489.62459088
1001.12371885
514.089601648
131.56648533
-9.8288602234
4428.05591565
3939.03826373
3450.17447215
2961.49854699
2473.07123708
1984.91360921
1496.87551716
1009.08722351
522.831898391
136.261734453
-9.85581668126
4431.87299047
3943.21053259
3454.74787952
2966.52152123
2478.5954392
1990.9941068
1503.56376335
1016.42808557
530.923739625
140.703092339
-9.83034132531
3947.03056968
3458.92701757
2971.10216954
2483.62264322
1996.51629474
1509.62879248
1023.08965921
538.311370792
144.871262088
-9.83182791663
3950.45684349
3462.66874895
2975.19576658
2488.10619231
2001.42974267
1515.00938272
1028.96729797
544.746302163
148.394535428
-9.90203717214
3953.4527899
3465.93554089
2978.76386965
2492.00678221
2005.69454843
1519.66580645
1034.02511519
550.217255664
151.19172084
-9.98191582941
3955.98764153
3468.69596959
2981.77469471
2495.29315334
2009.28205638
1523.576901
1038.27202805
554.817059604
153.558430203
-10.0050074384
3958.04092485
3470.92916356
2984.20698266
2497.94394091
2012.17220599
1526.7282461
1041.69959326
558.544072653
155.607142324
-9.94656471801
4446.93557872
3959.59656557
3472.61843949
2986.04316664
2499.93970206
2014.34161248
1529.08735763
1044.25483908
561.381462321
157.519938422
-9.85157605146
4447.83145048
3960.56960058
3473.67714239
2987.19571794
2501.19095896
2015.69036296
1530.5539721
1045.94697795
563.689002623
159.739745413
-9.59867526607
4448.00679763
3960.78366935
3473.93475144
2987.50322159
2501.54560916
2016.05830929
1530.95475169
1046.50262523
563.215628326
157.268143658
-10.3051515126
)
;
    }
    atmosphere
    {
        type            calculated;
        value           nonuniform List<scalar> 
17
(
-9.82164841966
-9.82231660027
-9.8228930425
-9.82338432448
-9.82382112796
-9.8241965413
-9.82451525762
-9.82473745789
-9.82515786737
-9.82496466198
-9.8251555646
-9.82541520741
-9.82510668804
-9.82473235039
-9.82491693738
-9.82372282585
-9.82986613733
)
;
    }
    floatingObject
    {
        type            calculated;
        value           nonuniform List<scalar> 0();
    }
    procBoundary11to9
    {
        type            processor;
        value           nonuniform List<scalar> 9(3406.6757558 2913.00004965 2418.88227507 1924.29256358 1429.11993957 933.353828288 440.5256261 92.750477279 -9.72234705181);
    }
    procBoundary11to10
    {
        type            processor;
        value           nonuniform List<scalar> 
23
(
3904.7014004
3417.66298298
3417.66298298
3423.3407946
3423.3407946
3919.86482421
3924.91252018
3929.83304838
3929.83304838
4423.96900663
4423.96900663
4917.20180522
4920.70720343
4435.37445385
4435.37445385
4438.52017497
4441.27468721
4443.60803359
4445.50017597
4445.50017597
4934.60148984
4935.42884537
4935.56981584
)
;
    }
}


// ************************************************************************* //
