/*--------------------------------*- C++ -*----------------------------------*\
| =========                 |                                                 |
| \\      /  F ield         | OpenFOAM: The Open Source CFD Toolbox           |
|  \\    /   O peration     | Version:  v2012                                 |
|   \\  /    A nd           | Website:  www.openfoam.com                      |
|    \\/     M anipulation  |                                                 |
\*---------------------------------------------------------------------------*/
FoamFile
{
    version     2.0;
    format      ascii;
    class       volScalarField;
    location    "0.9";
    object      rAU;
}
// * * * * * * * * * * * * * * * * * * * * * * * * * * * * * * * * * * * * * //

dimensions      [-1 3 1 0 0 0 0];


internalField   nonuniform List<scalar> 
167
(
8.16611375427e-06
8.16537716945e-06
8.16588659511e-06
8.16497570363e-06
8.14847679669e-06
8.11725939423e-06
8.20648185185e-06
1.80279980317e-05
0.00273418554292
8.16529483484e-06
8.1660875852e-06
8.16553369952e-06
8.14694222187e-06
8.11194915042e-06
8.19031359178e-06
1.71419249225e-05
0.00264633601861
8.16518465211e-06
8.16623120216e-06
8.16608723996e-06
8.14558529175e-06
8.10564481708e-06
8.17724487893e-06
1.63385883599e-05
0.0025605305545
8.16583392263e-06
8.16506456073e-06
8.16633421285e-06
8.16663522161e-06
8.14443811465e-06
8.09873028193e-06
8.16730990279e-06
1.56177802308e-05
0.00247585371892
8.16573636971e-06
8.16494210957e-06
8.16639643209e-06
8.16714149424e-06
8.14349381033e-06
8.0915961469e-06
8.16027547675e-06
1.49685439178e-05
0.00243594343631
8.16564478348e-06
8.16482543112e-06
8.16643261932e-06
8.16761640169e-06
8.1426141253e-06
8.0828399634e-06
8.15523232506e-06
1.44044892616e-05
0.00231136429745
8.16594205213e-06
8.16556602784e-06
8.16472113494e-06
8.16645611251e-06
8.16806565779e-06
8.1419664301e-06
8.07378007353e-06
8.15108838754e-06
1.38957632601e-05
0.00227048676329
8.16588098521e-06
8.1658683382e-06
8.16549801876e-06
8.16463035757e-06
8.16647198943e-06
8.16841047119e-06
8.1412906578e-06
8.06687407025e-06
8.14861642652e-06
1.3437526923e-05
0.00227414740493
8.16581367187e-06
8.16580729269e-06
8.16544459118e-06
8.16456033826e-06
8.16647677689e-06
8.16873200747e-06
8.14076870963e-06
8.05766735465e-06
8.1440918188e-06
1.30663896037e-05
0.0021862345504
8.16575762855e-06
8.16540251536e-06
8.16450726658e-06
8.16646855103e-06
8.16895617521e-06
8.14030796545e-06
8.051388509e-06
8.13994664199e-06
1.27379914287e-05
0.00183003774901
8.16571327275e-06
8.16536514582e-06
8.1644699724e-06
8.16647143404e-06
8.1691321965e-06
8.13986538668e-06
8.04447158975e-06
8.138096389e-06
1.24622755945e-05
0.00190841401503
8.16573535871e-06
8.16539691838e-06
8.16451587322e-06
8.16652817486e-06
8.16931073168e-06
8.13964196985e-06
8.03773672753e-06
8.13559287336e-06
1.2212497541e-05
0.00210699090847
8.16597787979e-06
8.1656507112e-06
8.16479870038e-06
8.16682652858e-06
8.16966623889e-06
8.13945292247e-06
8.03279186347e-06
8.13347161291e-06
1.1997577608e-05
0.00163968276935
8.16616637827e-06
8.16584164379e-06
8.16501920437e-06
8.16707029183e-06
8.16999975702e-06
8.13970954303e-06
8.03015629857e-06
8.1072213665e-06
1.17966910684e-05
0.001457118052
8.16652594197e-06
8.16654288791e-06
8.16624407371e-06
8.16547642506e-06
8.16767261401e-06
8.17109316246e-06
8.14120507975e-06
8.02614849649e-06
8.05014150318e-06
1.15930950316e-05
0.00200859969027
8.18044537652e-06
8.18070054595e-06
8.18062108443e-06
8.18023533493e-06
8.18330643283e-06
8.18788085784e-06
8.15918084035e-06
8.04232366911e-06
8.05626179498e-06
1.1506255036e-05
0.00176637758031
8.24839836744e-06
8.24866935029e-06
8.24859462591e-06
8.24840565471e-06
8.25023256158e-06
8.24777415595e-06
8.22302576159e-06
8.22164417154e-06
8.29472545581e-06
1.17887911235e-05
0.00217187809005
)
;

boundaryField
{
    back
    {
        type            calculated;
        value           nonuniform List<scalar> 
167
(
8.16611375427e-06
8.16537716945e-06
8.16588659511e-06
8.16497570363e-06
8.14847679669e-06
8.11725939423e-06
8.20648185185e-06
1.80279980317e-05
0.00273418554292
8.16529483484e-06
8.1660875852e-06
8.16553369952e-06
8.14694222187e-06
8.11194915042e-06
8.19031359178e-06
1.71419249225e-05
0.00264633601861
8.16518465211e-06
8.16623120216e-06
8.16608723996e-06
8.14558529175e-06
8.10564481708e-06
8.17724487893e-06
1.63385883599e-05
0.0025605305545
8.16583392263e-06
8.16506456073e-06
8.16633421285e-06
8.16663522161e-06
8.14443811465e-06
8.09873028193e-06
8.16730990279e-06
1.56177802308e-05
0.00247585371892
8.16573636971e-06
8.16494210957e-06
8.16639643209e-06
8.16714149424e-06
8.14349381033e-06
8.0915961469e-06
8.16027547675e-06
1.49685439178e-05
0.00243594343631
8.16564478348e-06
8.16482543112e-06
8.16643261932e-06
8.16761640169e-06
8.1426141253e-06
8.0828399634e-06
8.15523232506e-06
1.44044892616e-05
0.00231136429745
8.16594205213e-06
8.16556602784e-06
8.16472113494e-06
8.16645611251e-06
8.16806565779e-06
8.1419664301e-06
8.07378007353e-06
8.15108838754e-06
1.38957632601e-05
0.00227048676329
8.16588098521e-06
8.1658683382e-06
8.16549801876e-06
8.16463035757e-06
8.16647198943e-06
8.16841047119e-06
8.1412906578e-06
8.06687407025e-06
8.14861642652e-06
1.3437526923e-05
0.00227414740493
8.16581367187e-06
8.16580729269e-06
8.16544459118e-06
8.16456033826e-06
8.16647677689e-06
8.16873200747e-06
8.14076870963e-06
8.05766735465e-06
8.1440918188e-06
1.30663896037e-05
0.0021862345504
8.16575762855e-06
8.16540251536e-06
8.16450726658e-06
8.16646855103e-06
8.16895617521e-06
8.14030796545e-06
8.051388509e-06
8.13994664199e-06
1.27379914287e-05
0.00183003774901
8.16571327275e-06
8.16536514582e-06
8.1644699724e-06
8.16647143404e-06
8.1691321965e-06
8.13986538668e-06
8.04447158975e-06
8.138096389e-06
1.24622755945e-05
0.00190841401503
8.16573535871e-06
8.16539691838e-06
8.16451587322e-06
8.16652817486e-06
8.16931073168e-06
8.13964196985e-06
8.03773672753e-06
8.13559287336e-06
1.2212497541e-05
0.00210699090847
8.16597787979e-06
8.1656507112e-06
8.16479870038e-06
8.16682652858e-06
8.16966623889e-06
8.13945292247e-06
8.03279186347e-06
8.13347161291e-06
1.1997577608e-05
0.00163968276935
8.16616637827e-06
8.16584164379e-06
8.16501920437e-06
8.16707029183e-06
8.16999975702e-06
8.13970954303e-06
8.03015629857e-06
8.1072213665e-06
1.17966910684e-05
0.001457118052
8.16652594197e-06
8.16654288791e-06
8.16624407371e-06
8.16547642506e-06
8.16767261401e-06
8.17109316246e-06
8.14120507975e-06
8.02614849649e-06
8.05014150318e-06
1.15930950316e-05
0.00200859969027
8.18044537652e-06
8.18070054595e-06
8.18062108443e-06
8.18023533493e-06
8.18330643283e-06
8.18788085784e-06
8.15918084035e-06
8.04232366911e-06
8.05626179498e-06
1.1506255036e-05
0.00176637758031
8.24839836744e-06
8.24866935029e-06
8.24859462591e-06
8.24840565471e-06
8.25023256158e-06
8.24777415595e-06
8.22302576159e-06
8.22164417154e-06
8.29472545581e-06
1.17887911235e-05
0.00217187809005
)
;
    }
    sides
    {
        type            calculated;
        value           nonuniform List<scalar> 
11
(
8.24839836744e-06
8.24866935029e-06
8.24859462591e-06
8.24840565471e-06
8.25023256158e-06
8.24777415595e-06
8.22302576159e-06
8.22164417154e-06
8.29472545581e-06
1.17887911235e-05
0.00217187809005
)
;
    }
    bottom
    {
        type            calculated;
        value           nonuniform List<scalar> 0();
    }
    front
    {
        type            calculated;
        value           nonuniform List<scalar> 
167
(
8.16611375427e-06
8.16537716945e-06
8.16588659511e-06
8.16497570363e-06
8.14847679669e-06
8.11725939423e-06
8.20648185185e-06
1.80279980317e-05
0.00273418554292
8.16529483484e-06
8.1660875852e-06
8.16553369952e-06
8.14694222187e-06
8.11194915042e-06
8.19031359178e-06
1.71419249225e-05
0.00264633601861
8.16518465211e-06
8.16623120216e-06
8.16608723996e-06
8.14558529175e-06
8.10564481708e-06
8.17724487893e-06
1.63385883599e-05
0.0025605305545
8.16583392263e-06
8.16506456073e-06
8.16633421285e-06
8.16663522161e-06
8.14443811465e-06
8.09873028193e-06
8.16730990279e-06
1.56177802308e-05
0.00247585371892
8.16573636971e-06
8.16494210957e-06
8.16639643209e-06
8.16714149424e-06
8.14349381033e-06
8.0915961469e-06
8.16027547675e-06
1.49685439178e-05
0.00243594343631
8.16564478348e-06
8.16482543112e-06
8.16643261932e-06
8.16761640169e-06
8.1426141253e-06
8.0828399634e-06
8.15523232506e-06
1.44044892616e-05
0.00231136429745
8.16594205213e-06
8.16556602784e-06
8.16472113494e-06
8.16645611251e-06
8.16806565779e-06
8.1419664301e-06
8.07378007353e-06
8.15108838754e-06
1.38957632601e-05
0.00227048676329
8.16588098521e-06
8.1658683382e-06
8.16549801876e-06
8.16463035757e-06
8.16647198943e-06
8.16841047119e-06
8.1412906578e-06
8.06687407025e-06
8.14861642652e-06
1.3437526923e-05
0.00227414740493
8.16581367187e-06
8.16580729269e-06
8.16544459118e-06
8.16456033826e-06
8.16647677689e-06
8.16873200747e-06
8.14076870963e-06
8.05766735465e-06
8.1440918188e-06
1.30663896037e-05
0.0021862345504
8.16575762855e-06
8.16540251536e-06
8.16450726658e-06
8.16646855103e-06
8.16895617521e-06
8.14030796545e-06
8.051388509e-06
8.13994664199e-06
1.27379914287e-05
0.00183003774901
8.16571327275e-06
8.16536514582e-06
8.1644699724e-06
8.16647143404e-06
8.1691321965e-06
8.13986538668e-06
8.04447158975e-06
8.138096389e-06
1.24622755945e-05
0.00190841401503
8.16573535871e-06
8.16539691838e-06
8.16451587322e-06
8.16652817486e-06
8.16931073168e-06
8.13964196985e-06
8.03773672753e-06
8.13559287336e-06
1.2212497541e-05
0.00210699090847
8.16597787979e-06
8.1656507112e-06
8.16479870038e-06
8.16682652858e-06
8.16966623889e-06
8.13945292247e-06
8.03279186347e-06
8.13347161291e-06
1.1997577608e-05
0.00163968276935
8.16616637827e-06
8.16584164379e-06
8.16501920437e-06
8.16707029183e-06
8.16999975702e-06
8.13970954303e-06
8.03015629857e-06
8.1072213665e-06
1.17966910684e-05
0.001457118052
8.16652594197e-06
8.16654288791e-06
8.16624407371e-06
8.16547642506e-06
8.16767261401e-06
8.17109316246e-06
8.14120507975e-06
8.02614849649e-06
8.05014150318e-06
1.15930950316e-05
0.00200859969027
8.18044537652e-06
8.18070054595e-06
8.18062108443e-06
8.18023533493e-06
8.18330643283e-06
8.18788085784e-06
8.15918084035e-06
8.04232366911e-06
8.05626179498e-06
1.1506255036e-05
0.00176637758031
8.24839836744e-06
8.24866935029e-06
8.24859462591e-06
8.24840565471e-06
8.25023256158e-06
8.24777415595e-06
8.22302576159e-06
8.22164417154e-06
8.29472545581e-06
1.17887911235e-05
0.00217187809005
)
;
    }
    atmosphere
    {
        type            calculated;
        value           nonuniform List<scalar> 
17
(
0.00273418554292
0.00264633601861
0.0025605305545
0.00247585371892
0.00243594343631
0.00231136429745
0.00227048676329
0.00227414740493
0.0021862345504
0.00183003774901
0.00190841401503
0.00210699090847
0.00163968276935
0.001457118052
0.00200859969027
0.00176637758031
0.00217187809005
)
;
    }
    floatingObject
    {
        type            calculated;
        value           nonuniform List<scalar> 0();
    }
    procBoundary11to9
    {
        type            processor;
        value           nonuniform List<scalar> 9(8.1661552982e-06 8.16542023301e-06 8.16562029344e-06 8.1644279766e-06 8.15018056114e-06 8.12152462898e-06 8.226039355e-06 1.8994925072e-05 0.00283037471701);
    }
    procBoundary11to10
    {
        type            processor;
        value           nonuniform List<scalar> 
23
(
8.16660875895e-06
8.16603691685e-06
8.16603691685e-06
8.16593751838e-06
8.16593751838e-06
8.16625770131e-06
8.16614065845e-06
8.16603338858e-06
8.16603338858e-06
8.16597041271e-06
8.16597041271e-06
8.16592077617e-06
8.16584658909e-06
8.16575725298e-06
8.16575725298e-06
8.16571086953e-06
8.16572984379e-06
8.16597241061e-06
8.16616908522e-06
8.16616908522e-06
8.16655110305e-06
8.18019556771e-06
8.24810658526e-06
)
;
    }
}


// ************************************************************************* //
