/*--------------------------------*- C++ -*----------------------------------*\
| =========                 |                                                 |
| \\      /  F ield         | OpenFOAM: The Open Source CFD Toolbox           |
|  \\    /   O peration     | Version:  v2012                                 |
|   \\  /    A nd           | Website:  www.openfoam.com                      |
|    \\/     M anipulation  |                                                 |
\*---------------------------------------------------------------------------*/
FoamFile
{
    version     2.0;
    format      ascii;
    class       volScalarField;
    location    "2.7";
    object      k;
}
// * * * * * * * * * * * * * * * * * * * * * * * * * * * * * * * * * * * * * //

dimensions      [0 2 -2 0 0 0 0];


internalField   nonuniform List<scalar> 
164
(
0.00377912997245
0.00471796701573
0.00501437930087
0.0051286379521
0.00516724643285
0.00514142489838
0.00500652095942
0.00472216370542
0.00434415892252
0.00437709406007
0.00453493768743
0.00486405340607
0.00530220971985
0.00632761680036
0.00379972798568
0.00473802896964
0.0050349111188
0.00515270849001
0.0052043617845
0.0052229015214
0.00521115730968
0.00516522095868
0.00511725881311
0.00517664754561
0.00525016066342
0.00530882822919
0.00552404680626
0.00628413805544
0.00382202901835
0.0047609853696
0.00505814013891
0.00517735542913
0.00523439042431
0.00526895077037
0.00529358488768
0.00531219636467
0.00533408041827
0.00538719639865
0.00544730308891
0.00549887654745
0.00562647175903
0.0061098075976
0.00384518634458
0.00478574410009
0.0050830045585
0.00520218569261
0.00526022314904
0.00529879320403
0.00533269435917
0.00536703169489
0.00540526030178
0.00545426567417
0.00550956759499
0.00556716743432
0.00566432848037
0.00598604836397
0.00386824858486
0.00481115943121
0.00510843696985
0.00522672735444
0.00528379347097
0.00532187355963
0.00535627739319
0.00539232386671
0.00543197211923
0.00547713489096
0.00552744933216
0.00558353434852
0.0056680825713
0.00590846411361
0.00389044739231
0.00483625984562
0.00513351841322
0.00525048491369
0.00530577942228
0.00534189350158
0.00537420407089
0.00540809014513
0.00544521257571
0.00548633264203
0.00553175931351
0.00558368961916
0.00566094846744
0.00586256222683
0.00391123111225
0.00486031135894
0.00515754539889
0.00527298074976
0.00532621843113
0.00536002078353
0.00538975041577
0.00542076188482
0.00545471829366
0.00549215044645
0.00553362100786
0.00558272211165
0.00566057617461
0.00586518378381
0.00393027418647
0.00488280401918
0.00518001110532
0.00529383540358
0.0053449399129
0.00537644710822
0.0054037167224
0.00543203670628
0.00546306759209
0.00549737585195
0.00553593877597
0.00558448206699
0.00567194947774
0.00591723311659
0.00394752019854
0.0049034560537
0.00520062749508
0.00531279535742
0.00536182075586
0.00539116710717
0.00541619380374
0.00544215250315
0.00547072271277
0.00550265655407
0.00553992830325
0.00559310279116
0.0057112902149
0.00606987394696
0.00396265345208
0.00492203112949
0.00521917855211
0.00532975120391
0.00537679148526
0.00540415377493
0.00542718115131
0.00545105449573
0.00547746101951
0.00550715276805
0.00554208718852
0.00559245700673
0.00570643229657
0.00606263458988
0.00397577351101
0.00493848582166
0.00523561985901
0.00534465521293
0.00538982873402
0.00541537180954
0.0054366276999
0.00545866132703
0.00548312757697
0.00551073613827
0.0055430905792
0.00558812038128
0.00568322887027
0.00597460802731
0.00548768652558
0.00551345763576
0.00554384210891
0.00558632447003
0.00567517023299
0.00594095569255
0.00558781273262
0.00568325392405
0.00596722128373
0.00594897669442
)
;

boundaryField
{
    back
    {
        type            kqRWallFunction;
        value           nonuniform List<scalar> 
164
(
0.00377912997245
0.00471796701573
0.00501437930087
0.0051286379521
0.00516724643285
0.00514142489838
0.00500652095942
0.00472216370542
0.00434415892252
0.00437709406007
0.00453493768743
0.00486405340607
0.00530220971985
0.00632761680036
0.00379972798568
0.00473802896964
0.0050349111188
0.00515270849001
0.0052043617845
0.0052229015214
0.00521115730968
0.00516522095868
0.00511725881311
0.00517664754561
0.00525016066342
0.00530882822919
0.00552404680626
0.00628413805544
0.00382202901835
0.0047609853696
0.00505814013891
0.00517735542913
0.00523439042431
0.00526895077037
0.00529358488768
0.00531219636467
0.00533408041827
0.00538719639865
0.00544730308891
0.00549887654745
0.00562647175903
0.0061098075976
0.00384518634458
0.00478574410009
0.0050830045585
0.00520218569261
0.00526022314904
0.00529879320403
0.00533269435917
0.00536703169489
0.00540526030178
0.00545426567417
0.00550956759499
0.00556716743432
0.00566432848037
0.00598604836397
0.00386824858486
0.00481115943121
0.00510843696985
0.00522672735444
0.00528379347097
0.00532187355963
0.00535627739319
0.00539232386671
0.00543197211923
0.00547713489096
0.00552744933216
0.00558353434852
0.0056680825713
0.00590846411361
0.00389044739231
0.00483625984562
0.00513351841322
0.00525048491369
0.00530577942228
0.00534189350158
0.00537420407089
0.00540809014513
0.00544521257571
0.00548633264203
0.00553175931351
0.00558368961916
0.00566094846744
0.00586256222683
0.00391123111225
0.00486031135894
0.00515754539889
0.00527298074976
0.00532621843113
0.00536002078353
0.00538975041577
0.00542076188482
0.00545471829366
0.00549215044645
0.00553362100786
0.00558272211165
0.00566057617461
0.00586518378381
0.00393027418647
0.00488280401918
0.00518001110532
0.00529383540358
0.0053449399129
0.00537644710822
0.0054037167224
0.00543203670628
0.00546306759209
0.00549737585195
0.00553593877597
0.00558448206699
0.00567194947774
0.00591723311659
0.00394752019854
0.0049034560537
0.00520062749508
0.00531279535742
0.00536182075586
0.00539116710717
0.00541619380374
0.00544215250315
0.00547072271277
0.00550265655407
0.00553992830325
0.00559310279116
0.0057112902149
0.00606987394696
0.00396265345208
0.00492203112949
0.00521917855211
0.00532975120391
0.00537679148526
0.00540415377493
0.00542718115131
0.00545105449573
0.00547746101951
0.00550715276805
0.00554208718852
0.00559245700673
0.00570643229657
0.00606263458988
0.00397577351101
0.00493848582166
0.00523561985901
0.00534465521293
0.00538982873402
0.00541537180954
0.0054366276999
0.00545866132703
0.00548312757697
0.00551073613827
0.0055430905792
0.00558812038128
0.00568322887027
0.00597460802731
0.00548768652558
0.00551345763576
0.00554384210891
0.00558632447003
0.00567517023299
0.00594095569255
0.00558781273262
0.00568325392405
0.00596722128373
0.00594897669442
)
;
    }
    sides
    {
        type            kqRWallFunction;
        value           nonuniform List<scalar> 0();
    }
    bottom
    {
        type            kqRWallFunction;
        value           nonuniform List<scalar> 
11
(
0.00377912997245
0.00379972798568
0.00382202901835
0.00384518634458
0.00386824858486
0.00389044739231
0.00391123111225
0.00393027418647
0.00394752019854
0.00396265345208
0.00397577351101
)
;
    }
    front
    {
        type            kqRWallFunction;
        value           nonuniform List<scalar> 
164
(
0.00377912997245
0.00471796701573
0.00501437930087
0.0051286379521
0.00516724643285
0.00514142489838
0.00500652095942
0.00472216370542
0.00434415892252
0.00437709406007
0.00453493768743
0.00486405340607
0.00530220971985
0.00632761680036
0.00379972798568
0.00473802896964
0.0050349111188
0.00515270849001
0.0052043617845
0.0052229015214
0.00521115730968
0.00516522095868
0.00511725881311
0.00517664754561
0.00525016066342
0.00530882822919
0.00552404680626
0.00628413805544
0.00382202901835
0.0047609853696
0.00505814013891
0.00517735542913
0.00523439042431
0.00526895077037
0.00529358488768
0.00531219636467
0.00533408041827
0.00538719639865
0.00544730308891
0.00549887654745
0.00562647175903
0.0061098075976
0.00384518634458
0.00478574410009
0.0050830045585
0.00520218569261
0.00526022314904
0.00529879320403
0.00533269435917
0.00536703169489
0.00540526030178
0.00545426567417
0.00550956759499
0.00556716743432
0.00566432848037
0.00598604836397
0.00386824858486
0.00481115943121
0.00510843696985
0.00522672735444
0.00528379347097
0.00532187355963
0.00535627739319
0.00539232386671
0.00543197211923
0.00547713489096
0.00552744933216
0.00558353434852
0.0056680825713
0.00590846411361
0.00389044739231
0.00483625984562
0.00513351841322
0.00525048491369
0.00530577942228
0.00534189350158
0.00537420407089
0.00540809014513
0.00544521257571
0.00548633264203
0.00553175931351
0.00558368961916
0.00566094846744
0.00586256222683
0.00391123111225
0.00486031135894
0.00515754539889
0.00527298074976
0.00532621843113
0.00536002078353
0.00538975041577
0.00542076188482
0.00545471829366
0.00549215044645
0.00553362100786
0.00558272211165
0.00566057617461
0.00586518378381
0.00393027418647
0.00488280401918
0.00518001110532
0.00529383540358
0.0053449399129
0.00537644710822
0.0054037167224
0.00543203670628
0.00546306759209
0.00549737585195
0.00553593877597
0.00558448206699
0.00567194947774
0.00591723311659
0.00394752019854
0.0049034560537
0.00520062749508
0.00531279535742
0.00536182075586
0.00539116710717
0.00541619380374
0.00544215250315
0.00547072271277
0.00550265655407
0.00553992830325
0.00559310279116
0.0057112902149
0.00606987394696
0.00396265345208
0.00492203112949
0.00521917855211
0.00532975120391
0.00537679148526
0.00540415377493
0.00542718115131
0.00545105449573
0.00547746101951
0.00550715276805
0.00554208718852
0.00559245700673
0.00570643229657
0.00606263458988
0.00397577351101
0.00493848582166
0.00523561985901
0.00534465521293
0.00538982873402
0.00541537180954
0.0054366276999
0.00545866132703
0.00548312757697
0.00551073613827
0.0055430905792
0.00558812038128
0.00568322887027
0.00597460802731
0.00548768652558
0.00551345763576
0.00554384210891
0.00558632447003
0.00567517023299
0.00594095569255
0.00558781273262
0.00568325392405
0.00596722128373
0.00594897669442
)
;
    }
    atmosphere
    {
        type            inletOutlet;
        inletValue      nonuniform List<scalar> 0();
        value           nonuniform List<scalar> 0();
    }
    floatingObject
    {
        type            kqRWallFunction;
        value           nonuniform List<scalar> 4(0.00434415892252 0.00437709406007 0.00453493768743 0.00486405340607);
    }
    procBoundary8to3
    {
        type            processor;
        value           nonuniform List<scalar> 8(0.00376146112705 0.00470181364368 0.0049972747145 0.00510604440313 0.00513086143924 0.00507615297609 0.00487318526813 0.00418744180987);
    }
    procBoundary8to6
    {
        type            processor;
        value           nonuniform List<scalar> 
16
(
0.00507947888456
0.00664435854343
0.00867100236703
0.00827632287621
0.00760211232747
0.00712495937701
0.00679149387917
0.00658645584488
0.00656565494709
0.00670918626369
0.00709409829884
0.00711208659604
0.00688434826218
0.00676446979454
0.00679676139373
0.00674358526911
)
;
    }
    procBoundary8to7
    {
        type            processor;
        value           nonuniform List<scalar> 
17
(
0.00398697316336
0.00495284427334
0.00524994356125
0.005357522032
0.00540096441659
0.00542485948049
0.00544452336792
0.00546493673963
0.00546493673963
0.00549115740395
0.0055154632648
0.00554473126601
0.00554473126601
0.00558508232557
0.00567626107991
0.00567626107991
0.00588709608829
)
;
    }
}


// ************************************************************************* //
