/*--------------------------------*- C++ -*----------------------------------*\
| =========                 |                                                 |
| \\      /  F ield         | OpenFOAM: The Open Source CFD Toolbox           |
|  \\    /   O peration     | Version:  v2012                                 |
|   \\  /    A nd           | Website:  www.openfoam.com                      |
|    \\/     M anipulation  |                                                 |
\*---------------------------------------------------------------------------*/
FoamFile
{
    version     2.0;
    format      ascii;
    class       surfaceScalarField;
    location    "5.3";
    object      phi;
}
// * * * * * * * * * * * * * * * * * * * * * * * * * * * * * * * * * * * * * //

dimensions      [0 3 -1 0 0 0 0];
oriented        oriented;


internalField   nonuniform List<scalar> 
306
(
-0.000159386266696
2.07044250565e-05
-0.000181236080655
2.18636320611e-05
-0.000204232041544
2.30125215665e-05
-0.000228571191101
2.43578487534e-05
-0.00025393584179
2.53837430102e-05
-0.00027942390609
2.55061284336e-05
-0.000304803481212
2.53942826345e-05
-0.000327901439483
2.31069576969e-05
-0.000349948102861
2.20494859566e-05
-0.00042803751746
7.80858787244e-05
-0.000643520570579
0.000215490277786
6.74384271483e-05
-0.000161355632987
4.16101406028e-05
-0.000183417365322
4.39430797347e-05
-0.000206897417814
4.65116253891e-05
-0.000231887867513
4.93688971937e-05
-0.000258611818008
5.21286868999e-05
-0.00028785235903
5.47658294606e-05
-0.000321385353396
5.89428844259e-05
-0.000358744078746
6.04749918764e-05
-0.000391920562192
5.52288637505e-05
-0.000376186720835
6.23515096723e-05
-0.000250751009392
9.00583994057e-05
3.82055424559e-05
-0.000161218838999
-0.000183224928374
6.59727788755e-05
-0.000206725203503
7.00338660517e-05
-0.000232056126635
7.47226108865e-05
-0.000259897710564
7.99927315805e-05
-0.0002911415601
8.60304348523e-05
-0.000327213951026
9.50317701024e-05
-0.00036556403967
9.8835109743e-05
-0.00039535203429
8.50200588127e-05
-0.000395032493384
6.20269912284e-05
-0.000366145829083
6.1179144564e-05
1.1807536831e-05
-0.000180468993247
-0.000203561231188
9.31532809566e-05
-0.00022851574916
9.97024308647e-05
-0.00025610646498
0.000107607968019
-0.000287663255583
0.000117609338575
-0.000323531087436
0.000130917385894
-0.000361931293285
0.000137246123375
-0.000394265379835
0.000117357515153
-0.000402755181406
7.05226316309e-05
-0.000409800854814
6.82215849493e-05
2.30080138568e-05
-0.000197453166792
0.000115230614676
-0.000221223428638
0.000123500430272
-0.000247243685659
0.000133654402861
-0.000275996306829
0.000146385524599
-0.000307754326796
0.000162694253596
-0.000342373816664
0.00017187709497
-0.000378656264148
0.000153643601481
-0.000414557065983
0.000106426019998
-0.000444210150796
9.78741197965e-05
5.42042126582e-05
-0.000189206502665
0.000135847594497
-0.000210961721237
0.000145284858762
-0.000233664798771
0.000156384849808
-0.000256997773526
0.000169742874329
-0.000280191754551
0.000185907643534
-0.000306409904856
0.000198107074465
-0.000345491700173
0.000192729220195
-0.000417160669898
0.000178091194477
-0.000486037855788
0.000166756789281
0.000100432003313
-0.000179677033288
0.000154925954766
-0.000199352781703
0.000164990351925
-0.00021927636556
0.000176336018608
-0.000238138616294
0.000188629474748
-0.000254812733038
0.000202601032524
-0.000273832716415
0.000217138795521
-0.000310612461293
0.000229512777144
-0.00038922411284
0.000256698620168
-0.000469125258583
0.000246663924744
0.000145370060073
-0.000169588641613
0.00017258176922
-0.000187690230893
0.00018312075368
-0.000206039739649
0.000194712051313
-0.000224280507019
0.000206893475085
-0.00024220080289
0.000220539603497
-0.000261671596473
0.00023662067088
-0.000289089004694
0.000256933782847
-0.00033372306324
0.000301325752757
-0.000368064046204
0.00028101369721
0.000147201368637
-0.000159082535288
0.0001889754682
-0.000175979851645
0.000200044554372
-0.000193519758276
0.000212276193145
-0.000212154194139
0.000225548977278
-0.000232207661211
0.000240609517472
-0.000253603414079
0.000258026338657
-0.000269522299651
0.000272855822362
-0.000277747934122
0.000309547635633
-0.000144714243002
0.000147986160467
0.000140247615957
-0.000148173108259
0.000204078132252
-0.00016375504669
0.00021564925952
-0.00017994839147
0.0002284903476
-0.000197452634195
0.000243071249431
-0.000216994899001
0.000260165781419
-0.000235739056282
0.000276778894598
-0.000245181156193
0.000282300566049
-0.000233377380493
0.000297741100959
-9.42266680285e-05
8.84124105889e-06
0.000187085331531
-0.000136876272894
0.000217691091208
-0.000150785722804
0.000229576973999
-0.000165118070644
0.000242839428767
-0.000180104363663
0.00025807202756
-0.000195925622107
0.000275998261052
-0.000209648542995
0.000290508552369
-0.000215526145029
0.000288180273768
-0.000200670903197
0.000282886757095
-0.000187619673865
-4.21276754973e-06
0.000164227280934
-0.000125240377307
0.000229855544517
-0.00013743562118
0.000241785489989
-0.000149593562554
0.000255009670573
-0.000161471699319
0.00026996088628
-0.00017239642795
0.00028693130342
-0.00018094513317
0.00029906228091
-0.000185617130394
0.000292853812333
-0.000177546072435
0.000274816437619
-0.000208202280605
2.64462420337e-05
0.000121677991597
-0.000113455253975
0.000240546683385
-0.000124069739276
0.000252408468643
-0.000134347880544
0.000265295827242
-0.000143614375776
0.000279234454471
-0.000150717185484
0.000294039628297
-0.000155736082783
0.000304084512946
-0.000161308186074
0.000298426874311
-0.000162157361297
0.000275666124554
-0.000156338015487
2.06292098986e-05
0.000108555922481
-0.00010191065562
0.000250009160144
-0.000111131095483
0.000261632421489
-0.000119907844849
0.000274076072936
-0.000127621559939
0.000286951497182
-0.000133256101103
0.000299676775634
-0.000137170144282
0.000308000246597
-0.000143019819344
0.000304276966701
-0.000153324764815
0.000285971405859
-0.000164639298824
3.19481311644e-05
0.000122091801512
-9.04959149536e-05
0.000258264486657
-9.86134174195e-05
0.000269748848257
-0.000106321469031
0.000281783904228
-0.000113250238577
0.000293879927827
-0.000118778698099
0.000305205788089
-0.000123343118955
0.000312564865477
-0.000129851665067
0.000310785591627
-0.000144958964916
0.000301078860247
-0.000202959331816
8.99519276068e-05
0.000156598265311
-7.92773757384e-05
-8.64233460196e-05
-9.32931928804e-05
-9.96931679868e-05
-0.000105430692197
-0.00011084818328
-0.000118076862036
-0.000137024369648
-0.000241803264592
)
;

boundaryField
{
    back
    {
        type            calculated;
        value           uniform 0;
    }
    sides
    {
        type            calculated;
        value           uniform 0;
    }
    bottom
    {
        type            calculated;
        value           nonuniform List<scalar> 0();
    }
    front
    {
        type            calculated;
        value           uniform 0;
    }
    atmosphere
    {
        type            calculated;
        value           nonuniform List<scalar> 
16
(
-0.000710958299925
-0.000221517678742
-0.000339747663094
-0.000421001413802
-0.000475406519083
-0.000532265628859
-0.000514062933528
-0.000369894603381
-0.00013775938815
-0.000141063118898
-0.00016475799702
-0.000165653478822
-0.000143217345388
-0.000178178936243
-0.000237469367719
-0.000285333811407
)
;
    }
    floatingObject
    {
        type            calculated;
        value           nonuniform List<scalar> 0();
    }
    procBoundary1to0
    {
        type            processor;
        value           nonuniform List<scalar> 10(0.000265603077608 0.000276891517024 0.000288650408936 0.000300278088124 0.000310941877848 0.000317982025068 0.000318014109031 0.00032002646118 0.000194729690015 0.000200128856441);
    }
    procBoundary1to2
    {
        type            processor;
        value           nonuniform List<scalar> 
18
(
0.000138698614465
0.000140471014848
0.000140450024462
6.24000410419e-05
0.000158922160253
8.75520299515e-05
0.000175419304863
0.000168635694864
0.000160646314931
0.000151979208205
0.000142732194351
0.000133107560142
0.000123293359796
0.000113097067659
0.000102777484862
9.24529709254e-05
8.22393591876e-05
7.19318622536e-05
)
;
    }
}


// ************************************************************************* //
