/*--------------------------------*- C++ -*----------------------------------*\
| =========                 |                                                 |
| \\      /  F ield         | OpenFOAM: The Open Source CFD Toolbox           |
|  \\    /   O peration     | Version:  v2012                                 |
|   \\  /    A nd           | Website:  www.openfoam.com                      |
|    \\/     M anipulation  |                                                 |
\*---------------------------------------------------------------------------*/
FoamFile
{
    version     2.0;
    format      ascii;
    class       volVectorField;
    location    "3.3";
    object      ddt0(rho,U);
}
// * * * * * * * * * * * * * * * * * * * * * * * * * * * * * * * * * * * * * //

dimensions      [1 -2 -2 0 0 0 0];


internalField   nonuniform List<vector> 
167
(
(3.07347523571 -22.4086536002 -1.23187258563e-19)
(3.79044813623 -28.5691172265 -2.0800814329e-19)
(4.71734199762 -36.3556665159 -2.19835478577e-19)
(5.87783748952 -46.1970168539 -1.34796542395e-19)
(7.40088140083 -58.6685607857 -4.76325759973e-19)
(9.49284373923 -75.0593507334 -1.0228199018e-18)
(12.2797422816 -94.8328879481 -1.66680127906e-18)
(16.6001210203 -129.316513163 2.61518449488e-18)
(27.6117271832 -164.186310752 2.19291577105e-17)
(21.7440780224 -88.5075698688 -4.41891986417e-18)
(-4.86192542729 19.8470408156 -1.31245256538e-17)
(-0.0522041862033 -0.28681753202 -7.04232829096e-20)
(8.03663946187 -21.5283872699 3.13794936912e-19)
(10.1209166311 -27.37192262 -2.95638952596e-19)
(12.8095132979 -34.7331580853 2.3471208947e-19)
(16.2777920006 -44.0043708462 6.2790383787e-20)
(20.8011452076 -55.7630973109 -8.81023187367e-19)
(26.8077696724 -70.844574992 -1.59389869523e-18)
(35.1848274844 -88.9632395674 -2.80275824382e-18)
(49.0435312971 -120.443637183 1.17393272357e-18)
(69.5842383471 -146.84457918 2.65828186449e-18)
(39.8708521539 -77.243773667 8.70731905124e-18)
(-11.6729499112 16.0959200554 4.94067857195e-18)
(-0.00870839838837 -0.313105117966 1.72000085544e-19)
(12.9092881887 -19.0739784129 -1.60931503197e-19)
(16.2197377086 -24.2222578594 8.46527956366e-20)
(20.472256164 -30.6671138155 5.21191374994e-20)
(25.9433895646 -38.7593214087 -2.2511337037e-19)
(33.0084455514 -48.9722706443 -5.19390726109e-19)
(42.2010206497 -61.9774536064 -2.64249384129e-19)
(54.35634868 -77.209166031 -5.42126380602e-18)
(72.6154940823 -102.799372139 8.90656227166e-18)
(101.65796252 -120.027360889 3.20964437343e-17)
(89.4239991586 -51.2886067994 1.56316165582e-17)
(-19.8799919413 14.9315887375 8.23326133856e-18)
(0.00253111901763 -0.380142489026 4.55208928266e-20)
(21.4711018271 -19.8509189975 -3.7389731863e-20)
(27.0239047881 -25.0485666313 -1.98903766351e-21)
(34.1403881108 -31.5014178248 -1.44365159884e-19)
(43.3244906897 -39.5724398446 2.6806165754e-20)
(55.1260110291 -49.5930493597 -8.16256410029e-20)
(70.3433697432 -60.8809771662 -1.89074946325e-18)
(91.6700144177 -81.0687766534 -7.36844702367e-18)
(122.61428675 -92.757118813 1.75950047748e-19)
(120.836163767 -29.9100319174 4.84331344171e-18)
(-23.2757391675 14.2333310423 6.08389573665e-18)
(0.0127088076858 -0.36540496146 -1.09552422555e-19)
(31.9439682036 -18.1289190157 -4.00715527554e-20)
(40.2233179154 -22.5958322733 -2.17026501504e-19)
(50.8266831499 -28.1023946305 -6.81270533976e-19)
(64.3974747177 -34.8250595827 -5.81129519961e-20)
(81.5401186084 -41.8217529968 1.47682589022e-19)
(104.748679834 -56.341405538 2.94221883133e-18)
(136.815591013 -63.3375654855 1.71608529702e-20)
(139.564597223 -12.2581580742 1.175493912e-18)
(-24.7319175505 13.4934235152 5.81243872438e-18)
(-0.00903403919813 -0.170222681059 5.17555366478e-20)
(35.0496045331 -10.3627504679 -4.34124683321e-20)
(43.953372522 -12.6857055795 -2.04268604308e-19)
(55.2649013575 -15.3825168934 -9.83871249087e-19)
(69.7936669514 -18.4540173339 -4.9662441847e-19)
(88.0818519485 -20.815970583 -6.10931868705e-19)
(112.330777369 -28.6352206099 5.6678025778e-18)
(144.52532698 -29.8502569436 1.99681754327e-17)
(143.473502727 4.66802713429 4.67712758222e-18)
(-26.1185678619 11.8564638464 4.95013599299e-18)
(-0.0462817182501 0.203271501008 6.86276321817e-20)
(36.2618227981 -2.23741490947 -5.48625248797e-20)
(45.2359098465 -2.36819349792 -2.21485751572e-19)
(56.512782419 -2.18287603356 -1.16048977211e-18)
(70.911999784 -1.49273973457 -9.64107521822e-19)
(89.2281313056 0.669641682153 -3.42582166805e-18)
(113.33621489 0.929706509371 7.01342140982e-18)
(144.250707164 7.49082229808 -1.06583539556e-18)
(129.801699679 21.9591600304 1.22220902002e-17)
(-26.950266545 9.3320880607 4.18916746223e-18)
(0.0653549589809 1.22375089797 6.375987946e-20)
(35.6062806113 5.7280343009 -5.17272435006e-20)
(44.098403041 7.60691942985 -9.43564696678e-20)
(54.6332875202 10.4241939497 -7.35054262728e-19)
(67.7815364233 14.6996454691 2.70198535711e-19)
(84.4457067378 21.1482877382 -4.43952799483e-18)
(105.885969157 30.4473308068 2.46084553015e-19)
(133.467894081 43.3160538564 -6.62317294573e-18)
(89.1400835864 39.8379813345 8.14810979422e-18)
(-12.461201143 3.01010763633 2.50870979097e-18)
(0.69933507909 1.82247034672 3.83579582651e-21)
(33.2822142359 13.088150736 -1.28933725794e-19)
(40.851889632 16.7117682493 -1.4321462989e-19)
(50.0368614147 21.6656385271 -5.00667788185e-19)
(61.1720508272 28.627494458 -6.26879669405e-19)
(74.7999314766 38.4986562414 -1.70917432984e-18)
(91.6993810717 53.9792595477 -2.74944501569e-18)
(111.766988924 72.7331445128 7.02345167817e-20)
(49.8777962088 58.1399180057 3.85554538453e-18)
(1.9891467843 -1.24611603934 -6.03902216548e-19)
(0.260214032486 -0.787191582383 -2.41670052979e-20)
(29.5867072361 19.5007197414 -7.33746445469e-20)
(35.9209490615 24.4152471922 -3.91461361461e-20)
(43.3631206167 30.9411499586 -2.69537558648e-19)
(52.0278856026 39.7097571473 1.15514618867e-18)
(62.2823390687 51.4549952142 -2.0463167347e-19)
(73.9866975543 70.039941456 -2.87181856912e-18)
(84.3555741353 92.4237519774 -3.15467288845e-17)
(34.8501454086 68.7016446529 1.01174305065e-17)
(-1.55087170624 0.818333117936 4.41923230755e-19)
(-0.307218554413 -0.950226441732 2.29532188976e-20)
(24.8678242586 24.7587212009 -7.2981422379e-20)
(29.8154442636 30.5193752254 -5.70550669865e-20)
(35.3651962483 37.9541998786 -9.35460921729e-19)
(41.4479865532 47.6658308095 -5.50415396207e-20)
(48.3794771776 60.2055006391 7.04921882048e-19)
(55.3661849657 79.8238716453 -2.94270864385e-18)
(57.6791202071 102.793859219 -7.88686160054e-18)
(19.0450714044 74.1153131192 1.43791508893e-17)
(-0.618359493102 0.749013349224 3.14471509824e-19)
(-0.163509170012 -0.190462117617 1.2977446681e-19)
(19.5257705062 28.7656107433 -1.42025275737e-19)
(23.0611132688 34.9328255038 1.00933087465e-19)
(26.72857668 42.6915977646 -3.27543623484e-19)
(30.4249284693 52.5451340427 5.4933897639e-19)
(34.1222093975 64.9687117981 -2.69549700889e-19)
(36.8263668878 85.0590569014 2.58762374773e-18)
(33.5270552087 107.339932807 -1.35574623143e-17)
(8.19637923973 77.7064429877 1.11252334735e-17)
(-0.0331436779229 0.470586157158 1.51856105637e-19)
(0.0634321951045 0.130624789218 2.08805564091e-20)
(13.9118160355 31.5739378593 -5.83648369529e-20)
(16.1451772615 37.7643121547 9.09584261372e-20)
(18.1147357644 45.3594423294 -2.14940870422e-19)
(19.6333538542 54.6724972537 5.92315363155e-19)
(20.3062229271 66.3888626841 -1.7589070992e-18)
(19.0400810675 84.8500360439 -9.23452259185e-18)
(11.656188579 104.077982179 -4.35942292357e-17)
(-7.19286279531 76.1449223566 1.74181176203e-17)
(0.226610881762 -0.292762225343 -2.05844416134e-19)
(0.0235292918917 0.119378000529 3.36900679348e-20)
(8.32479208163 33.3066466008 -7.09115938202e-20)
(9.4547446496 39.2094648513 -9.35301777576e-20)
(10.0274329974 46.2422062286 -8.74849978107e-19)
(9.72982843109 54.5793871708 2.45763184381e-19)
(7.91963927107 64.7581875753 -1.20859687158e-18)
(3.46305808563 80.3576464436 2.73771521977e-19)
(-4.89251904205 93.1221208193 2.16180013304e-18)
(-22.2802024645 68.6782169791 2.42578645269e-18)
(0.529236385523 -0.871229784906 -1.93053263956e-19)
(-0.0811389310337 0.0963614048916 -2.42215802722e-20)
(2.99709116144 34.1519704847 -6.67909410028e-20)
(3.27644524429 39.5566940505 4.70891590456e-20)
(2.82891768869 45.7645030674 -1.3598545701e-19)
(1.34181590436 52.8374211513 1.38203509137e-18)
(-1.87248072219 60.8170119965 9.53428851695e-19)
(-7.81915863811 71.7208546095 3.12833763316e-20)
(-15.1317937907 76.5748818687 -1.06081057219e-17)
(-33.0043326144 59.653004179 -1.89803059942e-17)
(0.747987961741 -1.1018393463 2.93446572207e-19)
(-0.0795302465542 -0.0959592650114 -5.25003956823e-20)
(-1.90783886488 34.3317757267 -1.26483197092e-19)
(-2.22457824456 39.1327495042 -5.32889450137e-20)
(-3.34514178079 44.4437905263 -2.3157308899e-19)
(-5.55857233256 50.2976925334 -9.91459062719e-20)
(-9.37502761629 56.4981178705 1.87042889265e-18)
(-15.1028439179 64.3445875081 5.98667923912e-18)
(-19.897300895 65.1176601418 9.5895369663e-18)
(-36.1039460834 53.5500556228 -4.52815157985e-18)
(1.06402964567 -1.73555803928 1.413533951e-19)
(-0.0675652833464 -0.216185155378 -2.16247031164e-20)
)
;

boundaryField
{
    back
    {
        type            calculated;
        value           uniform (0 0 0);
    }
    sides
    {
        type            calculated;
        value           uniform (0 0 0);
    }
    bottom
    {
        type            calculated;
        value           nonuniform List<vector> 0();
    }
    front
    {
        type            calculated;
        value           uniform (0 0 0);
    }
    atmosphere
    {
        type            calculated;
        value           nonuniform List<vector> 
16
(
(-1.84481636489e-09 -0.28681753202 2.93539970985e-26)
(0.000388526837914 -0.313105112746 -1.21014480294e-21)
(-0.000505133366213 -0.380142488906 4.40214765647e-21)
(-0.00139745469821 -0.365404961154 -2.72531045069e-21)
(0.00151286918292 -0.170222681059 1.37782674601e-21)
(-8.5116728175e-11 0.203271501008 3.48868872527e-30)
(-8.02928264491e-11 1.22375089796 -9.52903999993e-30)
(2.58679419302 1.82247034673 -9.89555512523e-19)
(-0.568475986879 -0.787191582403 2.14261196674e-19)
(-0.511627458954 -0.950226441732 2.03810184975e-19)
(-0.533431169654 -0.190462117483 8.98806996717e-19)
(-7.78775813121e-06 0.130624923389 -1.35897146758e-24)
(1.34463184414e-05 0.119378006678 9.959842516e-25)
(2.50568316057e-06 0.0963613426121 5.67498556759e-25)
(1.3204798965e-05 -0.0959625492404 1.6547627581e-24)
(6.88040135764e-07 -0.216185483269 4.58664337807e-26)
)
;
    }
    floatingObject
    {
        type            calculated;
        value           nonuniform List<vector> 0();
    }
    procBoundary1to0
    {
        type            processor;
        value           nonuniform List<vector> 10((-6.30255354365 34.0692581949 -1.41865072246e-20) (-6.98055840235 38.2149140293 -2.14111516748e-20) (-8.48992155361 42.6152292459 -1.76888557493e-19) (-11.1395454355 47.4151652682 3.56270957244e-20) (-15.3706449213 52.2089207302 2.35229428704e-18) (-20.5720074173 58.1037956171 -1.75904837435e-18) (-22.0920964607 60.0504424859 8.24515052362e-18) (-35.9545594332 52.3950019135 -1.07707766755e-18) (1.43098446148 -2.82537409262 -7.76922513255e-20) (-0.0827747475402 -0.165278688381 -2.53887133403e-20));
    }
    procBoundary1to2
    {
        type            processor;
        value           nonuniform List<vector> 
18
(
(2.51350657323 -17.5173656294 2.17183477104e-19)
(6.41670845004 -16.8614900013 2.73734895298e-20)
(10.3247612094 -14.9502672046 -2.94219878169e-20)
(17.1337004327 -15.6701586697 -5.70897118909e-20)
(17.1337004327 -15.6701586697 -5.70897118909e-20)
(25.452945198 -14.4486859618 -6.6358664624e-20)
(25.452945198 -14.4486859618 -6.6358664624e-20)
(28.0348608655 -8.34596537052 -3.07206952736e-20)
(29.129093433 -1.93737997639 -7.22884088766e-23)
(28.7705455649 4.43644390788 -1.37328749569e-20)
(27.0737159001 10.3949964257 -2.13455745091e-20)
(24.2396446234 15.7194974979 -2.22854315628e-20)
(20.5367925635 20.1948905781 4.85716497231e-20)
(16.24720205 23.7649938288 9.37573512073e-20)
(11.6204721357 26.4243229176 9.32212675102e-20)
(6.90015404242 28.2544319916 1.00993121149e-19)
(2.27751339644 29.3744010229 3.97502625037e-20)
(-2.1183019502 29.9419580836 1.40306093625e-20)
)
;
    }
}


// ************************************************************************* //
