/*--------------------------------*- C++ -*----------------------------------*\
| =========                 |                                                 |
| \\      /  F ield         | OpenFOAM: The Open Source CFD Toolbox           |
|  \\    /   O peration     | Version:  v2012                                 |
|   \\  /    A nd           | Website:  www.openfoam.com                      |
|    \\/     M anipulation  |                                                 |
\*---------------------------------------------------------------------------*/
FoamFile
{
    version     2.0;
    format      ascii;
    class       volScalarField;
    location    "3.3";
    object      epsilon_0;
}
// * * * * * * * * * * * * * * * * * * * * * * * * * * * * * * * * * * * * * //

dimensions      [0 2 -3 0 0 0 0];


internalField   nonuniform List<scalar> 
167
(
0.00163710981087
0.00165001685143
0.00166699926181
0.00169533918342
0.00175210008095
0.00186863727054
0.00210323606921
0.00262042975043
0.00427729642099
0.0122721168002
0.0527415798623
0.207183988778
0.00171140202515
0.00172374256677
0.00174136996698
0.00177281572135
0.00183693213671
0.00196907290458
0.00223972854736
0.00286716874794
0.00474531527562
0.0115909892893
0.0414942328066
0.155226646167
0.00187767406696
0.0018908095914
0.00191009067644
0.00194528390712
0.00201721340671
0.00216508219551
0.00246966527793
0.00318515637297
0.00528216874652
0.0121888289604
0.039957563238
0.151466826328
0.00195505732996
0.00197484313185
0.00201114009955
0.0020851997017
0.00223677639688
0.00254871305822
0.00328905626327
0.00552502428444
0.0130327027989
0.0417331411329
0.154129274936
0.00200085885208
0.00203706382069
0.00211069179213
0.00226087088165
0.00256973901168
0.0033166401103
0.00571906582519
0.0144121214425
0.0462700632402
0.158923980384
0.00201293254436
0.00204855794158
0.00212093567186
0.00226847590844
0.00257268059609
0.00332750761664
0.00592769846172
0.0160475448944
0.0516731761836
0.16303474724
0.00202036167498
0.00205528848364
0.00212641557549
0.00227192415023
0.00257566979685
0.00335148454396
0.00614781259531
0.0173686008549
0.055184157928
0.164406451585
0.00202644360588
0.00206062134354
0.00213060139926
0.00227522386942
0.00258257722638
0.00339448122489
0.00640081844188
0.0184656446774
0.0566427097886
0.164088181664
0.00203231298411
0.00206574791692
0.00213455044922
0.00227804712269
0.00258883429695
0.00343343682716
0.00661049589716
0.0191731812438
0.0559799112099
0.151881594305
0.0020382518153
0.0020708956792
0.00213847763663
0.00228065207624
0.00259243984645
0.00345153008225
0.00669578900309
0.0192516953606
0.053485454326
0.132115324402
0.00204432777029
0.00207614908879
0.00214249641713
0.00228368449205
0.00259762868861
0.00346345295415
0.00665255464258
0.0187071090645
0.052022891271
0.131545959077
0.00205048346746
0.00208144168524
0.002146540357
0.00228763078035
0.00261127041891
0.00352650867243
0.00683497118127
0.0190385967492
0.0558618779616
0.162391048244
0.00205664846745
0.00208665884269
0.00215018443662
0.00228985843211
0.0026169878971
0.00355317679506
0.00691579487967
0.0194563634391
0.058763922358
0.165716039823
0.00206277361366
0.00209174197646
0.00215325398902
0.00228942620551
0.00261015331251
0.0035285805527
0.00684712595026
0.0195075615067
0.0598620093257
0.166415081747
0.00206883069858
0.00209670832101
0.00215585592638
0.00228646192516
0.00259072899776
0.00345822353896
0.00668230151902
0.0192346840602
0.0576953894908
0.164783028432
0.00207479844623
0.00210166979497
0.00215881813961
0.00228569179772
0.00258188615492
0.00342655802904
0.00657861218782
0.018793844035
0.0561272873606
0.163861011318
)
;

boundaryField
{
    back
    {
        lowReCorrection 0;
        blending        stepwise;
        n               2;
        type            epsilonWallFunction;
        value           nonuniform List<scalar> 
167
(
0.00163710981087
0.00165001685143
0.00166699926181
0.00169533918342
0.00175210008095
0.00186863727054
0.00210323606921
0.00262042975043
0.00427729642099
0.0122721168002
0.0527415798623
0.207183988778
0.00171140202515
0.00172374256677
0.00174136996698
0.00177281572135
0.00183693213671
0.00196907290458
0.00223972854736
0.00286716874794
0.00474531527562
0.0115909892893
0.0414942328066
0.155226646167
0.00187767406696
0.0018908095914
0.00191009067644
0.00194528390712
0.00201721340671
0.00216508219551
0.00246966527793
0.00318515637297
0.00528216874652
0.0121888289604
0.039957563238
0.151466826328
0.00195505732996
0.00197484313185
0.00201114009955
0.0020851997017
0.00223677639688
0.00254871305822
0.00328905626327
0.00552502428444
0.0130327027989
0.0417331411329
0.154129274936
0.00200085885208
0.00203706382069
0.00211069179213
0.00226087088165
0.00256973901168
0.0033166401103
0.00571906582519
0.0144121214425
0.0462700632402
0.158923980384
0.00201293254436
0.00204855794158
0.00212093567186
0.00226847590844
0.00257268059609
0.00332750761664
0.00592769846172
0.0160475448944
0.0516731761836
0.16303474724
0.00202036167498
0.00205528848364
0.00212641557549
0.00227192415023
0.00257566979685
0.00335148454396
0.00614781259531
0.0173686008549
0.055184157928
0.164406451585
0.00202644360588
0.00206062134354
0.00213060139926
0.00227522386942
0.00258257722638
0.00339448122489
0.00640081844188
0.0184656446774
0.0566427097886
0.164088181664
0.00203231298411
0.00206574791692
0.00213455044922
0.00227804712269
0.00258883429695
0.00343343682716
0.00661049589716
0.0191731812438
0.0559799112099
0.151881594305
0.0020382518153
0.0020708956792
0.00213847763663
0.00228065207624
0.00259243984645
0.00345153008225
0.00669578900309
0.0192516953606
0.053485454326
0.132115324402
0.00204432777029
0.00207614908879
0.00214249641713
0.00228368449205
0.00259762868861
0.00346345295415
0.00665255464258
0.0187071090645
0.052022891271
0.131545959077
0.00205048346746
0.00208144168524
0.002146540357
0.00228763078035
0.00261127041891
0.00352650867243
0.00683497118127
0.0190385967492
0.0558618779616
0.162391048244
0.00205664846745
0.00208665884269
0.00215018443662
0.00228985843211
0.0026169878971
0.00355317679506
0.00691579487967
0.0194563634391
0.058763922358
0.165716039823
0.00206277361366
0.00209174197646
0.00215325398902
0.00228942620551
0.00261015331251
0.0035285805527
0.00684712595026
0.0195075615067
0.0598620093257
0.166415081747
0.00206883069858
0.00209670832101
0.00215585592638
0.00228646192516
0.00259072899776
0.00345822353896
0.00668230151902
0.0192346840602
0.0576953894908
0.164783028432
0.00207479844623
0.00210166979497
0.00215881813961
0.00228569179772
0.00258188615492
0.00342655802904
0.00657861218782
0.018793844035
0.0561272873606
0.163861011318
)
;
    }
    sides
    {
        lowReCorrection 0;
        blending        stepwise;
        n               2;
        type            epsilonWallFunction;
        value           nonuniform List<scalar> 
12
(
0.00163710981087
0.00165001685143
0.00166699926181
0.00169533918342
0.00175210008095
0.00186863727054
0.00210323606921
0.00262042975043
0.00427729642099
0.0122721168002
0.0527415798623
0.207183988778
)
;
    }
    bottom
    {
        lowReCorrection 0;
        blending        stepwise;
        n               2;
        type            epsilonWallFunction;
        value           nonuniform List<scalar> 0();
    }
    front
    {
        lowReCorrection 0;
        blending        stepwise;
        n               2;
        type            epsilonWallFunction;
        value           nonuniform List<scalar> 
167
(
0.00163710981087
0.00165001685143
0.00166699926181
0.00169533918342
0.00175210008095
0.00186863727054
0.00210323606921
0.00262042975043
0.00427729642099
0.0122721168002
0.0527415798623
0.207183988778
0.00171140202515
0.00172374256677
0.00174136996698
0.00177281572135
0.00183693213671
0.00196907290458
0.00223972854736
0.00286716874794
0.00474531527562
0.0115909892893
0.0414942328066
0.155226646167
0.00187767406696
0.0018908095914
0.00191009067644
0.00194528390712
0.00201721340671
0.00216508219551
0.00246966527793
0.00318515637297
0.00528216874652
0.0121888289604
0.039957563238
0.151466826328
0.00195505732996
0.00197484313185
0.00201114009955
0.0020851997017
0.00223677639688
0.00254871305822
0.00328905626327
0.00552502428444
0.0130327027989
0.0417331411329
0.154129274936
0.00200085885208
0.00203706382069
0.00211069179213
0.00226087088165
0.00256973901168
0.0033166401103
0.00571906582519
0.0144121214425
0.0462700632402
0.158923980384
0.00201293254436
0.00204855794158
0.00212093567186
0.00226847590844
0.00257268059609
0.00332750761664
0.00592769846172
0.0160475448944
0.0516731761836
0.16303474724
0.00202036167498
0.00205528848364
0.00212641557549
0.00227192415023
0.00257566979685
0.00335148454396
0.00614781259531
0.0173686008549
0.055184157928
0.164406451585
0.00202644360588
0.00206062134354
0.00213060139926
0.00227522386942
0.00258257722638
0.00339448122489
0.00640081844188
0.0184656446774
0.0566427097886
0.164088181664
0.00203231298411
0.00206574791692
0.00213455044922
0.00227804712269
0.00258883429695
0.00343343682716
0.00661049589716
0.0191731812438
0.0559799112099
0.151881594305
0.0020382518153
0.0020708956792
0.00213847763663
0.00228065207624
0.00259243984645
0.00345153008225
0.00669578900309
0.0192516953606
0.053485454326
0.132115324402
0.00204432777029
0.00207614908879
0.00214249641713
0.00228368449205
0.00259762868861
0.00346345295415
0.00665255464258
0.0187071090645
0.052022891271
0.131545959077
0.00205048346746
0.00208144168524
0.002146540357
0.00228763078035
0.00261127041891
0.00352650867243
0.00683497118127
0.0190385967492
0.0558618779616
0.162391048244
0.00205664846745
0.00208665884269
0.00215018443662
0.00228985843211
0.0026169878971
0.00355317679506
0.00691579487967
0.0194563634391
0.058763922358
0.165716039823
0.00206277361366
0.00209174197646
0.00215325398902
0.00228942620551
0.00261015331251
0.0035285805527
0.00684712595026
0.0195075615067
0.0598620093257
0.166415081747
0.00206883069858
0.00209670832101
0.00215585592638
0.00228646192516
0.00259072899776
0.00345822353896
0.00668230151902
0.0192346840602
0.0576953894908
0.164783028432
0.00207479844623
0.00210166979497
0.00215881813961
0.00228569179772
0.00258188615492
0.00342655802904
0.00657861218782
0.018793844035
0.0561272873606
0.163861011318
)
;
    }
    atmosphere
    {
        type            inletOutlet;
        inletValue      uniform 0.1;
        value           nonuniform List<scalar> 
16
(
0.1
0.1
0.1
0.1
0.1
0.1
0.1
0.164088181664
0.151881594305
0.132115324402
0.1
0.1
0.1
0.1
0.1
0.1
)
;
    }
    floatingObject
    {
        lowReCorrection 0;
        blending        stepwise;
        n               2;
        type            epsilonWallFunction;
        value           nonuniform List<scalar> 0();
    }
    procBoundary1to0
    {
        type            processor;
        value           nonuniform List<scalar> 10(0.00208064495037 0.00210658244935 0.00216207455145 0.00228707899876 0.00258323941538 0.00342572945828 0.00650343935664 0.0183760441381 0.0564255819029 0.164592047507);
    }
    procBoundary1to2
    {
        type            processor;
        value           nonuniform List<scalar> 
18
(
0.00162554803766
0.00170081733061
0.00186669816406
0.00194173173284
0.00194173173284
0.00198112582728
0.00198112582728
0.00199351687134
0.00200135016456
0.00200789825868
0.00201422529173
0.00202065514612
0.00202721690164
0.0020338632803
0.00204053726844
0.00204718262966
0.00205375326805
0.0020602083125
)
;
    }
}


// ************************************************************************* //
