/*--------------------------------*- C++ -*----------------------------------*\
| =========                 |                                                 |
| \\      /  F ield         | OpenFOAM: The Open Source CFD Toolbox           |
|  \\    /   O peration     | Version:  v2012                                 |
|   \\  /    A nd           | Website:  www.openfoam.com                      |
|    \\/     M anipulation  |                                                 |
\*---------------------------------------------------------------------------*/
FoamFile
{
    version     2.0;
    format      ascii;
    class       surfaceScalarField;
    location    "3.3";
    object      phi;
}
// * * * * * * * * * * * * * * * * * * * * * * * * * * * * * * * * * * * * * //

dimensions      [0 3 -1 0 0 0 0];
oriented        oriented;


internalField   nonuniform List<scalar> 
306
(
-0.00011547252825
1.46448743645e-05
-0.000130969265789
1.54969983335e-05
-0.000147485785445
1.65169013169e-05
-0.000165305951286
1.78206689511e-05
-0.000184410502276
1.91051389589e-05
-0.000204798602215
2.03887185232e-05
-0.000226926278556
2.212824397e-05
-0.000253125338971
2.61994606902e-05
-0.000291296746865
3.81715410171e-05
-0.000358410206854
6.71137197359e-05
-0.000485087675354
0.000126677456345
8.71891578006e-05
-0.000119049722385
2.96420664331e-05
-0.000134848829323
3.12964713129e-05
-0.000151703565057
3.33720956317e-05
-0.000169883549817
3.60012117598e-05
-0.00018975912804
3.89813496516e-05
-0.000211605209311
4.22354414422e-05
-0.000235490403203
4.6014011901e-05
-0.000261628309074
5.23377608749e-05
-0.000290805032778
6.73483941361e-05
-0.000340478022795
0.000116787025682
-0.000507852100242
0.000294050993095
0.000131980551897
-0.00012031174575
-0.00013604526966
4.70303712558e-05
-0.000152751384594
5.0078703564e-05
-0.000170693631479
5.39440416009e-05
-0.000190376400122
5.86647604851e-05
-0.000212389181036
6.42488709222e-05
-0.00023718319213
7.08085918093e-05
-0.000263599290615
7.87542496935e-05
-0.000286806382617
9.05556194314e-05
-0.000321576844965
0.00015155767607
-0.000514251695943
0.00048672608434
0.000176432643658
-0.000134554896691
-0.00015066453433
6.61888462921e-05
-0.000167818495014
7.10985785204e-05
-0.000186618005658
7.74649064572e-05
-0.000207396139298
8.50276422264e-05
-0.0002306212382
9.40342529396e-05
-0.000255536123098
0.000103669517367
-0.000279216119244
0.000114235747691
-0.000304034137578
0.000176375830429
-0.000466540525871
0.000649233336587
0.000200539370481
-0.000146370894305
8.13099739801e-05
-0.000162302626757
8.70308669519e-05
-0.000179221800643
9.43846961548e-05
-0.000197607743871
0.00010341421037
-0.00021809900385
0.000114526064858
-0.000240888981896
0.000126459869205
-0.000265014322484
0.000138361221142
-0.000283473764215
0.000194835373217
-0.000372042752113
0.00073780144977
0.000198266838089
-0.000140715264916
9.51139211025e-05
-0.000155008916098
0.000101325034221
-0.000169705540038
0.000109081908329
-0.000185216905719
0.000118926181363
-0.000201623267025
0.000130932964082
-0.000220371950941
0.000145208916038
-0.000241727387317
0.000159716788646
-0.000254568735321
0.000207676731261
-0.000200811691526
0.00068404230352
0.000213197584984
-0.000134688336195
0.000107688149695
-0.000147167739471
0.00011380491578
-0.000159541322779
0.000121456051654
-0.000171365024112
0.000130750466629
-0.000183584949185
0.000143153410757
-0.000196440155282
0.000158064472462
-0.000211735072905
0.000175011831461
-0.000214268617357
0.000210209726116
6.35878891061e-05
0.000406186910047
0.000307499916524
-0.000128555526552
0.000118882673874
-0.000139281881818
0.000124531704067
-0.000149245761172
0.000131420455747
-0.000158345388915
0.000139850650405
-0.000165876621678
0.000150685142539
-0.00017220652114
0.000164394704686
-0.000177671152818
0.000180476562319
-0.00016840987013
0.000200949590376
3.61045347206e-05
0.000201671583863
0.000267228427986
-0.000122940980626
0.000129004455369
-0.000132214671399
0.000133805786409
-0.000140229275233
0.000139435547519
-0.000146403658141
0.000146025555876
-0.000150025367872
0.000154307322062
-0.000150879179459
0.000165248826826
-0.000147808950366
0.000177406416563
-0.000131420575433
0.000184563118858
-7.98671724433e-05
0.000150116529315
0.00015410042991
-0.000118104403015
0.000138216853389
-0.00012622213152
0.000141923851246
-0.000132789658979
0.000146003513103
-0.000137015977343
0.000150252352243
-0.000138014945012
0.000155306721291
-0.000135655752989
0.000162889917297
-0.000129188154555
0.000170938911381
-0.000108731338661
0.000164105985224
-9.5760230438e-05
0.000137145867128
5.78565106771e-05
-0.000114382669506
0.000146840784564
-0.000121876952135
0.000149418410025
-0.000127746660969
0.000151873603823
-0.000131300600255
0.000153806717007
-0.000131774223995
0.000155780730929
-0.00012871283801
0.000159828781841
-0.000120839339081
0.000163065501365
-0.000101065933373
0.000144331691603
-9.02178800823e-05
0.000126298794966
-4.67000393286e-06
-0.000111832069442
0.00015529464508
-0.000119182928487
0.000156769465169
-0.000125089297303
0.000157780286339
-0.000129193215041
0.000157910999227
-0.000130694510714
0.000157282362993
-0.000128012296531
0.000157146786346
-0.000118316899435
0.000153370187251
-0.000101534824699
0.000127548394178
-9.88768572597e-05
0.00012364210089
-1.54461078573e-05
-0.000110330596725
0.000163832583028
-0.000117926110621
0.000164365098719
-0.000124264837275
0.000164119262887
-0.000128920877682
0.000162567350159
-0.000130941959333
0.000159303738751
-0.000128142972032
0.000154347993524
-0.000118316293499
0.000143543583737
-0.000112624303081
0.000121855640236
-0.00011548663982
0.000126505237784
8.06202869876e-06
-0.000109758798474
0.0001727141943
-0.000117881889733
0.000172488250809
-0.000124985394624
0.000171223008811
-0.000130647361307
0.000168229631732
-0.000133785293428
0.000162441994878
-0.000131853369331
0.000152416281563
-0.00012457577191
0.000136266079969
-0.000127312955204
0.000124591697479
-0.000137317626627
0.000136510974524
3.49115415497e-05
-0.000109941760579
0.000182132386857
-0.000118786497999
0.000181333105146
-0.000126769930827
0.000179206719116
-0.000133239889275
0.000174700021392
-0.00013689350652
0.000166095971759
-0.000136671382168
0.000152194427079
-0.000135990314743
0.00013558511496
-0.000144329147334
0.000132929361528
-0.000150282383316
0.000142465143535
3.91523561611e-05
-0.000110689541541
-0.000120587149135
-0.000130082178846
-0.000138754926799
-0.00014555343222
-0.000149623055643
-0.000153869357227
-0.000160087025446
-0.000162163022129
)
;

boundaryField
{
    back
    {
        type            calculated;
        value           uniform 0;
    }
    sides
    {
        type            calculated;
        value           uniform 0;
    }
    bottom
    {
        type            calculated;
        value           nonuniform List<scalar> 0();
    }
    front
    {
        type            calculated;
        value           uniform 0;
    }
    atmosphere
    {
        type            calculated;
        value           nonuniform List<scalar> 
16
(
-0.000572276832583
-0.000552643139082
-0.000558703992995
-0.00049064783056
-0.000369769318763
-0.000215740752998
-3.07143777367e-05
7.63760820742e-05
3.32608721449e-05
4.83734916301e-07
-2.76913478133e-05
-8.81007478772e-05
-0.000138994807175
-0.000164167269699
-0.000154523399172
-0.000151516266185
)
;
    }
    floatingObject
    {
        type            calculated;
        value           nonuniform List<scalar> 0();
    }
    procBoundary1to0
    {
        type            processor;
        value           nonuniform List<scalar> 10(0.000192260955841 0.000191230830312 0.000188702140777 0.000183373196497 0.000172894927886 0.000156264325494 0.000139831532596 0.000139145481823 0.000144542347774 2.85053957919e-05);
    }
    procBoundary1to2
    {
        type            processor;
        value           nonuniform List<scalar> 
18
(
0.000100827827579
0.000104052728113
0.000105335907697
4.4618263699e-05
0.000119280025773
6.23058602567e-05
0.000131250498864
0.000126911919964
0.0001221146352
0.00011736141103
0.000112819553833
0.000108892238389
0.000105758899744
0.000103378202377
0.000101792538889
0.000100876905235
0.000100523112428
0.000100560663658
)
;
    }
}


// ************************************************************************* //
