/*--------------------------------*- C++ -*----------------------------------*\
| =========                 |                                                 |
| \\      /  F ield         | OpenFOAM: The Open Source CFD Toolbox           |
|  \\    /   O peration     | Version:  v2012                                 |
|   \\  /    A nd           | Website:  www.openfoam.com                      |
|    \\/     M anipulation  |                                                 |
\*---------------------------------------------------------------------------*/
FoamFile
{
    version     2.0;
    format      ascii;
    class       volScalarField;
    location    "2.8";
    object      k_0;
}
// * * * * * * * * * * * * * * * * * * * * * * * * * * * * * * * * * * * * * //

dimensions      [0 2 -2 0 0 0 0];


internalField   nonuniform List<scalar> 
167
(
0.00292750264872
0.00340259056077
0.00355626453695
0.00361435341438
0.00364219504365
0.00366122405257
0.00367813697136
0.00369492007098
0.00341331502174
0.00418813119889
0.00442413189874
0.00451059220996
0.00454757683326
0.00456941296993
0.00458711358128
0.00460406614637
0.00356804217986
0.00442703580465
0.00469271600231
0.00478945193794
0.00482927493546
0.00485152544944
0.00486915513575
0.00488607405959
0.00362669667244
0.00451610704664
0.00479331287938
0.00489381485564
0.00493420209243
0.00495608703937
0.00497322702512
0.00498980112384
0.0050073548985
0.00365412586568
0.00455443635675
0.00483587833552
0.00493738169953
0.00497739037589
0.00499853518475
0.00501496271831
0.00503099360175
0.00504815344252
0.00506820886994
0.00367172652509
0.00457617052009
0.00485900119761
0.00496040391481
0.00499968982878
0.00501996007272
0.00503557313975
0.00505091062
0.00506748348178
0.00508700559594
0.00368617530577
0.00459273336203
0.00487592249835
0.00497686849921
0.00501535523374
0.00503475244086
0.00504954625537
0.00506413142941
0.00508003800816
0.00509887163861
0.00369963219958
0.00460759847947
0.00489091599905
0.00499136078494
0.00502910163324
0.00504769956388
0.0050617081762
0.00507557032693
0.00509079314847
0.00510889245321
0.00371255831659
0.00462189430892
0.00490528870846
0.00500526684533
0.00504234181199
0.00506023338471
0.00507353900513
0.00508672726919
0.00510128157257
0.0051186620532
0.00372508327972
0.00463587420786
0.00491937000644
0.00501892930355
0.00505542288857
0.0050726877088
0.00508537983835
0.00509795478724
0.00511190576775
0.00512859497784
0.00373726810741
0.00464951359439
0.00493317495794
0.00503238282508
0.00506836980499
0.00508509188874
0.00509723476605
0.00510927498699
0.00512266505351
0.00513872166193
0.00374907014892
0.00466283889979
0.0049466852453
0.00504557825449
0.00508112279285
0.00509737476098
0.00510904079523
0.00512059999155
0.00513349732246
0.00514895204577
0.00376040867268
0.00467579701966
0.00495985247886
0.00505846594215
0.00509361191485
0.00510945319012
0.00512070603869
0.00513184223861
0.00514428588955
0.00515920870753
0.00377130226796
0.0046883444518
0.00497261897627
0.005070978866
0.00510577433031
0.00512125516622
0.00513214712956
0.00514291687455
0.00515496502025
0.00516940241481
0.00378171579729
0.00470043713876
0.0049849126503
0.0050830609673
0.00511754783749
0.005132715945
0.00514328830362
0.00515374464606
0.00516546142176
0.00517947260374
0.00379160272837
0.00471202878318
0.00499672623797
0.00509467444907
0.00512887808426
0.00514377473111
0.00515409771436
0.00516427849056
0.00517568741478
0.00518935804424
0.00380097918509
0.0047231130695
0.00500802063585
0.00510576942459
0.00513974769406
0.00515442239208
0.00516452302308
0.00380989018859
0.00473356230719
0.00501871362823
0.00511634034651
0.00515010967289
0.00502880165469
0.00512631112496
)
;

boundaryField
{
    back
    {
        type            kqRWallFunction;
        value           nonuniform List<scalar> 
167
(
0.00292750264872
0.00340259056077
0.00355626453695
0.00361435341438
0.00364219504365
0.00366122405257
0.00367813697136
0.00369492007098
0.00341331502174
0.00418813119889
0.00442413189874
0.00451059220996
0.00454757683326
0.00456941296993
0.00458711358128
0.00460406614637
0.00356804217986
0.00442703580465
0.00469271600231
0.00478945193794
0.00482927493546
0.00485152544944
0.00486915513575
0.00488607405959
0.00362669667244
0.00451610704664
0.00479331287938
0.00489381485564
0.00493420209243
0.00495608703937
0.00497322702512
0.00498980112384
0.0050073548985
0.00365412586568
0.00455443635675
0.00483587833552
0.00493738169953
0.00497739037589
0.00499853518475
0.00501496271831
0.00503099360175
0.00504815344252
0.00506820886994
0.00367172652509
0.00457617052009
0.00485900119761
0.00496040391481
0.00499968982878
0.00501996007272
0.00503557313975
0.00505091062
0.00506748348178
0.00508700559594
0.00368617530577
0.00459273336203
0.00487592249835
0.00497686849921
0.00501535523374
0.00503475244086
0.00504954625537
0.00506413142941
0.00508003800816
0.00509887163861
0.00369963219958
0.00460759847947
0.00489091599905
0.00499136078494
0.00502910163324
0.00504769956388
0.0050617081762
0.00507557032693
0.00509079314847
0.00510889245321
0.00371255831659
0.00462189430892
0.00490528870846
0.00500526684533
0.00504234181199
0.00506023338471
0.00507353900513
0.00508672726919
0.00510128157257
0.0051186620532
0.00372508327972
0.00463587420786
0.00491937000644
0.00501892930355
0.00505542288857
0.0050726877088
0.00508537983835
0.00509795478724
0.00511190576775
0.00512859497784
0.00373726810741
0.00464951359439
0.00493317495794
0.00503238282508
0.00506836980499
0.00508509188874
0.00509723476605
0.00510927498699
0.00512266505351
0.00513872166193
0.00374907014892
0.00466283889979
0.0049466852453
0.00504557825449
0.00508112279285
0.00509737476098
0.00510904079523
0.00512059999155
0.00513349732246
0.00514895204577
0.00376040867268
0.00467579701966
0.00495985247886
0.00505846594215
0.00509361191485
0.00510945319012
0.00512070603869
0.00513184223861
0.00514428588955
0.00515920870753
0.00377130226796
0.0046883444518
0.00497261897627
0.005070978866
0.00510577433031
0.00512125516622
0.00513214712956
0.00514291687455
0.00515496502025
0.00516940241481
0.00378171579729
0.00470043713876
0.0049849126503
0.0050830609673
0.00511754783749
0.005132715945
0.00514328830362
0.00515374464606
0.00516546142176
0.00517947260374
0.00379160272837
0.00471202878318
0.00499672623797
0.00509467444907
0.00512887808426
0.00514377473111
0.00515409771436
0.00516427849056
0.00517568741478
0.00518935804424
0.00380097918509
0.0047231130695
0.00500802063585
0.00510576942459
0.00513974769406
0.00515442239208
0.00516452302308
0.00380989018859
0.00473356230719
0.00501871362823
0.00511634034651
0.00515010967289
0.00502880165469
0.00512631112496
)
;
    }
    sides
    {
        type            kqRWallFunction;
        value           nonuniform List<scalar> 8(0.00292750264872 0.00340259056077 0.00355626453695 0.00361435341438 0.00364219504365 0.00366122405257 0.00367813697136 0.00369492007098);
    }
    bottom
    {
        type            kqRWallFunction;
        value           nonuniform List<scalar> 
18
(
0.00292750264872
0.00341331502174
0.00356804217986
0.00362669667244
0.00365412586568
0.00367172652509
0.00368617530577
0.00369963219958
0.00371255831659
0.00372508327972
0.00373726810741
0.00374907014892
0.00376040867268
0.00377130226796
0.00378171579729
0.00379160272837
0.00380097918509
0.00380989018859
)
;
    }
    front
    {
        type            kqRWallFunction;
        value           nonuniform List<scalar> 
167
(
0.00292750264872
0.00340259056077
0.00355626453695
0.00361435341438
0.00364219504365
0.00366122405257
0.00367813697136
0.00369492007098
0.00341331502174
0.00418813119889
0.00442413189874
0.00451059220996
0.00454757683326
0.00456941296993
0.00458711358128
0.00460406614637
0.00356804217986
0.00442703580465
0.00469271600231
0.00478945193794
0.00482927493546
0.00485152544944
0.00486915513575
0.00488607405959
0.00362669667244
0.00451610704664
0.00479331287938
0.00489381485564
0.00493420209243
0.00495608703937
0.00497322702512
0.00498980112384
0.0050073548985
0.00365412586568
0.00455443635675
0.00483587833552
0.00493738169953
0.00497739037589
0.00499853518475
0.00501496271831
0.00503099360175
0.00504815344252
0.00506820886994
0.00367172652509
0.00457617052009
0.00485900119761
0.00496040391481
0.00499968982878
0.00501996007272
0.00503557313975
0.00505091062
0.00506748348178
0.00508700559594
0.00368617530577
0.00459273336203
0.00487592249835
0.00497686849921
0.00501535523374
0.00503475244086
0.00504954625537
0.00506413142941
0.00508003800816
0.00509887163861
0.00369963219958
0.00460759847947
0.00489091599905
0.00499136078494
0.00502910163324
0.00504769956388
0.0050617081762
0.00507557032693
0.00509079314847
0.00510889245321
0.00371255831659
0.00462189430892
0.00490528870846
0.00500526684533
0.00504234181199
0.00506023338471
0.00507353900513
0.00508672726919
0.00510128157257
0.0051186620532
0.00372508327972
0.00463587420786
0.00491937000644
0.00501892930355
0.00505542288857
0.0050726877088
0.00508537983835
0.00509795478724
0.00511190576775
0.00512859497784
0.00373726810741
0.00464951359439
0.00493317495794
0.00503238282508
0.00506836980499
0.00508509188874
0.00509723476605
0.00510927498699
0.00512266505351
0.00513872166193
0.00374907014892
0.00466283889979
0.0049466852453
0.00504557825449
0.00508112279285
0.00509737476098
0.00510904079523
0.00512059999155
0.00513349732246
0.00514895204577
0.00376040867268
0.00467579701966
0.00495985247886
0.00505846594215
0.00509361191485
0.00510945319012
0.00512070603869
0.00513184223861
0.00514428588955
0.00515920870753
0.00377130226796
0.0046883444518
0.00497261897627
0.005070978866
0.00510577433031
0.00512125516622
0.00513214712956
0.00514291687455
0.00515496502025
0.00516940241481
0.00378171579729
0.00470043713876
0.0049849126503
0.0050830609673
0.00511754783749
0.005132715945
0.00514328830362
0.00515374464606
0.00516546142176
0.00517947260374
0.00379160272837
0.00471202878318
0.00499672623797
0.00509467444907
0.00512887808426
0.00514377473111
0.00515409771436
0.00516427849056
0.00517568741478
0.00518935804424
0.00380097918509
0.0047231130695
0.00500802063585
0.00510576942459
0.00513974769406
0.00515442239208
0.00516452302308
0.00380989018859
0.00473356230719
0.00501871362823
0.00511634034651
0.00515010967289
0.00502880165469
0.00512631112496
)
;
    }
    atmosphere
    {
        type            inletOutlet;
        inletValue      nonuniform List<scalar> 0();
        value           nonuniform List<scalar> 0();
    }
    floatingObject
    {
        type            kqRWallFunction;
        value           nonuniform List<scalar> 0();
    }
    procBoundary2to0
    {
        type            processor;
        value           nonuniform List<scalar> 
14
(
0.0051744494509
0.00518565390555
0.00519900866983
0.00516458665169
0.0051744494509
0.00517453953141
0.00381822279672
0.00474336800416
0.00516458665169
0.00515993868633
0.00474336800416
0.00503827076373
0.00515993868633
0.00513569925513
)
;
    }
    procBoundary2to1
    {
        type            processor;
        value           nonuniform List<scalar> 
18
(
0.00371238717694
0.00462157331651
0.00490369466585
0.00490369466585
0.00502764449673
0.00502764449673
0.00509597532789
0.00511404895321
0.00512499223215
0.00513401519387
0.00514279922778
0.00515175288195
0.00516094776055
0.00517031190172
0.00517974552729
0.0051891909035
0.00519861325241
0.00520790550224
)
;
    }
}


// ************************************************************************* //
