/*--------------------------------*- C++ -*----------------------------------*\
| =========                 |                                                 |
| \\      /  F ield         | OpenFOAM: The Open Source CFD Toolbox           |
|  \\    /   O peration     | Version:  v2012                                 |
|   \\  /    A nd           | Website:  www.openfoam.com                      |
|    \\/     M anipulation  |                                                 |
\*---------------------------------------------------------------------------*/
FoamFile
{
    version     2.0;
    format      ascii;
    class       volVectorField;
    location    "2.8";
    object      U;
}
// * * * * * * * * * * * * * * * * * * * * * * * * * * * * * * * * * * * * * //

dimensions      [0 1 -1 0 0 0 0];


internalField   nonuniform List<vector> 
167
(
(0.000121163912586 -0.000143898503551 5.53680105034e-22)
(0.000393453274099 -0.000948918263211 1.01073319031e-21)
(0.000488747971345 -0.00195122547268 4.63833874451e-22)
(0.000479589340651 -0.00296077002335 -3.30844225615e-22)
(0.000431916292031 -0.00396705677213 -9.38119239687e-22)
(0.000406983629026 -0.00494131213034 -8.69595806783e-22)
(0.000386222262566 -0.00586444087623 -6.14896147244e-22)
(0.000366423570816 -0.00676075880578 1.91533513925e-22)
(0.000984091135398 -0.000416815674248 8.18209623551e-22)
(0.00135707141633 -0.00138322399067 1.35844789327e-21)
(0.00154110362647 -0.00236126433448 5.06516141592e-22)
(0.00156723090727 -0.00335756388211 -4.73847743382e-22)
(0.00153192398493 -0.00439603518432 -1.10334918233e-21)
(0.00149246949372 -0.00543451651553 -1.21090095429e-21)
(0.00146199099095 -0.0064543529174 -9.10635227451e-22)
(0.00141561994927 -0.00744607402739 -2.30662228471e-22)
(0.00202089638841 -0.000508888087507 1.64386516876e-21)
(0.00235316112585 -0.00159493378377 2.14898336427e-21)
(0.00257129709533 -0.00263580918602 1.15754173927e-21)
(0.00262110243699 -0.0036704528104 3.90237312931e-23)
(0.00260131969806 -0.00476144492568 -5.87898601836e-22)
(0.0025526860378 -0.00585660806574 -5.4629339732e-22)
(0.00250188391207 -0.00694634920445 -4.36939501479e-22)
(0.00243442539289 -0.00803129603364 -2.5881838428e-23)
(0.00309547399617 -0.000505826077771 1.36843103067e-21)
(0.00337194598227 -0.00165089476172 2.00298606912e-21)
(0.00360912773686 -0.00272602712658 1.25301018796e-21)
(0.00370034759135 -0.00380093695393 3.6559657678e-22)
(0.00369158870441 -0.00492846964682 -7.55705605899e-23)
(0.0036558166886 -0.00606855047783 -1.82110925998e-22)
(0.00359005345941 -0.00720086527583 -2.17460387993e-22)
(0.00351129985424 -0.0083346118927 6.86474693133e-23)
(0.00340962682942 -0.00944593642853 1.1627293211e-22)
(0.00418601236855 -0.00046880410892 1.06272425392e-21)
(0.00446746550458 -0.00164131004574 1.68840182375e-21)
(0.00472891275384 -0.00272287337489 1.35607977464e-21)
(0.00483723500732 -0.0038363391431 5.22899454819e-22)
(0.00484397424983 -0.00500027862315 1.18832161123e-22)
(0.00481723537972 -0.00616503779091 1.8784800376e-23)
(0.00475731098964 -0.00733030298151 3.53128845329e-24)
(0.00468411182146 -0.00848855401549 2.00380702717e-23)
(0.00456151951928 -0.00965523802071 2.7592124312e-23)
(0.00438615739483 -0.0108187484797 -6.78752631623e-24)
(0.00524705244838 -0.000445769172461 7.50936115861e-22)
(0.00557205145884 -0.00161967727387 1.4108952154e-21)
(0.00586536262656 -0.00271948401402 1.11432520147e-21)
(0.00598283768494 -0.00384894731583 4.438867468e-22)
(0.00601196727579 -0.00502569313389 1.29753656162e-22)
(0.00599457682504 -0.00621596111986 2.57523208845e-23)
(0.00595284245714 -0.00739947145023 1.19768065861e-23)
(0.00587159587291 -0.00860715712794 1.56986800162e-24)
(0.0057372473073 -0.00983522868197 -1.28921566618e-23)
(0.00557174960138 -0.0110466668461 1.51596301137e-23)
(0.00628626868961 -0.000431814605361 6.26889161826e-22)
(0.00666538224569 -0.00160183881766 1.32144224562e-21)
(0.00700242369018 -0.0027129559342 8.11768077891e-22)
(0.00715506034186 -0.00384697196138 3.17072483632e-22)
(0.00720002303162 -0.00503561843286 9.10185797882e-23)
(0.00719500439212 -0.00624188771921 2.17719908231e-23)
(0.0071699428741 -0.00746609745573 -8.33406941438e-24)
(0.00709358844182 -0.00871964328637 -9.29732198688e-24)
(0.00699224911751 -0.00997746547919 -2.75261393395e-23)
(0.00682213766738 -0.01124492871 1.17575478074e-23)
(0.00731187005233 -0.000421168195582 9.69335943686e-22)
(0.00774498170332 -0.00158584689679 1.45632667545e-21)
(0.0081431564062 -0.00269704453566 1.12764180458e-21)
(0.0083311178988 -0.00382891803565 4.51054775703e-22)
(0.00840030738147 -0.00503158008751 1.19632480047e-22)
(0.00842553820574 -0.00625502835298 2.54756485676e-23)
(0.00841013890128 -0.00750158844518 8.69447741192e-24)
(0.00837360044049 -0.00878550940785 -7.8236057201e-25)
(0.00829163161556 -0.0101107814862 -4.15731673592e-24)
(0.00814105709182 -0.0114714040583 8.21486953341e-25)
(0.00832608428033 -0.00041524768721 8.68994425237e-22)
(0.00881595553175 -0.00156299632054 1.46150890587e-21)
(0.00928648203146 -0.00266781694243 1.03503548422e-21)
(0.00950969357957 -0.00379435994633 4.69454490965e-22)
(0.00960795624846 -0.0049927532371 1.22256638732e-22)
(0.00966794966352 -0.00624056280829 5.67034334856e-23)
(0.00969662244267 -0.00751660650254 2.49730841716e-23)
(0.00969654698001 -0.00883656661043 -7.38204190283e-25)
(0.00965477280269 -0.0102113511609 6.60820083203e-24)
(0.00954523952913 -0.0116355529937 1.65337738005e-23)
(0.0093207345632 -0.000410286256475 6.2990966184e-22)
(0.00988217285994 -0.00152832842146 9.43769692498e-22)
(0.0104107709583 -0.00261938242077 8.36034097559e-22)
(0.0106855959399 -0.00374082828225 3.6991646456e-22)
(0.0108173537734 -0.00493274608191 9.42528887312e-23)
(0.0109115074069 -0.00617638232475 1.70688098063e-23)
(0.0110003425942 -0.00747168145548 5.25351468022e-24)
(0.0110616209869 -0.00882513111599 5.1926820851e-25)
(0.0110880769237 -0.010263135957 1.08945324701e-23)
(0.0110550270714 -0.0117797006047 2.48257105792e-23)
(0.010297471501 -0.000392320715294 -1.3890239716e-22)
(0.0109274415474 -0.00148597119274 6.03133381607e-22)
(0.0115163358487 -0.00255508670838 3.26553859092e-22)
(0.0118429667926 -0.00365015235368 2.80540093461e-22)
(0.0120234085031 -0.00483440194866 5.67532837077e-23)
(0.0121700186833 -0.00606914295022 5.41705638833e-24)
(0.0123146952303 -0.00736524371662 -7.05024545953e-25)
(0.0124579211207 -0.00874678782182 -2.0751382176e-24)
(0.0125762664323 -0.0102197441276 -2.71519879658e-25)
(0.01265291856 -0.0118147689756 7.32281420894e-24)
(0.0112408585335 -0.000376198665648 -7.79614724808e-23)
(0.0119284514832 -0.00143134643183 6.69197460686e-22)
(0.0125971558561 -0.00246844182093 5.91163485362e-22)
(0.0129747020238 -0.00352494398193 3.06051658391e-22)
(0.0132097452195 -0.00468126804473 5.49810667647e-23)
(0.0134203477723 -0.00589846584516 3.29090204107e-24)
(0.0136420083449 -0.00718283179945 -7.12818370269e-25)
(0.0138742420799 -0.00856129322175 -5.82206651592e-24)
(0.0141154547702 -0.010069031682 -4.64007399688e-24)
(0.0143257291864 -0.011724085685 9.49203717977e-24)
(0.0121290434289 -0.000357038224497 1.90784254993e-23)
(0.0128865969572 -0.00135949109765 7.3614414709e-22)
(0.0136339598992 -0.00234718689811 7.46571940548e-22)
(0.0140733477816 -0.00335805035935 3.24792380491e-22)
(0.0143632077882 -0.00447262644342 5.19732726985e-23)
(0.0146439891958 -0.00565194937887 5.00837156656e-24)
(0.0149564575195 -0.00691071575524 2.02629873265e-24)
(0.015302201515 -0.00827137795464 1.30395711742e-23)
(0.0156727769071 -0.0097686214841 -8.72630345639e-25)
(0.0160669459427 -0.0114427379361 -7.36442446162e-24)
(0.0129636370692 -0.000326803126646 -3.33647418513e-22)
(0.013802236051 -0.00126478037477 3.91891824659e-22)
(0.0146225126731 -0.00219328528171 2.74590875814e-22)
(0.0151159327181 -0.00314403758375 2.39240648203e-22)
(0.0154681811032 -0.00420257037403 4.53189872716e-23)
(0.0158219567667 -0.00532258756226 -2.53168101812e-24)
(0.0162321445064 -0.006524636705 -4.10615841905e-24)
(0.016701312542 -0.00784240831415 -7.64671867772e-24)
(0.017228781214 -0.00930270221854 -2.43117442782e-23)
(0.0178196077274 -0.0109446021466 -2.19344033395e-23)
(0.0137459495623 -0.000287898462827 -5.54845577581e-22)
(0.0146507447105 -0.00114614028449 -2.01432426948e-22)
(0.0155451094625 -0.0020166710731 -2.06266904186e-22)
(0.0161024936041 -0.00288849754066 -4.41768816977e-23)
(0.0165112926541 -0.00386682370822 -2.15215664067e-23)
(0.0169385660442 -0.00490630441691 -1.11401267255e-23)
(0.0174401292331 -0.0060294634401 -2.99414738629e-24)
(0.0180313471877 -0.00726998480429 -6.42980481244e-24)
(0.0187226697077 -0.00864649275437 -2.98376882432e-24)
(0.0195205238436 -0.0102041968281 -8.39600686504e-24)
(0.0144520790509 -0.000248633085262 -1.1136771341e-21)
(0.0154098397337 -0.00101628589862 -6.46650772152e-22)
(0.0163823598949 -0.00179684620098 -4.69660438982e-22)
(0.0170008824659 -0.00258323751959 -1.59313676493e-22)
(0.017469040055 -0.00347464693497 -6.38863109055e-23)
(0.0179696042272 -0.00441243954237 -8.88538772376e-24)
(0.0185571678228 -0.00542879406683 3.10001789772e-24)
(0.0192701811766 -0.00655225396015 2.31894105426e-24)
(0.0201178088177 -0.00780555067535 1.52469564394e-23)
(0.0211184934877 -0.00921946354436 1.84072428561e-23)
(0.0150556613616 -0.000212371047144 -1.04262027196e-21)
(0.0160826845533 -0.000872793016062 -4.9304756509e-22)
(0.0171203931137 -0.00155338507713 -2.77261200716e-22)
(0.0177862897845 -0.00223561857563 -8.89720910906e-23)
(0.0183140205616 -0.00301525877134 -3.02886348818e-23)
(0.0188819734863 -0.00383933356225 2.98841174788e-24)
(0.0195587573095 -0.0047242991201 2.61106431695e-23)
(0.0155538501653 -0.000158735910274 -4.2765753368e-22)
(0.0166518078866 -0.000714108024438 7.21570084517e-23)
(0.017751387274 -0.0012910886124 3.24564938012e-23)
(0.0184659997031 -0.00185309126024 1.30493585534e-23)
(0.0190368460014 -0.0025058660077 -3.4534055452e-23)
(0.0182771153424 -0.00100687066884 2.53896668674e-22)
(0.0190273184935 -0.00144193066742 2.04092824339e-22)
)
;

boundaryField
{
    back
    {
        type            noSlip;
    }
    sides
    {
        type            noSlip;
    }
    bottom
    {
        type            noSlip;
    }
    front
    {
        type            noSlip;
    }
    atmosphere
    {
        type            pressureInletOutletVelocity;
        value           nonuniform List<vector> 0();
    }
    floatingObject
    {
        type            movingWallVelocity;
        value           nonuniform List<vector> 0();
    }
    procBoundary2to0
    {
        type            processor;
        value           nonuniform List<vector> 
14
(
(0.0203778778505 -0.00569801971689 1.01080095348e-23)
(0.021365484524 -0.00678774865047 6.6909115347e-24)
(0.0225482219639 -0.00802007148597 1.31967752245e-23)
(0.019656704964 -0.00319024542897 -1.14218666712e-23)
(0.0203778778505 -0.00569801971689 1.01080095348e-23)
(0.0204058317466 -0.00392880109633 1.19053075197e-24)
(0.0159584434866 -9.63994333432e-05 9.47409399252e-23)
(0.0171140013552 -0.000539623572325 5.51491540803e-22)
(0.019656704964 -0.00319024542897 -1.14218666712e-23)
(0.0196282861339 -0.00196130483023 1.82965590835e-23)
(0.0171140013552 -0.000539623572325 5.51491540803e-22)
(0.0186793839817 -0.000713541522293 6.55671045314e-23)
(0.0196282861339 -0.00196130483023 1.82965590835e-23)
(0.0194539943792 -0.00102196511658 1.12918116102e-22)
)
;
    }
    procBoundary2to1
    {
        type            processor;
        value           nonuniform List<vector> 
18
(
(0.000355258847623 -0.00761708782868 8.91013860433e-22)
(0.00136045662769 -0.00840314490162 9.91825381314e-23)
(0.00233935820136 -0.00908236149059 1.67859574105e-22)
(0.00233935820136 -0.00908236149059 1.67859574105e-22)
(0.0032521780261 -0.0105350739762 -1.49285799119e-22)
(0.0032521780261 -0.0105350739762 -1.49285799119e-22)
(0.00415316224192 -0.0119569374373 -6.23943830767e-24)
(0.0053399196019 -0.0122390466654 -1.37374042946e-23)
(0.00657623622751 -0.0125397900146 -1.11262162639e-23)
(0.00790568920716 -0.0128433273156 -4.41615283239e-24)
(0.00935168800793 -0.0131326898807 -4.28372870644e-24)
(0.0109143628777 -0.0133801810511 -1.04113520233e-23)
(0.0126363404344 -0.0135510801209 -1.47953988514e-23)
(0.0144900481719 -0.0135550947242 -1.34617710857e-23)
(0.0164528570928 -0.0133329993792 -2.44152643568e-23)
(0.0184656363475 -0.0128243823248 -1.96910570298e-23)
(0.0204419099774 -0.0120008195683 -1.14142308993e-23)
(0.0222934551723 -0.0108617721638 9.5945231805e-25)
)
;
    }
}


// ************************************************************************* //
