/*--------------------------------*- C++ -*----------------------------------*\
| =========                 |                                                 |
| \\      /  F ield         | OpenFOAM: The Open Source CFD Toolbox           |
|  \\    /   O peration     | Version:  v2012                                 |
|   \\  /    A nd           | Website:  www.openfoam.com                      |
|    \\/     M anipulation  |                                                 |
\*---------------------------------------------------------------------------*/
FoamFile
{
    version     2.0;
    format      ascii;
    class       volScalarField;
    location    "2.2";
    object      ddt0(k);
}
// * * * * * * * * * * * * * * * * * * * * * * * * * * * * * * * * * * * * * //

dimensions      [0 2 -3 0 0 0 0];


internalField   nonuniform List<scalar> 
166
(
-0.00486648521109
-0.00487476103978
-0.00488545395911
-0.00490121274396
-0.00493533685126
-0.00503068300773
-0.00530714994041
-0.00601875861604
-0.00751308681445
-0.00999512089444
-0.0137632129023
-0.0198373058666
0.176876145482
-0.00485845078543
-0.00486290887339
-0.00486935578572
-0.00487723075637
-0.00488698400574
-0.00490147245402
-0.00493289746331
-0.00502330431037
-0.00529068929216
-0.00598770401303
-0.00747712816048
-0.0101634736537
-0.0156313173257
-0.033966800075
-0.0758995948874
-0.00373320807665
-0.00462850365728
-0.00486052939339
-0.00486210121537
-0.00486618870418
-0.0048720299636
-0.00487911336593
-0.00488776964987
-0.00490060620227
-0.00492901140396
-0.00501282821018
-0.00526384443656
-0.00592097050282
-0.00736856868804
-0.0104730565305
-0.0189253580734
-0.046672902794
-0.140317765395
-0.00373441779134
-0.0046298744246
-0.00482451536492
-0.00486086648443
-0.0048643376892
-0.00486585653021
-0.00486949045409
-0.00487468280963
-0.00488091440325
-0.0048884313492
-0.00489950320898
-0.0049246004596
-0.00500075131104
-0.0052322445627
-0.00584345893214
-0.00724041444121
-0.0106463737348
-0.0207217986615
-0.0494049152857
-0.0940527453508
-0.00373560742702
-0.00463055290949
-0.00482673615271
-0.00486433237602
-0.00486827154515
-0.00486967911596
-0.00487289990662
-0.00487748366926
-0.00488290535546
-0.00488927441177
-0.0048985918738
-0.00492025629074
-0.00498818419047
-0.00519875434144
-0.00576512305668
-0.00711818088293
-0.0107026818344
-0.021366780862
-0.0435694367274
0.231911509577
-0.00373675520165
-0.00463061388292
-0.00482868407407
-0.00486776636216
-0.00487229590632
-0.00487368506574
-0.00487656544959
-0.00488058996873
-0.00488523918882
-0.00489055197807
-0.00489823192772
-0.00491653288949
-0.00497607918223
-0.00516502668566
-0.00568446090415
-0.00698287616382
-0.01061145943
-0.0211079214985
-0.0345563840861
0.0944676189392
-0.00373771891767
-0.0046300415019
-0.00483037806167
-0.0048712079716
-0.00487649036667
-0.00487795530659
-0.00488054942193
-0.00488407383848
-0.00488808243319
-0.00489253338119
-0.00489874839046
-0.0049139076611
-0.00496513066512
-0.00513201501053
-0.0056023260856
-0.00682724299096
-0.0103854401947
-0.0204487124949
-0.0315731918255
0.0737396723984
-0.00373871284592
-0.00462901896677
-0.00483198102536
-0.00487478702481
-0.00488092419646
-0.00488254089233
-0.00488495320401
-0.00488814632917
-0.00489166352883
-0.00489540165383
-0.00490038298536
-0.00491269395739
-0.00495592283583
-0.00510030470141
-0.00551859085922
-0.00665175348598
-0.010035424333
-0.0194466206449
-0.0278226783234
0.0891954606444
-0.00373978996188
-0.00462746604471
-0.0048334956471
-0.00487852636084
-0.00488566230694
-0.00488754138155
-0.0048898871937
-0.00489284178567
-0.00489601194971
-0.00489928769539
-0.00490335548719
-0.00491326579192
-0.00494881866932
-0.00507080736149
-0.00543286441488
-0.00644896613474
-0.00954953901422
-0.0178755957068
-0.0164011589845
0.104539351078
)
;

boundaryField
{
    back
    {
        type            calculated;
        value           nonuniform List<scalar> 
166
(
-0.00486648521109
-0.00487476103978
-0.00488545395911
-0.00490121274396
-0.00493533685126
-0.00503068300773
-0.00530714994041
-0.00601875861604
-0.00751308681445
-0.00999512089444
-0.0137632129023
-0.0198373058666
0.176876145482
-0.00485845078543
-0.00486290887339
-0.00486935578572
-0.00487723075637
-0.00488698400574
-0.00490147245402
-0.00493289746331
-0.00502330431037
-0.00529068929216
-0.00598770401303
-0.00747712816048
-0.0101634736537
-0.0156313173257
-0.033966800075
-0.0758995948874
-0.00373320807665
-0.00462850365728
-0.00486052939339
-0.00486210121537
-0.00486618870418
-0.0048720299636
-0.00487911336593
-0.00488776964987
-0.00490060620227
-0.00492901140396
-0.00501282821018
-0.00526384443656
-0.00592097050283
-0.00736856868804
-0.0104730565305
-0.0189253580734
-0.046672902794
-0.140317765395
-0.00373441779134
-0.0046298744246
-0.00482451536492
-0.00486086648443
-0.0048643376892
-0.00486585653021
-0.00486949045409
-0.00487468280963
-0.00488091440325
-0.0048884313492
-0.00489950320898
-0.0049246004596
-0.00500075131104
-0.0052322445627
-0.00584345893214
-0.00724041444121
-0.0106463737348
-0.0207217986615
-0.0494049152857
-0.0940527453508
-0.00373560742702
-0.00463055290949
-0.00482673615271
-0.00486433237602
-0.00486827154515
-0.00486967911596
-0.00487289990662
-0.00487748366926
-0.00488290535546
-0.00488927441177
-0.0048985918738
-0.00492025629074
-0.00498818419047
-0.00519875434144
-0.00576512305668
-0.00711818088293
-0.0107026818344
-0.021366780862
-0.0435694367274
0.231911509577
-0.00373675520165
-0.00463061388292
-0.00482868407407
-0.00486776636216
-0.00487229590632
-0.00487368506574
-0.00487656544959
-0.00488058996873
-0.00488523918882
-0.00489055197807
-0.00489823192772
-0.00491653288949
-0.00497607918223
-0.00516502668566
-0.00568446090415
-0.00698287616382
-0.01061145943
-0.0211079214985
-0.0345563840861
0.0944676189392
-0.00373771891767
-0.0046300415019
-0.00483037806167
-0.0048712079716
-0.00487649036667
-0.00487795530659
-0.00488054942193
-0.00488407383848
-0.00488808243319
-0.00489253338119
-0.00489874839046
-0.0049139076611
-0.00496513066512
-0.00513201501053
-0.0056023260856
-0.00682724299096
-0.0103854401947
-0.0204487124949
-0.0315731918255
0.0737396723984
-0.00373871284592
-0.00462901896677
-0.00483198102536
-0.00487478702481
-0.00488092419646
-0.00488254089233
-0.00488495320401
-0.00488814632917
-0.00489166352883
-0.00489540165383
-0.00490038298536
-0.00491269395739
-0.00495592283583
-0.00510030470141
-0.00551859085922
-0.00665175348598
-0.010035424333
-0.0194466206449
-0.0278226783234
0.0891954606444
-0.00373978996188
-0.00462746604471
-0.0048334956471
-0.00487852636084
-0.00488566230694
-0.00488754138155
-0.0048898871937
-0.00489284178567
-0.00489601194971
-0.00489928769539
-0.00490335548719
-0.00491326579192
-0.00494881866932
-0.00507080736149
-0.00543286441488
-0.00644896613475
-0.00954953901422
-0.0178755957068
-0.0164011589845
0.104539351078
)
;
    }
    sides
    {
        type            calculated;
        value           nonuniform List<scalar> 0();
    }
    bottom
    {
        type            calculated;
        value           nonuniform List<scalar> 7(-0.00373320807665 -0.00373441779134 -0.00373560742702 -0.00373675520165 -0.00373771891767 -0.00373871284592 -0.00373978996188);
    }
    front
    {
        type            calculated;
        value           nonuniform List<scalar> 
166
(
-0.00486648521109
-0.00487476103978
-0.00488545395911
-0.00490121274396
-0.00493533685126
-0.00503068300773
-0.00530714994041
-0.00601875861604
-0.00751308681445
-0.00999512089444
-0.0137632129023
-0.0198373058666
0.176876145482
-0.00485845078543
-0.00486290887339
-0.00486935578572
-0.00487723075637
-0.00488698400574
-0.00490147245402
-0.00493289746331
-0.00502330431037
-0.00529068929216
-0.00598770401303
-0.00747712816048
-0.0101634736537
-0.0156313173257
-0.033966800075
-0.0758995948874
-0.00373320807665
-0.00462850365728
-0.00486052939339
-0.00486210121537
-0.00486618870418
-0.0048720299636
-0.00487911336593
-0.00488776964987
-0.00490060620227
-0.00492901140396
-0.00501282821018
-0.00526384443656
-0.00592097050283
-0.00736856868804
-0.0104730565305
-0.0189253580734
-0.046672902794
-0.140317765395
-0.00373441779134
-0.0046298744246
-0.00482451536492
-0.00486086648443
-0.0048643376892
-0.00486585653021
-0.00486949045409
-0.00487468280963
-0.00488091440325
-0.0048884313492
-0.00489950320898
-0.0049246004596
-0.00500075131104
-0.0052322445627
-0.00584345893214
-0.00724041444121
-0.0106463737348
-0.0207217986615
-0.0494049152857
-0.0940527453508
-0.00373560742702
-0.00463055290949
-0.00482673615271
-0.00486433237602
-0.00486827154515
-0.00486967911596
-0.00487289990662
-0.00487748366926
-0.00488290535546
-0.00488927441177
-0.0048985918738
-0.00492025629074
-0.00498818419047
-0.00519875434144
-0.00576512305668
-0.00711818088293
-0.0107026818344
-0.021366780862
-0.0435694367274
0.231911509577
-0.00373675520165
-0.00463061388292
-0.00482868407407
-0.00486776636216
-0.00487229590632
-0.00487368506574
-0.00487656544959
-0.00488058996873
-0.00488523918882
-0.00489055197807
-0.00489823192772
-0.00491653288949
-0.00497607918223
-0.00516502668566
-0.00568446090415
-0.00698287616382
-0.01061145943
-0.0211079214985
-0.0345563840861
0.0944676189392
-0.00373771891767
-0.0046300415019
-0.00483037806167
-0.0048712079716
-0.00487649036667
-0.00487795530659
-0.00488054942193
-0.00488407383848
-0.00488808243319
-0.00489253338119
-0.00489874839046
-0.0049139076611
-0.00496513066512
-0.00513201501053
-0.0056023260856
-0.00682724299096
-0.0103854401947
-0.0204487124949
-0.0315731918255
0.0737396723984
-0.00373871284592
-0.00462901896677
-0.00483198102536
-0.00487478702481
-0.00488092419646
-0.00488254089233
-0.00488495320401
-0.00488814632917
-0.00489166352883
-0.00489540165383
-0.00490038298536
-0.00491269395739
-0.00495592283583
-0.00510030470141
-0.00551859085922
-0.00665175348598
-0.010035424333
-0.0194466206449
-0.0278226783234
0.0891954606444
-0.00373978996188
-0.00462746604471
-0.0048334956471
-0.00487852636084
-0.00488566230694
-0.00488754138155
-0.0048898871937
-0.00489284178567
-0.00489601194971
-0.00489928769539
-0.00490335548719
-0.00491326579192
-0.00494881866932
-0.00507080736149
-0.00543286441488
-0.00644896613475
-0.00954953901422
-0.0178755957068
-0.0164011589845
0.104539351078
)
;
    }
    atmosphere
    {
        type            calculated;
        value           nonuniform List<scalar> 9(7.1276997262 -0.075969209454 -0.134645031731 -0.0887871234075 -2.44078645897 0.282171312632 -0.139701817512 -0.141208260347 -0.144291686178);
    }
    floatingObject
    {
        type            calculated;
        value           nonuniform List<scalar> 0();
    }
    procBoundary0to1
    {
        type            processor;
        value           nonuniform List<scalar> 10(-0.0049012329086 -0.00493805495018 -0.00503785415973 -0.0053196757291 -0.00603140008523 -0.00750544284515 -0.0099500116244 -0.0136033885778 -0.00852476919628 0.192360715671);
    }
    procBoundary0to2
    {
        type            processor;
        value           nonuniform List<scalar> 
14
(
-0.00486323717687
-0.0048726625299
-0.00488407245909
-0.00485439123221
-0.00485940872813
-0.00485940872813
-0.00373198072814
-0.00462620513183
-0.00485643519179
-0.00485643519179
-0.00482195152071
-0.00482195152071
-0.00485726665621
-0.00485726665621
)
;
    }
    procBoundary0to4
    {
        type            processor;
        value           nonuniform List<scalar> 8(-0.0037405088155 -0.0046254800149 -0.00483494908054 -0.00488242349607 -0.00489069194475 -0.00489292359633 -0.00489529574312 -0.0048981350375);
    }
    procBoundary0to5
    {
        type            processor;
        value           nonuniform List<scalar> 
12
(
-0.00490119917118
-0.00490420213555
-0.00490769602137
-0.00491557041802
-0.00494395428668
-0.00504324156266
-0.00534348338377
-0.006202036958
-0.00885833922005
-0.0154974120636
-0.00653860469362
0.0436070819738
)
;
    }
}


// ************************************************************************* //
