/*--------------------------------*- C++ -*----------------------------------*\
| =========                 |                                                 |
| \\      /  F ield         | OpenFOAM: The Open Source CFD Toolbox           |
|  \\    /   O peration     | Version:  v2012                                 |
|   \\  /    A nd           | Website:  www.openfoam.com                      |
|    \\/     M anipulation  |                                                 |
\*---------------------------------------------------------------------------*/
FoamFile
{
    version     2.0;
    format      ascii;
    class       surfaceVectorField;
    location    "1.1";
    object      ddtCorrDdt0(Uf);
}
// * * * * * * * * * * * * * * * * * * * * * * * * * * * * * * * * * * * * * //

dimensions      [0 1 -2 0 0 0 0];


internalField   nonuniform List<vector> 
3840
(
(-0.00203606702543 0.00506408755619 1.27993831703e-21)
(-0.00506069258477 0.00204743155639 3.52603589511e-22)
(-0.00158874319598 0.0092671273289 1.29999380339e-21)
(-0.00419928507282 0.00719333184038 1.47752999744e-21)
(-0.00154658838555 0.0132906541853 6.3789093358e-23)
(-0.00401967970597 0.0108567118562 1.54166958038e-22)
(-0.00153203252744 0.0172552054324 -5.10453368053e-22)
(-0.00396076033749 0.0148412311173 -7.8632728903e-22)
(-0.00145777573819 0.0210911637674 -5.52662301107e-22)
(-0.00383234695594 0.018683944302 -1.5867825384e-21)
(-0.00132691229966 0.0247174253168 -4.55544211491e-22)
(-0.003621108269 0.0223287203868 -1.00731064676e-21)
(-0.00114678875072 0.0280589358736 2.90634938682e-22)
(-0.00333440458444 0.0257087502966 -2.14333424474e-21)
(-0.000919861060189 0.0310401363643 1.61734789776e-21)
(-0.00297291335336 0.0287553499685 4.40414430439e-22)
(-0.000646472040878 0.0335855978522 2.33690747378e-21)
(-0.00253447045568 0.0313988781142 1.92518546112e-21)
(-0.000329578801419 0.0356063648897 1.08926419123e-21)
(-0.00201315914245 0.0335739403812 1.38853631931e-21)
(9.12956912105e-06 0.0370209542073 3.8510817939e-22)
(-0.00140585427205 0.0351509881336 -7.82293301355e-23)
(0.000209777436364 0.0377520544513 7.16696936698e-22)
(-0.000721755549138 0.0359372509909 -6.33183180063e-22)
(-0.000274043942693 0.0379529926825 6.6800691235e-22)
(-0.000191892996602 0.0362917396119 1.3820852208e-21)
(-0.00194632115785 0.038399128581 4.10070677758e-22)
(-0.000437725990315 0.0363963585594 8.01069913458e-22)
(-0.00341139406627 0.0395669415116 -4.18063718855e-22)
(-0.00116084850394 0.0334747334545 -1.15777576996e-21)
(0.00156569283886 0.0403128955729 -3.30488716087e-21)
(-0.000740839856471 0.0291271834714 -1.2464848983e-21)
(0.0459374561958 0.0368278843358 -4.03834121319e-20)
(0.00348748412787 0.0282919327084 -7.12252910506e-21)
(0.220856514761 -0.00407574113058 -1.5790382681e-19)
(0.0409045887865 0.00846337497156 -7.03315999984e-20)
(0.107997378186 -0.16719677009 -1.81149616343e-19)
(0.163088382696 -0.0364241210681 -1.49094838089e-19)
(-0.0354440091832 -0.0194058574215 3.41415821125e-20)
(-0.00709695126072 0.00422030742166 5.50195269927e-22)
(-0.00927733170182 0.00157580837711 3.30835320112e-22)
(-0.00646732338719 0.00837048801341 3.31703152096e-22)
(-0.00834557356129 0.00664883026853 1.46658061362e-21)
(-0.00627360503304 0.0123911549482 -6.95949424349e-22)
(-0.00803645295953 0.0103743552349 2.4909362385e-22)
(-0.00609483167798 0.0162423864381 -1.86265645938e-21)
(-0.00780828402803 0.0143441439317 -8.37397729964e-22)
(-0.00581002931501 0.0198882136789 -2.04143088406e-21)
(-0.00747478779749 0.0181271584973 -1.76092346285e-21)
(-0.0054148641323 0.0232834561222 -2.69510068001e-21)
(-0.00701176375157 0.0216853065119 -8.24206388275e-22)
(-0.00491231588463 0.0263717716862 -1.99355475298e-21)
(-0.0064156958087 0.0249668573163 -2.13595520818e-21)
(-0.00429767920477 0.0290846139082 7.48251993802e-22)
(-0.00568062020117 0.0279117296848 3.75838095396e-22)
(-0.00356339695391 0.0313542672641 9.76814306653e-22)
(-0.00479025445387 0.030452573548 1.31160183792e-21)
(-0.00269963207371 0.0330873073936 2.21042797952e-22)
(-0.0037382368733 0.0325269286219 -2.87343274015e-22)
(-0.001697381127 0.0341950022635 -1.09652068959e-21)
(-0.00250442756716 0.0340089571112 7.33092188436e-23)
(-0.000621533406984 0.0345648347531 3.22051040373e-23)
(-0.0010815607007 0.0346576184252 -1.12752304185e-21)
(0.000304769468622 0.033913446531 1.51514822191e-21)
(0.000469634284119 0.0347601870723 1.47099681426e-21)
(0.0011096514111 0.0314015858455 -7.66776534261e-22)
(0.00208319943955 0.0345510556207 1.83851544802e-21)
(0.00224234333727 0.0261102076219 -1.9861969494e-21)
(0.00413818517072 0.0301558470082 -4.84787974677e-21)
(0.00319172396462 0.0183252363922 -5.06412684249e-21)
(0.00704943392115 0.0217279538228 -4.2636618226e-21)
(0.00539309008685 0.0108601278932 -3.70707169715e-20)
(0.0109551887861 0.0218498291216 3.19914946583e-21)
(0.0185628867171 0.0309296329172 -6.15226112778e-20)
(0.0208343666887 0.00597233677799 -4.58132880261e-20)
(0.0105906365516 0.117742980766 6.61963603664e-20)
(0.0764824703679 -0.0133604722765 3.10731883085e-20)
(0.00442778915463 0.0892857439925 1.30010355155e-19)
(-0.0109440840779 0.0040855079102 1.2472206638e-21)
(-0.0133593532777 0.00157985737581 1.57733260198e-21)
(-0.010317854895 0.00824869288469 1.38397108537e-21)
(-0.0125051659801 0.00668514431044 1.81758907686e-21)
(-0.00998264224768 0.012316785431 1.07645318235e-22)
(-0.0121010979317 0.010462405204 6.11900495157e-22)
(-0.00961191163843 0.0162073978524 -7.35664733437e-22)
(-0.0116958067766 0.0145141380726 -1.68521243731e-22)
(-0.00911090018347 0.0198912318955 -5.43698967073e-22)
(-0.0111560801677 0.0183841611746 -5.888680086e-22)
(-0.0084574405108 0.0233291054317 -2.65060916449e-22)
(-0.0104460450753 0.0220387364682 2.25738638829e-22)
(-0.00763946853068 0.0264661297053 2.33437640197e-22)
(-0.00954979289902 0.0254291528947 -1.89066073905e-22)
(-0.00664245225523 0.0292425779926 9.39187939517e-22)
(-0.00844730568536 0.0284978334576 3.94728937933e-22)
(-0.00544884175537 0.0315807503331 4.74442572554e-23)
(-0.00712224324829 0.031180050126 6.72301867153e-22)
(-0.00403876535131 0.033396441776 -4.35076853124e-22)
(-0.00554108338073 0.0334142070929 -1.53743715072e-22)
(-0.002390966972 0.0345839600722 4.23068665776e-23)
(-0.0036817015419 0.035074613764 1.55516470028e-24)
(-0.000505516346906 0.0350282126995 3.11268668366e-22)
(-0.00151481512184 0.0359090223191 5.47068736331e-23)
(0.00162828568989 0.034559294488 1.79436404037e-21)
(0.00094943922027 0.0362022939344 3.42005246326e-22)
(0.0042511547037 0.0328466125132 -2.24258776448e-21)
(0.00380604485831 0.03637156446 1.80389118432e-21)
(0.00765592150869 0.0296697009846 -7.12534461996e-21)
(0.00732339116974 0.0330987898805 -4.43456858856e-21)
(0.0115180620795 0.025678972136 3.99961448572e-21)
(0.0110461813882 0.0271045888077 -2.1148562048e-21)
(0.0188696150701 0.0223020711602 -5.54342158874e-21)
(0.0143351994268 0.0294316023441 5.87808027312e-21)
(0.0542963615568 0.0220324189301 4.67825115602e-20)
(0.0211050634037 0.0115246282454 -1.88750414863e-20)
(0.065320054471 0.0312654214463 9.48871830969e-20)
(0.0671639621773 -0.0197532248851 5.92256590652e-20)
(0.0172767257005 0.0535207798114 4.53913790851e-20)
(-0.0150249391567 0.0042465320387 2.14770101503e-21)
(-0.0176028500453 0.00172867131747 1.12571983445e-21)
(-0.0143703145699 0.0084890227791 1.04551848664e-21)
(-0.0167446522103 0.00694906428076 2.71392893481e-21)
(-0.0139054833641 0.0126488464651 3.35733933191e-22)
(-0.016258246969 0.010822520702 9.66059405544e-22)
(-0.0133476631252 0.0166630373339 -2.17245188933e-23)
(-0.0157079199547 0.0150203910896 1.06934567145e-22)
(-0.0126190017198 0.020491500163 1.80569597302e-22)
(-0.0149832923798 0.0190574044775 -6.46476617818e-23)
(-0.0116889549782 0.0240912443982 3.01733481373e-22)
(-0.0140446649642 0.02290011369 2.5809171616e-22)
(-0.010534521097 0.0274111035009 -2.77747761683e-23)
(-0.0128662714897 0.0265010532124 8.29250687317e-23)
(-0.00913094789661 0.030386854056 1.27842865568e-22)
(-0.0114209680947 0.0298052535822 -9.84190295123e-23)
(-0.00745027730976 0.0329580243382 4.71113894825e-22)
(-0.0096740045543 0.032751502849 1.99462838147e-22)
(-0.00545776123087 0.0350244937654 2.82888302752e-22)
(-0.00759750839386 0.035282843288 2.96021918167e-22)
(-0.00311684862701 0.0364914393371 1.39551717558e-23)
(-0.0051348474765 0.037276051437 -1.80193485854e-23)
(-0.000411416584242 0.0372379064534 8.54434515929e-23)
(-0.00224864331598 0.0384826467368 -5.88896645008e-23)
(0.00270748959897 0.0371387966113 3.51532390276e-22)
(0.00106102210882 0.0391898995943 2.57223497139e-22)
(0.00638998004528 0.0360663491841 -3.88089639756e-22)
(0.00488982709687 0.0398279486984 6.63259809394e-22)
(0.0104188344178 0.0340066233176 5.75919826596e-22)
(0.0093927186318 0.0373009407785 -6.00954761182e-22)
(0.0142354387476 0.0313134937915 -2.36390417404e-22)
(0.0137461971605 0.0325224335003 1.76710385008e-21)
(0.018935893149 0.0285632718069 -7.45353962446e-21)
(0.0170890250424 0.0351916213266 3.00294403807e-21)
(0.0422591372082 0.0285127861406 -6.43189398128e-21)
(0.0211563157209 0.0169422333792 -1.77629704795e-20)
(0.0344085899134 0.0326974025205 9.72985505344e-21)
(0.0629746922684 -0.0164651449446 -4.26566214527e-20)
(0.00756525636024 0.0594092285734 -1.19848610078e-20)
(-0.0193606888184 0.0044751006601 1.69194775423e-21)
(-0.0220754886894 0.00189598863199 4.12833627624e-22)
(-0.0186371524545 0.00886904914165 2.63446985371e-21)
(-0.0211363220204 0.00727646928992 4.39177160302e-21)
(-0.0180662421837 0.0131834226254 7.37260039498e-22)
(-0.0205708893121 0.0113164138606 1.04928160616e-21)
(-0.0173561091904 0.017380117545 6.40114242567e-23)
(-0.0199037374424 0.0157151419552 1.25447181034e-22)
(-0.0164309333585 0.0214177024492 1.28744570754e-23)
(-0.0190210656702 0.0199739784576 2.00864425278e-23)
(-0.0152552626515 0.0252521684729 3.92833035179e-23)
(-0.0178800637691 0.0240652429101 1.58196368584e-23)
(-0.0137985072752 0.0288342246554 1.22808153877e-23)
(-0.0164482330477 0.0279443696263 3.92111233075e-23)
(-0.0120256559462 0.0321073895863 -2.67990569333e-23)
(-0.014689907006 0.0315617920772 -3.00722724132e-23)
(-0.00989832829217 0.0350042497883 2.43708614894e-23)
(-0.0125632030848 0.0348599345231 -4.84485720439e-23)
(-0.0073693793077 0.0374494060951 -4.88573317007e-24)
(-0.0100193529813 0.0377878446092 2.78522737018e-23)
(-0.0043858072134 0.0393373185261 -9.0864184842e-23)
(-0.00700347266436 0.0402307964261 -6.41299306142e-23)
(-0.000921975143933 0.0405571316826 1.12890381045e-22)
(-0.00345390433022 0.0419487121444 -1.4958128405e-22)
(0.00307032970337 0.0410000255893 5.68950916258e-22)
(0.000632241086627 0.0432267616663 4.16189872885e-22)
(0.00769630203643 0.0405518556751 4.50394687968e-22)
(0.0053511120211 0.0444751197145 9.8614096272e-22)
(0.0125064413939 0.0391630427448 5.90229262304e-22)
(0.0107926249956 0.042717533676 8.34428378778e-23)
(0.0165125739515 0.0370424609036 5.00643830556e-21)
(0.0158748757742 0.0387697796139 1.01227629799e-21)
(0.0196653265762 0.0345136066042 -7.30648681701e-21)
(0.0196221165265 0.0412719193391 8.84115263351e-21)
(0.0416650507399 0.0333016997463 -5.39876979509e-20)
(0.0223691980704 0.0227548732577 -2.65128977748e-20)
(0.0319020223478 0.0326454116667 -6.43713375139e-20)
(0.0636279394869 -0.0112572215187 -1.06370453257e-19)
(-0.00374475930063 0.0596676140105 -5.58319426978e-20)
(-0.0239180088519 0.00471596827374 3.11265747642e-21)
(-0.026789595634 0.00206432350606 7.36415345069e-22)
(-0.0231030846173 0.00931497653087 2.80658335547e-21)
(-0.0257338129545 0.00763075368876 2.96795842704e-21)
(-0.0224420021568 0.0138386708559 4.37468747694e-22)
(-0.0250938540881 0.0118942305069 6.27698952427e-22)
(-0.0216082721941 0.0182665746173 8.15221993052e-23)
(-0.0243320385173 0.0165393690726 8.20284799471e-23)
(-0.0205183193801 0.0225628281356 2.30316223108e-23)
(-0.0233189104346 0.0210644839353 -1.37856322745e-23)
(-0.0191319741238 0.026687143939 1.5747456648e-23)
(-0.022006886556 0.0254526577083 7.29301394183e-24)
(-0.0174117183591 0.0305946573657 -3.14196449341e-24)
(-0.0203576817153 0.0296651492545 -2.12982165711e-23)
(-0.0153145848761 0.0342354502139 -5.17217875239e-23)
(-0.0183279247016 0.0336589041111 1.61064336564e-24)
(-0.0127905143965 0.0375490091679 -4.49671598315e-23)
(-0.0158668814017 0.0373836029262 -5.90088010566e-23)
(-0.00978077071606 0.0404610569957 -3.13919237423e-23)
(-0.0129159282439 0.0407933876214 -5.6487333888e-23)
(-0.00622071033681 0.0428841836434 -1.22847029822e-22)
(-0.00940302945632 0.0437833555749 -6.11379475567e-23)
(-0.00207458109393 0.0447067119782 1.5371820779e-22)
(-0.00525988266198 0.0461282606921 -9.58649853004e-23)
(0.00271086735384 0.0458312233876 8.33379919347e-22)
(-0.000476021352622 0.0481020889624 4.92038477348e-22)
(0.00822735803706 0.046139927069 6.19189112629e-22)
(0.00505752350892 0.0500789945591 7.9783459565e-22)
(0.0139384364475 0.0455435734506 5.05489873564e-22)
(0.0114019133865 0.0492607030065 -4.02242191725e-22)
(0.018764763187 0.0440938266477 4.84699062594e-21)
(0.0173341532002 0.0464471191525 1.74313983003e-21)
(0.0221784104409 0.0417687425395 -1.03652583243e-20)
(0.0219521914341 0.048758918666 9.5621162677e-21)
(0.0444848411667 0.03915328828 -7.88956530813e-20)
(0.0249857518768 0.0293386969408 -2.09625556926e-20)
(0.0278923838983 0.0347284799235 -9.78310584413e-20)
(0.0680481041646 -0.00145681328833 -1.49205195217e-19)
(-0.0150672745137 0.0641719193946 -9.25115391381e-20)
(-0.0286980940685 0.00496969895107 5.9171629569e-22)
(-0.0317579919263 0.00223828528423 -2.61517900143e-23)
(-0.0277831138278 0.00981146048213 7.89074023992e-22)
(-0.0305747669792 0.00800858906372 4.61122884972e-21)
(-0.0270446878279 0.0145858772716 2.7225868468e-22)
(-0.0298685052538 0.0125352248011 6.90330101057e-22)
(-0.026111588796 0.0192856249429 -1.32793516326e-23)
(-0.0290334317378 0.0174631081618 5.82131461596e-23)
(-0.0248875032508 0.023883125014 -2.95242406434e-23)
(-0.0279194456464 0.02229161921 -3.58761384035e-23)
(-0.0233266738363 0.0283450295279 -2.97526592773e-23)
(-0.0264725700492 0.0270178319811 -5.5752301328e-24)
(-0.0213851036901 0.0326332126191 -1.6545608712e-23)
(-0.0246490495048 0.0316112017428 -4.02438373861e-23)
(-0.0190118397386 0.0367056675661 -5.67637016713e-24)
(-0.0223981085971 0.0360368381336 -1.65365907626e-23)
(-0.0161473454695 0.0405095656422 -7.05289751132e-23)
(-0.0196607472748 0.0402531847352 -6.10864521032e-24)
(-0.012720433922 0.0439782216058 -8.62333577024e-23)
(-0.0163670470845 0.0442218002474 -9.3761393622e-23)
(-0.00865458627769 0.0470339227581 -3.41559030349e-23)
(-0.0124330443405 0.0478480124739 -5.07201128874e-23)
(-0.00390572813428 0.0495706259474 2.42455284257e-22)
(-0.00777802929141 0.0509236194778 -5.79247520117e-23)
(0.00158987150116 0.0514964576163 4.5649315365e-22)
(-0.00238344525382 0.0537072518694 4.27501991885e-22)
(0.00791951048791 0.0526965453622 -2.23596708705e-22)
(0.00387474206989 0.0565260664013 -4.29792427414e-22)
(0.0144859374777 0.0530710103185 8.35407764737e-22)
(0.0110423710479 0.0568072946722 -3.77075169298e-21)
(0.0201942096799 0.05259963885 6.45826547179e-21)
(0.0178165734454 0.0554425746154 -1.31980143045e-21)
(0.0243679908876 0.0512656442712 -1.0351811006e-21)
(0.0232919641498 0.0577625830236 6.11224700009e-21)
(0.0482027490739 0.0493031577039 -9.12720978278e-20)
(0.0269493382438 0.0372561463847 -1.72501973275e-20)
(0.0248754207973 0.0447943660154 -1.43885675913e-19)
(0.0725554714476 0.0132999905324 -1.5036429873e-19)
(-0.0256921507194 0.075710064241 -8.9764494531e-20)
(-0.0337329812389 0.0052365768066 3.99336076402e-21)
(-0.0369937128834 0.00241953092229 1.82255286882e-22)
(-0.0327209552962 0.0103477819788 4.51248492679e-21)
(-0.0356857398222 0.00840460227747 5.59132831394e-21)
(-0.0319207592699 0.0154031166438 4.76284562537e-22)
(-0.0349248929348 0.0132207296519 6.80778432186e-22)
(-0.0309143388 0.020406700254 3.56163593887e-23)
(-0.0340397719865 0.0184583021379 7.56930517436e-23)
(-0.029590577423 0.0253406461755 -1.19271278929e-23)
(-0.0328577119706 0.0236190241332 -4.39518378857e-24)
(-0.0278974346881 0.0301804046182 -1.60664082417e-23)
(-0.0313174196502 0.0287163323626 2.25866445158e-23)
(-0.0257846473591 0.0348968163555 -4.02348194368e-23)
(-0.0293695174134 0.0337297418534 -2.77893197668e-23)
(-0.0231934739749 0.039456699929 -1.69688658058e-23)
(-0.0269565263693 0.0386342610522 -4.05186257421e-23)
(-0.0200550047585 0.0438179003931 -2.93410637192e-23)
(-0.0240104758546 0.0433986975923 7.33137778872e-24)
(-0.0162865403761 0.0479212490497 -5.8248148807e-23)
(-0.0204522275975 0.0479937206286 -5.99109001423e-23)
(-0.0117992183127 0.0517007236585 -7.44889618642e-23)
(-0.0161837783167 0.0523366402116 -6.3008561071e-24)
(-0.00653799247345 0.0550561222418 1.27121955616e-22)
(-0.0111127743035 0.05623898013 -2.0176016742e-22)
(-0.000425667253478 0.0579009026826 -4.58783589179e-22)
(-0.0052075810422 0.0599412462476 2.82114925791e-22)
(0.00662573523245 0.0601204809906 -3.97694741169e-21)
(0.00167469392126 0.0637200261023 -6.86716440272e-22)
(0.0139686828783 0.0616165237205 -5.92596088817e-21)
(0.00956323781868 0.0652537894932 -4.39277687246e-21)
(0.0204391862054 0.0623682846036 -1.66581990215e-21)
(0.0170773412773 0.065543416571 -3.29054404665e-21)
(0.0253103843092 0.0624754100171 -1.01027692268e-20)
(0.0231913648685 0.0678652956127 -2.69021564563e-21)
(0.0503981395499 0.0619937622134 -7.63423982294e-20)
(0.0274320349682 0.0458029299158 -2.31613848125e-20)
(0.0215644876822 0.0608868264875 -9.62431173474e-20)
(0.0736630032767 0.0301569212503 -9.81858378506e-20)
(-0.0357959690638 0.0894925357456 -5.3980336186e-20)
(-0.0390447218418 0.00551253615256 1.7802228368e-21)
(-0.0425056539732 0.00260672132926 1.24315339915e-21)
(-0.0379460620589 0.0109100143084 1.75962181934e-21)
(-0.0410833348658 0.00880943265177 3.40061634591e-22)
(-0.0371030573354 0.016266116648 2.80186921393e-22)
(-0.0402826114467 0.0139301641183 7.89016588556e-22)
(-0.0360527787603 0.0215960948705 3.56815085664e-23)
(-0.0393733215444 0.019494400645 9.19686991948e-23)
(-0.0346685535734 0.0268926797844 3.01185886201e-23)
(-0.0381596456431 0.0250065715878 6.11223652011e-24)
(-0.0328917452865 0.0321416893839 1.08637329906e-23)
(-0.0365724455643 0.030498489097 2.93226895339e-23)
(-0.0306660300025 0.0373243586628 -2.80731260722e-23)
(-0.034556981003 0.0359612826332 -2.77121719865e-23)
(-0.0279251991956 0.0424186647987 -1.62183821476e-23)
(-0.0320492034041 0.0413815305341 -5.79616113611e-24)
(-0.0245912039786 0.0473932382062 -2.32384586344e-23)
(-0.0289734135809 0.0467400751253 -2.5351150745e-23)
(-0.0205700497608 0.0522008645069 -7.96360744242e-24)
(-0.0252396765911 0.052018520373 -3.82555015066e-23)
(-0.015759925407 0.0567862288937 -1.33572061663e-22)
(-0.0207386479797 0.057148679212 -2.11855050297e-24)
(-0.0100916265772 0.061058959937 -4.67671972449e-23)
(-0.0153629622729 0.0619655116341 -2.72746725607e-22)
(-0.00346937175843 0.0649378110493 5.41820746971e-23)
(-0.00906372722452 0.0666906954523 2.62458860264e-22)
(0.00419817724609 0.0683074914421 -1.10254590104e-21)
(-0.00167341155442 0.0715516484523 2.14131949768e-22)
(0.0122298452062 0.0710713633198 -1.75736003095e-21)
(0.00681807416965 0.0745188495403 -1.44555381495e-21)
(0.0194317125339 0.0731598956724 -4.31493979014e-21)
(0.0150026400236 0.0767291886943 -1.48530402115e-21)
(0.0252257870474 0.0743664586486 -1.57488312313e-20)
(0.0219919668013 0.0791376862634 -7.86021475926e-21)
(0.0513203093961 0.073928168225 -4.50048244336e-20)
(0.0278713881784 0.0552930781235 -2.52052332632e-20)
(0.0166483052055 0.0730969872249 -5.59230566891e-20)
(0.07448375702 0.0502853956643 -5.21459380056e-20)
(-0.0483364004282 0.106788589953 -2.5687032577e-20)
(-0.0446411214129 0.00579119497348 -1.97007803059e-22)
(-0.0482962563056 0.00279665220596 1.50810686389e-21)
(-0.0434704306085 0.0114819628268 -6.30543596191e-22)
(-0.0467742695405 0.0092111198265 -1.5558725812e-21)
(-0.042606304684 0.0171483265037 6.00798366358e-22)
(-0.045950806612 0.0146408718426 1.02300902186e-21)
(-0.0415449227899 0.0228170449921 6.23994271485e-23)
(-0.0450460297543 0.0205381621731 -3.88117573136e-23)
(-0.0401438508767 0.0284923739212 5.31633743391e-24)
(-0.043840857329 0.0264103893275 6.08107862895e-24)
(-0.0383378663038 0.0341716116071 -9.25321544321e-24)
(-0.042258296224 0.0323095793862 4.78063950921e-24)
(-0.0360649364806 0.0398480463412 -5.43520705041e-24)
(-0.0402384624561 0.0382398483511 -1.17526588065e-23)
(-0.0332519158535 0.045511983831 -1.49289297336e-23)
(-0.0377115688063 0.0442008746135 5.50434089067e-24)
(-0.0298120228463 0.0511458548951 -4.03681936171e-23)
(-0.0345941622369 0.0501873142762 -3.13107174443e-23)
(-0.0256403824445 0.0567147774426 -3.24104445671e-23)
(-0.0307875714513 0.0561936488333 -1.38419507722e-23)
(-0.0206221132035 0.0621790212733 -1.41293214447e-22)
(-0.0261697041477 0.062169130484 -3.0479998379e-23)
(-0.0146715851237 0.0674602501895 3.64793319017e-23)
(-0.0206198930218 0.0679761299963 -2.57309672163e-22)
(-0.00767236698165 0.0724901051703 4.22408735335e-22)
(-0.0140690958948 0.0738182344558 1.3512311958e-22)
(0.000466594752626 0.0771695168089 -1.28875964141e-22)
(-0.0063295527124 0.0798789034617 8.69822321e-22)
(0.00904620407957 0.0814228377092 -1.17349780516e-21)
(0.00258489687584 0.0844531638598 7.80666619211e-22)
(0.0169122835496 0.0851706568124 -5.03057899028e-21)
(0.011269639565 0.088860177266 -4.32013084224e-21)
(0.023859681425 0.0883081783756 -1.73166167912e-20)
(0.0188620759605 0.0916184424153 -8.33044019381e-21)
(0.0500797732887 0.0900743017364 -3.23463468352e-20)
(0.0261060897987 0.0659534527968 -9.2552145995e-21)
(0.0091284936468 0.0953864191517 -2.19099138935e-20)
(0.0691624601054 0.0742465733885 -3.17193829763e-20)
(-0.0624593264383 0.129236511444 -1.09019130958e-20)
(-0.0505213326793 0.00606424243349 1.49242085751e-22)
(-0.0543596098169 0.00298474958104 1.25569968928e-22)
(-0.0492958264521 0.0120451979199 9.76800368599e-23)
(-0.052755104403 0.00959554091118 9.56519176551e-22)
(-0.0484345954039 0.0180206241502 3.83398898192e-22)
(-0.0519278870142 0.0153279002753 4.14878808832e-22)
(-0.0473979347264 0.0240294701889 -9.51301058332e-23)
(-0.0510588131088 0.0215534062865 -1.81973300738e-22)
(-0.0460277237723 0.0300883233629 5.54538070426e-24)
(-0.0499056341733 0.0277826945442 -1.67101395072e-23)
(-0.0442524396841 0.0362071429415 2.2811961459e-24)
(-0.048383646236 0.0340897161352 -7.23642978198e-24)
(-0.0420049534536 0.0423924053256 -8.13110865443e-25)
(-0.0464285742953 0.040492785149 -2.31713301802e-24)
(-0.0392059246675 0.0486488281344 -1.087744682e-23)
(-0.0439655581902 0.0470061175412 -3.26547602386e-23)
(-0.0357606848664 0.0549734674986 -4.78447459937e-24)
(-0.0409049337544 0.053639854237 -3.81229122714e-23)
(-0.0315542329025 0.0613478390731 -1.19115045841e-23)
(-0.0371391619464 0.0604035188692 -7.61005424046e-24)
(-0.0264590915163 0.0677489611975 -1.46496456095e-22)
(-0.0325359656772 0.0672668095435 8.69993139429e-24)
(-0.0203721962691 0.0741152716788 -1.58665884484e-22)
(-0.0269605608951 0.0741233767949 -1.76069725333e-22)
(-0.013155865866 0.0803936601977 5.82536705245e-22)
(-0.0203217070741 0.0811604538238 6.46115831884e-23)
(-0.0047235086423 0.0864983103513 1.77936490435e-21)
(-0.0124097762401 0.0885212938524 9.38670113962e-22)
(0.00421321720621 0.0923857983824 -2.36596641787e-21)
(-0.00328155885031 0.0948468733569 2.57001298909e-21)
(0.0125500578957 0.0979987115555 -7.61999204578e-21)
(0.0056720775122 0.101664641666 -4.11314496953e-21)
(0.0205937399391 0.103093978821 -2.69038002092e-22)
(0.0137746508258 0.104909623999 -1.1202985089e-20)
(0.0448610520769 0.106242313199 -8.62825074054e-21)
(0.0229583886253 0.0771437210348 -4.49464228627e-21)
(-0.00213957731963 0.118138229637 -2.07113821786e-20)
(0.057247256983 0.101198360017 -5.85270141526e-21)
(-0.0783985383225 0.152168815364 -1.73400879691e-21)
(-0.0566757176283 0.00632187017674 9.32847059728e-22)
(-0.0606800140146 0.00316555540457 2.40139399659e-22)
(-0.0554143894436 0.0125792030669 1.27371794852e-21)
(-0.0590117244556 0.00994693505278 2.87025127916e-21)
(-0.0545819763549 0.0188512502411 -1.50493390098e-22)
(-0.0582010432604 0.0159642439456 1.01584004553e-22)
(-0.0536085178394 0.025189838196 -1.03553334412e-22)
(-0.0574008285091 0.0225012285732 -7.39336084979e-23)
(-0.0523204583375 0.0316246981472 -2.94919499934e-23)
(-0.0563458591851 0.0290720761399 -1.98805454886e-23)
(-0.0506405280243 0.0381793095888 -1.18347589459e-23)
(-0.0549441794712 0.0357741944714 -1.54082404729e-23)
(-0.0484974002805 0.0448746635597 -3.41587823912e-23)
(-0.0531279620988 0.0426411450309 -5.62787392554e-24)
(-0.0458066910466 0.051731060545 -5.990022569e-23)
(-0.0508186331716 0.0497028994182 -5.34268468369e-23)
(-0.0424669878373 0.0587627799455 -4.09484919125e-23)
(-0.0479213953418 0.0569867606016 -2.67354244951e-23)
(-0.0383544971858 0.0659692455892 1.30013817379e-23)
(-0.0443219863515 0.0645194193611 -1.44174181952e-23)
(-0.0333303186028 0.0733486707386 -2.08733378437e-23)
(-0.0398787676397 0.072294045275 -9.76476500629e-24)
(-0.0272733128239 0.0808593932715 4.72077423401e-23)
(-0.0344448873522 0.0802394995715 -1.97526567602e-22)
(-0.02002437527 0.088469776349 4.20744991905e-22)
(-0.0279057738757 0.0885301770966 2.45569538527e-22)
(-0.0115107958979 0.0961191468494 1.7293181987e-21)
(-0.0200343350006 0.0972751153346 -1.71219214469e-22)
(-0.00244491555985 0.103791023362 8.22834437429e-22)
(-0.0109322765951 0.105484649019 -6.30433910215e-22)
(0.00621711125564 0.111390631029 -7.69613801271e-21)
(-0.00191225184298 0.114942210946 -3.69414924251e-22)
(0.0154610136515 0.118528931867 -1.54285893731e-20)
(0.00664407648848 0.118894815472 -2.35044121048e-20)
(0.0351195958662 0.123953024855 -1.71909296098e-21)
(0.0175346674913 0.0896647328824 -2.14636289591e-20)
(-0.0185688244876 0.142473805304 1.31246719664e-20)
(0.0386866554379 0.13261178172 3.32569043474e-20)
(-0.0952392668122 0.17364053463 2.79706753284e-20)
(-0.063084113088 0.00655333553591 2.17754361909e-21)
(-0.0672311149445 0.00333311545161 -2.72607490769e-22)
(-0.0618071383461 0.0130619350634 1.69811733519e-21)
(-0.0655188048525 0.0102485258962 2.21793724806e-21)
(-0.0610307956424 0.0196063395534 1.78143786153e-22)
(-0.0647457104919 0.0165214569957 4.73118251321e-22)
(-0.0601609968638 0.0262517906252 9.7391804256e-24)
(-0.0640487616173 0.0233406968344 9.33400313658e-23)
(-0.0590091697431 0.0330417664348 -5.7968359681e-24)
(-0.0631401177179 0.030224313817 -7.22395916282e-24)
(-0.0574930892471 0.0400140877913 -9.20135545249e-24)
(-0.0619211555125 0.037294456475 -1.43994451474e-23)
(-0.0555384813336 0.0472051422988 -2.48959383713e-23)
(-0.0603217685892 0.0446007182191 -3.72093558172e-23)
(-0.0530573959671 0.0546523205936 -2.0262045642e-23)
(-0.0582612091787 0.0521898493452 -6.96823238632e-23)
(-0.0499434520765 0.0623885749139 -2.04350777763e-25)
(-0.0556415174231 0.0601077137005 -2.04876208798e-23)
(-0.0460658564277 0.0704343118873 -3.71835649394e-23)
(-0.052343676158 0.0684004470325 5.45070333691e-24)
(-0.041276123834 0.0788116058688 -1.86417994765e-22)
(-0.0482189711022 0.0770874153359 -7.51983123417e-23)
(-0.0354360989467 0.0875036742321 8.35228585126e-25)
(-0.0431106466105 0.086135649086 -2.01233063849e-22)
(-0.0283678175756 0.0965055428246 -3.46394667847e-22)
(-0.036881617337 0.0957113068641 1.59532700407e-22)
(-0.020016003801 0.105790023538 -2.53097132338e-21)
(-0.0292944889261 0.105898493248 -4.71304547302e-22)
(-0.011065361374 0.115378514085 -1.82268327189e-21)
(-0.0205002946401 0.116079328384 -1.65192503169e-21)
(-0.00227480195612 0.125159451638 -1.61776890164e-20)
(-0.011678695076 0.128311243431 1.10622737893e-21)
(0.00768036986981 0.134841383525 -2.95394516908e-20)
(-0.00303054039468 0.133081152117 -1.35688648448e-20)
(0.0203933721456 0.14497485243 1.35123683493e-20)
(0.00740107610744 0.104732284147 -8.25521068281e-21)
(-0.0386967200151 0.165674564065 4.81029077094e-20)
(0.0179217766791 0.160635927091 -8.46377333432e-21)
(-0.113114072539 0.196386187645 -2.74626291517e-21)
(-0.0697151023524 0.00674741031624 -2.32213861806e-22)
(-0.073975452522 0.00348126043113 -1.01414488101e-21)
(-0.0684432993786 0.01347045895 9.92938164185e-22)
(-0.0722394125159 0.0104830938871 2.2442758416e-21)
(-0.0677509353021 0.0202506958323 3.88314496533e-22)
(-0.0715251343222 0.0169703742763 1.68518170713e-22)
(-0.0670263750741 0.0271670427479 7.63768917774e-23)
(-0.0709662900598 0.0240297383314 -4.1364390704e-23)
(-0.0660666128708 0.0342771327281 -1.58265683421e-23)
(-0.0702529551965 0.0311834413942 -4.22428713066e-23)
(-0.064785486962 0.0416335830508 -4.24074455121e-23)
(-0.0692806198206 0.0385792955487 -2.33841947443e-23)
(-0.0631073163773 0.0492888796528 -8.19957413092e-23)
(-0.067978326868 0.0462834614249 -3.58821195109e-23)
(-0.0609425848588 0.0572985626241 -6.9907899101e-23)
(-0.0662651323032 0.054360122764 -7.37265060328e-23)
(-0.0581818402423 0.0657158773939 -1.48325667651e-23)
(-0.0640424736269 0.0628751769508 -4.30039321356e-23)
(-0.0546902333514 0.0745850344054 -3.25640440654e-23)
(-0.0611876864652 0.0718955265912 -7.92563871941e-25)
(-0.0503118400678 0.0839540126277 -9.0013381426e-23)
(-0.0575514266912 0.0814700170541 -8.44917828511e-23)
(-0.0448927285312 0.0938354963739 -4.25355920267e-23)
(-0.0529648351535 0.0916063821376 -1.7707878956e-22)
(-0.03824039678 0.104253678169 3.46228209523e-23)
(-0.0472726084778 0.102466320403 7.13117662378e-24)
(-0.0303226983867 0.115216386137 4.07741744392e-22)
(-0.040231420371 0.11412005676 4.30281681103e-22)
(-0.0217855031765 0.126787303374 1.27698561914e-21)
(-0.0320500992193 0.126307662868 4.19439561258e-22)
(-0.0132596990201 0.138898502934 3.71505155053e-21)
(-0.0237749086186 0.141319847344 1.19846630947e-21)
(-0.0037528452698 0.15143986153 7.71537616323e-21)
(-0.0155648442262 0.147057385877 -1.18045261269e-20)
(0.00476653769935 0.164304767701 -3.02313523664e-20)
(-0.00546373895091 0.121413299793 9.84425915319e-21)
(-0.0569742751895 0.186954275197 -5.93129439589e-20)
(-0.0047871358091 0.18335166467 -2.10808244018e-20)
(-0.131564858617 0.222121713733 -9.0263139742e-21)