/*--------------------------------*- C++ -*----------------------------------*\
| =========                 |                                                 |
| \\      /  F ield         | OpenFOAM: The Open Source CFD Toolbox           |
|  \\    /   O peration     | Version:  v2012                                 |
|   \\  /    A nd           | Website:  www.openfoam.com                      |
|    \\/     M anipulation  |                                                 |
\*---------------------------------------------------------------------------*/
FoamFile
{
    version     2.0;
    format      ascii;
    class       volScalarField;
    location    "5";
    object      alpha.water;
}
// * * * * * * * * * * * * * * * * * * * * * * * * * * * * * * * * * * * * * //

dimensions      [0 0 0 0 0 0 0];


internalField   nonuniform List<scalar> 
1984
(
0.999998875452
0.999998726556
0.999998587194
0.999998583005
0.999998656155
0.999999817416
1.00000103358
1.00000196644
1.0000031302
1.00000371692
1.00000637016
1.00000685712
1.00000328549
1.00000149894
1
0.999999970753
0.999992866738
0.870482205136
0.163275490381
-3.44935701373e-39
0.999998759269
0.999998617796
0.999998583005
0.999998583184
0.999998811028
0.999999895715
1.00000110453
1.00000257735
1.00000277047
1.00000435144
1.00000752243
1.00000542109
1.00000321915
1.0000022509
1
0.999999990726
0.999994942034
0.894293899159
0.160048039671
-1.7362772672e-21
0.99999882278
0.999998739929
0.999998700659
0.999998780008
0.999999010456
0.999999850033
1.00000097761
1.00000296481
1.00000164455
1.00000047975
1.00000523573
1.00000583887
1.00000189261
1.00000071827
1.00000000001
0.999999991343
0.999995781817
0.897379300321
0.153216251052
-2.78614979634e-22
0.999999011152
0.99999898106
0.999998996221
0.999999089204
0.999999275138
0.999999694735
1.00000096164
1.0000026939
1.00000379245
0.999995735461
0.999994632436
0.99999745953
1.00000096012
1.00000153912
1
0.999999980449
0.999996173149
0.883131737209
0.140970336668
-5.28254112001e-25
0.999999259644
0.999999271392
0.999999329486
0.999999430032
0.999999550057
0.999999730891
1.00000043094
1.00000186953
1.00000186672
0.999997037337
0.99998967196
0.999987873899
0.999999715212
1.00000107869
1.00000000013
0.999999987574
0.999996713975
0.856486430184
0.130826504975
-1.03873178736e-25
0.999999528051
0.999999576805
0.999999668721
0.999999757637
0.999999787001
0.999999754411
1.00000008585
1.00000072019
0.999999808078
0.999993313039
0.999986052619
0.999984669467
0.999996184198
0.999999514367
0.999999985678
0.999999730702
0.999997017372
0.828285397124
0.123199241739
-4.08973150108e-28
0.999999777271
0.999999843632
0.999999934186
1.00000000196
0.9999999538
0.999999737441
0.999999757733
0.999999351094
0.999997220134
0.99999138738
0.999979856544
0.999984670501
0.999993482075
0.999996510216
0.999998956511
0.999996956692
0.999994984289
0.809429528176
0.108876285853
-3.34988097432e-23
0.999999952104
1.00000001655
1.0000001251
1.00000016238
1.00000001857
0.999999721956
0.99999939635
0.999998175993
0.999995043077
0.999988373239
0.999979274399
0.999983597652
0.999989421512
0.999992680778
0.999996678376
0.999994064133
0.999992093721
0.797203704235
0.0911407978175
-1.41361456764e-24
1.00000003811
1.00000009144
1.00000018697
1.00000017508
0.99999998082
0.999999657228
0.999999078506
0.999997373041
0.999993490673
0.999987016648
0.999979274372
0.999985604983
0.999992833149
0.999992588903
0.999996623279
0.999995823577
0.99999345564
0.785554911191
0.0764557992437
-1.88976871839e-25
1.00000001121
1.00000002602
1.00000008547
1.00000002615
0.999999846762
0.999999508966
0.999998795362
0.99999684647
0.99999267996
0.999988934663
0.999979274606
0.999991103209
0.999997240496
0.999997272112
0.999999547033
0.999998827961
0.999996813833
0.775021051028
0.0669972795158
-1.05753338718e-20
0.999999884868
0.999999849645
0.999999860725
0.999999849643
0.999999555418
0.999999070396
0.999998457648
0.99999606559
0.999994608169
0.999994597836
0.999993099765
0.999997871173
1.00000023228
1.00000006699
1
1.00000003107
0.999999153295
0.765353857984
0.062341695986
-2.09656491266e-19
0.999999620882
0.999999515781
0.999999495932
0.99999942245
0.999999218035
0.999998231874
0.999997443883
0.999997329623
0.999999211681
0.999999992905
1
1.00000124795
1.00000295443
1.0000028977
1
1.00000006922
0.999999689402
0.75662549178
0.0591628250091
-3.39245435148e-17
0.999999271162
0.999999089419
0.999998956801
0.999998708028
0.999998521657
0.999998123461
0.999998275006
0.999999511032
1.00000121363
1.00000291631
1.00000440173
1.00000619436
1.00000815212
1.00000795606
1.00000188065
1.00000005344
1.00000015126
0.747333052062
0.0560464642423
-2.8934791093e-15
0.999998759549
0.99999851368
0.999998262458
0.999997996716
0.999997711588
0.999998152903
0.999998950623
1.00000028592
1.00000363503
1.00000728209
1.00001096352
1.00001319378
1.00001549329
1.00001503183
1.00000935541
1.00000000127
1.00000000597
0.737590093348
0.0533491805587
-2.94281205495e-14
0.999998099761
0.999997855598
0.999997579405
0.999997631068
0.999997161276
0.999997737822
0.999998407272
1.00000066644
1.00000603142
1.00001106604
1.00001848168
1.00002060211
1.0000235651
1.00002233136
1.00001656449
1
1
0.728770486985
0.0506981002211
-1.39242757172e-12
0.999998522927
0.99999811072
0.999997579392
0.999996285347
0.999995257283
0.999993742561
0.999997322883
1.00000012939
1.0000059422
1.00001372055
1.00002188407
1.00002591584
1.0000290838
1.00002786498
1.0000213163
1
1
0.720951355111
0.0474860088779
-5.55950731752e-13
0.999998679738
0.999998104758
0.99999703862
0.999993072487
0.99999103827
0.999987618596
0.999992004254
0.999998198435
1.00000596543
1.00001315994
1.00002183622
1.00002753089
1.00003173669
1.00002980602
1.00002397306
1
1
0.714323103
0.0439848859494
-1.76726166131e-10
0.999998615129
0.999997553078
0.999994872429
0.999993932973
0.999987618164
0.999987618155
0.999988814528
0.99999839001
1.00000370893
1.00000950094
1.00001616171
1.00002155411
1.00002493895
1.000023122
1.00001814021
1.00000060651
1
0.710042025806
0.0417447242523
-3.54962321609e-10
0.999998542717
0.99999730716
0.999994824428
0.999992491706
0.999987618163
0.999988750445
0.999993399744
0.999998866202
1.0000024216
1.00000724274
1.00001274248
1.00001762098
1.00002064954
1.00001937087
1.00001480813
1.00000163665
1.00000013093
0.705719258747
0.04020178396
1.71450878859e-06
0.999999626292
0.999998853653
0.999995992139
0.999993485136
0.999995079719
0.999996177625
0.999995014104
0.999998307057
1.00000144694
1.00000561622
1.00001035713
1.00001472385
1.00001757775
1.00001678169
1.00001202875
1.00000220849
1.00000063334
0.700543082679
0.0385926062069
-5.72774207623e-12
0.999999857321
0.999999244011
0.999998242436
0.999997482631
0.999997594879
0.999997554503
0.999996080871
0.999997037105
1.00000078572
1.00000412388
1.00000821592
1.00001208777
1.00001474505
1.00001426449
1.00000817979
1.00000238435
1.0000008637
0.694304674186
0.0364759553088
-8.05000456641e-13
1.00000009805
0.999999670128
0.999998950418
0.999998547681
0.999997601022
0.999996710142
0.999997884601
0.999997646594
1.00000017242
1.00000265897
1.00000590711
1.00000923583
1.00001168018
1.00001127516
1.00000407916
1.00000225823
1.00000090152
0.685584450359
0.0339216928713
-2.93525479486e-14
1.00000053447
1.00000017198
0.999999622173
0.999998612179
0.999997175707
0.999996710142
0.999999015298
0.999999278563
0.99999978008
1.00000140957
1.0000032681
1.00000587493
1.00000824623
1.00000820117
1.00000316423
1.00000247221
1.00000109179
0.674347048321
0.0306035250307
1.89845612924e-06
1.00000109119
1.00000071385
1.0000001128
0.999999329988
0.999998372235
0.999998015493
0.99999650114
0.999996518453
0.999997395135
0.999999408614
1.00000129968
1.00000269517
1.00000483534
1.00000550078
1.00000326478
1.00000282571
1.00000119389
0.663350019437
0.0265863631628
7.75947063224e-05
1.00000161054
1.00000132117
1.00000067891
0.999999992079
0.99999929159
0.999997536286
0.999993893427
0.999990790598
0.999990814106
0.999995164158
0.999997969997
1.00000062127
1.0000023523
1.00000330022
1.00000293823
1.00000273426
1.00000119102
0.650220830554
0.0213982623985
0.00025267140528
1.00000198675
1.00000185283
1.00000130311
1.00000059634
0.999999997434
0.999998719325
0.999996795742
0.999993317031
0.999989662695
0.999992330582
0.999995105813
0.999997563778
1.00000039478
1.00000246218
1.00000356083
1.00000372935
1.00000179689
0.634308773628
0.0176666367007
0.000383329875799
1.00000209845
1.00000216747
1.00000191614
1.00000146669
1.00000087906
1.0000001451
0.999999521093
0.999997296413
0.999989663815
0.999987658548
0.999991128576
0.999992967336
0.999996804279
0.999998089852
1.00000020083
1.00000123224
1.00000057336
0.61714938694
0.0147322739297
0.000327353499272
1.00000241772
1.00000259883
1.00000247586
1.0000021396
1.0000015737
1.00000070114
0.999999746341
0.999997199561
0.999991412736
0.999979029448
0.999978271004
0.999990631522
0.999993889474
0.999992803087
0.999996248131
1.00000029731
1.00000022957
0.600024406956
0.0121973611123
0.000121570569536
1.0000028176
1.00000307922
1.00000303734
1.00000276065
1.00000218522
1.00000117976
0.999999803511
0.999996849838
0.999992815813
0.999985839767
0.9999757413
0.999986787804
0.999990167434
0.999988062545
0.999992954661
0.999999956274
1.00000003213
0.583160724418
0.00990907525387
5.71188487729e-07
1.00000322574
1.00000354443
1.00000356177
1.00000332148
1.00000272282
1.00000159909
0.999999884891
0.999996877355
0.999991388364
0.999984833133
0.999975720879
0.999978793969
0.999986906027
0.999984372263
0.999990840376
0.99999955955
1
0.566963721899
0.00803626260398
1.1288075445e-22
1.00000358568
1.00000393551
1.00000399839
1.00000378504
1.00000316587
1.00000195894
1
0.999996983605
0.999990335139
0.999981420161
0.999975724497
0.999975737061
0.999980662477
0.999972476544
0.999986215435
0.999999424015
1
0.551888798691
0.0062116099702
-9.67029281449e-22
1.00000384005
1.0000041952
1.00000429269
1.00000410218
1.0000034731
1.00000222461
1.00000014632
0.999997095717
0.999990848707
0.999983265773
0.999975724682
0.999979656171
0.999973936865
0.999972476539
0.99997247654
0.999998248119
0.99999999062
0.53941732938
0.00551879564374
1.35838016918e-21
1.00000393984
1.00000427758
1.0000043957
1.0000042224
1.00000359221
1.00000233749
1.0000002849
0.999997238842
0.999991636185
0.999986763202
0.999977736572
0.999979687779
0.999973880365
0.999980345453
0.999988735855
0.999998775958
0.999999966898
0.528865162477
0.00507553539489
1.54724685032e-20
1.00000385085
1.000004153
1.00000427132
1.00000410851
1.00000349046
1.00000228707
1.00000034266
0.99999746461
0.999992385214
0.999988022319
0.999981678671
0.999978975624
0.999974772542
0.999984687717
0.999995551195
0.999998784853
0.999999937814
0.519238272458
0.00460453070988
7.39794965331e-05
1.00000356159
1.0000038196
1.00000391584
1.00000376789
1.00000320555
1.00000212493
1.00000034697
0.999997686091
0.999993175601
0.999986585409
0.999979855683
0.999981111545
0.999984775066
0.999987893952
0.999996472387
0.999998702211
0.999999912476
0.50902291412
0.00349225412671
1.32348898008e-21
1.00000308886
1.00000330614
1.00000338574
1.00000328222
1.00000282785
1.00000190119
1.00000029869
0.999997833172
0.999993724054
0.999988592853
0.999981909241
0.999987997388
0.999990158089
0.99999110179
0.999996365525
0.999998658163
0.999999893563
0.49988518476
0.00279326380503
1.88817761159e-22
1.00000250157
1.00000268182
1.00000279349
1.00000275589
1.00000241778
1.00000162915
1.00000020291
0.999997936034
0.999994511221
0.999991708469
0.999987806947
0.999992303329
0.999993167359
0.999993302548
0.999995694823
0.999998633014
0.999999867617
0.492089428322
0.00228587989245
1.98352596288e-06
1.00000193207
1.0000020783
1.00000224195
1.00000226877
1.00000201633
1.00000131512
1.00000005402
0.999998130874
0.999995633437
0.99999373012
0.999989183615
0.99999381307
0.999994852007
0.999995227527
0.99999590148
0.999998617695
0.999999834178
0.485675125084
0.00190257133372
1.63509025403e-06
1.00000146584
1.00000160099
1.0000017911
1.00000186266
1.00000164215
1.00000098374
0.999999922344
0.999998293977
0.999996264131
0.999994176446
0.99998974108
0.99999404965
0.999994308251
0.999993898177
0.999995878282
0.999998641955
0.999999794714
0.479779025114
0.00151770085399
1.70977178735e-07
1.00000100796
1.0000011853
1.00000140541
1.00000149878
1.00000126238
1.000000617
0.999999521179
0.999998305937
0.999996005395
0.99999454683
0.999989741138
0.999991146498
0.999988408366
0.999986613021
0.999994550788
0.999998640192
0.999999667366
0.474261336267
0.00120359062029
-1.2553095356e-08
1.00000060546
1.00000084701
1.00000110582
1.00000124577
1.00000087373
1.00000006543
0.999999715233
0.999998084581
0.9999977485
0.999994653248
0.999991589113
0.999986471516
0.99998291758
0.99998291758
0.999993132562
0.999998686685
0.999999350557
0.469438851007
0.000958976338174
3.49314629191e-07
1.00000035965
1.00000067605
1.0000011125
1.00000092171
1.00000086115
1.00000043416
0.999999595316
0.999998905013
0.99999633017
0.999994934259
0.99999196595
0.999990910659
0.999986620889
0.999985191482
0.999993503032
0.999998679109
0.999998953677
0.465537346626
0.000743230056502
2.58146835042e-05
1.00000013957
1.00000059474
1.00000084157
1.00000126511
1.00000071653
1.00000040881
1.00000015173
0.999999916431
0.999998767989
0.99999776571
0.9999970141
0.999996299281
0.99999494748
0.999994219282
0.999995344521
0.999998645368
0.999998713549
0.46251387224
0.000626675184016
2.10478131259e-05
1.00000061646
1.00000095468
1.00000107235
1.00000102031
1.00000105723
1.00000086571
1.00000034604
0.999999942986
0.999999266158
0.999998394378
0.999997864598
0.999997028068
0.999996038647
0.999994246827
0.99999563699
0.999998625798
0.999998654266
0.46076987592
0.000611601381335
6.80122692317e-07
1.00000075367
1.00000091786
1.00000096878
1.00000083965
1.00000079716
1.000000504
1.0000002542
0.999999919205
0.999999225505
0.999998141692
0.9999971247
0.999996135025
0.999994825514
0.999992665151
0.999995575761
0.999998578671
0.999998626148
0.460146614181
0.000654240194189
-2.79908885463e-24
1.00000076363
1.00000076887
1.00000074394
1.00000064881
1.00000052527
1.00000040877
1.00000024723
0.999999897576
0.999999236221
0.999998216711
0.999996976312
0.999995487795
0.99999276726
0.999989515571
0.999995578887
0.999998556392
0.999998578541
0.459886437826
0.000773563551141
6.80122930154e-07
1.00000052584
1.00000038261
1.00000024744
1.00000016633
1.00000017592
1.00000013258
1.00000009811
0.999999794107
0.999999442438
0.999998811673
0.999997462709
0.999994866591
0.999990588972
0.999984896959
0.999994954377
0.999998556262
0.999527805077
0.459498669332
0.000930662386538
-1.82376781456e-21
1.0000000051
0.999999748365
0.999999526788
0.99999941056
0.999999570606
0.999999766692
0.999999473792
0.999999477268
1.00000003811
0.999999882013
0.999998938833
0.999997711665
0.999989223837
0.9999821435
0.999995014351
0.999998553402
0.997142545138
0.460012913687
0.00117479391444
3.94759291907e-24
0.999999271626
0.99999898047
0.9999987613
0.999998731105
0.999999030637
0.999999297325
0.999999508044
1.00000015272
0.999985709129
0.999982068229
0.999994581002
0.999998545048
0.994608155025
0.460473165575
0.00139848973636
-8.68378084467e-25
0.999998315611
0.999998201115
0.99999806296
0.999998354595
0.999999091478
0.999999774995
1.00000032159
1.00000101908
0.999991717965
0.999986184137
0.999995649603
0.999998533796
0.993299776443
0.46038793406
0.0015621094988
1.37863435426e-23
0.999997755534
0.999997755841
0.99999817513
0.999998991033
1.0000002237
1.00000136765
1.00000263758
1.00000238438
0.999991702148
0.999986454479
0.999993533132
0.999998493429
0.994197427371
0.459480527998
0.00151886343728
3.53724488077e-21
0.999997571392
0.999997747526
0.999998778655
1.00000023302
1.00000168635
1.00000324567
1.00000455423
1.00000345758
0.999993412561
0.999988590268
0.999991704565
0.99999841844
0.996107243642
0.458327747315
0.00125046104306
-1.68032909564e-23
0.999998088975
0.999999050614
1.00000019888
1.0000018548
1.0000039005
1.00000594021
1.00000747038
1.00000759127
1.00000694729
1.00000611863
1.00000418003
1.00000000194
0.999991208767
0.999987796769
0.999989108397
0.999998309812
0.998052307555
0.457679056524
0.00101009415749
0
1.00000101153
1.00000221446
1.00000310541
1.00000418644
1.00000551397
1.00000678149
1.00000742814
1.00000699848
1.00000565955
1.00000377034
1.00000153121
0.999998971492
0.999995404411
0.999990145367
0.999989900871
0.999998103099
0.999560071661
0.457487777711
0.000824928651822
-2.38417578638e-24
1.00000333915
1.00000451434
1.00000540837
1.00000633882
1.00000725501
1.00000781646
1.00000752531
1.00000601879
1.000003496
1.0000004234
0.999997641239
0.999995776189
0.999993830345
0.999988675769
0.999990931423
0.999997190701
0.999997186703
0.458271222019
0.000750114597277
3.4820995066e-21
1.00000518941
1.00000630199
1.00000704217
1.00000766412
1.00000805303
1.00000784895
1.00000667878
1.00000428036
1.00000076113
0.999997368569
0.999994380594
0.999991413954
0.999988130348
0.999984395625
0.999989738263
0.999996833913
0.999997084474
0.45897392183
0.000674867970063
1.4629075706e-05
1.00000640151
1.00000742969
1.00000808788
1.00000839146
1.00000811221
1.00000718394
1.00000527455
1.00000217753
0.999998432273
0.999995811619
0.999992138675
0.999983894849
0.999974927837
0.999973241894
0.999986497971
0.999996547143
0.999996810247
0.45977514776
0.00067686426163
3.42695413243e-21
1.00000740406
1.00000829444
1.00000876848
1.00000877269
1.00000809354
1.00000651366
1.00000384856
1.00000025731
0.99999732737
0.99999192565
0.999988662469
0.999980402737
0.999956844469
0.999946370944
0.999973018163
0.999996416223
0.999996482255
0.461047858669
0.000682753617497
-6.89317177128e-23
1.0000078207
1.00000847437
1.00000878605
1.00000862158
1.00000766802
1.00000563679
1.00000243367
0.999998839337
0.999994995708
0.999987073579
0.999979722912
0.999972683008
0.999935334068
0.999913196866
0.999963036991
0.999996238884
0.999996763023
0.463231957547
0.000729737416352
-9.76213140364e-24
1.00000744662
1.00000784642
1.00000807535
1.00000787246
1.00000684942
1.00000470068
1.00000143565
0.99999839741
0.999991139778
0.999980925004
0.999975274906
0.999947831839
0.999913196866
0.999913196866
0.999934959762
0.999995863582
0.999997849535
0.466857044948
0.000851457120711
6.68249920902e-23
1.00000632463
1.00000665676
1.00000703857
1.00000707085
1.00000632078
1.00000439012
1.00000122437
0.999998153349
0.999989799976
0.999982811162
0.999977926028
0.999956656021
0.999916795034
0.999913196866
0.999923815834
0.999995450802
0.99999864046
0.472008704644
0.00111877237663
6.61744490042e-22
1.00000483807
1.00000538996
1.00000618434
1.00000671555
1.00000644872
1.00000489341
1.00000177989
0.999998608684
0.999992837624
0.99998935964
0.999981214166
0.999966447783
0.999957447303
0.999935669647
0.999947940792
0.999995924804
0.999998941258
0.477862532265
0.00142199764163
7.40536200657e-21
1.00000351699
1.00000430888
1.00000551858
1.00000655256
1.00000680528
1.00000566497
1.00000267524
0.999999209206
0.999996245508
0.999991470571
0.999985225891
0.999981433798
0.999977617079
0.999962364357
0.999966444508
0.999996128689
0.999999006817
0.484698024713
0.00179436267134
8.54740915036e-06
1.0000028863
1.00000386799
1.00000542153
1.00000694927
1.00000766332
1.0000067917
1.0000039608
0.999999707048
0.999997205546
0.999989326495
0.999981393631
0.999980824403
0.999980784924
0.999973490053
0.999975953648
0.999996332611
0.99999902995
0.492471125386
0.00231554650464
0
1.00000144199
1.00000216821
1.00000334973
1.00000457787
1.0000053042
1.0000050311
1.00000350836
1.00000064416
0.999996567203
0.999989896952
0.999977261537
0.999968095733
0.999968062856
0.999973244303
0.999977771949
0.999996596862
0.999999043249
0.50061946977
0.00277597898658
5.91003321587e-06
1.00000084304
1.00000129372
1.00000223234
1.00000327527
1.00000399352
1.00000402486
1.0000032434
1.00000138232
0.999998625074
0.999996456651
0.99999012043
0.999969918859
0.999965634726
0.999965634906
0.999977444524
0.999996845406
0.999999051111
0.510290466563
0.00360730258978
0
1.00000056505
1.00000093626
1.00000155302
1.00000246354
1.00000317005
1.0000034115
1.00000303459
1.00000180926
0.999999794308
0.999997797214
0.999995974417
0.999991804695
0.999974476324
0.999965634813
0.999984839854
0.999996993549
0.999999053983
0.521110237555
0.00476269733111
6.22278886173e-05
0.999999792468
1.00000056645
1.00000120736
1.00000191415
1.00000257984
1.00000294528
1.00000273231
1.00000183753
1.00000026054
0.999998558196
0.999996717427
0.999994575878
0.999989531961
0.999979292169
0.999987819538
0.999996921359
0.999999054001
0.531218572098
0.00514990005694
1.63547944899e-20
0.99999970655
1.00000016851
1.00000094663
1.00000156422
1.00000214938
1.00000250228
1.0000023185
1.00000152558
1.00000017334
0.999998606071
0.999996715037
0.999994423947
0.999992204723
0.999989925103
0.999988559124
0.999996438416
0.99999905401
0.542766280946
0.0058550847351
-1.72028665828e-21
0.999999721636
0.999999889047
1.0000007732
1.00000138637
1.00000182236
1.00000205527
1.00000183976
1.00000105624
0.999999803295
0.999998189895
0.999996245337
0.999993210772
0.999987767911
0.999988647965
0.999986854463
0.999995451898
0.99999905401
0.556392249976
0.00714161450594
1.99901981367e-22
0.999999773357
1.00000001544
1.00000064628
1.0000012322
1.00000156483
1.00000165496
1.00000138345
1.0000005929
0.999999403663
0.999997731626
0.999995811883
0.999992822108
0.999986140192
0.999978788751
0.999981336382
0.999994636634
0.99999905401
0.571705601501
0.00873673431789
1.02051253958e-23
0.999999937221
1.00000037282
1.00000062711
1.00000108499
1.00000138692
1.00000137848
1.00000106379
1.00000026245
0.999999058998
0.999997356802
0.999995407999
0.999992128192
0.999987906417
0.999975871399
0.999972385378
0.99999292729
0.999999052921
0.58779324902
0.0107867033407
1.43862196702e-24
1.0000005465
1.00000081972
1.00000103716
1.00000128384
1.00000151837
1.00000146941
1.00000107495
1.00000015015
0.999998757951
0.999996772436
0.999994549085
0.999991730588
0.999988342858
0.999980287554
0.999971446124
0.999988966346
0.999999072921
0.604163335488
0.0128676608739
4.85623951301e-24
1.00000088423
1.00000115254
1.00000149987
1.00000178556
1.0000019674
1.00000188693
1.00000125791
1
0.999998101011
0.999995560412
0.999992719566
0.999990106741
0.999987681767
0.999981750016
0.999971450378
0.999989612795
0.999999211805
0.621067772644
0.0159111058441
-8.82325986723e-22
1.00000104078
1.00000132569
1.00000170148
1.000002091
1.00000233357
1.00000212408
1.00000130888
0.999999840505
0.999997405127
0.999993993188
0.999990268005
0.999986947968
0.99998313082
0.999977816354
0.999981565577
0.999989161112
0.999999409413
0.638012581102
0.0199684900639
-1.36785205497e-20
1.00000152105
1.00000190256
1.00000236828
1.00000291024
1.00000319237
1.00000280935
1.00000159412
0.999999401918
0.999995672636
0.999990312463
0.999983918618
0.999974772594
0.999970302293
0.999970302191
0.999972016327
0.999986119621
0.999999517173
0.653292739379
0.0242312512883
-1.46246083753e-20
1.00000105012
1.00000134712
1.00000165585
1.00000189496
1.00000187244
1.00000140365
1.00000041199
0.999998757589
0.999996229936
0.999992733149
0.999986963594
0.999985149572
0.999979816672
0.999975024904
0.999980063675
0.999993663742
0.999999556522
0.663683406854
0.0268481774079
4.68735680447e-22
1.00000117604
1.00000138139
1.00000156306
1.00000164491
1.00000148313
1.00000094882
1.0000000033
0.999998573337
0.999996989407
0.999995284732
0.999992720514
0.999990423758
0.999989144639
0.999984127673
0.999987837184
0.999995521249
0.999999579301
0.672612943953
0.0293675362738
7.0008775802e-24
1.00000115977
1.00000126131
1.00000134712
1.00000134121
1.0000010953
1.00000049553
0.999999440797
0.999997829472
0.999995887495
0.9999941847
0.999993311588
0.999990349297
0.999991417083
0.999992451379
0.999992896624
0.999996754439
0.9999995885
0.682626573726
0.0314076150104
5.64676783864e-23
1.00000092734
1.00000097331
1.00000105335
1.00000106095
1.00000085667
1.00000029882
0.999999231701
0.999997465505
0.99999485034
0.999992086309
0.999991353069
0.999991271894
0.999990956729
0.99999451845
0.999995511486
0.999997306916
0.999999622819
0.690183534408
0.0330725955108
-3.17702685242e-11
1.00000058802
1.00000068839
1.00000083044
1.00000087943
1.0000008389
1.00000046257
0.999999801383
0.999998530517
0.999996899158
0.999995667051
0.999995091358
0.999995690856
0.999992279448
0.999993034359
0.999997337906
0.999998631555
0.999999697216
0.696136574315
0.0347505602984
-8.46711600254e-10
1.00000035072
1.00000048932
1.00000051466
1.00000087971
1.00000106443
1.00000101309
1.0000004758
0.999999739283
0.999999012347
0.999998390491
0.99999779632
0.999997565714
0.999995617907
0.999993980828
0.999999281047
0.999999471675
0.999999743052
0.701285629181
0.0367315414215
-1.00156792187e-09
1.00000004386
1.00000022794
1.00000057152
1.00000094377
1.00000144348
1.00000147128
1.00000119385
1.00000052138
0.999999960843
0.999999077018
0.999999336608
0.999998361809
0.999995714811
0.999995673314
1.00000132949
0.9999997488
0.999999809078
0.705349683063
0.0381875902142
-1.39055851191e-09
1.00000029924
1.00000043136
1.00000059261
1.00000095589
1.00000177175
1.00000199965
1.0000016591
1.00000115626
1.00000020531
1.00000038512
0.999999523076
1
0.999998888699
0.999999622949
1.00000273798
0.999999737264
0.999999934343
0.709680944532
0.0405837505479
-7.34879866567e-10
1.0000010908
1.00000035988
1.00000079628
1.00000148523
1.00000177344
1.00000177489
1.00000141499
1.0000010338
1.00000071405
1.00000114217
1.00000207423
1.00000163412
1.00000174259
1.00000198549
1.00000330934
0.999999999966
1
0.715528710031
0.0438631912288
-1.24094477297e-10
1.00000091738
1.00000224064
1.00000158489
1.00000179337
1.00000190173
1.00000178158
1.00000143121
1.00000109963
1.00000104546
1.00000162217
1.00000251285
1.00000311533
1.00000381331
1.00000369522
1.00000242404
1
1
0.721489731363
0.0475606328759
-1.66645806475e-12
1.00000257278
1.00000193014
1.00000204172
1.00000209334
1.0000020395
1.00000180348
1.00000142751
1.00000118809
1.00000128518
1.000001458
1.00000176087
1.00000344424
1.00000409233
1.00000447319
1.00000108173
1.00000000135
0.999999988002
0.729437943324
0.0518156612848
-1.30507978713e-12
1.00000219867
1.00000244401
1.00000234611
1.00000229724
1.00000212579
1.00000179231
1.00000143435
1.00000131279
1.00000116083
1.00000008343
1.00000102311
1.0000015772
1.00000349614
1.00000444863
1
1.00000002235
1.00000003789
0.740428493062
0.0568437133451
-2.84184143763e-14
1.00000253475
1.00000252232
1.00000244262
1.00000234183
1.00000209867
1.00000174451
1.00000147539
1.00000124384
0.999999227619
0.999999875984
0.999999595038
1.00000022081
1.00000240263
1.00000363707
1
1.00000006272
0.999999986903
0.752485032001
0.0630427462162
-2.69692763768e-15
1.00000239546
1.00000234771
1.0000022939
1.00000217435
1.00000192746
1.00000161855
1.00000141374
0.999999627477
0.999998544018
0.999997347469
0.999996713345
0.999999562341
1.0000008395
1.00000189139
1
1.00000005884
0.999999550598
0.764068514965
0.0697280280888
-1.25338211472e-17
1.0000020115
1.00000192882
1.00000188038
1.00000178541
1.00000158509
1.00000139166
1.00000070644
0.999998786584
0.999996004926
0.999992606564
0.999996191856
0.999998587713
0.999999839687
0.999999808508
0.99999976459
0.999999933002
0.999998822414
0.777224330251
0.0763826106094
-1.03861331241e-17
1.00000140127
1.0000012579
1.00000122893
1.00000119413
1.0000010954
1.00000087249
0.999999846158
0.999998592001
0.999994238382
0.999987615032
0.999995074447
0.999996166862
0.999996466272
0.999997130408
0.999998272815
0.999997776442
0.999996238716
0.792415468875
0.0842267280688
-2.16456105344e-18
1.00000059326
1.00000040497
1.00000039525
1.00000047162
1.00000043533
1.00000019178
0.999999578597
0.999997623427
0.999992973417
0.99998688448
0.999986889699
0.999992255305
0.999993049936
0.999992819776
0.999994471198
0.999994783796
0.999992172429
0.80994044834
0.0940043483512
-5.04538360594e-21
0.999999736502
0.999999515284
0.999999594254
0.999999739058
0.999999731025
0.999999525931
0.999999029018
0.999996732822
0.999993072452
0.999987236389
0.999978616704
0.999987956705
0.999989965929
0.999989551538
0.999991175607
0.999991283203
0.999987924859
0.831178386169
0.104434214676
-7.10153137389e-23
0.999998689683
0.99999844602
0.999998593089
0.999998830195
0.999998937967
0.999998722268
0.999998251191
0.999995881128
0.999991038214
0.999984971451
0.999975301845
0.999984046873
0.999987539675
0.999987465519
0.999988330949
0.999988419777
0.999984625475
0.85550940372
0.114910075153
-2.82278834042e-21
0.999997718639
0.999997470931
0.999997655373
0.999998040575
0.999998235007
0.999998054165
0.999997508039
0.999994209525
0.999988237172
0.999983856911
0.999975301845
0.999980016504
0.999986576172
0.999986925001
0.999986605549
0.999986883087
0.999982741782
0.878148680929
0.127028021277
-5.95444573827e-26
0.999996815775
0.999996584142
0.999996821264
0.999997211362
0.999997417354
0.999997563512
0.99999705598
0.99999132511
0.999987798302
0.999980014482
0.999975301845
0.99998312468
0.999986950942
0.999987966583
0.999989754543
0.999988166766
0.999983538141
0.894736218227
0.142105362492
-1.65769162989e-24
0.999995459157
0.999995524123
0.999995887346
0.999996269931
0.999996728013
0.999996969376
0.999995797791
0.999992075801
0.999982061726
0.999976719918
0.999980650703
0.999987389547
0.999987592831
0.999989194955
0.999991709137
0.999990164265
0.999984509363
0.900532462247
0.156862318692
-3.24335279494e-23
0.999995332254
0.999995423194
0.999995870492
0.99999622439
0.999996658549
0.99999703907
0.999995168833
0.999990000049
0.999986297286
0.999976719918
0.999986510835
0.999990834884
0.999990724293
0.999991136998
0.999994235436
0.99999306559
0.999985908282
0.883504139922
0.163548412199
-6.17580148973e-21
0.999997563385
0.99999786927
0.999998047358
0.999998218461
0.999998266593
0.999998223688
0.999995446212
0.999994649259
0.999992285928
0.99998681611
0.999993843944
0.999995962988
0.999995962988
0.999995962988
0.999995945056
0.999995523067
0.99998591557
0.838351311896
0.166848340834
-3.02483644825e-20
)
;

boundaryField
{
    back
    {
        type            zeroGradient;
    }
    sides
    {