/*--------------------------------*- C++ -*----------------------------------*\
| =========                 |                                                 |
| \\      /  F ield         | OpenFOAM: The Open Source CFD Toolbox           |
|  \\    /   O peration     | Version:  v2012                                 |
|   \\  /    A nd           | Website:  www.openfoam.com                      |
|    \\/     M anipulation  |                                                 |
\*---------------------------------------------------------------------------*/
FoamFile
{
    version     2.0;
    format      ascii;
    class       volVectorField;
    location    "5";
    object      ddt0(rho,U);
}
// * * * * * * * * * * * * * * * * * * * * * * * * * * * * * * * * * * * * * //

dimensions      [1 -2 -2 0 0 0 0];


internalField   nonuniform List<vector> 
1984
(
(5.13906468885 -5.12563104661 -1.05136512984e-20)
(5.3942292909 -14.8482371435 -2.10372781568e-19)
(5.53726107704 -25.1680471886 -1.16376502825e-19)
(5.76042919459 -35.798736971 -7.95586499892e-20)
(6.08388010683 -46.9088628599 2.81231818408e-20)
(6.51484175608 -58.7078422286 1.07391103034e-19)
(7.07755851652 -71.4054919243 2.65260453991e-19)
(7.80213587141 -85.2674249479 -2.02649017995e-20)
(8.72168806198 -100.624691151 -2.73672953101e-19)
(9.89305012647 -117.915624821 -5.3269782527e-19)
(11.3787315834 -137.72188327 -2.29613502543e-19)
(13.3068504155 -160.663090485 -2.66226917108e-19)
(15.8607534175 -187.551891859 -7.50185437687e-19)
(18.7118466088 -218.455078291 -1.00754146248e-18)
(21.9196851684 -251.297192713 -9.83829454597e-19)
(22.5687909029 -311.563565093 9.26126109238e-18)
(6.85903364451 -312.800265224 2.86483550457e-17)
(-17.4895532685 -206.829222727 2.17263216012e-16)
(62.7542767604 83.6492139809 -4.02282886107e-16)
(-0.0998676575459 -2.28968052491 -1.20284054526e-18)
(14.7143408817 -5.25626417992 -3.29856742148e-20)
(15.0935023846 -14.8273556416 -2.34263556488e-19)
(15.4686182306 -24.9671738552 -1.32832094704e-19)
(16.0841189666 -35.4866237595 -3.91136165089e-20)
(16.9757542775 -46.4677482885 -3.55840205075e-20)
(18.1804402926 -58.0997867427 1.38814118016e-19)
(19.7576763254 -70.5863890509 2.15880538804e-19)
(21.769092156 -84.192999293 1.17690329521e-19)
(24.327048952 -99.2171430473 1.42421516606e-19)
(27.5756749604 -116.083914266 -9.83264891678e-20)
(31.7212787314 -135.309832098 -1.69895255826e-20)
(36.9498662674 -157.533665557 -1.58130333658e-19)
(43.3825872541 -183.860187844 -8.72327163132e-19)
(51.4976253044 -214.658229001 -1.79163606608e-18)
(61.50433678 -249.205586947 -3.46949226894e-18)
(71.6953701798 -317.413317126 -4.57740066239e-18)
(62.6558861454 -353.349128561 -2.5660317137e-19)
(7.43122672135 -310.365867333 2.75927338172e-17)
(4.35061024179 -5.83893984002 1.42418304905e-16)
(-0.182994189368 -0.941478562029 -1.20515679094e-19)
(24.4855823011 -5.14630913266 -2.47081087295e-19)
(24.9518022423 -14.404291487 -4.55225302763e-19)
(25.5963151797 -24.2572315151 -1.50059940109e-19)
(26.6182627556 -34.4560793956 -1.46854193152e-19)
(28.0707369385 -45.0604628746 -3.50305440832e-20)
(30.0184404583 -56.2525419178 7.53987180339e-21)
(32.5418938239 -68.2104283496 9.12591293329e-20)
(35.7735779846 -81.1521948587 -3.62643157574e-20)
(39.8964284951 -95.329284906 -1.53592730921e-19)
(45.1539861848 -111.102370971 1.81284680479e-20)
(51.8954236182 -128.959844176 -9.34584134037e-21)
(60.5152739084 -149.50534567 -5.69779862485e-19)
(71.5435989058 -173.833000546 -9.02006644631e-19)
(85.6447194744 -202.784304648 -1.65260551553e-19)
(104.361158853 -236.698244548 -8.36571522981e-18)
(128.016722266 -305.796801389 -1.55177346202e-17)
(139.767203819 -350.43638031 2.58224419161e-17)
(123.757689447 -313.883432884 -7.96110078699e-17)
(31.5773293003 -24.1640100382 1.68509321449e-16)
(0.00590810034803 -0.732203166428 -3.25680752092e-19)
(33.8817135894 -4.95768542209 -2.13290922835e-20)
(34.5225130094 -13.8205710819 -2.28251956366e-19)
(35.3795924575 -23.2636541856 -1.96956970784e-19)
(36.7524585694 -33.0043601341 -1.67223843573e-19)
(38.6879732862 -43.0731740828 -1.09983100135e-19)
(41.2762043527 -53.6423931278 -8.07013466682e-20)
(44.6305291181 -64.8516778745 -9.43692441806e-20)
(48.9196269284 -76.8597690889 2.66100465924e-20)
(54.3684072413 -89.8474818335 7.67381180788e-20)
(61.2756583435 -104.077013174 -1.89499231417e-19)
(70.1002828804 -119.94206409 -2.59951443646e-20)
(81.4747580299 -137.941538657 -2.76453804684e-19)
(96.2258732953 -158.835678718 -4.39008798967e-19)
(115.599419151 -183.236182538 -3.36913931143e-19)
(142.591112047 -211.06821101 1.48917519227e-19)
(180.344275886 -266.45212061 -9.75499409581e-18)
(212.78776327 -290.902139652 -1.10993917717e-17)
(212.290517993 -249.954104509 -4.70722533655e-17)
(18.5954079797 -0.707977624388 1.75957216918e-19)
(0.143090501215 -0.363668765357 -2.0345394487e-19)
(42.8464265349 -4.71178499867 9.95871388826e-21)
(43.6155209108 -13.0890315294 -2.62697272397e-19)
(44.6394679952 -22.0110670602 -1.50212987145e-19)
(46.2939386779 -31.1703148106 -1.31949320302e-19)
(48.6243370287 -40.5789355293 -8.69377336425e-20)
(51.7219244268 -50.3683471276 -7.93671621253e-20)
(55.7306749297 -60.6409772572 -3.06490596918e-20)
(60.8306820614 -71.493446524 -1.06437692828e-20)
(67.2911341495 -83.0369187181 1.41073656871e-20)
(75.4344048538 -95.4051565056 -5.99224648036e-20)
(85.7636108826 -108.792715144 -5.76422019225e-20)
(99.0309181286 -123.475797062 -2.696783689e-19)
(116.303642366 -139.811782714 -7.01846314411e-19)
(139.105727402 -157.836319864 -7.44183416973e-21)
(170.789491839 -176.155246701 -2.1388480971e-19)
(213.908652601 -210.684844489 4.0886388234e-19)
(248.932228988 -211.846479254 1.66188094216e-17)
(230.746566588 -160.314756324 6.9807995443e-19)
(11.2071471641 16.4874788059 -3.79405414682e-18)
(0.21953929718 -0.271683190978 -5.25838993479e-20)
(51.2857521221 -4.41365669595 8.57384142548e-20)
(52.1606261777 -12.2271770811 -1.48784576537e-19)
(53.309804293 -20.5433267895 -7.60515839793e-20)
(55.1735839886 -29.0277131574 -5.962790033e-20)
(57.7934051723 -37.6755592054 -1.51144083003e-20)
(61.263169587 -46.5797906074 -4.68630884334e-20)
(65.7226417824 -55.7969943386 -1.64490661855e-20)
(71.3655364443 -65.3596625761 -2.90770245514e-21)
(78.4499775674 -75.2885807789 -1.00221011855e-20)
(87.3256601381 -85.6146298577 -2.17064726242e-20)
(98.4537282346 -96.3361012856 -4.84199110352e-20)
(112.553671117 -107.396474315 -1.13401368674e-19)
(130.638173886 -118.720896508 -9.04537963509e-19)
(154.284202129 -129.814774475 -2.2809930243e-19)
(185.795570388 -138.314001048 -2.46657012254e-18)
(226.574274887 -151.213510736 8.22665100996e-18)
(261.34481972 -146.227185934 5.4858366798e-17)
(230.938468777 -102.638275845 2.12955118527e-17)
(16.3101878816 15.3850590726 -1.03026617149e-16)
(0.278422230101 -0.352471668815 -2.93110762055e-19)
(59.1269465491 -4.08236593697 3.68455318832e-20)
(60.0872326462 -11.2720540551 -9.0753071184e-20)
(61.31643853 -18.9200081711 -1.89077672117e-20)
(63.3156309551 -26.6689495294 -3.85546895533e-20)
(66.1173602841 -34.4961364087 -7.68991472873e-20)
(69.8101632092 -42.4566356786 -3.57958007903e-21)
(74.5239599627 -50.5590760393 -1.98501034938e-20)
(80.4368653321 -58.7887967028 -1.90621401455e-21)
(87.7811619818 -67.0917101418 1.26814305763e-20)
(96.8625168294 -75.3855275594 -8.19886221372e-21)
(108.089351347 -83.5167087239 -8.78432243349e-20)
(122.016622241 -91.2294911524 -2.11600670666e-19)
(139.35154845 -97.9941809266 -8.43439906542e-19)
(161.110756288 -103.132185144 -1.39850893194e-18)
(188.800427106 -103.569401955 -9.15399908393e-18)
(224.5788184 -103.922741583 7.89353783492e-18)
(261.050941933 -86.0625068342 4.97596449161e-17)
(242.436986271 -55.7613000557 4.95437721177e-17)
(17.5519017349 25.3872230561 -5.09906592249e-17)
(0.311859045419 -0.186286496901 -1.08542641939e-19)
(66.3224701861 -3.72902765052 -5.67334243724e-20)
(67.3489235449 -10.2625728775 -2.69455085059e-19)
(68.612020698 -17.208027108 -1.55838607292e-19)
(70.675852464 -24.1891916876 -7.90567105236e-20)
(73.5593028676 -31.1709070865 -2.47686360588e-20)
(77.3354235904 -38.1735307841 -2.89002132378e-20)
(82.120337268 -45.1705295734 -1.36853434159e-20)
(88.0596547709 -52.0965369753 -1.05208425095e-20)
(95.3473709413 -58.8510231438 -1.67276979601e-20)
(104.221705049 -65.2867295779 -2.68707049047e-20)
(114.983454456 -71.1431836028 -1.04031127365e-19)
(127.984997104 -76.0564983392 -1.15053947266e-19)
(143.664999517 -79.50419937 -5.6364840396e-19)
(162.302312455 -80.3007569854 2.34092655632e-19)
(184.874731742 -75.8422670517 -6.00395242563e-18)
(214.44258507 -73.6481469187 -5.56319293483e-18)
(245.045371551 -43.4807084312 3.31486231201e-17)
(228.317660549 -15.0683122578 2.80304569026e-17)
(6.89491096477 30.8163300148 1.47905725681e-17)
(0.296882992574 0.0166309285687 8.75313049854e-20)
(72.8481192176 -3.36487289213 4.85957448263e-20)
(73.9198649959 -9.23287691475 -1.4863438019e-19)
(75.1745621452 -15.465401328 -1.05376715026e-19)
(77.2409701358 -21.6724690943 -5.14861029309e-20)
(80.1159550148 -27.8183471493 -1.17133720524e-20)
(83.8571897523 -33.8882491664 7.61751716537e-21)
(88.5544172944 -39.8282142446 -4.03844075438e-20)
(94.3234801404 -45.5480449199 -3.09354203267e-21)
(101.305546242 -50.9076751771 -8.07938585411e-21)
(109.67649959 -55.725885489 -2.20204223594e-20)
(119.614951443 -59.7236675134 -8.08096001018e-20)
(131.297320314 -62.4998297457 -1.95719802308e-19)
(144.910504407 -63.5461843393 -3.914617053e-19)
(160.455125657 -61.9284721376 -6.59194706007e-19)
(178.040095129 -54.64216574 2.00774109786e-19)
(198.246969982 -51.4134812078 -1.14670914667e-17)
(216.74978119 -12.6621595785 -2.57144103432e-18)
(193.116162343 6.62672251607 3.78738259956e-18)
(-5.86551168893 32.9481711396 8.37130663532e-18)
(0.271480763599 0.286176123315 5.66574815477e-21)
(78.7011569652 -2.9992973953 1.35704233764e-19)
(79.7851053761 -8.21340192 9.00897726272e-21)
(81.0124407756 -13.7411610132 -3.3891258172e-20)
(83.026152961 -19.190994885 7.37561262818e-21)
(85.8180782401 -24.5332582143 8.43297875739e-21)
(89.4267607113 -29.7259979578 5.45096468632e-21)
(93.9135476477 -34.6968172001 5.72798346795e-21)
(99.3606882741 -39.3336709616 3.26720979251e-21)
(105.869238521 -43.487334565 -6.75662841212e-21)
(113.540538155 -46.9661347353 -2.48445484092e-20)
(122.47020723 -49.5001979042 -6.64071880938e-20)
(132.695241114 -50.7395471042 -1.36380009676e-19)
(144.235843757 -50.2227653333 -2.45035477355e-19)
(156.936506709 -47.257793702 -5.85138478898e-19)
(170.553433953 -39.4855980115 -3.23568544206e-19)
(182.412355546 -36.1186695709 -5.20144094573e-18)
(184.730095955 -3.00578316762 -7.48658136418e-18)
(144.083592391 5.67968074593 7.38706063476e-18)
(-20.6675655533 27.3200518369 1.88504437886e-17)
(0.221612605998 0.38087526741 7.39670581417e-20)
(83.8897719916 -2.64566129227 2.06329835287e-19)
(84.9696362488 -7.22602956223 1.81139603201e-20)
(86.1440155772 -12.0646098972 9.70673308457e-20)
(88.0623720182 -16.8050704842 -1.42853817677e-20)
(90.7167617556 -21.3937796586 1.16280641069e-20)
(94.1181516534 -25.7820004756 7.52377233859e-21)
(98.3108208332 -29.88831715 2.58959479775e-21)
(103.333824095 -33.592157167 5.92717620988e-21)
(109.260562491 -36.7499601379 4.78605874884e-21)
(116.137035381 -39.1772256998 -1.52061516647e-20)
(123.991053114 -40.6133177066 -6.39036030646e-20)
(132.763233835 -40.7581904971 -1.11096272877e-19)
(142.383589361 -39.2619891227 -8.81032665069e-20)
(152.706934558 -35.867581811 -7.75362902411e-19)
(163.421117609 -28.647367987 1.57969400548e-18)
(170.297242007 -26.0811479934 -4.98341050218e-19)
(163.360314597 -5.72652397101 1.4436871684e-17)
(118.086545402 -5.50470746391 2.95723838099e-18)
(-29.4888948501 18.000302454 4.75644165598e-18)
(0.154015952699 0.194883433492 -2.40808939392e-20)
(88.4394549254 -2.30709119419 6.54822778308e-20)
(89.5123293016 -6.28636166036 -4.30119411663e-20)
(90.5990997758 -10.4757787692 -4.00694647827e-20)
(92.3989767591 -14.552537038 -2.70327722513e-20)
(94.8778534713 -18.4510789811 4.09421092491e-21)
(98.0241612345 -22.1181447277 6.39590655542e-21)
(101.863647839 -25.4772679236 2.12727434829e-20)
(106.423863335 -28.4042667656 4.28043297896e-21)
(111.714507514 -30.7477456633 2.41660910658e-20)
(117.751772246 -32.3474544743 1.56807971197e-20)
(124.508942868 -32.9758441997 -5.80765593636e-20)
(131.901353893 -32.3875637807 -6.20335725776e-20)
(139.843549235 -30.3247526794 -2.2739006463e-19)
(148.220028957 -26.7136249508 -7.19577336842e-19)
(157.087359859 -20.3996191274 -9.85522460094e-19)
(162.217371012 -18.0701223013 2.47319280939e-18)
(156.295817912 -9.44213458995 -4.67593266784e-19)
(116.958403555 -12.0359387736 4.90426323726e-18)
(-28.8692497081 9.97649846562 5.06625771911e-18)
(0.0996137096144 0.0888070986182 -1.47608802821e-20)
(92.3812706969 -1.98741656294 1.15624052271e-19)
(93.4410394962 -5.40797371968 -4.34344042232e-20)
(94.4302802973 -8.99155135716 -5.47792683885e-20)
(96.0942250516 -12.4589225644 3.40879689209e-21)
(98.3711812302 -15.7421025245 2.61028805402e-20)
(101.247816471 -18.7837335426 1.06294178519e-20)
(104.713307109 -21.4947939571 4.58022907258e-21)
(108.784253616 -23.7785920276 2.4268122486e-20)
(113.420186943 -25.4936459571 5.14360455792e-20)
(118.619663388 -26.4750027825 -1.41187837048e-20)
(124.330481916 -26.5389811115 -2.86423734524e-20)
(130.427221672 -25.4659822352 2.18436644936e-20)
(136.851092738 -23.0446810804 -9.87899126881e-20)
(143.533660741 -19.1973222047 -2.98216112217e-19)
(150.793594874 -13.1186844141 -2.03877323443e-18)
(155.976500447 -8.70220287337 -3.37871899064e-19)
(155.640828401 -0.669920170885 6.69108882985e-18)
(119.65026552 -3.81597481057 1.09704100937e-18)
(-23.9833812226 6.56770412635 1.80599890513e-18)
(0.0690508779333 0.105993270126 -6.45505201364e-21)
(95.7541565799 -1.68489775947 2.69570017476e-19)
(96.7971714455 -4.59179389635 1.25114510479e-19)
(97.6847223065 -7.62529759946 1.31319808362e-19)
(99.2095712759 -10.5410553806 6.85878120437e-20)
(101.284923381 -13.27300631 3.68302395514e-20)
(103.885888575 -15.7734542636 2.73545167094e-20)
(106.978240039 -17.9587137519 2.80234509074e-20)
(110.551253848 -19.7354767597 -2.79347884394e-20)
(114.569973661 -20.9732373188 1.00733332679e-20)
(118.968661276 -21.5183192576 4.6780734386e-20)
(123.684815212 -21.2452520343 -6.94661232932e-20)
(128.590435901 -19.9235202818 -9.24511386735e-20)
(133.576105865 -17.311775507 -3.36870797431e-19)
(138.605460367 -13.29837641 -7.63832680785e-19)
(143.973573734 -7.24243224446 -1.34011034685e-18)
(147.865441345 -0.581919969425 -1.03174943471e-17)
(149.691312202 12.5447102563 -2.9345824315e-18)
(115.942665277 7.3038332686 -5.20484756175e-18)
(-18.5757418133 4.6511467425 -2.57676509509e-18)
(0.0527624371683 0.0813664326795 -3.04437881752e-20)
(98.6042065505 -1.40252629973 2.63066116428e-19)
(99.617726881 -3.84040363594 2.09327802297e-19)
(100.421456235 -6.37374293426 2.17951005433e-19)
(101.811139598 -8.79196726904 1.01718590824e-19)
(103.694166527 -11.0495032173 3.17790022869e-20)
(106.022318661 -13.0947267457 1.18543179334e-20)
(108.769113434 -14.8480486142 8.0934460414e-21)
(111.884814429 -16.2250211499 -6.00060477552e-20)
(115.324947352 -17.1392947432 -1.48645406749e-20)
(118.993109993 -17.4516264313 5.58628707733e-20)
(122.787114007 -17.0224318449 -1.15957105708e-19)
(126.608832303 -15.6712553029 9.86102548692e-20)
(130.259727553 -13.1366449034 -1.71623995812e-19)
(133.671597193 -9.27994485364 -1.16040528403e-20)
(137.036149775 -3.66036373359 3.15219443592e-19)
(138.620627032 3.6798110413 -3.30506852841e-18)
(138.098340293 19.7973899343 -4.61337303374e-18)
(111.493809634 14.3996878038 2.65769471018e-18)
(-9.33008264744 3.17612989366 -5.0575433947e-19)
(0.0857780397941 -0.057262892521 -4.43386733694e-21)
(100.970764607 -1.14735831084 2.04622532792e-19)
(101.957417477 -3.15209810721 9.19678718317e-20)
(102.686740527 -5.22738370872 1.34267588886e-19)
(103.95160516 -7.20563242531 5.36575037203e-20)
(105.661404346 -9.04237630041 1.61989076595e-20)
(107.75243469 -10.6939334464 7.09468131757e-21)
(110.187503351 -12.1043023063 3.99069256236e-23)
(112.90647053 -13.2061833074 -9.29089653601e-21)
(115.828785086 -13.9273742693 3.37159985749e-20)
(118.87860915 -14.1642809916 -1.7609892821e-22)
(121.902129335 -13.7515113637 -9.781557293e-20)
(124.74554077 -12.5630695373 -3.1352461167e-20)
(127.195770134 -10.3749581664 -1.33414931342e-19)
(129.060824013 -6.97203625015 2.12121050194e-19)
(130.601665229 -2.16747459279 2.75526232675e-18)
(130.610989004 4.1596005559 2.46498121401e-18)
(128.503969868 23.3551382036 3.83140981552e-18)
(105.982993744 18.9444651065 3.42032651401e-18)
(-0.751398048738 3.24698084127 5.42155181652e-19)
(0.0394018642155 -0.0371497024908 -6.35049632733e-21)
(102.889722664 -0.907381067964 -5.31556263034e-20)
(103.855738179 -2.51468246849 -7.23121085841e-20)
(104.510428367 -4.16692976255 -6.83777515341e-20)
(105.677406216 -5.73712722131 -4.23794662354e-20)
(107.244971979 -7.19668300613 -3.61339995167e-20)
(109.145346001 -8.52080223656 2.50055099054e-20)
(111.32097534 -9.66506544651 4.45365559137e-20)
(113.719105624 -10.5833268608 1.76358235964e-23)
(116.257020025 -11.1957875677 9.93911975982e-21)
(118.814551476 -11.4453766765 2.21007314873e-20)
(121.226491378 -11.261258058 -2.9386864276e-20)
(123.274406207 -10.4888822556 1.73175131846e-20)
(124.702589565 -8.96103069981 -9.73311331131e-20)
(125.015718611 -6.30712124963 -1.63714871039e-19)
(124.708473963 -2.28039696618 -9.08904464899e-19)
(123.23949617 3.73815186145 4.70981266555e-18)
(117.817643167 22.8834086915 1.06080062459e-17)
(90.1217521672 18.5221596771 5.71943396767e-18)
(-0.0687864740934 4.06516336633 1.13752338302e-18)
(0.497713714335 0.226549654543 2.18986437374e-20)
(104.389492331 -0.684505380803 -2.07655398835e-19)
(105.332500401 -1.91450098609 -2.10287378777e-19)
(105.93147786 -3.17496414033 -1.43686507644e-19)
(107.023610783 -4.37508576207 -7.90111762432e-20)
(108.487766009 -5.49904138045 1.60680616006e-20)
(110.252971294 -6.53144924684 3.43480930442e-20)
(112.254518518 -7.45204944409 2.54273380241e-20)
(114.434959488 -8.22314560456 2.64230382732e-20)
(116.703124833 -8.81570542838 8.78105950952e-21)
(118.930979181 -9.19962382417 2.00652059998e-20)
(120.92856733 -9.33171559965 -2.85810671056e-21)
(122.473679251 -9.1483349263 6.53987924118e-20)
(123.196803928 -8.73756676595 4.09265623172e-20)
(122.743748206 -7.41735279081 1.57754233161e-19)
(120.565760543 -4.7539276601 1.04078173597e-18)
(116.661225298 -2.00332472782 2.08944468358e-18)
(105.997080728 10.5788440586 -4.53449457741e-19)
(73.4452286027 9.59382340194 5.33385218836e-18)
(-2.63145927726 2.20827709354 -3.02666482574e-19)
(0.189730376383 0.175804995018 -5.15457482952e-20)
(105.507994581 -0.448909274615 -8.66132300316e-20)
(106.419061102 -1.33823955008 -1.38320404382e-19)
(106.975611379 -2.23741959489 -8.12496999075e-20)
(108.017225931 -3.0963271481 -4.2122974207e-20)
(109.417296327 -3.90859928125 1.17660113141e-20)
(111.104139519 -4.68885284582 2.35501812614e-21)
(113.024498737 -5.42181736635 -2.73809323215e-21)
(115.096636327 -6.08439581213 -1.33225399575e-23)
(117.233812229 -6.65393681495 9.07811739512e-21)
(119.303215289 -7.17061988651 2.4499892638e-20)
(121.157229433 -7.65215663188 6.21741736919e-20)
(122.530020599 -8.13532591126 5.5311665539e-20)
(123.07933622 -8.63701997911 -5.88120230045e-20)
(122.532945147 -9.16856491386 -9.40975786921e-20)
(119.689770944 -9.37847453687 1.25746321869e-18)
(114.239215334 -11.0354317693 -4.87714152839e-18)
(102.970178949 -6.61714553794 -7.76482910969e-18)
(67.2590741206 -1.73881859549 -2.73718882977e-18)
(-3.03198105063 0.228689868114 -2.36820252536e-18)
(0.410690231575 0.0105243630842 -1.96179273844e-19)
(106.185921083 -0.260438369624 7.52364924053e-20)
(107.122313977 -0.808756802823 4.64422267105e-20)
(107.664397962 -1.35240197696 4.81672718522e-20)
(108.684028532 -1.88676238358 3.35549968676e-20)
(110.063567007 -2.42271638661 5.06944198496e-20)
(111.732392189 -2.94809470782 7.24452040687e-21)
(113.633651846 -3.47727842432 1.31491403925e-20)
(115.695599155 -4.01066841455 -2.4164595362e-20)
(117.844454048 -4.57408785332 1.96941556153e-21)
(119.951338014 -5.19769229455 -1.95404286541e-20)
(121.895302659 -5.98439269395 -1.6345205947e-20)
(123.472762955 -7.0620798634 2.46805547389e-20)
(124.374903053 -8.55229575628 -3.46156257126e-19)
(124.131450597 -10.7809505983 -7.27056924618e-19)
(122.176297484 -13.5717989505 -7.88020171047e-19)
(117.526112293 -19.3884404573 -9.06601557835e-18)
(109.038341197 -21.543415482 -1.1945714232e-17)
(72.7711799804 -10.6119309979 -4.98584660768e-18)
(1.13198586348 -0.957054353687 -2.23566212773e-18)
(0.20599416125 -0.240546048735 -1.95724173155e-19)
(106.587084497 -0.0872613597902 3.07746307687e-19)
(107.473785004 -0.306825430649 1.44620156626e-19)
(108.01127134 -0.505146424982 9.01746292367e-20)
(109.03925005 -0.713327174435 3.8418655838e-20)
(110.434174633 -0.948838782238 -1.81447544595e-20)
(112.129816894 -1.21572621024 -4.83226081486e-21)
(114.06434365 -1.51533502789 4.45931694233e-21)
(116.200327698 -1.88188969929 -9.98404602611e-21)
(118.4746125 -2.37293820413 -2.08198914895e-21)
(120.804511055 -3.07068210667 -2.96540504224e-20)
(123.068957619 -4.04788542434 -5.04453895998e-20)
(125.135740589 -5.52379849319 -5.23892120199e-21)
(126.799300979 -7.80221465491 -2.85366412581e-19)
(127.68637838 -11.1856681495 -7.8872885529e-20)
(127.487838414 -16.0231368701 -3.81828860897e-19)
(125.303617712 -25.0078989875 -1.3964278887e-18)
(122.071511992 -32.542132223 1.30391725666e-18)
(85.8605963095 -16.5564552542 -1.27694534439e-18)
(7.13208252376 -1.69706956783 -7.75343908859e-19)
(0.898155520917 -0.703704161674 1.45997927107e-19)
(106.582070992 0.118103185843 1.45153461402e-19)
(107.477156401 0.220351834732 6.79052833264e-20)
(108.021039525 0.364142045511 -6.50689746829e-21)
(109.077705535 0.487257199101 -5.6951192066e-21)
(110.512922201 0.574410346733 -3.30604861603e-21)
(112.257795805 0.607391921573 4.44274565174e-21)
(114.288564859 0.556520522206 -1.18085618649e-21)
(116.570185842 0.400514447806 1.91074832258e-21)
(119.062797498 0.0553569144724 1.76381215142e-21)
(121.726037153 -0.56335926055 -2.04123899958e-20)
(124.505635706 -1.59573872606 -6.28482132457e-21)
(127.293218665 -3.23418351792 -1.17142855301e-19)
(130.012395124 -5.822275916 -5.42492186354e-20)
(132.451904224 -9.76043942188 -9.33633302358e-20)
(134.406178809 -15.7221906593 -9.3595844127e-19)
(135.673890835 -25.6977464434 -4.45504064417e-18)
(139.350775632 -35.3690193474 4.09185387108e-18)
(108.712586125 -16.2470121348 -3.67505262117e-18)
(15.9565410768 -1.56872591855 -5.22719537088e-18)
(3.28263665469 -2.35488694601 -2.7359421734e-19)
(106.213650559 0.323667078222 3.78738529462e-20)
(107.116341301 0.771257288743 -3.64752313278e-20)
(107.675974785 1.269007726 -1.03638221903e-19)
(108.769542361 1.75051441415 -3.8014470138e-20)
(110.26586147 2.17518301755 6.11402945988e-23)
(112.096023071 2.52494230508 1.11657048812e-20)
(114.253940379 2.77334462263 4.73835950374e-21)
(116.728368447 2.87929302112 3.4509792663e-21)
(119.499466183 2.78775773938 1.16785825425e-20)
(122.577779407 2.40087609276 -2.15938002437e-20)
(125.941833736 1.57305864439 -1.51725111041e-20)
(129.633380198 0.0673947616707 -1.0580237866e-19)
(133.561979836 -2.47285645919 -1.09501848564e-19)
(137.72987792 -6.41093160205 -1.06193874838e-18)
(141.959194069 -12.3242012723 -1.59129400387e-18)
(146.343130279 -21.50897768 -2.12053049116e-18)
(152.643570671 -27.9242630824 1.29204033239e-18)
(128.484448617 -9.09885428731 1.19184862174e-18)
(17.3132731518 0.414429066485 -6.28141689368e-19)
(-0.515768327103 6.20541678969 1.23588837214e-19)
(105.473353565 0.529316237407 -3.85431027369e-20)
(106.374500863 1.3358168962 -6.43174318124e-20)
(106.954455823 2.20558748618 -4.36919347317e-20)
(108.091236957 3.060264254 -1.77552429113e-20)
(109.649079656 3.85009552413 -3.95057447465e-21)
(111.588163799 4.55980194348 4.86963911942e-21)
(113.89335778 5.16606873112 9.90840355859e-21)
(116.576798099 5.63174423604 1.67287397617e-20)
(119.661741947 5.90457511132 6.09859555559e-21)
(123.182224238 5.89669070057 1.39774812729e-20)
(127.189504218 5.50616761466 -3.36579116689e-20)
(131.760421207 4.45720315915 -6.96487878249e-20)
(136.983415081 2.39953395988 -3.76044377913e-20)
(142.992252334 -1.01576057099 -5.71561750806e-19)
(149.77502154 -6.56549179192 1.54391896007e-18)
(157.127727258 -16.1585852283 -4.35573110033e-18)
(165.249575152 -25.5904997427 -1.46551859207e-18)
(137.907944799 -11.8980412839 2.12305107357e-18)
(14.586826628 -2.00334712349 8.91417262337e-19)
(-3.57392253854 -6.69422878736 1.37860095193e-19)
(104.350253439 0.734478143928 -3.97595760752e-20)
(105.243330408 1.91280087721 -3.00232303819e-20)
(105.843686186 3.16932493628 9.95779278816e-21)
(107.01797701 4.4179022802 4.09873383517e-22)
(108.638854751 5.60712873181 6.12170198002e-21)
(110.674109951 6.7302592958 7.99537071124e-21)
(113.124388376 7.76849162018 1.14054703558e-20)
(116.019773893 8.68836553846 1.77308737999e-21)
(119.402180507 9.44236922086 5.49223517592e-21)
(123.337845696 9.9764073038 -3.63671763392e-20)
(127.940512576 10.1977468059 6.60480249896e-20)
(133.29760712 9.91992912806 -5.73783235432e-20)
(139.69993195 8.85119328367 -3.25716370177e-20)
(147.376069845 6.65646035894 -7.38536011123e-19)
(156.632186489 2.70714852883 -1.54103188711e-19)
(167.546562978 -4.69824822434 -8.21887976079e-19)
(182.031763064 -11.4045791431 -1.66056319297e-18)
(149.11580036 -1.63885079111 2.87060978501e-18)
(12.9090520626 1.44942484959 -6.56519657929e-19)
(0.732947618756 0.631931582002 -1.104385296e-19)
(102.835666599 0.942086092161 5.60798291696e-21)
(103.711104625 2.50152927354 -1.52745947662e-20)
(104.322807201 4.15621702144 1.90308514126e-20)
(105.523506324 5.81765403482 3.15348464027e-20)
(107.190594519 7.43267420525 1.31785670419e-20)
(109.290683861 9.00409222886 1.2944472412e-21)
(111.857967828 10.5169859059 1.140054496e-21)
(114.938042123 11.9560465901 -5.03740150169e-21)
(118.582803145 13.2937122277 -8.0489605037e-21)
(122.874754597 14.5060113014 -9.16666877291e-21)
(127.948289383 15.5320603703 4.38276024309e-20)
(133.968848936 16.2740228592 -3.04390482141e-20)
(141.206453852 16.5537550916 -3.81080183084e-21)
(150.071043072 16.1484389992 -4.5322313158e-20)
(160.957388227 14.7177502119 -8.98912450144e-19)
(174.190038442 11.4737576902 -4.24033425275e-19)
(192.929235148 11.737872881 6.15155438599e-18)
(157.384706005 16.3920404125 4.99948154031e-21)
(13.932787879 2.61083365916 -1.72221067436e-18)
(0.615899553469 0.0247261853022 5.2158921194e-20)
(100.937631244 1.15116906648 1.58506593548e-20)
(101.787498539 3.09501387676 -1.23389473071e-20)
(102.401007203 5.15433324527 -6.78583334571e-21)
(103.611730416 7.2408145797 3.53711589684e-21)
(105.2995222 9.29769225537 1.69402576346e-20)
(107.436912757 11.3432303815 3.13555824829e-21)
(110.065673692 13.3790322387 9.96084627068e-21)
(113.245552199 15.3987362791 -4.34529453326e-21)
(117.044370357 17.4024120002 -1.42741087893e-20)
(121.545711797 19.3945799704 -9.34807275693e-21)
(126.88910896 21.3618337715 -2.46701537366e-20)
(133.28326376 23.2497071461 -8.02440626568e-20)
(140.983911538 25.0348122787 -3.85764916299e-20)
(150.386233004 26.635361275 -2.27856800713e-20)
(161.912524318 27.9896061504 5.58520328613e-19)
(175.867315087 28.8060974298 2.32589266477e-18)
(195.652017258 34.6424892439 -4.32780548448e-18)
(158.247481594 32.9655705312 -6.63013806549e-18)
(12.1672317717 2.94998404875 -1.91724329164e-18)
(0.274002881048 -0.00647099275946 6.08518956364e-20)
(98.6615325327 1.35914628496 4.63728801018e-21)
(99.4817576793 3.6881474202 -4.91882907097e-20)
(100.087855325 6.15347276897 -4.00748710311e-20)
(101.289886108 8.66627462532 -2.87222043761e-20)
(102.965800033 11.1742440206 -9.26270108057e-21)
(105.09661428 13.7054941399 6.55954593835e-21)
(107.716756177 16.2735540799 -1.70649793947e-21)
(110.889707001 18.8967618511 -3.45810737802e-21)
(114.700504281 21.60032469 1.18724747567e-20)
(119.233686394 24.417760482 -2.24220030434e-21)
(124.599391152 27.3611966494 -1.33744376691e-20)
(130.997121092 30.4564023033 -2.66004369111e-20)
(138.731239488 33.7623305458 4.68024133258e-20)
(148.069915912 37.3843280038 4.28640621141e-19)
(159.404359702 41.4820736995 1.84995226476e-18)
(172.868012569 46.0582534429 3.93025047739e-18)
(192.534639889 56.9750017191 -8.33136981601e-18)
(155.846714551 49.1466152621 -7.2128731575e-18)
(10.5271832115 3.36691635253 -1.5223384688e-18)
(0.220024925036 0.327565836519 -1.29091321225e-19)
(96.0051580046 1.55694869412 -3.33395680017e-20)
(96.7871571832 4.2657255647 -6.39288824937e-20)
(97.3744430892 7.13243064334 -5.72433328621e-20)
(98.5463060797 10.0655920859 -2.71079749098e-20)
(100.176757764 13.0184953313 6.17268560589e-21)
(102.245940451 16.0333398176 -6.22591372166e-21)
(104.790067519 19.1362584998 -7.66076672621e-22)
(107.872214145 22.3594181425 -1.04352139898e-21)
(111.569101114 25.7431189801 1.2863867949e-20)
(115.970504618 29.3398567083 8.49357216202e-21)
(121.15547228 33.2125048294 -2.02816505673e-20)
(127.290685498 37.4719137236 5.32491783423e-20)
(134.610995553 42.2674111807 6.21283529424e-20)
(143.304250693 47.8092505944 7.13338857647e-19)
(153.527628643 54.454686216 -4.43218263979e-19)
(165.672818282 62.7010433976 4.08907152717e-18)
(184.316497032 78.3628363685 2.55022327172e-18)
(148.782388905 64.9283525675 1.20035255493e-17)
(8.14841430541 3.76696238186 -7.36920302078e-19)
(-0.599133360629 0.535616698922 -3.72026682448e-19)
(92.9818368564 1.74624498987 -5.13182326405e-20)
(93.7200010013 4.8184184748 -3.93753097032e-20)
(94.2743836196 8.07364304361 -3.90560902504e-20)
(95.3881012329 11.4092072603 -1.82191941531e-21)
(96.9417466895 14.7884236801 -2.15531215325e-20)
(98.9072338887 18.2665598056 -2.2526464578e-21)
(101.31609413 21.878446418 -2.54583013124e-21)
(104.224713993 25.6674448115 -4.42038170642e-20)
(107.696606519 29.6874488809 2.71421819993e-20)
(111.800765065 34.006651015 6.52244846912e-20)
(116.633203566 38.7236913254 -6.11132401052e-20)
(122.282797956 44.0154342978 4.89001476123e-20)