/*--------------------------------*- C++ -*----------------------------------*\
| =========                 |                                                 |
| \\      /  F ield         | OpenFOAM: The Open Source CFD Toolbox           |
|  \\    /   O peration     | Version:  v2012                                 |
|   \\  /    A nd           | Website:  www.openfoam.com                      |
|    \\/     M anipulation  |                                                 |
\*---------------------------------------------------------------------------*/
FoamFile
{
    version     2.0;
    format      ascii;
    class       volScalarField;
    location    "5";
    object      ddt0(epsilon);
}
// * * * * * * * * * * * * * * * * * * * * * * * * * * * * * * * * * * * * * //

dimensions      [0 2 -4 0 0 0 0];


internalField   nonuniform List<scalar> 
1984
(
-0.000233890665071
-0.000261293416033
-0.000282112966272
-0.000290434659443
-0.000293966447284
-0.000295687455305
-0.000296674284317
-0.000297284951615
-0.000297481378749
-0.000296991238593
-0.000294784146784
-0.000288395435453
-0.000268620076711
-0.00019899575378
5.12630715044e-05
0.0010248793167
0.00683363049665
0.0480105453546
0.23783011147
0.399437758765
-0.000263757290894
-0.000270862155867
-0.000298951163448
-0.000310357877054
-0.000315268947871
-0.000317733742647
-0.00031937573953
-0.00032067178039
-0.000321681750879
-0.000322147449073
-0.00032104176941
-0.000315727153658
-0.000295664644332
-0.000224463937355
8.52737268869e-06
0.000881162900328
0.00606082856695
0.0386943454728
0.142169017884
0.232467314706
-0.000279155777922
-0.000291122552554
-0.000322767487883
-0.00033561391278
-0.000340967076524
-0.000343413945485
-0.000344802366401
-0.000345734149737
-0.000346271197143
-0.000346107010703
-0.000344147196036
-0.000337144237972
-0.000313494732136
-0.00023494937008
9.60281921046e-06
0.00089550983183
0.00612383614558
0.0405100373263
0.155871765742
0.00702303099035
-0.000284193755582
-0.000297856012514
-0.000330703424806
-0.00034397296688
-0.000349350214959
-0.000351663175084
-0.000352805235509
-0.000353454264403
-0.00035362351002
-0.000353071304888
-0.000350681729052
-0.00034304713048
-0.000318272667143
-0.000237966039492
9.62502138502e-06
0.000934606984011
0.00642094631117
0.0392816810468
0.13098317284
0.0380835533166
-0.000286496132573
-0.000300532688426
-0.000333700665217
-0.0003470219326
-0.000352319485166
-0.000354496094395
-0.000355493952762
-0.000355971052683
-0.000355997280952
-0.000355237107808
-0.000352745763841
-0.000345234877314
-0.000320871801219
-0.000242137125857
-1.24557535426e-06
0.000892858826716
0.00607544176914
0.034715811373
0.106033696497
0.066859992165
-0.000288242734421
-0.000302267696516
-0.00033546105535
-0.000348705420044
-0.000353904273942
-0.000355985244779
-0.000356901740509
-0.000357304813983
-0.000357295068572
-0.000356580696096
-0.000354182419546
-0.000347195646878
-0.000324319546091
-0.000250560611801
-3.47593103477e-05
0.000703673948522
0.00484319071119
0.0297597043998
0.120739856675
0.0812996425076
-0.000289971985354
-0.000303915860085
-0.0003370187647
-0.000350145862757
-0.00035524908898
-0.000357264837651
-0.000358138842737
-0.00035852795025
-0.000358536453011
-0.000357929107714
-0.00035578210409
-0.000349468088653
-0.000328290742506
-0.000259386173866
-5.93714151766e-05
0.000616560715671
0.00459201916478
0.0314325453316
0.135394599517
0.102119622437
-0.000291782264602
-0.00030565217726
-0.000338615318746
-0.000351608061209
-0.000356620014606
-0.000358586926111
-0.000359446234827
-0.000359847777882
-0.00035991782558
-0.000359446695219
-0.000357614360117
-0.000352031230141
-0.000332504079937
-0.000265729734325
-5.33049089989e-05
0.00077800722164
0.00568248943747
0.0324805861075
0.0989659315092
0.0567271048096
-0.000293661846474
-0.000307479392459
-0.000340279028907
-0.000353124808811
-0.000358047065325
-0.000359975542095
-0.00036083404281
-0.000361270563718
-0.000361420262272
-0.000361118096176
-0.000359631495741
-0.000354850066727
-0.000337349624653
-0.000274494039001
-5.88628271868e-05
0.000867097137651
0.00635692461027
0.0329856753845
0.0727961733949
0.0230662429806
-0.000295598156473
-0.000309346103995
-0.000341988489264
-0.000354681638246
-0.000359512480082
-0.000361408393005
-0.000362274783856
-0.000362756062133
-0.00036300281139
-0.000362874737487
-0.000361773933254
-0.000357905151488
-0.000343119705806
-0.000288304014185
-9.57698291803e-05
0.000748147027304
0.00582732911563
0.0309438210086
0.068876312623
0.0183994553328
-0.000297574544615
-0.000311248199623
-0.000343725321896
-0.000356256766108
-0.000360996060026
-0.000362862510939
-0.000363743338076
-0.000364276734427
-0.000364622091779
-0.000364682439694
-0.000364002675257
-0.000361144054874
-0.00034950357144
-0.000305171236501
-0.000150039522782
0.00051228382591
0.00447410271368
0.0247165874233
0.0704513326713
0.0238401675182
-0.00029957828635
-0.000313203489265
-0.000345481005825
-0.000357840766342
-0.000362486388621
-0.000364322282965
-0.000365220894185
-0.000365814860109
-0.00036627111024
-0.000366521851108
-0.000366274285335
-0.000364476373151
-0.000356302530771
-0.000324298208816
-0.000216707212323
0.000231170077943
0.00319894066225
0.0202358767443
0.0615336857291
0.0239178475393
-0.000301580841044
-0.000315144907935
-0.000347236973896
-0.000359425741113
-0.000363973562224
-0.000365783377493
-0.000366700743467
-0.000367360085458
-0.000367927798168
-0.000368383985354
-0.000368579022381
-0.000367830114316
-0.000362935596622
-0.000342270630912
-0.000275813264453
-1.47124382304e-06
0.00217573390511
0.0155914238758
0.0354284607701
0.00653528812702
-0.000303613747204
-0.000317103253872
-0.000348991021153
-0.000361003829657
-0.000365453744772
-0.000367238013932
-0.000368177037661
-0.000368902697458
-0.000369589794823
-0.000370243677072
-0.000370869632233
-0.000371150668753
-0.000369309617671
-0.000358293005238
-0.000323864457682
-0.000173661908418
0.0013151595386
0.0105537749097
0.0195833806986
-0.00444895934622
-0.000305658179995
-0.000319029282122
-0.000350728348064
-0.000362567393752
-0.000366922711912
-0.000368681826063
-0.000369646404444
-0.000370441302403
-0.000371236522541
-0.000372075181953
-0.00037311701539
-0.000374391534355
-0.000375461258242
-0.000373365442176
-0.000366164612257
-0.000311118451857
0.000612695077484
0.00528204071051
-0.00415602010312
-0.0162730900792
-0.000307696394679
-0.000320975684612
-0.000352455413001
-0.000364116961989
-0.000368372655797
-0.000370110451097
-0.000371111662197
-0.000371954022228
-0.000372834597733
-0.000373863461027
-0.00037527145289
-0.000377483228098
-0.000381339846681
-0.000388147075333
-0.000408605194241
-0.000449640675692
2.76836123607e-05
0.0023036133996
-0.0235006417002
-0.0266682242225
-0.000309718669482
-0.000322895308385
-0.000354169928051
-0.000365645324313
-0.000369822684761
-0.000371536373759
-0.000372547922594
-0.000373442207545
-0.000374432814349
-0.000375627469333
-0.000377342395436
-0.000380415582316
-0.000386750380397
-0.000401806552071
-0.000447872690022
-0.000576649310451
-0.000382343034964
0.000774086649013
-0.0326539627515
-0.0397548372693
-0.000311713778579
-0.000324769245491
-0.000355845666113
-0.000367177757543
-0.00037125127576
-0.000372932472394
-0.000373979350505
-0.000374920255686
-0.000375966646768
-0.00037729433448
-0.000379279737132
-0.000383033974936
-0.000391427794347
-0.000413376623283
-0.000474989843554
-0.000646728359584
-0.000675016566355
-0.00116076219792
-0.0398299634534
-0.571555948348
-0.00031367157043
-0.000326607941268
-0.000357505743662
-0.000368666095294
-0.000372657667383
-0.000374348055475
-0.000375401387474
-0.000376397805179
-0.000377534533309
-0.000378965492507
-0.000381135647083
-0.000385225292034
-0.000394294057508
-0.000417690353023
-0.000489321392023
-0.000707881593427
-0.00110474326883
-0.00330747265093
-0.0360538061733
-0.619639129187
-0.000315159207068
-0.000328526199381
-0.000359209847638
-0.000370171667454
-0.000374071238595
-0.000375712938828
-0.000376785160907
-0.00037782875003
-0.000379032007213
-0.000380554287652
-0.000382852970984
-0.000387158414972
-0.000396872330994
-0.000422409718117
-0.000503321760193
-0.000768074380521
-0.00155570483476
-0.00658358405991
-0.0448924619605
-0.193606649042
-0.000316488827924
-0.000330381162542
-0.000360887471977
-0.000371654262716
-0.00037543632141
-0.000377054546428
-0.000378146176065
-0.000379234201111
-0.000380501735488
-0.000382113181971
-0.0003845209064
-0.000389021995219
-0.000399309416282
-0.00042725051876
-0.0005176794598
-0.000831594856136
-0.00200999646397
-0.00907661526913
-0.0576600367052
-0.300282505637
-0.000317787476732
-0.000332136748234
-0.000362485381275
-0.000373080508891
-0.000376762094629
-0.000378357820395
-0.000379473034605
-0.000380607700126
-0.00038193674035
-0.000383627456654
-0.000386137500526
-0.000390798395718
-0.000401608431469
-0.0004316681354
-0.000531402352156
-0.00090009361229
-0.00247516852597
-0.0101204607879
-0.0473038741586
-0.227963683389
-0.000319059523045
-0.000333793921649
-0.000364005453825
-0.000374447361075
-0.000378045559899
-0.000379618967699
-0.000380757774111
-0.000381941565921
-0.000383329082744
-0.00038508930102
-0.000387672986008
-0.00039247357742
-0.00040373259717
-0.000435605145851
-0.000541989963105
-0.00095398216644
-0.00290975301531
-0.0116200502257
-0.0345760953714
-0.0679895856508
-0.000320227832984
-0.000335348327126
-0.000365436642725
-0.000375744059342
-0.000379268239756
-0.000380828234843
-0.000381991890428
-0.000383221459657
-0.000384666237961
-0.000386487949468
-0.000389131965594
-0.000394041713192
-0.000405627630344
-0.000438974531543
-0.000551377251648
-0.00100352732548
-0.00326809673279
-0.0133242692598
-0.0361847471657
-0.040719609615
-0.000321356041217
-0.000336780699725
-0.000366763134836
-0.000376948941966
-0.000380411299613
-0.000381969458703
-0.000383164706049
-0.000384452485302
-0.000385964099668
-0.000387855852254
-0.000390570922081
-0.000395548036606
-0.000407411097708
-0.000442081179394
-0.000561406978785
-0.00105800252674
-0.00353859492779
-0.0144014879314
-0.0468931902375
0.0533681218695
-0.000322377982266
-0.000338093371845
-0.00036797756775
-0.000378060682829
-0.000381477919141
-0.000383042252246
-0.000384287051315
-0.000385629522911
-0.000387194906851
-0.000389145290667
-0.000391906917493
-0.000396912507116
-0.000408937331324
-0.000444576410137
-0.000570284228552
-0.00110855338027
-0.00374872451811
-0.0149336055615
-0.0571368426029
-0.153190903707
-0.000323286530011
-0.000339244053725
-0.000369026096441
-0.000379018538625
-0.000382407132039
-0.000384003388741
-0.000385321521895
-0.000386771725317
-0.000388460409111
-0.000390541052668
-0.000393444255064
-0.000398606929637
-0.00041090162487
-0.000447617200372
-0.000578827549821
-0.00115380047245
-0.00399044281801
-0.0161308209007
-0.0551352045484
-0.135603500336
-0.000324122791727
-0.000340243232549
-0.000369934245962
-0.000379856894724
-0.000383233023235
-0.000384868272668
-0.000386261070788
-0.000387803866428
-0.000389597803292
-0.000391770489358
-0.000394807829544
-0.000400154361189
-0.000412868991608
-0.000451113403519
-0.000588913153609
-0.00120134533731
-0.0042329349115
-0.0165419760342
-0.034573143586
0.138309872254
-0.000324844249283
-0.000341052571699
-0.000370662209068
-0.000380542229728
-0.000383929308063
-0.000385619067504
-0.000387096330764
-0.000388751414731
-0.000390701879274
-0.000393056750648
-0.000396223782044
-0.000401794496387
-0.00041519993113
-0.000455903175867
-0.00060347137418
-0.00126141208368
-0.00450187649328
-0.0177101519361
-0.0337926629787
0.34806964465
-0.000325446869992
-0.000341643308339
-0.000371186144243
-0.000381054483284
-0.000384480246247
-0.000386245403996
-0.000387822272391
-0.000389603235089
-0.000391707273941
-0.00039424578249
-0.000397663687146
-0.000403656033723
-0.000418202721713
-0.000461730214531
-0.000614535746845
-0.00129055153038
-0.00470712800215
-0.0193783054185
-0.0540178997681
0.665652409448
-0.000325950070035
-0.000342008761944
-0.000371478974811
-0.000381367686251
-0.000384867163177
-0.000386729205145
-0.000388421423447
-0.000390346446911
-0.000392624824203
-0.000395383402336
-0.000399159474528
-0.000405910162484
-0.000422531955622
-0.000470904086154
-0.000631000645947
-0.00131752666567
-0.00492119287183
-0.0207231699453
-0.0569181436283
0.769580469241
-0.000326290078027
-0.000342120517532
-0.000371533889002
-0.00038147673155
-0.000385076759944
-0.000387055003759
-0.00038887933018
-0.000390964266799
-0.000393438690912
-0.000396460545928
-0.000400716367444
-0.0004086807865
-0.000428810937398
-0.000485999301268
-0.000663418799031
-0.00137645468723
-0.00506971843836
-0.0213766103069
-0.0759266109593
0.00181247346672
-0.00032640540339
-0.00034199166371
-0.000371350392674
-0.00038137416276
-0.000385098819953
-0.000387211375851
-0.000389182256752
-0.000391434551318
-0.000394114554116
-0.000397424999342
-0.000402269148948
-0.00041186906727
-0.0004368564576
-0.00050684655668
-0.000713820092529
-0.00148653995346
-0.00524820971278
-0.0215325506295
-0.079179425021
-0.176049928472
-0.000326298508304
-0.000341597701654
-0.000370916501491
-0.00038104740329
-0.000384919562655
-0.000387183741369
-0.000389309795546
-0.000391728522176
-0.00039460917644
-0.000398212647379
-0.000403677106867
-0.000415032811678
-0.000445244340878
-0.000528730866836
-0.00076658927135
-0.00160417545316
-0.00544200473102
-0.0216344525145
-0.084408279637
-0.270035482071
-0.000325963867829
-0.000340928906469
-0.000370222686086
-0.000380486583098
-0.000384527656128
-0.0003869567546
-0.000389237273676
-0.000391825639007
-0.000394900897822
-0.000398765936034
-0.000404750140345
-0.000417554948877
-0.000451975381892
-0.000545858407229
-0.00080758517512
-0.00170212537979
-0.00559582746489
-0.0214202129548
-0.0808568803278
-0.138896726674
-0.000325371948888
-0.000339985232731
-0.000369260895966
-0.000379682216399
-0.00038390876027
-0.000386511134902
-0.000388963672048
-0.000391730028166
-0.000394990827891
-0.000399068041175
-0.000405368664214
-0.000418893886291
-0.000455216327679
-0.000553439265436
-0.000824986440558
-0.00174805728573
-0.00564364103005
-0.0207950720135
-0.0672112898798
0.422221932803
-0.000324500158141
-0.000338765605526
-0.000368028711133
-0.000378620637059
-0.000383055265087
-0.000385855760138
-0.000388498153316
-0.000391448886207
-0.00039489556301
-0.000399147330987
-0.000405598347487
-0.00041925653859
-0.000455559114102
-0.000553139121817
-0.000825182928915
-0.0017623285454
-0.00567269786287
-0.0201805989319
-0.0507300800839
0.794172532963
-0.000323342494447
-0.000337265926988
-0.000366528258801
-0.00037731240091
-0.000381976153761
-0.000384994043217
-0.000387839710208
-0.000390991127739
-0.000394633209045
-0.000399060382046
-0.000405716230569
-0.000419515761692
-0.000455390061366
-0.000550717805272
-0.000817844742284
-0.00175749930058
-0.00567996323999
-0.0199457482565
-0.0544383197504
0.644953176146
-0.000321871515852
-0.00033549668677
-0.00036476995309
-0.00037576321855
-0.000380671448813
-0.000383923581394
-0.000386991664861
-0.00039036247571
-0.000394211797529
-0.000398857930684
-0.000405735481658
-0.0004196617562
-0.00045513985224
-0.000548422706054
-0.000810119207659
-0.00174837933026
-0.00566710660278
-0.0196147217853
-0.0526128354532
0.60654383403
-0.000320135475865
-0.000333466330492
-0.000362760544456
-0.00037397653543
-0.00037914496495
-0.000382652579749
-0.000385978924259
-0.000389590311702
-0.000393668254388
-0.000398486560942
-0.000405428250916
-0.000418789362038
-0.000452241421791
-0.00054151181401
-0.000799761283838
-0.00174864954468
-0.00565809564907
-0.0186882862775
-0.0356635916888
0.324148640603
-0.000318034601096
-0.000331192081775
-0.000360515846464
-0.000371964319549
-0.000377408894173
-0.000381201498124
-0.000384792317674
-0.000388666949668
-0.000392973359586
-0.000398052396905
-0.000404838171538
-0.000416981816518
-0.000446664807702
-0.000529554585941
-0.000786356764188
-0.00176348798818
-0.00563409001509
-0.0180456109191
-0.0447216057813
-0.404413547835
-0.000315707195664
-0.000328695121071
-0.00035806438477
-0.000369747242231
-0.000375475466007
-0.000379544969864
-0.00038342067513
-0.00038759324174
-0.000392269747162
-0.000397679379016
-0.00040460106429
-0.000415846255715
-0.000442404356447
-0.000520842774786
-0.00078526307566
-0.00181773019845
-0.00570881572802
-0.0178530108371
-0.0557812059898
-0.184683883668
-0.00031308940298
-0.000326005462638
-0.000355434809721
-0.000367347561795
-0.000373350777488
-0.000377699088747
-0.000381841536695
-0.000386270799651
-0.000391277725048
-0.00039724134313
-0.000404698526361
-0.000415851638716
-0.000440784520984
-0.000517308037867
-0.000791165605925
-0.00187838042966
-0.00579805556413
-0.016699645448
-0.0309382777596
-0.503449797258
-0.00031020719232
-0.00032319181424
-0.000352677617768
-0.000364796078867
-0.000371028701398
-0.000375569337814
-0.00037988587828
-0.000384463919163
-0.000389820427101
-0.000396656282813
-0.00040527656494
-0.000417323063667
-0.000442422815205
-0.000520069945214
-0.000802417409834
-0.00192413591176
-0.00585102985092
-0.0162872883887
-0.0427121979166
-0.158156248912
-0.000307167276894
-0.000320340703426
-0.000349862682237
-0.000362129682805
-0.000368464300694
-0.000372993379681
-0.000377081866137
-0.000381286876638
-0.000386913152563
-0.000395030067148
-0.000405229552954
-0.000418654460772
-0.000444732134758
-0.000529414704456
-0.000819391790934
-0.00195595709797
-0.00591688195031
-0.0170115346959
-0.0540087803028
0.0437823969341
-0.000304137055435
-0.000317487312464
-0.000347069826316
-0.000359349524575
-0.00036547633594
-0.000369348053273
-0.000372193785781
-0.000374837820908
-0.00037980734703
-0.000389057536303
-0.00040089589008
-0.000416656084468
-0.000446665361821
-0.000549530606707
-0.000862081558373
-0.00202018027094
-0.00594268156092
-0.0166899219599
-0.0614188290531
-0.289610805878
-0.000301146992011
-0.000314789706846
-0.000344401388885
-0.000356503374561
-0.000361737200877
-0.000363272056878
-0.000361842522769
-0.000360034071487
-0.000356554399703
-0.000366406687659
-0.000379597065542
-0.000405756631989
-0.000462762582344
-0.000595968090212
-0.000942993350035
-0.00213127307901
-0.00604595348023
-0.0162770201932
-0.0462684844611
-0.221229770907
-0.000298309118385
-0.000312241374333
-0.000341889718113
-0.000353480829166
-0.000356678841258
-0.000351462831354
-0.000333377179325
-0.000310218630075
-0.000351150818344
-0.000368993936954
-0.000400408065519
-0.00054803268253
-0.000520038254269
-0.00069043798678
-0.00107618081068
-0.00228083060401
-0.00608541182624
-0.0148904368574
-0.0257048715998
-0.11620561499
-0.000295606480292
-0.000310235178938
-0.000339725432081
-0.000350457627805
-0.000351776476963
-0.000344405402735
-0.00032096835461
-0.000342592026611
-0.000667683319129
-0.000782119688673
-0.0012670272471
-0.00241431868596
-0.00608771698796
-0.0144106863281
8.1227125492e-05
0.225886902872
-0.000293929561347
-0.000309111574226
-0.000338773259194
-0.000349265293972
-0.000349530271499
-0.000339261976728
-0.000309969600175
-0.000304732880823
-0.000716047336752
-0.000886657412969
-0.00145434861656
-0.00257501687109
-0.00607152377904
-0.0164448768874
-0.0376466084141
-0.0206336220539
-0.000294065872756
-0.000309150726006
-0.000338797852568
-0.000349283709607
-0.000349553090285
-0.000339311433028
-0.000309988762975
-0.000304724994881
-0.000715955443593
-0.00088470700362
-0.0014375351109
-0.0025226220984
-0.00603213908736
-0.0170583741141
-0.0417922984097
-0.0133695804586
-0.000295761079941
-0.000310339376806
-0.000339794357036
-0.000350516928028
-0.000351838123717
-0.000344475793238
-0.000320969765856
-0.00034288929117
-0.000666031224496
-0.000777390391698
-0.00123567066217
-0.0023296090873
-0.00604706852268
-0.0156666807312
-0.00222392648621
0.337905804603
-0.000298437917939
-0.000312359704333
-0.00034199203893
-0.000353574686755
-0.000356782717509
-0.000351561271883
-0.000333633940589
-0.000310635430482
-0.000351587067098
-0.000369657002521
-0.000401203476059
-0.000548371942362
-0.000518420772578
-0.00068623307974
-0.00105956839187
-0.00223643475782
-0.0060082049127
-0.0146313500273
-0.0113476395486
0.0839926001909
-0.000301325253254
-0.00031490634309
-0.000344521716463
-0.000356625958522
-0.000361875470782
-0.000363451282238
-0.000362114156071
-0.000360617765214
-0.000356936765822
-0.00036687846962
-0.000380262712484
-0.000406613806638
-0.000463122909028
-0.00059818569861
-0.000954408812289
-0.00215261548563
-0.00603390357826
-0.0159725322713
-0.0423760356426
0.00810693361822
-0.00030434650317
-0.000317613756255
-0.000347205536429
-0.000359505631946
-0.000365642937295
-0.000369526287968
-0.000372399682265
-0.000375074791202
-0.000380090058613
-0.000389442311752
-0.000401520408188
-0.000417727831725
-0.000448508179995
-0.00055644807289
-0.000891199276233
-0.00209078437599
-0.00606171334879
-0.0171117778573
-0.0529576627818
-0.133080085659
-0.000307387366111
-0.000320464851992
-0.000350015959546
-0.000362290865334
-0.000368635958625
-0.000373176649456
-0.000377279281379
-0.00038149522563
-0.000387146210112
-0.000395337137607
-0.000405696001647
-0.000419525950587
-0.000446723223862
-0.000536775453584
-0.000850780352719
-0.00204160483414
-0.00600953332891
-0.0167620176069
-0.0420869169521
0.549456754621
-0.000310411859868
-0.000323330881493
-0.000352829300836
-0.000364967430876
-0.000371199754816
-0.000375749112788
-0.000380077284314
-0.000384660857186
-0.00039002202074
-0.000396887983611
-0.000405574221013
-0.0004178797542
-0.00044374733755
-0.000524876406696
-0.000824103216175
-0.00199429260566
-0.00592622666523
-0.0157531366516
-0.0257586685389
0.0978540973138
-0.000313297701014
-0.000326134793247
-0.00035558862232
-0.000367515280866
-0.000373531392304
-0.00037787129139
-0.000382016811276
-0.000386457035686
-0.000391462852931
-0.000397436221597
-0.000404896227312
-0.00041614733739
-0.000441366117336
-0.00051887711191
-0.00080099939876
-0.00193243350154
-0.00587010489082
-0.0162422572052
-0.0230524167536
0.200077020784
-0.000315948893024
-0.000328828757537
-0.00035822716979
-0.000369918610215
-0.000375652741235
-0.000379728751312
-0.00038359045801
-0.000387733952191
-0.000392360906596
-0.000397751573801
-0.000404640217194
-0.000415914844895
-0.000442530674833
-0.000521549609445
-0.000795126629079
-0.00188505464311
-0.00583408230556
-0.0170624874675
-0.0260462785962
0.421014116901
-0.000318288697446
-0.000331347583012
-0.00036068803205
-0.000372138422641
-0.00037758174785
-0.00038136168825
-0.000384941477756
-0.000388780065106
-0.000393068303278
-0.000398093736869
-0.000404850653056
-0.000417099433875
-0.000447389445775
-0.00053393549055
-0.000813109469002
-0.00187452282478
-0.00582557690347
-0.0180923304256
-0.0456032200583
0.672300815622
-0.000320397308595
-0.00033363941939
-0.000362940126637
-0.000374150132188
-0.000379313441536
-0.000382811979537
-0.000386117671866
-0.000389692820864
-0.000393717596556
-0.000398535640351
-0.000405399468444
-0.000418897885161
-0.000452951695152
-0.000546042202152
-0.000824727989631
-0.00184561751054
-0.00581856248884
-0.0191211307498
-0.0652883958016
-0.132440553945
-0.000322135104688
-0.000335682269747
-0.000364954962551
-0.000375936300014
-0.000380836984651
-0.000384081652791
-0.000387142927554
-0.000390485917064
-0.00039429447351
-0.000398918508837
-0.000405751078274
-0.000419783609643
-0.000455453576528
-0.000549874748639
-0.000818641308861
-0.00178708280602
-0.0057561229723
-0.0192442891356
-0.0389324088496
0.365966147527
-0.00032361669756
-0.000337457092872
-0.00036671688594
-0.000377486928707
-0.000382141743032
-0.000385152640796
-0.000387996527762
-0.000391129804035
-0.00039474776073
-0.000399151070537
-0.000405782396173
-0.000419616218253
-0.000455213060741
-0.000548887082073
-0.000810522344788
-0.00175161071346
-0.00579844881164
-0.0203574664788
-0.0511580314866
0.713004829323
-0.0003247868425
-0.000338964679498
-0.000368221238366
-0.000378797242067
-0.000383222967064
-0.000386022437085
-0.000388663519371
-0.000391607140526
-0.000395021311046
-0.000399275133274
-0.000405652351389
-0.000419356653534
-0.000455214274793
-0.000550579375739
-0.000814530099592
-0.00174520405016
-0.00578906687455
-0.0209660674162
-0.0693084672865
0.210747501138
-0.000325644857446
-0.000340208734152
-0.000369471183417
-0.000379866676783
-0.000384074349264
-0.000386661513345
-0.000389100579855
-0.000391848916908
-0.000395131421108
-0.000399181851555
-0.000405490273458
-0.00041901055757
-0.000454923199782
-0.000551903211598
-0.000819258855957
-0.00173850058152
-0.00568662276271
-0.0207559543718
-0.0585769465596
0.739737006535
-0.00032622028414
-0.000341155092094
-0.000370437420863
-0.000380673898053
-0.00038469165604
-0.000387102363241
-0.000389369857638
-0.000391940572928
-0.000395002381891
-0.000398865794983
-0.000404834372432
-0.000417680986848
-0.000452059272739
-0.000545270046702
-0.000805750499527
-0.00169603578781
-0.00558234863252
-0.0212187144745
-0.0776948633083
-0.0552779108689
-0.000326534479839
-0.000341811685057
-0.000371124799294
-0.000381231212942
-0.000385079273618
-0.000387327829395
-0.000389447940255
-0.000391855309994
-0.000394725301036
-0.000398337215789
-0.000403805595805
-0.000415239819601
-0.000445358626712
-0.000528772808902
-0.000766619222764
-0.00160602215458
-0.00544946001517
-0.0215539308998
-0.0831932368706
-0.252497704237
-0.000326617426443
-0.000342190048398
-0.000371546315643
-0.000381548440781
-0.000385250991185
-0.000387351004168
-0.000389319717479
-0.000391571854442
-0.000394252458669
-0.000397583066767
-0.000402452134353
-0.00041217351265
-0.000437249895514
-0.000507282299346
-0.000714334704498
-0.00149049982393
-0.00526484231143
-0.0214933131677
-0.0785633738539
-0.0969262523777
-0.000326481021553
-0.000342310362705
-0.000371715075252
-0.000381637093149
-0.000385217416809
-0.000387185998104
-0.000389011748346
-0.000391106569243
-0.000393595155794
-0.00039665806622
-0.000400963744734
-0.000409085732889
-0.000429431709329
-0.0004869707276
-0.000665929930733
-0.00138892297174
-0.00507523904606
-0.0209922617571
-0.0676852158714
0.453472654836
-0.000326121430497
-0.00034217254499
-0.000371636542213
-0.000381509581394
-0.000384991460652
-0.00038684588351
-0.000388544499212
-0.000390489547794
-0.000392798206868
-0.000395616355461
-0.000399468645068
-0.000406405231661
-0.000423370309921
-0.000472514718055
-0.000636023374396
-0.00133606522114
-0.00489554004361
-0.019901060156
-0.050441648645
0.771498727869
-0.000325594687125
-0.000341791820947
-0.000371316559126
-0.000381166950519
-0.000384581342176
-0.000386343330129
-0.000387931835218
-0.000389745372574
-0.000391898683558
-0.000394515790915
-0.000398046308273
-0.00040425255719
-0.00041924415049
-0.000463596285619
-0.000618270974405
-0.00128786275731
-0.00464649564047
-0.0186107251665
-0.0380750446207
0.366411605839
-0.000324969259345
-0.000341168654559
-0.000370768067962
-0.000380629730978
-0.000384005003824
-0.00038569498766
-0.000387189722492
-0.000388892114282
-0.000390916020179
-0.000393378737683
-0.000396700767662
-0.000402522577213
-0.000416295008155
-0.000457335026612
-0.000601761536544
-0.00122772289511
-0.00438630137114
-0.0179890503661
-0.0376313692821
0.421058381882
-0.00032422444692
-0.000340331342906
-0.000370007867735
-0.000379908963904
-0.000383271264051
-0.000384908186908
-0.000386326196333
-0.000387938720983
-0.000389865321758
-0.000392229490763
-0.000395445463586
-0.000401023074036
-0.000414132775202
-0.000452805381657
-0.000588083738789
-0.00117063025385
-0.00415737617243
-0.0171624777802
-0.0488819600786
0.312430282502
-0.000323360905642
-0.000339304400592
-0.000369060715228
-0.000379024280853
-0.000382395457671
-0.000383998864323
-0.000385360815152
-0.000386910401739
-0.000388780074455
-0.000391104033958
-0.00039430558707
-0.000399831063466
-0.000412624109502
-0.000449814987571
-0.000579826685676
-0.00114595372395
-0.00400571186643
-0.0156783843452
-0.0432761662841
0.00183346474658
-0.000322406035298
-0.00033811961002
-0.000367968258191
-0.000378018380894
-0.000381420815173
-0.00038300824811
-0.000384324669475
-0.000385818085684
-0.000387629988592
-0.000389910902699
-0.000393092080006
-0.00039859592702
-0.000411167984387
-0.000447485160595
-0.000575435104193
-0.00113554611642
-0.00388940224385
-0.0144093103715
-0.0365327589583
-0.728197023274
-0.000321356287496
-0.000336781491744
-0.000366726522915
-0.00037687703783
-0.000380322499806
-0.000381898812535
-0.000383176000944
-0.000384622234028
-0.000386398674702
-0.000388669252378
-0.000391884069353
-0.000397467377671
-0.000409996471565
-0.000445652043084
-0.000570243930177
-0.00110525203669
-0.00370094808757
-0.0134887633679
-0.0413436282687
-0.611117250124
-0.000320240312841
-0.000335376573571
-0.000365445694161
-0.000375739257499
-0.000379267657056
-0.000380858517744
-0.000382093399831
-0.000383445590387
-0.000385071776837
-0.00038713782429
-0.000390091156409
-0.000395348091688
-0.000407262034609
-0.000440959201482
-0.000556147208369
-0.00103514836729
-0.00339900621198
-0.0130102601485
-0.0270341592058
0.0393516857917
-0.000319069451956
-0.000333825803492
-0.000364025006389
-0.000374461191798
-0.000378071598227
-0.000379680239852
-0.00038088815568
-0.000382182863646
-0.000383725960185
-0.000385690357581
-0.000388525728255
-0.000393592210491
-0.000405057241026
-0.00043691553524
-0.000542953695295
-0.000959361784721
-0.00294944207805
-0.0111306141332
-0.0172509950234
0.435612335327
-0.000317796122578
-0.000332175859073
-0.000362513849597
-0.000373107709358
-0.00037680777528
-0.000378439154844
-0.0003796224232
-0.000380857224937
-0.000382320335984
-0.00038417921825
-0.000386893409431
-0.000391751698184
-0.000402692433496
-0.000432627683571
-0.000530115379481
-0.000884853542087
-0.00241083296198
-0.00888288758778
-0.0251230098475
0.126073370869
-0.000316496382831
-0.000330428535431
-0.000360920994257
-0.000371689585585
-0.000375490300392
-0.00037714826233
-0.000378301781533
-0.000379474079765
-0.000380851165174
-0.000382597641023
-0.000385162379415
-0.000389811241475
-0.000400213275458
-0.000428198576118
-0.00051759519347
-0.000820967979134
-0.00193057548116
-0.00742546508079
-0.0265604531092