/*--------------------------------*- C++ -*----------------------------------*\
| =========                 |                                                 |
| \\      /  F ield         | OpenFOAM: The Open Source CFD Toolbox           |
|  \\    /   O peration     | Version:  v2012                                 |
|   \\  /    A nd           | Website:  www.openfoam.com                      |
|    \\/     M anipulation  |                                                 |
\*---------------------------------------------------------------------------*/
FoamFile
{
    version     2.0;
    format      ascii;
    class       volScalarField;
    location    "5";
    object      k;
}
// * * * * * * * * * * * * * * * * * * * * * * * * * * * * * * * * * * * * * //

dimensions      [0 2 -2 0 0 0 0];


internalField   nonuniform List<scalar> 
1984
(
0.00107616274307
0.00125852642494
0.00132359345535
0.00135150765089
0.00136643581576
0.0013770228037
0.00138635224433
0.00139561675466
0.00140548556624
0.00141684785993
0.00143174635683
0.00145492323132
0.00149762495304
0.00159031532278
0.00182422360197
0.00247314378657
0.00443277477455
0.0109972904444
0.0303400435347
0.0734987292899
0.00126140760305
0.00155117392755
0.00164723794261
0.0016866118864
0.00170563059853
0.00171755669702
0.00172721230236
0.00173651700016
0.00174647641513
0.00175842867554
0.00177535139431
0.00180376315915
0.00185985366362
0.00198627652627
0.00229899941743
0.00311258469589
0.00545293609192
0.0129666897442
0.0344730210299
0.0750058292757
0.00132581074678
0.00164726556783
0.00175492161719
0.00179865626005
0.00181907827397
0.00183134043781
0.00184105445574
0.00185037335552
0.00186045486171
0.00187281018014
0.0018907152195
0.00192154869308
0.00198309682211
0.00212158054114
0.00245858580859
0.00331249263553
0.00572075218173
0.0135050784866
0.0361431215343
0.076957828233
0.00135258364734
0.00168628646029
0.00179861810566
0.00184398879021
0.00186472603136
0.0018768365359
0.00188631908052
0.001895443418
0.00190545397439
0.0019178385529
0.00193596931938
0.00196749663537
0.00203071797153
0.00217337401341
0.0025202968481
0.00339868396029
0.00586987264962
0.013687296709
0.0357276315769
0.0766691303698
0.00136619948048
0.00170475158735
0.00181892195734
0.00186475571107
0.00188533576193
0.00189709242669
0.00190620382907
0.00191502107285
0.00192476270817
0.00193699511671
0.00195494623227
0.00198621593779
0.00204926611892
0.00219250186549
0.00254347169637
0.00343120500634
0.00589263434453
0.0135063184049
0.0344426483571
0.0759539786966
0.00137518366594
0.00171586277045
0.00183073168952
0.00187654589598
0.0018967875677
0.00190811637492
0.00191681212009
0.0019252587128
0.00193466063573
0.00194653042176
0.00196409317041
0.00199470642625
0.00205665527158
0.00219852574051
0.00254763794228
0.00341881965983
0.00577072078194
0.0131938015228
0.0345210334277
0.0758982665223
0.00138250126363
0.00172438192589
0.00183950477949
0.00188512772338
0.00190498545787
0.00191588200694
0.00192416055784
0.00193221837978
0.0019412533068
0.00195272705092
0.00196977555595
0.00199959771159
0.00206027464292
0.00220045053082
0.00254827847421
0.00341708649965
0.00575164061286
0.0132213458417
0.0349737033062
0.075890159187
0.00138915361216
0.00173196954656
0.0018471882382
0.00189257658287
0.00191206222923
0.00192255491783
0.00193043973722
0.00193812358372
0.00194678761464
0.00195785785785
0.00197436067052
0.0020033809655
0.00206283297882
0.00220204225089
0.00255558603576
0.00347340071248
0.00603655390436
0.0139354488742
0.0353255079526
0.0758559573302
0.00139543205361
0.00173916227496
0.00185443610053
0.00189959478299
0.00191874119136
0.00192886888148
0.00193639646837
0.00194373239094
0.00195204951984
0.00196271999818
0.00197868251611
0.00200687447201
0.00206494973474
0.00220226315545
0.00255712700661
0.0035053914037
0.00621014492258
0.0143532293712
0.0353283173738
0.075597536124
0.00140141718416
0.00174610336516
0.00186143358388
0.00190638581065
0.0019252301808
0.00193503511115
0.00194224408847
0.00194926816818
0.00195726120356
0.00196755748938
0.00198298540549
0.00201033275125
0.00206685964565
0.00220101906586
0.00254948593354
0.00348347027457
0.0061513162043
0.0141633803508
0.0348876464343
0.0753025468319
0.00140712558709
0.00175278127197
0.0018682040076
0.00191298012489
0.00193155986103
0.00194108223498
0.0019480115217
0.00195475916905
0.00196246236137
0.00197240137643
0.00198731740293
0.0020138161276
0.00206878051461
0.00219957658022
0.00253971197753
0.00344671432771
0.00600244706206
0.0137107307843
0.0343505706304
0.0751584215732
0.00141253844917
0.00175922470072
0.00187474150003
0.00191936173854
0.0019377075966
0.00194698379088
0.00195366967334
0.00196017444646
0.00196761533581
0.00197721814854
0.00199161963829
0.00201725074478
0.00207057116984
0.00219749047443
0.00252584111796
0.00338848818928
0.00578523387802
0.0132527206021
0.0342464628054
0.0751452063229
0.00141762870011
0.00176537558636
0.00188101112026
0.00192549884844
0.00194363783862
0.00195269657801
0.00195917283315
0.00196546506252
0.00197267350803
0.00198195747084
0.00199584442112
0.00202052588304
0.00207192649283
0.00219437700032
0.00251105008265
0.0033396886572
0.0056396826762
0.0130479710843
0.034211602258
0.0750307075867
0.00142237646577
0.00177122412198
0.00188698609625
0.00193135621027
0.0019493117317
0.00195818114746
0.00196447606701
0.00197058851729
0.00197758571019
0.00198657853331
0.00199995368217
0.00202362460449
0.00207283802118
0.00219022688676
0.00249594687912
0.00330212139967
0.00554680244108
0.0128263436194
0.0336738089404
0.0747151844094
0.00142677849348
0.00177673557194
0.00189263010072
0.00193690165848
0.00195469564914
0.00196340140008
0.00196953875583
0.0019754960461
0.00198231057494
0.00199103198809
0.00200393271234
0.00202660080766
0.00207360538151
0.00218577534957
0.00248025643166
0.00326619440683
0.00547363528202
0.012569255903
0.0324959344698
0.0742069800387
0.00143083623063
0.00178190792146
0.00189792627497
0.00194210861812
0.00195976010113
0.00196832466869
0.00197433072584
0.00198015233342
0.00198680376596
0.00199528517938
0.00200773643794
0.00202951012878
0.00207458115506
0.00218231062413
0.00246663231042
0.00322922433558
0.00537640790276
0.012343731432
0.0316868263523
0.0737332309012
0.00143453490393
0.00178671936193
0.00190285905114
0.00194695939678
0.00196448765666
0.00197293154227
0.00197882553905
0.00198452487634
0.00199104275623
0.00199929082607
0.00201132362621
0.00203226468232
0.00207560855407
0.00217944524277
0.0024542678719
0.00319132688669
0.00527067552435
0.0122012296312
0.0313432846256
0.0691804537453
0.00143785452549
0.00179114115301
0.00190741229462
0.00195144978161
0.00196886590543
0.00197720542122
0.00198301332567
0.00198861962842
0.00199499839373
0.00200303789889
0.00201465981926
0.00203476425039
0.00207635416073
0.00217645708007
0.00244493826816
0.00317667096053
0.00525239662463
0.012072585764
0.0304895356807
0.0606316077177
0.00144079137445
0.00179517845957
0.00191158100247
0.00195556001071
0.0019728823289
0.00198115357105
0.00198688159294
0.00199240683773
0.00199867851316
0.0020065438385
0.00201780986134
0.0020372027775
0.00207745463656
0.00217569116112
0.00244390146135
0.00319182480458
0.0053315998113
0.0120343255098
0.0295150703159
0.0578347998513
0.00144364250555
0.00179875146603
0.00191528706026
0.00195924241727
0.00197651736469
0.00198472801175
0.00199040386301
0.00199587970739
0.00200208350954
0.00200982273893
0.00202082223296
0.00203966073862
0.00207900492708
0.00217666610004
0.00244978531888
0.00323356020795
0.00548788854796
0.0120336300848
0.0275969100586
0.0569233998543
0.00144630478285
0.00180189518151
0.0019185400875
0.00196248863498
0.00197973412774
0.00198791341352
0.001993565848
0.00199901541099
0.00200517596317
0.00201282415199
0.00202361883325
0.00204203821324
0.00208086306609
0.00217937220664
0.00246247265179
0.00329851404376
0.00570126457666
0.0121715211443
0.0264082052815
0.0548845014193
0.00144865303563
0.0018045925967
0.00192133581562
0.00196529485892
0.0019825320184
0.00199070665619
0.0019963547005
0.00200179745632
0.00200793991685
0.00201552835014
0.00202616528993
0.00204428337968
0.0020829065583
0.00218328169356
0.00248003573465
0.00337720832251
0.00591004073557
0.0121219382798
0.0247925276009
0.0536428576027
0.00145065221346
0.00180686616946
0.00192369399583
0.00196767154182
0.00198491470604
0.00199310026421
0.00199875995837
0.00200421352635
0.00201035852238
0.00201791276118
0.00202843239392
0.00204632328829
0.00208494241718
0.00218747122847
0.00249706867668
0.00344679654978
0.00607291527012
0.0119069318595
0.0221046519914
0.0363589788734
0.00145223248441
0.0018086910743
0.00192560821454
0.00196961259994
0.00198687817414
0.00199508517481
0.00200077086054
0.00200625109593
0.00201241324389
0.00201995604052
0.00203038805193
0.00204811169138
0.00208674690243
0.00219105793395
0.00251076103672
0.00349930206218
0.00618494428453
0.0117785635448
0.0205727016422
0.035451214375
0.00145341862611
0.00181008535511
0.00192707245978
0.00197110889238
0.00198840646772
0.00199664798041
0.00200237534254
0.00200790032348
0.00201409930152
0.00202165356439
0.00203203084128
0.00204961303782
0.00208819673204
0.00219383542051
0.00252187077847
0.00354269205457
0.00629242953629
0.0120137668556
0.022053434111
0.0476810634096
0.00145416800989
0.0018110242209
0.00192807501097
0.00197214863327
0.00198948934384
0.00199778349087
0.00200357014616
0.00200915756386
0.00201541384748
0.00202300530499
0.00203335397298
0.00205078775917
0.00208920920014
0.00219563125176
0.00253046353001
0.00358027748975
0.00639929249039
0.012374010703
0.023760296396
0.0523436065467
0.00145448330711
0.00181150562402
0.00192860197987
0.00197271399198
0.00199010954161
0.00199847212719
0.002004338882
0.00201001290785
0.00201635238452
0.00202401311313
0.00203437490057
0.00205171556201
0.00208998204765
0.00219680950842
0.00253639896254
0.00360914624901
0.00648400913164
0.0125152703712
0.0231212118926
0.0402303310666
0.00145438642295
0.00181153587654
0.00192864357724
0.00197279215804
0.00199025638162
0.0019987062661
0.00200467442244
0.00201045694423
0.00201690448823
0.00202465939945
0.00203507565039
0.00205242943229
0.00209073384046
0.00219827819277
0.00254239236794
0.00363639237731
0.00657366130272
0.0127986417772
0.0249947233178
0.0569039233008
0.00145387111722
0.00181107495878
0.00192816763682
0.0019723587479
0.00198991160189
0.00199847258676
0.00200456613606
0.00201048616439
0.00201708696924
0.00202499331148
0.00203553742761
0.00205307454398
0.00209186599577
0.00220115002594
0.00255171684418
0.00366925755453
0.00667181513719
0.0130574547394
0.0260893294255
0.0689040371176
0.00145294303182
0.00181010002962
0.00192713928837
0.00197138719135
0.00198905828658
0.00199776018025
0.00200400702163
0.00201009440612
0.00201688122775
0.00202499695445
0.00203580830393
0.00205384837728
0.0020938534278
0.00220579331624
0.00256114202428
0.00369435522631
0.00676804661641
0.013345122247
0.0264469675897
0.0668733681695
0.00145162717025
0.00180859602025
0.00192553522932
0.00196985505317
0.00198767813875
0.00199655603838
0.00200298887107
0.00200927863074
0.00201629609969
0.00202470139202
0.0020359781972
0.00205507849223
0.00209771499683
0.00221495126216
0.00257744861106
0.00372517941599
0.00687358499902
0.0136815447965
0.0274167793035
0.0705922938254
0.0014498788136
0.0018065212687
0.0019233256082
0.0019677374123
0.00198575392742
0.0019948484356
0.00200150584478
0.00200803810682
0.00201533739317
0.00202412837788
0.00203614512594
0.00205715265013
0.00210482506407
0.00223309581021
0.00261315865865
0.00378228707674
0.00696856593531
0.0138075048709
0.0266823586494
0.0611630896493
0.00144762034225
0.00180381610571
0.00192048651672
0.00196502308421
0.00198327541131
0.00199262942011
0.00199955308019
0.00200636946458
0.0020140031714
0.00202328412701
0.0020363462425
0.00206023138822
0.0021157759403
0.00226234549187
0.00267524636679
0.00388152430969
0.00706902654064
0.0137921148214
0.0256799438031
0.0464275197981
0.00144483160298
0.00180048351996
0.00191700541128
0.00196169952524
0.00198023111608
0.00198988921613
0.00199712146089
0.00200426341416
0.00201228097564
0.00202213968588
0.00203647267882
0.00206389265519
0.0021290985536
0.00229816118922
0.00275222642895
0.00400511013697
0.00718018436794
0.0137558368888
0.0250199779031
0.0411863681579
0.0014415083337
0.00179651441644
0.00191286984093
0.00195775256714
0.00197660810811
0.00198661631808
0.00199419952227
0.00200171027046
0.00201015381265
0.00202062827142
0.00203624847427
0.0020671186731
0.00214146106841
0.00233123837944
0.00282305825332
0.00411922209095
0.00727870918988
0.0137230175259
0.0250143943098
0.0472751779058
0.00143762578954
0.0017918908794
0.00190806925231
0.00195317052327
0.00197239401766
0.00198279980707
0.00199078508563
0.00199871262744
0.00200761361663
0.0020186812191
0.00203536156845
0.00206873085819
0.00214914190093
0.00235198892197
0.00286738433149
0.00419125374375
0.00733112354708
0.0136516635843
0.0256109509998
0.0653537452961
0.00143315896354
0.00178659972786
0.00190259810673
0.00194794519843
0.00196758269159
0.00197844234587
0.00198688735266
0.00199528240329
0.00200467445999
0.00201629987532
0.00203374224606
0.00206842829599
0.00215129665338
0.00235861537479
0.00288349567356
0.00422495833045
0.00736646394292
0.0136394447332
0.0259765765459
0.0663984263901
0.00142809805774
0.00178064614347
0.00189645989809
0.0019420828328
0.00196218197914
0.00197355170608
0.00198251587213
0.00199143860921
0.00200137197813
0.00201355654342
0.0020316383392
0.00206703013977
0.00215029324249
0.00235697685359
0.00288187495612
0.00423408084951
0.00739811428273
0.0136507585665
0.0255499012027
0.057237287428
0.00142242699039
0.00177403714197
0.00188967308046
0.00193559814257
0.00195620083487
0.00196813633837
0.00197768482917
0.00198720340742
0.0019977319929
0.00201051152526
0.0020291607609
0.00206486378985
0.00214751852995
0.00235188392069
0.00287512977346
0.00423881127147
0.00742988238729
0.0136898110473
0.0252986298958
0.050840363443
0.00141619200496
0.00176679339634
0.00188225906306
0.00192850988647
0.00194965566625
0.00196221368001
0.00197241647731
0.00198260798099
0.00199379012174
0.00200716072817
0.00202606198066
0.00206107975954
0.00214097790612
0.00234044319773
0.00286224495732
0.00424142038313
0.00745616592082
0.0137260291044
0.02620149377
0.0646269504556
0.00140933034575
0.00175895691914
0.00187426743953
0.00192085935984
0.00194257601273
0.00195580711017
0.00196674328716
0.00197767613784
0.00198961734768
0.00200355848106
0.00202245332968
0.00205572974646
0.00213069100672
0.00232304195782
0.00284635753808
0.00424994581016
0.00746879553494
0.0136241887163
0.0250634626794
0.0484955723501
0.00140199344598
0.001750621589
0.0018657809524
0.00191270661088
0.00193500606666
0.00194893523775
0.00196063451083
0.00197241120527
0.00198521495593
0.00199993568434
0.0020189977702
0.00205079804301
0.0021215569019
0.00230959439281
0.00284341759355
0.0042849000405
0.00750529393094
0.0135010456556
0.0240272735757
0.0401644963003
0.00139416567327
0.00174187642539
0.00185688992281
0.0019041331329
0.0019269619761
0.00194154450882
0.00195398205711
0.0019666099858
0.0019804187127
0.00199621439921
0.00201608771369
0.00204780585321
0.00211721665656
0.00230501731449
0.00285268913051
0.00433223320318
0.00756185867981
0.0135077267069
0.0249109625053
0.0487504219402
0.00138593566158
0.00173287776715
0.00184776807113
0.00189523422083
0.00191844659677
0.00193343106071
0.00194627389864
0.00195940754368
0.00197416932625
0.00199142453523
0.00201289708118
0.00204650576107
0.00211899135016
0.00231151857142
0.00287252589382
0.0043804825336
0.00762085305961
0.0135383076832
0.0254472407213
0.062192692028
0.0013775117412
0.00172386204188
0.00183860871674
0.00188610713197
0.00190926956029
0.00192387308988
0.00193587198372
0.0019481447934
0.00196327439011
0.00198238878953
0.00200603545798
0.00204299327424
0.00212523735761
0.00233146505823
0.00290718757525
0.00443668726632
0.00769187423198
0.0135544194088
0.0247384101718
0.057946133323
0.00136922164397
0.00171513966496
0.00182965739144
0.00187678952439
0.0018989068195
0.0019110203062
0.00191848396942
0.00192515141837
0.001937487844
0.00195816444735
0.00198370089759
0.00202562585493
0.00213417578152
0.00237415746628
0.00298130484304
0.0045356870892
0.00777648805372
0.0135717419449
0.024276862804
0.0409757196261
0.00136124601174
0.00170700113192
0.0018211384759
0.00186717207213
0.00188625433622
0.00189088000622
0.00188313605246
0.00186569176752
0.0018605485404
0.00188077788055
0.00190853668555
0.00196324057815
0.00214559407008
0.0024533699033
0.00311988462323
0.00470078134664
0.00785896392414
0.0132783598155
0.0229079260066
0.0393292375462
0.00135389335228
0.00169979565011
0.00181336873839
0.00185748296883
0.00187094837394
0.00186016038889
0.00181392453074
0.00171345935347
0.00157181943406
0.00157685988315
0.00161453873702
0.00176642417587
0.00215525853993
0.00260763220324
0.00336059692014
0.00494581929342
0.00795835296856
0.0130455122072
0.0233773243456
0.0560366185471
0.00134731766984
0.00169356273388
0.00180663407802
0.00184872531643
0.00185739690575
0.00183593745052
0.00175861548874
0.00148834504593
0.00218319258594
0.0028836241732
0.00369930688157
0.00522689644253
0.00806630984793
0.0128497255817
0.0231398323783
0.064986787085
0.00134310864404
0.00169013411267
0.00180310213066
0.00184406123736
0.00184962808043
0.00182103767154
0.00172716423283
0.00141223402474
0.00233823316445
0.00315029352784
0.00398232457888
0.00541252705352
0.00816669322886
0.0127814227749
0.0198940017427
0.0321920550817
0.00134305275491
0.00169009149474
0.0018030698778
0.00184404038315
0.00184961570993
0.00182103167067
0.00172719281913
0.00141247382771
0.00233691262893
0.00314502420566
0.00396854689367
0.00539481238088
0.00820484464725
0.0129785066696
0.0202620310441
0.0323596751209
0.00134724087399
0.00169348086855
0.00180657153692
0.00184867402344
0.00185735010799
0.00183588394102
0.00175860098333
0.00148849397569
0.00218042620831
0.00287281787643
0.00367312993967
0.00519972510646
0.00813273011146
0.0131884306581
0.0235382067797
0.0598757405906
0.00135381004337
0.00169972175683
0.00181331082527
0.00185744602555
0.0018709066612
0.00186004766904
0.00181359570064
0.00171301938151
0.00157168896806
0.00157670389187
0.00161466509208
0.00176707365759
0.00215476438064
0.00260322407952
0.00335029284286
0.00493665385636
0.00799575195115
0.0133367064672
0.0252401529671
0.0679716950274
0.00136125126824
0.00170700735816
0.00182113652554
0.00186718276637
0.00188627961455
0.00189091407782
0.00188321024737
0.00186559786929
0.00186069598759
0.00188104592869
0.00190915428254
0.00196453459166
0.0021474495409
0.0024592473085
0.00313908045783
0.00473144066545
0.0078778859952
0.0133136082543
0.0237642006443
0.0525820215657
0.00136927605642
0.00171518098708
0.00182968554468
0.0018768211858
0.00189896049687
0.0019111052058
0.00191859816014
0.00192529731799
0.0019376979364
0.0019585357104
0.00198451366251
0.00202756659697
0.00213859250882
0.00238837462896
0.00302159411855
0.00460033301857
0.00780994378485
0.0134089287438
0.0231048980932
0.0381726086959
0.00137758361812
0.00172392433485
0.00183865212606
0.00188615314425
0.00190932872809
0.00192396135294
0.00193599737427
0.00194829268527
0.00196346154645
0.00198268300319
0.00200670742647
0.00204474376405
0.00213010754772
0.00234699953352
0.00295075033722
0.00451097472869
0.00775092416609
0.0136007815864
0.0254241668841
0.0581473933668
0.00138599124569
0.00173293388844
0.00184781187283
0.00189527982575
0.00191850080345
0.00193350508715
0.00194637711051
0.00195953627262
0.00197430955385
0.00199162075505
0.00201330676844
0.00204761522358
0.00212234582496
0.00232236678993
0.00290431701282
0.0044411431652
0.00767824531141
0.0136680996899
0.0268677682322
0.0683753105558
0.00139423450825
0.00174194006729
0.00185693970135
0.00190417381494
0.00192701805151
0.00194160842697
0.00195406196775
0.00196669990705
0.0019805191373
0.0019963424007
0.00201630278552
0.00204833579446
0.00211880826623
0.00231053468036
0.00287226995188
0.00437821931626
0.00760365951249
0.0135811846263
0.0261276581716
0.0572498434213
0.00140209006326
0.00175070000822
0.00186583401975
0.00191275105777
0.00193505205565
0.0019489890952
0.0019606923601
0.00197247325839
0.00198528770919
0.00200001428222
0.00201912960288
0.00205108958116
0.00212264129855
0.00231456314292
0.00286445070294
0.00433831283239
0.00754582420474
0.0134919007875
0.0256377332478
0.0608332814735
0.00140942932506
0.00175903269697
0.00187432297136
0.00192090121225
0.00194262086142
0.00195585581873
0.00196678274859
0.00197771669724
0.00198964535037
0.00200359689412
0.00202253000109
0.00205600115389
0.00213235247563
0.0023318533667
0.00288111740913
0.00432925100783
0.00752707482011
0.0135116874339
0.0251113878172
0.0621344725085
0.00141628427908
0.00176685791118
0.00188231065969
0.00192855368441
0.00194970316344
0.00196226463915
0.00197246568686
0.00198264510332
0.00199382587265
0.00200717756066
0.00202610703345
0.00206121957779
0.0021421991756
0.00234771637571
0.00289167202008
0.00431098627053
0.00752044699479
0.0136322913324
0.0243736586087
0.0418280413571
0.00142251183264
0.00177409382334
0.00188972602848
0.00193564882233
0.00195625907657
0.00196820045694
0.00197774792297
0.00198726151273
0.00199778409463
0.00201054607302
0.00202917575194
0.00206478994383
0.0021474975051
0.00235340342212
0.00288508219091
0.00427245527981
0.00749262121284
0.0137998963817
0.0262083223761
0.0594667292361
0.00142819026054
0.00178070946209
0.00189652082464
0.00194214415841
0.00196225336079
0.00197363125611
0.0019825963973
0.00199152009184
0.00200144846679
0.00201361199503
0.00203165218066
0.00206678918998
0.0021492223473
0.00235364333574
0.00287598349831
0.00424254143728
0.00748074389462
0.0139094598645
0.0266253938782
0.0669476086467
0.00143325619698
0.0017866715941
0.00190266810034
0.00194801798224
0.00196766749275
0.00197853660006
0.00198698467777
0.00199538113055
0.00200477445607
0.00201637121443
0.00203376530415
0.00206814084421
0.00214999739152
0.00235428387378
0.00287374177993
0.00422362066879
0.00743694878417
0.0138469085463
0.0259277381396
0.0627489466833
0.00143769018792
0.00179192676756
0.00190811618849
0.00195322825362
0.00197246777953
0.0019828899674
0.00199088914217
0.00199883171579
0.00200773048509
0.00201877890307
0.0020353980536
0.00206847739773
0.00214817765716
0.00234908047075
0.0028614166993
0.00418853358191
0.00735633671786
0.0137343764734
0.0260453151176
0.0661843969994
0.00144155460514
0.00179652186651
0.00191289964293
0.00195780350603
0.00197667981009
0.00198670924057
0.00199431412976
0.00200185102961
0.00201031973066
0.00202080099215
0.00203639991462
0.00206705290182
0.0021409704775
0.0023299307397
0.00282056168902
0.00411617325342
0.00727582130801
0.0137129180729
0.0251010074212
0.0481661581601
0.00144486818768
0.00180047872743
0.00191702718571
0.00196174989762
0.00198030608753
0.00198998909258
0.00199724890122
0.00200442611416
0.00201248368968
0.00202237094726
0.00203672866532
0.00206406659846
0.00212909844389
0.00229782270573
0.00275167347574
0.00400382841053
0.00717026440667
0.0137116385533
0.0249700582121
0.0416748408944
0.00144765454318
0.00180380821127
0.00192050798332
0.00196507826683
0.00198335725982
0.00199273808271
0.00199969187226
0.00200655086371
0.00201423527525
0.0020235598506
0.00203667649622
0.00206055033796
0.00211610863275
0.00226263111745
0.0026750500529
0.00387800096564
0.00704156188416
0.0136756061548
0.0254756678399
0.0484615688663
0.00144992348307
0.00180651068375
0.001923351109
0.0019678007963
0.00198584572361
0.00199496787503
0.00200165760069
0.00200823658532
0.00201559283715
0.00202443625472
0.00203652223578
0.00205754899894
0.00210529753197
0.00223359728208
0.00261294258617
0.00377542158975
0.00691452162742
0.0135886582585
0.0264446054658
0.066599636952
0.00145169104237
0.0018085988388
0.0019255717187
0.00196992790921
0.00198778252532
0.00199668926041
0.00200315512879
0.00200949303282
0.00201657123741
0.00202503244693
0.00203638064534
0.00205550029874
0.00209817737872
0.00221516192245
0.00257529493721
0.00371053347349
0.00680523962959
0.0134417268509
0.0268262662868
0.0687592697193
0.00145302506689
0.00181011506054
0.00192719117193
0.00197147543042
0.00198917736739
0.0019979085769
0.00200418816745
0.00201032353064
0.00201717257206
0.00202534640923
0.00203622665007
0.00205427127781
0.00209419816232
0.00220509753107
0.00255412957882
0.00366483789199
0.00669968918236
0.013264734767
0.0268104027643
0.0686954933724
0.00145397026294
0.0018111130074
0.00192823182756
0.00197245904736
0.00199004492527
0.00199863618762
0.00200476225939
0.00201072921895
0.0020173914925
0.00202535450572
0.00203596298037
0.00205349664734
0.00209213572511
0.00219976471187
0.00254065475266
0.00362801597146
0.0066063413475
0.0130695366188
0.026214934196
0.067428939113
0.00145449834438
0.00181158918711
0.00192872209205
0.00197290712848
0.00199040555696
0.00199888668732
0.00200488720489
0.0020107142931
0.00201722446862
0.0020250329184
0.00203549544212
0.00205286086991
0.00209108101294
0.00219744601769
0.0025344918281
0.00360687173489
0.00653960604066
0.0128935265441
0.0257572864559
0.0671288299103
0.00145460126787
0.00181156840089
0.00192869458604
0.00197284584169
0.00199027732677
0.00199867114122
0.00200456892894
0.00201028010954
0.00201666698846
0.00202436249683
0.00203475699619
0.00205213831051
0.00209043469818
0.00219700374732
0.00253504482429
0.00360504949109
0.00649058277857
0.0126721458573
0.0252379205997
0.0598828746976
0.00145428517429
0.00181108960493
0.00192817914414
0.00197229571867
0.00198967340632
0.00199799735845
0.0020038126078
0.00200943059636
0.00201572172475
0.0020233399966
0.00203371809284
0.00205121014576
0.00208974818822
0.0021966661097
0.00253507908591
0.00360002636643
0.00643787300765
0.0124331942663
0.0245896964601
0.052648456457
0.00145354671762
0.00181017235337
0.00192719833902
0.00197127677254
0.00198860995408
0.00199687988878
0.00200263015587
0.00200817431649
0.00201439120819
0.00202195796614
0.00203235087718
0.00204997233984
0.00208868110044
0.00219507417358
0.00252859123585
0.00357214586479
0.00634522467219
0.0120454387387
0.0225423036156
0.0433577944283
0.00145237191911
0.00180879605155
0.00192574541008
0.00196978469267
0.00198708091309
0.00199531147691
0.00200101653421
0.00200651364298
0.0020126923368
0.00202025281638
0.00203071372386
0.00204848891918
0.00208722770075
0.00219195154965
0.00251505080941
0.00352128439286
0.00623894439705
0.0118449725918
0.021331115959
0.0407081477986
0.00145080456569
0.00180699166764
0.00192384451992
0.00196785133813
0.00198512214994
0.00199332661788
0.00199899991081
0.00200446265254
0.00201061507899
0.00201818063617
0.00202872570426
0.00204667649086
0.00208541690062
0.00218814728933
0.00249860704417
0.00345652567593
0.00612100975098
0.0121012698788
0.0241677748109
0.0623072472944
0.00144881295386
0.00180472926017
0.00192149410185
0.00196547908072
0.00198273956196
0.00199093134831
0.00199658849241
0.0020020335754
0.00200817521823
0.00201576718123
0.00202642628948
0.00204461991208
0.00208347181914
0.00218436762092
0.002481866009
0.00338331480991
0.00596036586385
0.0124362705176
0.0274358253525
0.069453567357
0.00144646840043
0.00180203204129
0.00191870313718
0.0019626772307
0.00197994444187
0.00198813698007
0.00199379347787
0.00199924011879
0.00200539367309
0.002013038191
0.00202384959358
0.00204236822914
0.00208157049281
0.00218129811688
0.00246764704939
0.00331419609035
0.00577249124304
0.0125518331404
0.0293173444024
0.0716807780648
0.0014438136339
0.00179890425262
0.00191546837358
0.00195944597909
0.00197673722149
0.00198495271473
0.00199062744938
0.00199609465767
0.00200228491107
0.00201001322656
0.00202102669028
0.00203998014056
0.00207981683643
0.00217923382125
0.00245756603003
0.00325840369862
0.00558795117055
0.0124492546929
0.029471033318
0.0631532147423
0.00144096636951
0.00179535072074
0.00191177392978
0.00195577391326
0.00197311754792
0.00198138666782
0.00198710476872
0.00199261385753
0.00199886342797
0.00200671202958
0.00201798722221
0.00203749959206
0.00207827959185
0.00217843605493
0.00245243432159
0.00321963398328
0.00545021056667
0.0124131728681
0.0296986724687
0.0564750934104
0.00143801898791
0.00179131667432
0.00190761139769
0.00195166619777
0.00196910149475
0.00197744939895
0.00198323853478
0.00198881710719
0.00199516062853
0.00200316514495
0.00201478606745
0.00203498569624
0.00207709429191
0.00217916444672
0.00245333271107
0.00320448580848
0.00538118846129
0.012431054625
0.0304864624
0.0646667476641
0.00143469500425
0.00178689264261
0.00190305050989
0.00194716941264
0.00196471256841
0.00197315984381
0.00197903748738
0.00198470917164
0.00199116907946
0.00199937250471
0.00201135732807
0.0020323470045
0.00207602813105
0.00218143072183
0.00246191492829
0.00321929348069
0.00538953477607
0.0124306821046
0.0310367930278
0.0690000404975
0.00143100011508
0.00178207447172
0.00189810509804
0.00194230360428
0.00195996583499
0.00196853046914
0.00197451985552
0.00198030811076
0.00198691015753
0.0019953315152
0.00200772110266
0.00202946063979
0.00207461342174
0.00218316471075
0.00247207365141
0.00325669060885
0.00548656849042
0.0125022017561
0.0313263129434
0.0734369807996
0.00142693774991
0.00177690894258
0.00189280586656
0.00193708362245
0.00195488366542
0.00196358843986
0.00196971269905
0.00197564034212
0.00198240894989
0.00199107443158
0.00200389280107
0.00202643588146
0.0020731609507
0.00218525972221
0.00248444218705
0.00330489297046
0.00562547810742
0.0127198405427
0.0321145969649
0.0739207803542
0.00142253406873
0.00177139649413
0.00188715726756
0.00193153016756
0.00194948866189
0.00195835745635
0.00196464208402
0.00197073538459
0.00197769808206
0.0019866371099
0.00199992884265
0.0020233922103
0.00207202851127
0.00218840093916
0.00249738207821
0.00334104325601
0.00571375636879
0.0129804033492
0.0331448425049
0.0744379502279
0.00141778356941
0.00176553346656
0.0018811731961
0.00192566503908
0.00194380765801
0.00195286693886
0.00195933928689
0.00196562404087
0.00197280488481
0.00198204679019
0.00199586512176
0.00202032050017
0.00207104355813
0.00219171934471
0.00250621055303