/*--------------------------------*- C++ -*----------------------------------*\
| =========                 |                                                 |
| \\      /  F ield         | OpenFOAM: The Open Source CFD Toolbox           |
|  \\    /   O peration     | Version:  v2012                                 |
|   \\  /    A nd           | Website:  www.openfoam.com                      |
|    \\/     M anipulation  |                                                 |
\*---------------------------------------------------------------------------*/
FoamFile
{
    version     2.0;
    format      ascii;
    class       volScalarField;
    location    "5";
    object      p_rgh;
}
// * * * * * * * * * * * * * * * * * * * * * * * * * * * * * * * * * * * * * //

dimensions      [1 -1 -2 0 0 0 0];


internalField   nonuniform List<scalar> 
1984
(
8727.01109747
8727.3928875
8728.18827955
8729.40276167
8731.04912597
8733.15201658
8735.74136015
8738.85759721
8742.55445356
8746.89659799
8751.97041701
8757.84995042
8764.63150516
8772.48945872
8781.44693638
8791.07704498
8802.38908312
7738.41397282
1517.17681776
-0.0921287848753
8726.60478083
8726.9813896
8727.76777244
8728.96710553
8730.59082247
8732.66200667
8735.20953429
8738.27366648
8741.898972
8746.16074623
8751.13296447
8756.87171466
8763.51613014
8771.23560208
8780.12763129
8790.00118994
8802.89575375
7943.36640737
1487.01611666
-0.0600866718356
8725.76977969
8726.13417931
8726.89876309
8728.06498068
8729.64178294
8731.64930938
8734.11380034
8737.07250499
8740.55411282
8744.63048582
8749.39451907
8754.88087734
8761.19214648
8768.5425626
8777.09041007
8786.7867273
8799.90115971
7966.9234022
1423.44713091
-0.0951852994188
8724.52015815
8724.86788886
8725.60060139
8726.71800013
8728.22639839
8730.14177489
8732.48758103
8735.29173881
8738.5864625
8742.38136269
8746.80195529
8751.90321304
8757.75832131
8764.48713337
8772.24203142
8780.98814562
8792.48106497
7837.61212088
1309.84192624
-0.0703540196289
8722.87434051
8723.20297481
8723.89605154
8724.95202456
8726.37437466
8728.17473672
8730.37028693
8732.98248284
8736.02933358
8739.52669966
8743.51975508
8748.09251329
8753.34517868
8759.21619249
8765.83306137
8773.1029519
8782.02439581
7600.58369411
1215.68478728
-0.0560859118384
8720.85467149
8721.16169787
8721.80915789
8722.79402701
8724.11691664
8725.78485499
8727.808699
8730.20025416
8732.96703757
8736.10566252
8739.64925272
8743.64981676
8748.15803339
8753.05698059
8758.36928181
8763.98326572
8770.23958698
7349.70464739
1144.63817918
-0.0789948193204
8718.48619522
8718.76968504
8719.36721121
8720.27433206
8721.48881448
8723.01314642
8724.85190195
8727.006465
8729.47429511
8732.24565021
8735.30033223
8738.74009089
8742.47485058
8746.39400769
8750.4398408
8754.39049384
8758.39529184
7177.85799718
1011.54728808
-0.0734250173311
8715.79607124
8716.05489708
8716.60004189
8717.42578537
8718.52728136
8719.90314009
8721.55159952
8723.46562046
8725.63349536
8728.03314792
8730.64376787
8733.51357036
8736.52240679
8739.56166956
8742.51678437
8745.02508339
8747.12480994
7062.83570917
846.910452099
-0.0336615511296
8712.81279422
8713.0466294
8713.53865692
8714.28219646
8715.27031556
8716.49828767
8717.95906381
8719.63938705
8721.51907402
8723.5714998
8725.765632
8728.13382585
8730.53337652
8732.80383449
8734.85744866
8736.2400075
8736.86125988
6953.97428493
710.588127719
0.00143351998614
8709.56525773
8709.77438738
8710.21422153
8710.87715691
8711.7549536
8712.84015966
8714.12194828
8715.58261902
8717.19678637
8718.94434465
8720.75308652
8722.70812818
8724.58741139
8726.26650893
8727.63187456
8728.26769376
8728.09704113
6856.81194772
622.724039356
0.0118087302506
8706.08193554
8706.26730455
8706.65700274
8707.24309221
8708.01586232
8708.96644672
8710.08259484
8711.341406
8712.72846417
8714.21502219
8715.74388549
8717.2964044
8718.74664446
8719.982147
8720.87862183
8721.14109834
8720.71814181
6769.06587588
579.390292261
0.00321633843661
8702.39010158
8702.5531836
8702.89561099
8703.4094883
8704.08503477
8704.91075865
8705.87560299
8706.96333079
8708.15588656
8709.40844911
8710.6780308
8711.91777147
8713.05290228
8713.97747126
8714.57648551
8714.69719485
8714.29899729
6690.4073815
549.792937313
-0.00778763610123
8698.5153706
8698.65794085
8698.95642782
8699.40346686
8699.98998277
8700.7055027
8701.53901265
8702.4752096
8703.48843071
8704.54594549
8705.60622086
8706.62096875
8707.52922247
8708.2414002
8708.65019334
8708.70781373
8708.34501112
6607.11502824
520.830073166
-0.0111661769161
8694.48147435
8694.60525555
8694.8634165
8695.24967913
8695.75550911
8696.37350958
8697.09086413
8697.89205471
8698.76136299
8699.66475795
8700.56666606
8701.4139309
8702.1645491
8702.74041937
8703.06041931
8703.0613307
8702.68323469
6520.14383807
495.767378123
-0.0118637074391
8690.31030128
8690.41677853
8690.63822327
8690.96994845
8691.40314468
8691.93296586
8692.54655682
8693.23446769
8693.98579509
8694.76430889
8695.55466513
8696.28005884
8696.93160066
8697.42914574
8697.72059278
8697.73234888
8697.42608994
6441.27912245
471.138488339
-0.0120917455371
8686.02214792
8686.11295467
8686.30078656
8686.58032251
8686.94670967
8687.39142492
8687.92131375
8688.51036064
8689.1570867
8689.84180025
8690.53643756
8691.18868383
8691.78259681
8692.25641847
8692.55910744
8692.63822767
8692.48961855
6370.92745897
441.306831823
-0.0154299861078
8681.63443181
8681.7106354
8681.86678548
8682.09559012
8682.39848824
8682.76456188
8683.21326869
8683.724269
8684.28705566
8684.88231815
8685.50288969
8686.10791654
8686.68263521
8687.17162318
8687.53735105
8687.72049991
8687.71428886
6310.97228069
408.804431296
-0.00855641375794
8677.16364656
8677.22594773
8677.35085475
8677.54007876
8677.77844022
8678.0859278
8678.44896163
8678.89015305
8679.36256704
8679.87487623
8680.42174592
8680.9839316
8681.54681521
8682.09498572
8682.58963833
8683.00650892
8683.39092794
6271.93293791
387.981069242
-0.000146861936399
8672.62582569
8672.67484349
8672.77158658
8672.9168302
8673.10391784
8673.34948223
8673.65271672
8674.00573146
8674.39527158
8674.83149366
8675.3159998
8675.83999687
8676.40540965
8677.01112818
8677.66341461
8678.38728535
8679.30490537
6232.91148185
373.613692561
0.01333959149
8668.03359274
8668.07136613
8668.14134183
8668.24591951
8668.3942987
8668.57965771
8668.79687916
8669.06705852
8669.37798076
8669.73797857
8670.15330093
8670.63038774
8671.18131403
8671.82712828
8672.6058636
8673.60836132
8675.03768339
6186.44224721
358.647207545
-0.00703811152653
8663.40371671
8663.42856344
8663.47337315
8663.54063535
8663.63373488
8663.75274152
8663.89592354
8664.07802679
8664.30778189
8664.58032711
8664.91201428
8665.31687225
8665.8173408
8666.44875719
8667.26080445
8668.43595552
8670.22947501
6130.42867976
338.984360848
-0.0406720409044
8658.75234254
8658.76343323
8658.77980962
8658.80486403
8658.84002896
8658.88929383
8658.96211378
8659.05321663
8659.18383732
8659.35298342
8659.57713059
8659.873772
8660.27029641
8660.80640353
8661.52958362
8662.68650444
8664.5425165
6052.45206836
315.26222389
-0.107967720691
8654.09365359
8654.09058288
8654.07700314
8654.05610688
8654.0311517
8654.00885609
8654.00040997
8653.99731952
8654.0126743
8654.05923273
8654.14568039
8654.29329828
8654.52606727
8654.87825332
8655.40124185
8656.29918477
8657.76785046
5951.53881959
283.85292199
-0.199391794699
8649.44324538
8649.42517784
8649.38015177
8649.31228381
8649.22590489
8649.12658674
8649.01441181
8648.9028143
8648.79691881
8648.70553686
8648.6316967
8648.58575757
8648.59370825
8648.67664187
8648.87529775
8649.33102052
8650.25163494
5852.30591681
246.114071696
-0.204654503435
8644.81732013
8644.78377576
8644.70616779
8644.58906265
8644.43725721
8644.25179521
8644.03285993
8643.79143869
8643.54306642
8643.30059866
8643.04084187
8642.77399425
8642.50197513
8642.23582099
8641.98704938
8641.80141054
8641.74707342
5733.25415528
196.847260122
0.266622555957
8640.2323858
8640.18292914
8640.07198434
8639.90386884
8639.68367849
8639.41272269
8639.09346791
8638.72474808
8638.3120547
8637.88448583
8637.41128587
8636.88559361
8636.30513562
8635.6526318
8634.90742851
8634.03981478
8632.97563566
5590.75508237
161.472743154
0.664598316212
8635.7059533
8635.64048879
8635.49619602
8635.27700541
8634.98702537
8634.62795276
8634.20205789
8633.70390204
8633.11435482
8632.47030865
8631.76504565
8630.95251034
8630.03683211
8628.96876234
8627.73535521
8626.27568336
8624.4716976
5438.64018681
134.559025044
0.53392172433
8631.25349273
8631.17170348
8630.99341281
8630.72201466
8630.36076775
8629.90974672
8629.36894717
8628.73147263
8627.9830158
8627.09268904
8626.12541235
8625.08203108
8623.82732057
8622.34997352
8620.66934991
8618.72808891
8616.41276578
5287.71803371
112.111776083
-0.128101889998
8626.89167316
8626.79346357
8626.58107928
8626.25723625
8625.82425965
8625.28073261
8624.62413709
8623.84593571
8622.93695056
8621.87229176
8620.62867053
8619.3042429
8617.73084401
8615.87756013
8613.78148284
8611.3907917
8608.54551964
5139.03049242
91.7080715194
-0.356698698158
8622.63699229
8622.52260232
8622.27652106
8621.90078559
8621.39688345
8620.76194872
8619.99128172
8619.07558598
8617.99678357
8616.74117642
8615.27930733
8613.65437807
8611.81265808
8609.61914936
8607.14455995
8604.30617062
8600.83537957
4995.88020397
74.6290778413
-0.128546300491
8618.50567458
8618.3754368
8618.09653463
8617.67030719
8617.09752964
8616.374024
8615.4932632
8614.44539301
8613.2055657
8611.75755656
8610.10424102
8608.22798405
8606.10223531
8603.57498432
8600.81278603
8597.62097187
8593.56689741
4862.53907448
57.8847609494
-0.0688937585956
8614.51331129
8614.36768168
8614.05727853
8613.58279458
8612.94426562
8612.13652954
8611.15182301
8609.97960833
8608.59599117
8606.98727301
8605.13667732
8603.07358969
8600.65691329
8597.92718183
8594.81420163
8591.47086092
8587.17385954
4752.23047757
51.3679413003
-0.049732147191
8610.67467332
8610.51434054
8610.17415067
8609.65424614
8608.95401232
8608.06762949
8606.9867392
8605.70001088
8604.1861832
8602.439153
8600.41403667
8598.15872218
8595.54901406
8592.67596785
8589.44445926
8585.85983825
8581.53702871
4658.87300164
46.9669436821
0.00977724732176
8607.0035538
8606.82946559
8606.46156284
8605.8995401
8605.1423505
8604.18382271
8603.01529393
8601.62528634
8599.99419286
8598.11557404
8595.95703276
8593.52006433
8590.75662644
8587.74431245
8584.38376486
8580.6440538
8576.27113915
4573.58329243
42.259492353
0.551913426254
8603.51291206
8603.3261507
8602.9328703
8602.33242518
8601.52353139
8600.4998667
8599.25267509
8597.77066908
8596.03616056
8594.02993459
8591.74122943
8589.19078356
8586.33638979
8583.14299383
8579.63261634
8575.74107166
8571.13545558
4483.52406153
32.4239071862
-0.0336352842155
8600.2147964
8600.01653092
8599.60041094
8598.96551426
8598.11041159
8597.02874952
8595.71187126
8594.14900956
8592.32401201
8590.22304257
8587.82610186
8585.18872826
8582.21010245
8578.88462794
8575.23173447
8571.19724925
8566.38291959
4402.96177208
26.1375743688
-0.0612928449411
8597.12021127
8596.91170476
8596.47542707
8595.81017237
8594.91439042
8593.78180323
8592.40409522
8590.77099852
8588.86927581
8586.69232793
8584.21806828
8581.47834714
8578.39685865
8574.97063649
8571.20099785
8567.06448304
8562.1451155
4334.01019246
21.3938541657
-0.0125156321932
8594.23906668
8594.0216586
8593.56801916
8592.87655949
8591.94562848
8590.76893718
8589.33863091
8587.64551501
8585.67928695
8583.43287157
8580.87870837
8578.0621122
8574.90529103
8571.40808996
8567.5577096
8563.34986464
8558.42877306
4277.18628802
17.7356263774
-0.00463398338253
8591.58002349
8591.35516795
8590.88707283
8590.17366692
8589.21299051
8587.99871934
8586.52361057
8584.77902347
8582.75623156
8580.44661027
8577.8289702
8574.94746744
8571.72564396
8568.16710191
8564.27164972
8560.01342557
8555.08266424
4225.00955525
14.1233229113
-0.0178152930771
8589.15035504
8588.91962186
8588.44011939
8587.70916855
8586.72420918
8585.47877258
8583.96532366
8582.1769463
8580.10270893
8577.74206238
8575.06961784
8572.12072945
8568.83318202
8565.22276199
8561.33103454
8557.03029826
8552.06555727
4176.23965925
11.1936574895
-0.0252125152987
8586.95583439
8586.72090926
8586.23335331
8585.48955973
8584.48620749
8583.21559463
8581.67224584
8579.84412152
8577.73297151
8575.31969257
8572.60951221
8569.58449412
8566.25649013
8562.63252846
8558.73892947
8554.42156248
8549.43049102
4133.58859575
8.87101864068
-0.0492736877326
8585.00055615
8584.76333315
8584.27149342
8583.52024386
8582.50519227
8581.2180855
8579.6485725
8577.79015132
8575.629995
8573.17958992
8570.42925479
8567.39186712
8564.03779635
8560.40109719
8556.50820144
8552.20688251
8547.23184983
4099.0540533
6.79514273891
0.0755564417392
8583.28690647
8583.0495263
8582.55773312
8581.80562894
8580.78683784
8579.49041227
8577.90457197
8576.0184927
8573.82373123
8571.3311124
8568.54958038
8565.47978912
8562.1207602
8558.51068085
8554.62983262
8550.41326985
8545.5721269
4072.38515704
5.72639318475
0.0485454049648
8581.81474231
8581.57980117
8581.09314145
8580.34768393
8579.33578241
8578.04202756
8576.44763228
8574.53651954
8572.29828301
8569.75217657
8566.91940332
8563.80370163
8560.38740978
8556.82433046
8553.05232509
8549.01337938
8544.46405961
4057.08187789
5.65362276863
-0.0416920318491
8580.58202209
8580.35247556
8579.87728568
8579.14862173
8578.15670213
8576.88139568
8575.29510338
8573.36693019
8571.0698757
8568.44920865
8565.54660225
8562.40053499
8558.98979839
8555.33704047
8551.70979044
8547.91605564
8543.78461653
4051.64320268
6.08303870427
-0.016078235451
8579.58326712
8579.36248253
8578.90617096
8578.20707944
8577.25400485
8576.02416399
8574.47468677
8572.54507965
8570.15273178
8567.42169067
8564.38810712
8561.02555735
8557.53558844
8554.00971756
8550.49967855
8546.9814725
8543.30194112
4049.37673234
7.16272912966
-0.00206695218189
8578.80933227
8578.60011738
8578.17007093
8577.51358761
8576.62256743
8575.47913513
8574.04274571
8572.18492554
8569.57912848
8566.71733178
8563.57380492
8560.10911343
8556.16826063
8552.48601959
8549.27844453
8546.06101171
8539.06137003
4046.0787094
8.65293055783
-0.000294177931587
8578.24844812
8578.05329085
8577.65517845
8577.05216508
8576.23981044
8575.19577771
8573.86330722
8572.11305595
8569.23284353
8566.36074347
8563.05188853
8559.29353385
8554.73947592
8550.85361089
8548.07623701
8545.08232732
8519.47220428
4050.74313708
10.9442818263
-0.000613868865408
8577.88540006
8577.70384091
8577.33924654
8576.80412747
8576.13373677
8575.37183039
8574.61420673
8574.02730349
8550.6854139
8548.01457305
8546.99294259
8544.19824147
8498.71609457
4054.89498338
13.0192615615
-0.00129317619738
8577.70699517
8577.53289813
8577.18667652
8576.68401166
8576.0624777
8575.36600363
8574.70928719
8574.24614473
8549.6601319
8547.74791461
8546.18510071
8543.64492921
8487.90607554
4054.20319675
14.5166714011
0.00493840006885
8577.70442262
8577.52994164
8577.18350883
8576.68067086
8576.05878779
8575.36175045
8574.70844708
8574.24129737
8549.61046619
8547.71257225
8546.12703037
8543.58555023
8494.93251617
4046.18795053
14.0994566323
0.0061433351251
8577.87815917
8577.69553241
8577.32974319
8576.7938346
8576.12234094
8575.35947679
8574.59287572
8573.99239115
8550.58675953
8547.86933659
8546.79719929
8543.95896714
8510.22417779
4035.95994253
11.6517377003
0.00216003355975
8578.23863684
8578.04203277
8577.64152689
8577.03585051
8576.2199081
8575.16954518
8573.82897542
8572.06168783
8569.11893355
8566.21034373
8562.8654187
8559.06427083
8554.5023971
8550.62120892
8547.71433531
8544.65976168
8526.02192507
4030.13450174
9.42748780055
-0.00343598277301
8578.80025528
8578.5897112
8578.15702867
8577.49617202
8576.59879009
8575.4467911
8573.99609017
8572.11085105
8569.46371998
8566.56113255
8563.37704705
8559.87404946
8555.90422973
8552.17319147
8548.82716223
8545.51174523
8538.50685931
4028.34750095
7.69990289711
0.00289659548486
8579.57786942
8579.3555683
8578.89603413
8578.19178398
8577.2310986
8575.98931065
8574.42030176
8572.46212654
8570.02825568
8567.25056155
8564.16746548
8560.75884731
8557.21230475
8553.61503774
8550.01501328
8546.4203309
8542.57647925
4035.12409192
6.92753451413
-0.0197749671902
8580.58327347
8580.35214686
8579.87319174
8579.13864248
8578.13728891
8576.84781425
8575.23899652
8573.2775516
8570.93595947
8568.26569058
8565.30594732
8562.08543964
8558.58728188
8554.89635629
8551.22272794
8547.39833263
8543.20900933
4041.29680944
6.2427763061
0.0659416931436
8581.82575446
8581.58907517
8581.09844464
8580.34623111
8579.32306005
8578.01257829
8576.39389149
8574.44695526
8572.16285085
8569.56840293
8566.67355582
8563.46939634
8559.97201887
8556.31849746
8552.56137276
8548.53306116
8543.99172619
4048.38949468
6.2892250496
-0.0233780735504
8583.31122687
8583.07224437
8582.57640659
8581.81707982
8580.78700136
8579.47311553
8577.86039054
8575.93646396
8573.70082061
8571.14743391
8568.30441352
8565.13873571
8561.58729344
8557.83332771
8554.0470304
8549.91998044
8545.04599125
4059.63672904
6.3683664658
-0.00848403843483
8585.04211449
8584.80339425
8584.30774096
8583.54969418
8582.52348672
8581.21832471
8579.62242461
8577.72796732
8575.52929654
8573.00874186
8570.18516705
8567.05470079
8563.43259862
8559.57165796
8555.85899553
8551.65860599
8546.53542185
4078.93550463
6.8324981558
-0.00349193085175
8587.01812621
8586.78180325
8586.29084142
8585.54081773
8584.52708733
8583.24034256
8581.67068592
8579.81294802
8577.64243792
8575.15500952
8572.37892756
8569.16717522
8565.57344324
8561.84606395
8557.90352698
8553.83730591
8548.6088798
4110.92940264
7.96472643668
-0.00771564676484
8589.23672311
8589.00481052
8588.52264512
8587.78675284
8586.79333174
8585.53374798
8583.99853402
8582.18229958
8580.05516292
8577.63302363
8574.91178123
8571.78137501
8568.19602378
8564.47025006
8560.46214806
8556.48222156
8551.27215175
4156.35775714
10.3937326254
-0.00741621348429
8591.6936467
8591.4680546
8590.99855268
8590.2824201
8589.31631554
8588.0917999
8586.59886806
8584.83212419
8582.77191139
8580.42711332
8577.75415397
8574.72366341
8571.38621604
8567.60869378
8563.66928268
8559.57531706
8554.4010351
4208.13308244
13.2703671892
0.000875606899239
8594.3829367
8594.1653644
8593.71179827
8593.02016513
8592.08745397
8590.90517048
8589.46269256
8587.75351079
8585.7706804
8583.49266853
8580.90640975
8578.016909
8574.79459109
8571.14520878
8567.24180099
8563.11055526
8558.03114555
4268.60282749
16.7980888335
0.0723622689309
8597.29690497
8597.08901628
8596.65456283
8595.99207776
8595.09863544
8593.96541906
8592.58169498
8590.93770766
8589.03317856
8586.82522583
8584.31998182
8581.54264001
8578.44181942
8574.94770064
8571.14716226
8567.08375412
8562.14858411
4337.30528913
21.6333099097
-0.0262751436661
8600.42594121
8600.22836769
8599.81423755
8599.18269062
8598.33170171
8597.25371107
8595.93925223
8594.37724529
8592.55520936
8590.45054927
8588.02865976
8585.31611566
8582.33102317
8579.04100958
8575.38864706
8571.47354551
8566.68126747
4409.38004941
25.9711226492
0.0266790327278
8603.75946122
8603.57375138
8603.18308994
8602.58714709
8601.7845608
8600.76863546
8599.53088563
8598.06017804
8596.34462865
8594.37550966
8592.11319962
8589.47992027
8586.61565083
8583.4431652
8580.00105989
8576.28201734
8571.74406245
4494.65417252
33.4246834671
0.0354199472461
8607.28529705
8607.11275764
8606.74812917
8606.19185276
8605.44309002
8604.4960209
8603.34280895
8601.97304328
8600.37477344
8598.53670554
8596.44272703
8594.05843089
8591.29168825
8588.24433603
8585.03294276
8581.45477159
8577.20056123
4590.21740537
43.8049943745
0.481318388581
8610.98999973
8610.83174224
8610.49570445
8609.98255514
8609.29251386
8608.42054486
8607.35935949
8606.09985036
8604.63063313
8602.93991938
8601.01049365
8598.81971629
8596.32440615
8593.47678818
8590.39216851
8586.94801332
8582.75486945
4679.77364674
47.8108912475
-0.0423796775041
8614.85982034
8614.71637731
8614.41091629
8613.9441298
8613.31703306
8612.52558073
8611.5634728
8610.42292433
8609.09409647
8607.56554358
8605.82027202
8603.83609848
8601.58651424
8599.0343593
8596.12669308
8592.88478292
8588.8368173
4782.02983682
54.5686521703
-0.0647356324316
8618.87972251
8618.75168933
8618.47826883
8618.06045202
8617.4996438
8616.79315847
8615.93623324
8614.92256383
8613.74440716
8612.39142196
8610.84908384
8609.09335194
8607.08761047
8604.84723322
8602.2564429
8599.34464102
8595.70540202
4902.58245189
66.4981395336
-0.0464429852789
8623.03420994
8622.92218663
8622.68150445
8622.31428923
8621.82231814
8621.20413103
8620.45693325
8619.5763991
8618.55734954
8617.39146674
8616.06855238
8614.56842781
8612.85138438
8610.89857482
8608.72964358
8606.30488091
8603.28321583
5038.12996217
81.2785396619
-0.035662630386
8627.30734897
8627.2116297
8627.00408017
8626.68811205
8626.26634814
8625.73836146
8625.10349098
8624.35972755
8623.50463737
8622.53340727
8621.44046918
8620.21038154
8618.82797944
8617.2257527
8615.46957386
8613.63528533
8611.31663974
5180.73015107
100.35230743
-0.0359533207196
8631.68317477
8631.60359211
8631.42953877
8631.16474683
8630.8131211
8630.37551447
8629.85303645
8629.24606295
8628.55512681
8627.77921223
8626.91836541
8625.96787182
8624.92248907
8623.74876465
8622.45215496
8621.1908536
8619.62762792
5325.92918193
119.744013247
-0.00961696531223
8636.14568562
8636.08188649
8635.94088278
8635.72673331
8635.44394444
8635.09491041
8634.68181419
8634.20744661
8633.67494247
8633.08760811
8632.45049085
8631.77119001
8631.05827549
8630.29957768
8629.49707074
8628.89934902
8628.22209685
5476.13025555
148.000777523
0.0320895158389
8640.67962224
8640.63100076
8640.5218791
8640.35673733
8640.14038159
8639.87580727
8639.56664677
8639.21754636
8638.83280422
8638.41859138
8637.98584997
8637.55057432
8637.1285455
8636.74475618
8636.51831369
8636.50590615
8636.86338012
5627.13083781
185.694472561
0.0969107039469
8645.27000217
8645.23611337
8645.15788128
8645.03993879
8644.88680492
8644.70147239
8644.48800925
8644.2513642
8643.99582656
8643.72852592
8643.46263992
8643.20520224
8643.02580927
8642.97584125
8643.11347101
8643.65092958
8644.7759395
5763.29527887
224.908589972
0.122092003228
8649.90230335
8649.88211802
8649.83279797
8649.75853267
8649.66339232
8649.55066126
8649.42480855
8649.29102745
8649.15538157
8649.02643662
8648.91048012
8648.8592772
8648.86349037
8648.99664951
8649.39679092
8650.1894196
8651.46135919
5856.42415942
249.5705979
0.0284540663382
8654.5616031
8654.55464658
8654.53301354
8654.50034548
8654.4598052
8654.41407756
8654.3670365
8654.32310185
8654.28966983
8654.27602089
8654.29127428
8654.35937672
8654.51409693
8654.77283859
8655.27786002
8656.10920715
8657.34149936
5936.32207859
273.038625238
-0.0131686396318
8659.23399129
8659.2394639
8659.24427199
8659.2509202
8659.26129144
8659.27715531
8659.30050994
8659.33377365
8659.38180646
8659.45328993
8659.5609688
8659.70456348
8659.9430192
8660.29429045
8660.80217711
8661.60560876
8662.84384428
6025.32460096
291.944369804
-0.0258057513493
8663.90609184
8663.9237964
8663.9540852
8663.99836309
8664.05714771
8664.13093927
8664.21930343
8664.32163346
8664.43782343
8664.57217531
8664.7401704
8664.94564006
8665.20053135
8665.55998855
8666.02155864
8666.70238417
8667.70650475
6092.64162191
307.394615236
-0.0123057107325
8668.565573
8668.59513743
8668.65008431
8668.7313246
8668.83797826
8668.96791685
8669.11973169
8669.28934791
8669.47375167
8669.6733798
8669.88862741
8670.12335685
8670.35292358
8670.64115974
8671.00532418
8671.47902708
8672.12532793
6145.94000521
322.976257661
0.016260845491
8673.19782316
8673.23886746
8673.31895508
8673.43848268
8673.59384873
8673.78123337
8673.99611612
8674.23282998
8674.4840495
8674.74143714
8674.9969626
8675.24094831
8675.45583578
8675.65050148
8675.84893659
8676.0523206
8676.27411609
6192.27576572
341.395984839
0.0217931661108
8677.78743578
8677.84079448
8677.94826101
8678.10796233
8678.31503782
8678.56328071
8678.8455052
8679.15174543
8679.4716458
8679.78895578
8680.09137856
8680.34965461
8680.53510315
8680.67276735
8680.66505355
8680.56766281
8680.23177605
6229.00879184
354.948113022
0.000633824681316
8682.32031448
8682.38711336
8682.52372382
8682.72697198
8682.99073537
8683.30644213
8683.66373741
8684.05032538
8684.44866591
8684.84453809
8685.2034255
8685.50391695
8685.69496072
8685.75287245
8685.61249819
8685.29333827
8684.48004156
6268.4484847
377.219197361
-0.00538954473462
8686.77972011
8686.86162819
8687.03029747
8687.28194812
8687.6080695
8687.99940116
8688.44334205
8688.9247594
8689.4236746
8689.91687745
8690.37148534
8690.73686977
8690.97155821
8691.01478115
8690.81021106
8690.32239759
8689.25514865
6321.55318265
407.679328399
-3.79922284496e-05
8691.14698281
8691.2470071
8691.45120933
8691.75706923
8692.15467092
8692.63328003
8693.17893772
8693.77409257
8694.39617343
8695.01670727
8695.59523335
8696.08097015
8696.41355817
8696.51406308
8696.29801856
8695.67931982
8694.27019598
6376.02672255
442.029910178
0.0013374466443
8695.40432818
8695.52198946
8695.76761173
8696.13463774
8696.61319248
8697.19199998
8697.85636108
8698.58751563
8699.36092339
8700.14229572
8700.88840139
8701.55110308
8702.04800508
8702.29760028
8702.17405161
8701.56891555
8700.09109333
6448.10064832
481.563619793
-0.00234625756791
8699.52875588
8699.66761804
8699.95821477
8700.39339173
8700.96287121
8701.65556201
8702.45704315
8703.34853534
8704.30318487
8705.28199368
8706.25224435
8707.14604647
8707.89773512
8708.40245998
8708.51676803
8708.14672228
8707.00199979
6547.06376823
528.257887687
-0.0130852182289
8703.49705768
8703.65899608
8703.99885809
8704.50885644
8705.17903675
8705.99930459
8706.95649535
8708.03206591
8709.19393445
8710.42472412
8711.66634912
8712.86747572
8713.95893067
8714.83057184
8715.33733148
8715.36886701
8714.78118958
6655.90401821
585.811233707
-0.020715051031
8707.28323073
8707.47004945
8707.86264171
8708.45329515
8709.23297544
8710.19327136
8711.32309065
8712.60092453
8714.01099559
8715.52073652
8717.09047688
8718.68234158
8720.19767117
8721.54461393
8722.58201287
8723.13946285
8723.10777808
6761.06292573
647.930807286
-0.0197812336648
8710.85909688
8711.07217802
8711.52012731
8712.19596939
8713.09214862
8714.20265662
8715.51770367
8717.02197629
8718.69781813
8720.52078661
8722.49215877
8724.52827853
8726.56183399
8728.49437558
8730.20952669
8731.46423673
8732.18935445
6880.19765632
709.825318423
-0.0155038833393
8714.19497025
8714.43497287
8714.93984558
8715.70370541
8716.72081378
8717.98783126
8719.49831126
8721.24626844
8723.20951367
8725.37095286
8727.78488593
8730.31996945
8732.94891353
8735.59477008
8738.14716617
8740.32386922
8742.17669305
7017.70056543
782.76470985
-0.00978690968268
8717.26026063
8717.52714599
8718.08916418
8718.941538
8720.08058377
8721.5063748
8723.2186772
8725.21313849
8727.48010951
8730.01650817
8732.84619111
8735.95421022
8739.25611777
8742.71605612
8746.2680736
8749.63476625
8753.00498692
7176.19227129
873.571620526
-0.0208198959065
8720.02436571
8720.31744994
8720.93516675
8721.87379995
8723.13203612
8724.71385509
8726.62447718
8728.86491871
8731.44134174
8734.35472956
8737.60539329
8741.30697945
8745.33180794
8749.69452793
8754.38630612
8759.15588
8764.43567224
7367.1000869
970.391850944
-0.0492800816092
8722.45743735
8722.77514231
8723.44510516
8724.4648352
8725.8355155
8727.56464403
8729.66307451
8732.1385406
8735.00250618
8738.27610376
8741.97025871
8746.23085851
8750.97883705
8756.26985793
8762.16768744
8768.46494192
8775.98652963
7584.8260782
1067.66448923
-0.0734219848351
8724.531549
8724.87160224
8725.5886909
8726.68163439
8728.15368454
8730.01593883
8732.28397533
8734.96944724
8738.0940647
8741.70155566
8745.80897919
8750.55685344
8755.97185484
8762.1197226
8769.14840738
8776.92585537
8786.86428826
7788.47947273
1180.17812996
-0.0985220947607
8726.22117012
8726.58076129
8727.3383122
8728.49347525
8730.05168061
8732.02802288
8734.44081636
8737.29940032
8740.65629659
8744.52521021
8748.98803648
8754.17077032
8760.09281505
8766.91709669
8774.84077532
8783.78977634
8795.90897793
7939.70927329
1320.16322881
-0.122595513137
8727.50361784
8727.88006766
8728.66975504
8729.87360087
8731.49970797
8733.56491538
8736.08882584
8739.09506078
8742.59978126
8746.68985435
8751.4448424
8756.9241246
8763.1759208
8770.4071923
8778.78724993
8788.28454321
8801.45560533
7995.53060871
1457.30244482
-0.10862168692
8728.36112547
8728.74990356
8729.56147143
8730.79823812
8732.47015651
8734.59613525
8737.19513792
8740.29180571
8743.93734913
8748.14915439
8753.09726983
8758.747041
8765.17987956
8772.53181006
8780.86203709
8789.95628071
8801.55434396
7849.87108123
1519.56728677
-0.0421321722792
8728.77982341
8729.17455877
8729.99575901
8731.24783333
8732.94171083
8735.0967814
8737.73154127
8740.8895773
8744.59827817
8748.89670337
8753.90867184
8759.62379668
8766.11641967
8773.4394887
8781.50546246
8789.93444693
8798.56933848
7460.62917851
1550.71717049
-0.0159655937033
)
;

boundaryField
{
    back
    {
        type            fixedFluxPressure;
        gradient        uniform 0;
        value           nonuniform List<scalar> 
1984
(
8727.01109747
8727.3928875
8728.18827955
8729.40276167
8731.04912597
8733.15201658
8735.74136015
8738.85759721
8742.55445356
8746.89659799
8751.97041701
8757.84995042
8764.63150516
8772.48945872
8781.44693638
8791.07704498
8802.38908312
7738.41397282
1517.17681776
-0.0921287848753
8726.60478083
8726.9813896
8727.76777244
8728.96710553
8730.59082247
8732.66200667
8735.20953429
8738.27366648
8741.898972
8746.16074623
8751.13296447
8756.87171466
8763.51613014
8771.23560208
8780.12763129
8790.00118994
8802.89575375
7943.36640737
1487.01611666
-0.0600866718356
8725.76977969
8726.13417931
8726.89876309
8728.06498068
8729.64178294
8731.64930938
8734.11380034
8737.07250499
8740.55411282
8744.63048582
8749.39451907
8754.88087734
8761.19214648
8768.5425626
8777.09041007
8786.7867273
8799.90115971
7966.9234022
1423.44713091
-0.0951852994188
8724.52015815
8724.86788886
8725.60060139
8726.71800013
8728.22639839
8730.14177489
8732.48758103
8735.29173881
8738.5864625
8742.38136269
8746.80195529
8751.90321304
8757.75832131
8764.48713337
8772.24203142
8780.98814562
8792.48106497
7837.61212088
1309.84192624