/*--------------------------------*- C++ -*----------------------------------*\
| =========                 |                                                 |
| \\      /  F ield         | OpenFOAM: The Open Source CFD Toolbox           |
|  \\    /   O peration     | Version:  v2012                                 |
|   \\  /    A nd           | Website:  www.openfoam.com                      |
|    \\/     M anipulation  |                                                 |
\*---------------------------------------------------------------------------*/
FoamFile
{
    version     2.0;
    format      ascii;
    class       volScalarField;
    location    "5";
    object      rAU;
}
// * * * * * * * * * * * * * * * * * * * * * * * * * * * * * * * * * * * * * //

dimensions      [-1 3 1 0 0 0 0];


internalField   nonuniform List<scalar> 
1984
(
2.21300541178e-05
2.20622482813e-05
2.2054537333e-05
2.20525341861e-05
2.20522562283e-05
2.20533378295e-05
2.20549380292e-05
2.20562733707e-05
2.20571707402e-05
2.20578991975e-05
2.20587655521e-05
2.20540355498e-05
2.20367298413e-05
2.20649723162e-05
2.20420198135e-05
2.14672610803e-05
2.0831165038e-05
2.37874931196e-05
0.000115868053048
0.00544946118073
2.20599808399e-05
2.193806813e-05
2.19185019104e-05
2.19149179789e-05
2.1913798219e-05
2.19140454276e-05
2.19151257954e-05
2.19162975135e-05
2.19171733918e-05
2.19171690883e-05
2.19163805075e-05
2.19108040738e-05
2.18895367294e-05
2.19060477247e-05
2.18747134659e-05
2.13097627445e-05
2.06603474621e-05
2.30202203074e-05
0.000117614416456
0.00717835825485
2.20511267863e-05
2.1915737956e-05
2.18938339087e-05
2.18899287922e-05
2.1888970799e-05
2.18892109803e-05
2.1890380281e-05
2.18923206733e-05
2.18944516262e-05
2.18967440995e-05
2.18997600514e-05
2.19028860505e-05
2.19013492256e-05
2.1919834502e-05
2.18921560249e-05
2.13576165194e-05
2.07250446165e-05
2.3040443425e-05
0.000123184218844
0.0073367318038
2.20493762127e-05
2.1911387572e-05
2.18887019314e-05
2.1884525748e-05
2.18834896277e-05
2.18837570191e-05
2.18847681004e-05
2.18863709636e-05
2.18884770753e-05
2.18907542698e-05
2.18934885868e-05
2.18955351877e-05
2.18927584377e-05
2.19073139376e-05
2.18742360542e-05
2.1358825078e-05
2.0746963049e-05
2.30917413818e-05
0.000125173797838
0.00785264087804
2.20503740908e-05
2.19108367574e-05
2.18877843398e-05
2.18834891181e-05
2.18824794277e-05
2.18827975169e-05
2.18836758345e-05
2.18849736624e-05
2.18867797011e-05
2.18889336035e-05
2.18913205303e-05
2.18931427702e-05
2.18893497037e-05
2.18929736929e-05
2.18485936252e-05
2.13800770911e-05
2.08271847056e-05
2.38852416258e-05
0.000136250757778
0.0082975914731
2.205155508e-05
2.19115130852e-05
2.18882311478e-05
2.1883768798e-05
2.18827069555e-05
2.18830627427e-05
2.18839410446e-05
2.18850685115e-05
2.18864572142e-05
2.18880547287e-05
2.18888146242e-05
2.18891829484e-05
2.18854098372e-05
2.18719439794e-05
2.18173975138e-05
2.14637577091e-05
2.10591348969e-05
2.49482874508e-05
0.000147389578085
0.0084463898805
2.20527547565e-05
2.1912618159e-05
2.18891784266e-05
2.18845751207e-05
2.18834783993e-05
2.18837095841e-05
2.18845827596e-05
2.18856739288e-05
2.18867980823e-05
2.1887804116e-05
2.18875667138e-05
2.18839288867e-05
2.18770770992e-05
2.18620904132e-05
2.18273802464e-05
2.15639950014e-05
2.08925837206e-05
2.55649380239e-05
0.00016439939134
0.0089046084683
2.2054240716e-05
2.19139517158e-05
2.18904029789e-05
2.18856989943e-05
2.1884544267e-05
2.18847671097e-05
2.18854973489e-05
2.18864557258e-05
2.18875131896e-05
2.18881725766e-05
2.18875938598e-05
2.18841080783e-05
2.18724218993e-05
2.18627237972e-05
2.18423503858e-05
2.14953016117e-05
2.10361509095e-05
2.65696170567e-05
0.000197289214741
0.00970870204608
2.20561738982e-05
2.19153493226e-05
2.18919417899e-05
2.18871154304e-05
2.18858673178e-05
2.18859615613e-05
2.18865511848e-05
2.18874301862e-05
2.18884115236e-05
2.18888172398e-05
2.18877451878e-05
2.18843353942e-05
2.18744028044e-05
2.18592565943e-05
2.18176896211e-05
2.1410459726e-05
2.11703845236e-05
2.67412709122e-05
0.000228928733564
0.0105678461529
2.20585040843e-05
2.19172237978e-05
2.1893834847e-05
2.1888672568e-05
2.18873279508e-05
2.18872015872e-05
2.18876172987e-05
2.18882676218e-05
2.1889108187e-05
2.18893228175e-05
2.18883311185e-05
2.18851749776e-05
2.18772855391e-05
2.18613499952e-05
2.18077674055e-05
2.14570179182e-05
2.09984629234e-05
2.65164822339e-05
0.000257250227326
0.0109774697018
2.20613232796e-05
2.19199944652e-05
2.18957948279e-05
2.18904299508e-05
2.18888668381e-05
2.18884710321e-05
2.18885085004e-05
2.18889525743e-05
2.18894996835e-05
2.18893777401e-05
2.18879527378e-05
2.18855105954e-05
2.18807893057e-05
2.18636684762e-05
2.17940020006e-05
2.1501958654e-05
2.11300820503e-05
2.71090069758e-05
0.000279799262374
0.0112282014835
2.206471562e-05
2.19231032594e-05
2.18980406567e-05
2.18924309354e-05
2.18903117381e-05
2.18897814892e-05
2.18898062048e-05
2.18896731964e-05
2.18892070446e-05
2.18888029769e-05
2.18875336993e-05
2.18857425108e-05
2.1882414175e-05
2.18671422123e-05
2.17856822037e-05
2.1558687045e-05
2.12819104526e-05
2.76708699668e-05
0.000295499107803
0.0113345519991
2.2068819952e-05
2.19263513362e-05
2.19006317989e-05
2.18945422484e-05
2.18921292314e-05
2.18910867044e-05
2.18904808955e-05
2.18896133249e-05
2.18890293393e-05
2.18889850114e-05
2.18878165273e-05
2.18860787854e-05
2.18832984151e-05
2.18711284776e-05
2.18020288291e-05
2.16336064727e-05
2.14417293093e-05
2.82684780584e-05
0.000322424165395
0.0116022421543
2.20743999569e-05
2.19301125798e-05
2.19038650424e-05
2.18969588162e-05
2.18937033272e-05
2.18914183545e-05
2.18899956284e-05
2.1889212511e-05
2.18886477796e-05
2.18881639167e-05
2.18874432673e-05
2.18853585408e-05
2.18816439647e-05
2.18719223848e-05
2.18186446955e-05
2.16842648638e-05
2.15356842368e-05
2.88393222736e-05
0.000348411076105
0.0117766875205
2.20819387886e-05
2.19355371772e-05
2.19078409408e-05
2.18987687165e-05
2.18938440613e-05
2.18907599334e-05
2.18888840296e-05
2.18876933986e-05
2.18861702904e-05
2.18845413134e-05
2.18848933517e-05
2.18838287151e-05
2.18790873431e-05
2.18702094826e-05
2.18282878716e-05
2.17121506717e-05
2.16082907561e-05
2.93367368964e-05
0.000374782401593
0.0121731805895
2.20926037776e-05
2.19432056669e-05
2.1911395448e-05
2.18998364166e-05
2.18933317051e-05
2.1889348244e-05
2.1886418504e-05
2.18842456768e-05
2.18836452401e-05
2.18829879107e-05
2.18813761067e-05
2.18796638527e-05
2.18753421735e-05
2.18648585273e-05
2.18319925228e-05
2.17456075857e-05
2.16244787987e-05
2.96548441476e-05
0.000401154335587
0.0125062754983
2.21091130966e-05
2.19513482119e-05
2.19141976973e-05
2.1901291812e-05
2.18939325633e-05
2.18893279793e-05
2.1885963892e-05
2.18839135466e-05
2.18822091343e-05
2.18802562951e-05
2.18768031176e-05
2.18730462425e-05
2.18693020196e-05
2.18559227211e-05
2.18266492714e-05
2.17595381585e-05
2.165149902e-05
3.00219395606e-05
0.000429540354071
0.015089732002
2.21351514866e-05
2.19557538337e-05
2.19133049308e-05
2.18992644637e-05
2.18926798488e-05
2.18891755061e-05
2.18865867402e-05
2.18834983674e-05
2.18801334232e-05
2.18776475226e-05
2.18758572901e-05
2.18728477244e-05
2.18686718937e-05
2.18600302901e-05
2.18265483493e-05
2.17705938965e-05
2.16764921303e-05
3.02773127394e-05
0.000457839963446
0.0151189406929
2.2113514044e-05
2.19401321561e-05
2.19029669194e-05
2.18920556265e-05
2.18872373484e-05
2.18841295495e-05
2.18809611344e-05
2.18778847497e-05
2.18760015739e-05
2.18762672064e-05
2.18767883748e-05
2.18758287485e-05
2.18729196515e-05
2.18724054851e-05
2.18391002537e-05
2.17968570851e-05
2.16866182437e-05
3.03965968501e-05
0.000464164862349
0.0151538210906
2.19303572262e-05
2.18835925491e-05
2.18774586063e-05
2.18765099756e-05
2.18744479711e-05
2.18717638424e-05
2.18706948968e-05
2.18710754848e-05
2.18714237692e-05
2.18711729575e-05
2.18728212936e-05
2.18747887169e-05
2.1873608044e-05
2.18791850538e-05
2.18534522548e-05
2.18263891444e-05
2.17187153781e-05
3.06779860759e-05
0.000477939407071
0.0132440457683
2.18551255614e-05
2.18348785513e-05
2.18476271383e-05
2.18560864661e-05
2.18595042275e-05
2.18614427556e-05
2.18634048936e-05
2.18657845639e-05
2.18673986554e-05
2.1867134753e-05
2.18668179197e-05
2.18697277486e-05
2.18723034777e-05
2.18813297832e-05
2.18561516022e-05
2.18426407905e-05
2.17949515919e-05
3.04564760496e-05
0.000516249992751
0.0133319248008
2.19498558143e-05
2.18345980492e-05
2.18342787017e-05
2.18454508088e-05
2.18519350247e-05
2.18569990553e-05
2.18595330844e-05
2.18605448419e-05
2.1861681727e-05
2.18629994922e-05
2.18625302624e-05
2.18621397717e-05
2.18644413137e-05
2.18664142272e-05
2.18423858427e-05
2.17338228577e-05
2.1531883958e-05
3.03428277744e-05
0.00053827674703
0.0130491114217
2.19864079705e-05
2.18500652739e-05
2.18357600635e-05
2.18440953051e-05
2.18498440874e-05
2.18526583283e-05
2.18546696001e-05
2.18552859086e-05
2.185590059e-05
2.18567153696e-05
2.18579884807e-05
2.18559766779e-05
2.18516527065e-05
2.18406182298e-05
2.17959228186e-05
2.16000902501e-05
2.12908193575e-05
3.12291957943e-05
0.000588556572855
0.0148318337913
2.20037476047e-05
2.18625854617e-05
2.1840853897e-05
2.18447057833e-05
2.18485991627e-05
2.18498561605e-05
2.18509359154e-05
2.18523029269e-05
2.18527879055e-05
2.18528814989e-05
2.18516739465e-05
2.18502640706e-05
2.18440665128e-05
2.18242396348e-05
2.17641861268e-05
2.16152582198e-05
2.14500185697e-05
3.21899921747e-05
0.00068523730452
0.016488609422
2.20144784941e-05
2.18715796629e-05
2.18461735507e-05
2.1846838663e-05
2.18483462391e-05
2.18500325348e-05
2.18512932284e-05
2.18524603234e-05
2.18528141866e-05
2.18521024587e-05
2.18485995672e-05
2.18452210212e-05
2.18402616847e-05
2.18193914702e-05
2.17648315317e-05
2.16685045436e-05
2.15924998562e-05
3.31715555335e-05
0.000831801117279
0.0147355476067
2.20218096754e-05
2.18785016985e-05
2.18512908233e-05
2.18501951223e-05
2.18502954855e-05
2.18510995674e-05
2.18519268919e-05
2.18521995729e-05
2.18519242244e-05
2.18506324189e-05
2.18479374791e-05
2.18418654432e-05
2.18352055484e-05
2.18158973235e-05
2.17687950518e-05
2.16908915287e-05
2.16366974782e-05
3.41700130618e-05
0.000963262164115
0.013741587881
2.20277613532e-05
2.18841102716e-05
2.18556765869e-05
2.1853467812e-05
2.1852711905e-05
2.18517195073e-05
2.18511201718e-05
2.18504635563e-05
2.18497155586e-05
2.18483388381e-05
2.18460402552e-05
2.18411461837e-05
2.18311367075e-05
2.18106013571e-05
2.1766230096e-05
2.1696787505e-05
2.16133056268e-05
3.49965962246e-05
0.00110988136135
0.0145656423318
2.2032818913e-05
2.18887069037e-05
2.18592019043e-05
2.18560904223e-05
2.18546949616e-05
2.18533518224e-05
2.18522082983e-05
2.18512458449e-05
2.18500717759e-05
2.18485496479e-05
2.18460695711e-05
2.18413835717e-05
2.18307508165e-05
2.18087653089e-05
2.17631172895e-05
2.17021483925e-05
2.16007680004e-05
3.59036477949e-05
0.00129803018681
0.0165484115204
2.20368491502e-05
2.18924265262e-05
2.18621869386e-05
2.18586064962e-05
2.18565479702e-05
2.18552338382e-05
2.1854239289e-05
2.18532383204e-05
2.18517950464e-05
2.18494649679e-05
2.18461529976e-05
2.18405809934e-05
2.18301869684e-05
2.18082261461e-05
2.176268389e-05
2.17079674969e-05
2.15901589078e-05
3.69730174063e-05
0.00153686444705
0.0181368163896
2.20399533289e-05
2.18955007681e-05
2.18649465974e-05
2.18610333111e-05
2.18586967908e-05
2.18570727553e-05
2.18559353675e-05
2.18548047052e-05
2.18531446378e-05
2.18507126411e-05
2.1846956911e-05
2.18410052399e-05
2.18287126278e-05
2.18058427967e-05
2.17571029858e-05
2.16905939001e-05
2.15541649099e-05
3.8058811153e-05
0.00179177611506
0.0152434555708
2.20424252114e-05
2.18981755485e-05
2.1867419927e-05
2.18630568005e-05
2.18606818323e-05
2.18590602165e-05
2.18580155587e-05
2.1856965804e-05
2.18555910972e-05
2.18535258566e-05
2.1850236882e-05
2.1844122004e-05
2.18313051475e-05
2.18051644032e-05
2.17499287013e-05
2.16384324939e-05
2.14606371361e-05
3.90021535895e-05
0.0020806088525
0.0148640045005
2.20442095198e-05
2.1900383336e-05
2.18693798682e-05
2.18648681552e-05
2.18624070954e-05
2.18608631269e-05
2.18599872208e-05
2.18593924803e-05
2.18585990442e-05
2.18570830164e-05
2.18548775037e-05
2.18499139943e-05
2.18376022204e-05
2.18046385925e-05
2.17339682138e-05
2.1577634058e-05
2.137080794e-05
3.96781593284e-05
0.00224940868539
0.0151170273304
2.20456558852e-05
2.19022139372e-05
2.18711007079e-05
2.18665622957e-05
2.1863983964e-05
2.18624995907e-05
2.18618466182e-05
2.18617159808e-05
2.18616204893e-05
2.18612182628e-05
2.18605283699e-05
2.18583120024e-05
2.18475274251e-05
2.18053312804e-05
2.17175833037e-05
2.15707030903e-05
2.13573526236e-05
4.03334509467e-05
0.00238256357319
0.0177166478829
2.20470755853e-05
2.19037175813e-05
2.18726557057e-05
2.18679061826e-05
2.18653433273e-05
2.18640199123e-05
2.18636167055e-05
2.18636301688e-05
2.18640347956e-05
2.18646241031e-05
2.18657443109e-05
2.18670082337e-05
2.1857722327e-05
2.18115092023e-05
2.17133406527e-05
2.15523873814e-05
2.13218239804e-05
4.10678673113e-05
0.00250219374637
0.0149250606016
2.20482302306e-05
2.19049609876e-05
2.18739908579e-05
2.18690512009e-05
2.1866520155e-05
2.18652977959e-05
2.18648547644e-05
2.18647654561e-05
2.18651099714e-05
2.18662533116e-05
2.18690190427e-05
2.18720126329e-05
2.18634170676e-05
2.18223537118e-05
2.17130372628e-05
2.14498588636e-05
2.12065764455e-05
4.18696761959e-05
0.00294191175253
0.0175595745615
2.20491256344e-05
2.19060770102e-05
2.1875237513e-05
2.18701860194e-05
2.18675077544e-05
2.18661280185e-05
2.1865436472e-05
2.1865191153e-05
2.18653142326e-05
2.18661072463e-05
2.18674757354e-05
2.18679025588e-05
2.18585927171e-05
2.18268665316e-05
2.17185175837e-05
2.14601592809e-05
2.12244551778e-05
4.26540120225e-05
0.00335092418239
0.0149525604485
2.20498255881e-05
2.19070394344e-05
2.18762577285e-05
2.18710101122e-05
2.1868172067e-05
2.18665559714e-05
2.18657515323e-05
2.18654179719e-05
2.18651899181e-05
2.18645782732e-05
2.18631966011e-05
2.1859153218e-05
2.18472100826e-05
2.1819168831e-05
2.17233298125e-05
2.1473410659e-05
2.12370571996e-05
4.32899695266e-05
0.00362248528637
0.0154233705111
2.2050424079e-05
2.19078130942e-05
2.18770843305e-05
2.18714964694e-05
2.18685869862e-05
2.18669691547e-05
2.18661521138e-05
2.18655533629e-05
2.18649807036e-05
2.18637887133e-05
2.18614287412e-05
2.18563014924e-05
2.18426640083e-05
2.18128316575e-05
2.17293233138e-05
2.14889616343e-05
2.12532295294e-05
4.38475157815e-05
0.00384938404903
0.0193484757549
2.20509780999e-05
2.19085423703e-05
2.1877902044e-05
2.18720334578e-05
2.18690615756e-05
2.18673694374e-05
2.18662600338e-05
2.18656106483e-05
2.18649221408e-05
2.18637469553e-05
2.186138946e-05
2.1857039613e-05
2.18437519182e-05
2.18126321463e-05
2.17379542828e-05
2.1505970169e-05
2.12700324459e-05
4.43864343315e-05
0.00414153320961
0.0194270842874
2.20513970641e-05
2.19092580555e-05
2.18787762389e-05
2.18726620602e-05
2.18695376349e-05
2.18676867538e-05
2.18665772717e-05
2.18657360348e-05
2.18651152505e-05
2.1863413538e-05
2.18592351958e-05
2.18532043262e-05
2.18419327324e-05
2.181550762e-05
2.17500146532e-05
2.15235023747e-05
2.12795411181e-05
4.48847131007e-05
0.00442933594105
0.0161533326595
2.20516641456e-05
2.190984214e-05
2.18796147767e-05
2.18732402928e-05
2.18699981293e-05
2.18678896326e-05
2.18666885059e-05
2.18663473135e-05
2.18666622106e-05
2.18639499683e-05
2.18553149588e-05
2.18463376658e-05
2.18409802961e-05
2.18285852261e-05
2.17823311313e-05
2.15400745167e-05
2.12839156359e-05
4.53397092089e-05
0.00469278299584
0.0202943435773
2.20517160459e-05
2.19103513141e-05
2.18804066648e-05
2.18737441238e-05
2.18702798464e-05
2.18679892663e-05
2.18665189942e-05
2.1867297815e-05
2.18706913985e-05
2.18675967653e-05
2.18515784514e-05
2.1837832702e-05
2.18402510717e-05
2.18613472662e-05
2.18424262287e-05
2.15514106452e-05
2.1489711004e-05
4.66765129531e-05
0.00494044903125
0.0199282593197
2.2051685246e-05
2.19108405581e-05
2.18812533708e-05
2.18742237975e-05
2.1870536246e-05
2.1868098806e-05
2.18664732218e-05
2.18687532024e-05
2.18784382192e-05
2.1871533022e-05
2.18393254961e-05
2.18220397019e-05
2.18304714029e-05
2.18685672327e-05
2.18304816247e-05
2.15278700701e-05
2.14882913289e-05
4.68731535207e-05
0.0050969335297
0.0201992406815
2.20518674045e-05
2.19113393405e-05
2.18822256319e-05
2.18748658578e-05
2.18709193779e-05
2.18679882621e-05
2.1866208387e-05
2.1869968697e-05
2.1892751278e-05
2.18509857333e-05
2.17983527446e-05
2.18011540578e-05
2.18050400593e-05
2.18116013115e-05
2.17654496295e-05
2.15426323331e-05
2.14876604672e-05
4.69048390533e-05
0.00514164916278
0.0204877985711
2.20520255027e-05
2.19117830457e-05
2.18833282316e-05
2.18761396485e-05
2.18724998264e-05
2.1869393913e-05
2.18648781901e-05
2.18596127229e-05
2.18820581441e-05
2.18095925768e-05
2.17552826928e-05
2.17943570399e-05
2.17700406298e-05
2.17611801386e-05
2.17356323971e-05
2.15628141978e-05
2.14754723348e-05
4.68080353945e-05
0.00509213919164
0.0163551437658
2.20517651762e-05
2.19119205212e-05
2.18840567819e-05
2.18770084577e-05
2.18740717712e-05
2.18700074653e-05
2.18610109936e-05
2.18328658926e-05
2.186263559e-05
2.17749600203e-05
2.17520987531e-05
2.18256165876e-05
2.16716546501e-05
2.17027621328e-05
2.17436906897e-05
2.15580505101e-05
2.14306132555e-05
4.65571325539e-05
0.00505296153139
0.0202265468162
2.20516660158e-05
2.19121136459e-05
2.18854735138e-05
2.18795144231e-05
2.18798492115e-05
2.18789833351e-05
2.18511204966e-05
2.18097707279e-05
2.18606076536e-05
2.17523305236e-05
2.17446430647e-05
2.1808795336e-05
2.17286318742e-05
2.17062350751e-05
2.1751590182e-05
2.15695705854e-05
2.14483596862e-05
4.64706849471e-05
0.00490126278636
0.0205768971786
2.20511740162e-05
2.19117821937e-05
2.18861947818e-05
2.18805266042e-05
2.18778124154e-05
2.18642893648e-05
2.18428390897e-05
2.17746133839e-05
2.19575919395e-05
2.19291707976e-05
2.17767148559e-05
2.18128759208e-05
2.18067464074e-05
2.1729468265e-05
2.17337935258e-05
2.15505672063e-05
2.15030937838e-05
4.64642049116e-05
0.0046657540363
0.0164134103752
2.20497282431e-05
2.1910177129e-05
2.18852843257e-05
2.18789522535e-05
2.18817009495e-05
2.18679160218e-05
2.18621075641e-05
2.19703506176e-05
2.19392641178e-05
2.17968034289e-05
2.16970174533e-05
2.15817428451e-05
2.16349842683e-05
4.64830862115e-05
0.00451244625738
0.0163564997797
2.20485098697e-05
2.19091894424e-05
2.18856374503e-05
2.18795392788e-05
2.18834213613e-05
2.18873306761e-05
2.1880741237e-05
2.20209764599e-05
2.19589204909e-05
2.17796246527e-05
2.17117614826e-05
2.16177042432e-05
2.17047018434e-05
4.65406593797e-05
0.00426221880926
0.0205210989307
2.20484346073e-05
2.19091367913e-05
2.18856796795e-05
2.18796373856e-05
2.18834885068e-05
2.18868771935e-05
2.18794521992e-05
2.20210224164e-05
2.19587955397e-05
2.17800776967e-05
2.17124032893e-05
2.16159672941e-05
2.16796725996e-05
4.66230804396e-05
0.00436223563089
0.0200073319672
2.20494843459e-05
2.19100046409e-05
2.18853196853e-05
2.18789349362e-05
2.18815871134e-05
2.1867556715e-05
2.18593471401e-05
2.19685043278e-05
2.19384365785e-05
2.17975170741e-05
2.16983348513e-05
2.1575978554e-05
2.15961669937e-05
4.66698845294e-05
0.00462153994797
0.0162814542682
2.20507955732e-05
2.19115123921e-05
2.1886172778e-05
2.18804539538e-05
2.18777252397e-05
2.18639961787e-05
2.1840865655e-05
2.17704694722e-05
2.19590949864e-05
2.19299679632e-05
2.17771081866e-05
2.18175645696e-05
2.18089872829e-05
2.17293145275e-05
2.1737400337e-05
2.15535425552e-05
2.14868640405e-05
4.66781093902e-05
0.00480370729467
0.0162536099546
2.20513228621e-05
2.19118527712e-05
2.1885374e-05
2.18795703099e-05
2.18797926441e-05
2.18782539412e-05
2.18517110439e-05
2.18075215909e-05
2.18605204129e-05
2.17553974658e-05
2.17476665856e-05
2.18093803137e-05
2.17302363523e-05
2.17087982179e-05
2.17612750498e-05
2.15755558978e-05
2.14533899634e-05
4.67232460085e-05
0.00499060882067
0.0161438348288
2.20514869567e-05
2.19116660025e-05
2.18839200322e-05
2.18768435013e-05
2.18737098951e-05
2.18698664444e-05
2.18614476352e-05
2.18333165085e-05
2.18633770414e-05
2.17764410536e-05
2.17546443476e-05
2.18255510633e-05
2.16715015453e-05
2.17034348611e-05
2.17558216478e-05
2.15686737926e-05
2.14384821937e-05
4.67302255633e-05
0.00508211577525
0.0200044570079
2.20516756971e-05
2.19114587929e-05
2.18830813529e-05
2.18758234722e-05
2.18722746198e-05
2.18693895132e-05
2.18648601264e-05
2.1859641373e-05
2.18812870886e-05
2.18090662471e-05
2.1756155952e-05
2.17946334272e-05
2.1769424481e-05
2.17583656332e-05
2.1751342405e-05
2.15596736845e-05
2.14338516467e-05
4.67177575104e-05
0.00505509313383
0.0196719253477
2.20515875882e-05
2.1911054721e-05
2.18820702488e-05
2.18747201089e-05
2.18708288611e-05
2.18679817243e-05
2.18661562015e-05
2.1870323048e-05
2.1893556288e-05
2.18497334553e-05
2.17974267589e-05
2.18022312246e-05
2.18059023841e-05
2.18074104663e-05
2.17627548819e-05
2.15379942886e-05
2.14080523225e-05
4.66149922209e-05
0.00504222387742
0.0201422860863
2.2051447657e-05
2.19105897911e-05
2.18810810787e-05
2.18740544481e-05
2.187047821e-05
2.18681085196e-05
2.18667839702e-05
2.18694041584e-05
2.18786978019e-05
2.18712711376e-05
2.18396878287e-05
2.18227459697e-05
2.18315157974e-05
2.18604845526e-05
2.18086811908e-05
2.15178869153e-05
2.13497632563e-05
4.63236354194e-05
0.00504286983874
0.0188853920892
2.20515286923e-05
2.19101310416e-05
2.18802030921e-05
2.18735192566e-05
2.18701130124e-05
2.18679224185e-05
2.18666404921e-05
2.18674566829e-05
2.18707300726e-05
2.18674230146e-05
2.18516509649e-05
2.18376942285e-05
2.18412137156e-05
2.18576850625e-05
2.18323457621e-05
2.15469669288e-05
2.12956361911e-05
4.59533681984e-05
0.0049842559325
0.0162362530429
2.20515304563e-05
2.19096393979e-05
2.18793603457e-05
2.18729479571e-05
2.18696539483e-05
2.18675941808e-05
2.18663128456e-05
2.18658022311e-05
2.18662050367e-05
2.18637810671e-05
2.18554295256e-05
2.18477696035e-05
2.18453120151e-05
2.18325184407e-05
2.17826866657e-05
2.15446158745e-05
2.12772441261e-05
4.56140103198e-05
0.00486235696563
0.0161189867429
2.20512584977e-05
2.19090238497e-05
2.18784729832e-05
2.18723154491e-05
2.18691818394e-05
2.18673041081e-05
2.18660189464e-05
2.18650985765e-05
2.18646165822e-05
2.18630228674e-05
2.18585456724e-05
2.18538420881e-05
2.18465250316e-05
2.18237702507e-05
2.1757564517e-05
2.15204369356e-05
2.12630713372e-05
4.51065268664e-05
0.00456955827919
0.0195919722401
2.20508272905e-05
2.19083032121e-05
2.18775830726e-05
2.18716902e-05
2.1868709178e-05
2.18670705975e-05
2.18660768672e-05
2.18652780992e-05
2.18647307712e-05
2.18632959536e-05
2.18606430728e-05
2.18565891156e-05
2.18441215888e-05
2.18169012634e-05
2.17451880776e-05
2.15044646087e-05
2.12609122549e-05
4.45424387167e-05
0.00424097238106
0.0194582849155
2.20503618505e-05
2.19076756527e-05
2.18768568728e-05
2.18712076368e-05
2.18682517837e-05
2.18666662594e-05
2.18659574476e-05
2.18655272999e-05
2.18650555773e-05
2.18640901398e-05
2.18616511935e-05
2.18554795256e-05
2.18393915483e-05
2.18121980731e-05
2.17339816548e-05
2.14924961351e-05
2.12602034205e-05
4.39341629195e-05
0.00394153896674
0.0154345172646
2.20500352717e-05
2.1907107624e-05
2.18761925534e-05
2.18707410517e-05
2.1867747276e-05
2.18659991201e-05
2.18651988517e-05
2.18649801133e-05
2.18647297366e-05
2.18648211434e-05
2.18642813666e-05
2.18597009676e-05
2.18441634424e-05
2.18152648493e-05
2.17236694924e-05
2.14785190732e-05
2.12518711994e-05
4.32622143423e-05
0.00361459122634
0.0156703113829
2.20494654208e-05
2.19063592675e-05
2.18753633134e-05
2.1870142655e-05
2.18672838123e-05
2.18656268631e-05
2.18646803853e-05
2.18643193472e-05
2.18642423699e-05
2.1865040186e-05
2.18674070587e-05
2.18689960164e-05
2.18590546111e-05
2.18247261544e-05
2.17166402245e-05
2.14620843555e-05
2.12343769683e-05
4.25923629194e-05
0.0033356171665
0.0147178035741
2.20484226151e-05
2.19052946206e-05
2.1874183015e-05
2.18691922907e-05
2.18664656917e-05
2.18650096425e-05
2.1864388086e-05
2.1864175809e-05
2.18644268157e-05
2.18649993247e-05
2.18674207608e-05
2.18722434812e-05
2.18657773057e-05
2.18235058723e-05
2.17127138532e-05
2.1451807119e-05
2.12107444308e-05
4.17607994027e-05
0.00288851849939
0.0171955250695
2.2047278495e-05
2.19039549898e-05
2.18727700944e-05
2.18680101294e-05
2.18653487976e-05
2.18639043437e-05
2.18634642915e-05
2.18633710421e-05
2.1863704462e-05
2.18640981692e-05
2.18648896029e-05
2.18661819855e-05
2.18585447384e-05
2.18130827189e-05
2.17141994201e-05
2.16197107917e-05
2.1399922795e-05
4.09579031428e-05
0.00248544781356
0.0150497075553
2.20459760313e-05
2.1902402163e-05
2.18713145353e-05
2.18666889276e-05
2.18641733946e-05
2.18626871488e-05
2.18619587719e-05
2.18617016541e-05
2.18614642035e-05
2.18611068255e-05
2.18604003909e-05
2.18579675985e-05
2.18471657403e-05
2.18061571183e-05
2.17193702363e-05
2.15984914582e-05
2.13816784928e-05
4.01837452255e-05
0.00233425892212
0.0176157134986
2.20445353037e-05
2.19005517585e-05
2.18696399576e-05
2.18652116299e-05
2.18628291514e-05
2.18612714817e-05
2.1860285192e-05
2.18596090947e-05
2.18586216339e-05
2.18573274726e-05
2.18551338157e-05
2.18505938354e-05
2.18381095723e-05
2.18048220728e-05
2.1733816248e-05
2.16029872026e-05
2.13977476411e-05
3.9453784842e-05
0.00216550797049
0.014878547397
2.20426640304e-05
2.18983832982e-05
2.18676332764e-05
2.18635267188e-05
2.18611416865e-05
2.18595341142e-05
2.18584851323e-05
2.18573647466e-05
2.18559167959e-05
2.18538430646e-05
2.1850640586e-05
2.18451541648e-05
2.18330742113e-05
2.1807212559e-05
2.17517266051e-05
2.1656206242e-05
2.14718407952e-05
3.86341752309e-05
0.00193330417189
0.0151974872094
2.20400959687e-05
2.18959978771e-05
2.18654309934e-05
2.18614589056e-05
2.185910192e-05
2.18575022648e-05
2.18563650152e-05
2.18551484425e-05
2.18536386854e-05
2.18512608254e-05
2.18477093708e-05
2.18422320988e-05
2.18318753619e-05
2.18110038339e-05
2.17656685593e-05
2.17022380118e-05
2.15436425381e-05
3.76458165227e-05
0.00167247828034
0.0153403594276
2.20370883152e-05
2.18929844112e-05
2.18627361098e-05
2.18590274378e-05
2.18570026943e-05
2.18555182138e-05
2.18544145136e-05
2.18533075394e-05
2.18517839086e-05
2.18493677889e-05
2.18458651474e-05
2.18413471002e-05
2.18315969582e-05
2.18123954111e-05
2.17686133969e-05
2.17202897936e-05
2.15977004941e-05
3.66516186744e-05
0.00144127454396
0.0151466804876
2.20334316935e-05
2.18891606019e-05
2.18595040785e-05
2.18564205607e-05
2.18549361452e-05
2.18536709589e-05
2.18528147838e-05
2.18518632023e-05
2.18503598055e-05
2.18480715226e-05
2.18450454348e-05
2.18398066835e-05
2.18297053073e-05
2.18103119608e-05
2.17655465541e-05
2.17217733497e-05
2.16430751339e-05
3.57906900147e-05
0.00124888393389
0.0147861494058
2.20286403237e-05
2.18846998028e-05
2.18559836161e-05
2.1853592922e-05
2.1852590304e-05
2.18519240311e-05
2.18515335168e-05
2.18509103494e-05
2.1849737648e-05
2.18477800766e-05
2.1844659849e-05
2.18379720397e-05
2.18285670294e-05
2.18078663901e-05
2.17659743427e-05
2.17081026963e-05
2.1686912772e-05
3.4996859814e-05
0.00105123706254
0.0143026074091
2.20227343153e-05
2.18792941722e-05
2.18518172188e-05
2.18503807548e-05
2.18503057705e-05
2.18506268455e-05
2.18508717248e-05
2.18509845921e-05
2.18507573923e-05
2.18498476325e-05
2.18466973896e-05
2.18416778841e-05
2.18344491226e-05
2.18122770211e-05
2.17632061077e-05
2.16841348835e-05
2.14644399807e-05
3.35434533291e-05
0.000875182889959
0.0166928512443
2.20155685114e-05
2.18726901405e-05
2.18470109315e-05
2.18473880504e-05
2.18488219753e-05
2.18499406184e-05
2.18507010636e-05
2.18515040145e-05
2.18520886011e-05
2.18521558663e-05
2.18494791466e-05
2.18470653958e-05
2.18409957211e-05
2.18182338398e-05
2.17596867471e-05
2.16529238404e-05
2.15848412656e-05
3.3004793298e-05
0.000727817185853
0.0163970952661
2.2005397234e-05
2.18642284396e-05
2.18417655999e-05
2.18448818458e-05
2.18482103125e-05
2.18501221108e-05
2.18514131481e-05
2.18526113266e-05
2.18526604894e-05
2.18521544832e-05
2.18508515243e-05
2.18490999559e-05
2.18434690929e-05
2.1824263914e-05
2.17633053598e-05
2.15980588196e-05
2.14421098221e-05
3.20397710113e-05
0.000675051032838
0.0158339786172
2.19891404863e-05
2.18521752786e-05
2.183668264e-05
2.18439667507e-05
2.18496253174e-05
2.18522421214e-05
2.18544549475e-05
2.18551580032e-05
2.1855068287e-05
2.18550277111e-05
2.18560804642e-05
2.1854567238e-05
2.18506412411e-05
2.18429403183e-05
2.18000431244e-05
2.15991546734e-05
2.12958469862e-05
3.11186909921e-05
0.000635238324911
0.0137874790372
2.19566499126e-05
2.18368389193e-05
2.18356160294e-05
2.18479025137e-05
2.18535285252e-05
2.18565808862e-05
2.18590254665e-05
2.18597698593e-05
2.18609667076e-05
2.18624525021e-05
2.18628650387e-05
2.18623097824e-05
2.18633693739e-05
2.18678752403e-05
2.18435236544e-05
2.17453168134e-05
2.14972008904e-05
3.07717032516e-05
0.000586511984742
0.0135286927498
2.18758332544e-05
2.18331511864e-05
2.18458800938e-05
2.1856724327e-05
2.18612623273e-05
2.1863613296e-05
2.18641715617e-05
2.18652933002e-05
2.18666622622e-05
2.18670672602e-05
2.18667440701e-05
2.18675535754e-05
2.18703543859e-05
2.18780211079e-05
2.18499069466e-05
2.1839825514e-05
2.17466852886e-05
3.08492191883e-05
0.000547333086153
0.0132757306267
2.18826279162e-05
2.18741249672e-05
2.18713732486e-05
2.18713896937e-05
2.18719237852e-05
2.18716835948e-05
2.18706263253e-05
2.1870544634e-05
2.18695715074e-05
2.18689549316e-05
2.18694111333e-05
2.18701880458e-05
2.18693243446e-05
2.18728804526e-05
2.18478203348e-05
2.18097856569e-05
2.16975758903e-05
3.0689707778e-05
0.000532373478747
0.013119488696
2.20520645016e-05
2.19323231537e-05
2.18978256178e-05
2.18869645173e-05
2.18813118966e-05
2.18785481149e-05
2.18771675793e-05
2.18755218441e-05
2.18735652106e-05
2.1873332078e-05
2.18734073534e-05
2.18726047667e-05
2.18693692173e-05
2.18684728198e-05
2.18301139714e-05
2.17875469539e-05
2.16771489935e-05
3.05944198062e-05
0.000518766213264
0.0153359421346
2.21397750421e-05
2.19552275041e-05
2.19113165108e-05
2.18962674385e-05
2.18883854504e-05
2.18841038506e-05
2.1881841405e-05
2.18802644841e-05
2.18795599537e-05
2.18786500406e-05
2.1877313752e-05
2.18752418281e-05
2.18709756183e-05
2.1859944665e-05
2.18204033435e-05
2.17691517585e-05