/*--------------------------------*- C++ -*----------------------------------*\
| =========                 |                                                 |
| \\      /  F ield         | OpenFOAM: The Open Source CFD Toolbox           |
|  \\    /   O peration     | Version:  v2012                                 |
|   \\  /    A nd           | Website:  www.openfoam.com                      |
|    \\/     M anipulation  |                                                 |
\*---------------------------------------------------------------------------*/
FoamFile
{
    version     2.0;
    format      ascii;
    class       volScalarField;
    location    "5.7";
    object      epsilon;
}
// * * * * * * * * * * * * * * * * * * * * * * * * * * * * * * * * * * * * * //

dimensions      [0 2 -3 0 0 0 0];


internalField   nonuniform List<scalar> 
167
(
0.000305148946346
0.000343474657505
0.00037039054627
0.000382375652173
0.000389138831487
0.000394217398344
0.000398880531746
0.000403669666424
0.000344373828927
0.000352053947587
0.00038461274038
0.000398373498099
0.000405329788195
0.000409944947111
0.000413859269048
0.000417781203246
0.00037257003515
0.000386770404937
0.000424541906507
0.000440324244869
0.000448015758148
0.000452921901586
0.000457022988964
0.000461133711235
0.000385077720437
0.000401848477982
0.000441896031324
0.000458524268742
0.000466454336814
0.000471395484385
0.000475503987587
0.000479655783963
0.00048447901772
0.000391643824393
0.000409282545283
0.000450327770862
0.000467261977293
0.00047519292665
0.000480040337525
0.000484048733481
0.000488128373359
0.000492912085181
0.000499490169428
0.000395954857434
0.000413778270752
0.000455287297965
0.000472297179118
0.000480128763444
0.000484823895535
0.000488681168905
0.000492624425897
0.000497276403845
0.000503684016662
0.000399393195822
0.000417152393984
0.000458914868467
0.000475913698687
0.000483613784636
0.000488139647932
0.000491826680708
0.000495605358354
0.000500083686642
0.000506258001937
0.000402466795359
0.000420090061942
0.000462028243226
0.000478992601398
0.000486560557273
0.000490921842448
0.000494439067677
0.000498048096527
0.000502339640205
0.000508264611947
0.000405349491581
0.000422827136907
0.000464923546511
0.000481855902849
0.000489305670474
0.000493516161376
0.000496874081937
0.000500318894946
0.00050442805184
0.000510107410463
0.00040808184823
0.00042544826024
0.000467699895495
0.000484611159117
0.000491958601985
0.000496036003261
0.000499249444088
0.000502541996725
0.000506477151836
0.000511914783137
0.000410677877516
0.000427955719425
0.000470375703499
0.000487281433238
0.00049454443952
0.000498505920244
0.00050159163184
0.000504746876568
0.000508520088962
0.000513724456259
0.000413129141058
0.000430354998702
0.000472952529733
0.000489866063832
0.000497059639106
0.000500921297478
0.000503894136013
0.000506926041805
0.000510548046629
0.000515518646494
0.000415422608533
0.000432637089742
0.00047542185895
0.000492354467956
0.000499491571279
0.000503266574927
0.00050614059003
0.000509059223915
0.000512537172024
0.000517278129097
0.00041754055721
0.000434794865285
0.000477773966335
0.000494733674594
0.000501825333092
0.000505525179774
0.000508311700057
0.000511128452174
0.000514471328411
0.000518992204762
0.00041948310352
0.000436821502287
0.000479993637524
0.000496988387443
0.000504044585477
0.000507680372136
0.000510389594441
0.00051311565361
0.000516335015367
0.000520651765099
0.000421266031789
0.000438704903555
0.000482069737969
0.000499104899081
0.000506133613419
0.000509714952526
0.000512356394408
0.000515003815231
0.000518113528047
0.000522238590645
0.00042286668903
0.000440437099566
0.000483990265879
0.000501070094753
0.00050807879273
0.000511614325271
0.000514199763122
0.000424270325294
0.000442007571223
0.000485751385959
0.000502880688682
0.000509877094922
0.000487348735147
0.000504532750057
)
;

boundaryField
{
    back
    {
        lowReCorrection 0;
        blending        stepwise;
        n               2;
        type            epsilonWallFunction;
        value           nonuniform List<scalar> 
167
(
0.000305148946346
0.000343474657505
0.00037039054627
0.000382375652173
0.000389138831487
0.000394217398344
0.000398880531746
0.000403669666424
0.000344373828927
0.000352053947587
0.00038461274038
0.000398373498099
0.000405329788195
0.000409944947111
0.000413859269048
0.000417781203246
0.00037257003515
0.000386770404937
0.000424541906507
0.000440324244869
0.000448015758148
0.000452921901586
0.000457022988964
0.000461133711235
0.000385077720437
0.000401848477982
0.000441896031324
0.000458524268742
0.000466454336814
0.000471395484385
0.000475503987587
0.000479655783963
0.00048447901772
0.000391643824393
0.000409282545283
0.000450327770862
0.000467261977293
0.00047519292665
0.000480040337525
0.000484048733481
0.000488128373359
0.000492912085181
0.000499490169428
0.000395954857434
0.000413778270752
0.000455287297965
0.000472297179118
0.000480128763444
0.000484823895535
0.000488681168905
0.000492624425897
0.000497276403845
0.000503684016662
0.000399393195822
0.000417152393984
0.000458914868467
0.000475913698687
0.000483613784636
0.000488139647932
0.000491826680708
0.000495605358354
0.000500083686642
0.000506258001937
0.000402466795359
0.000420090061942
0.000462028243226
0.000478992601398
0.000486560557273
0.000490921842448
0.000494439067677
0.000498048096527
0.000502339640205
0.000508264611947
0.000405349491581
0.000422827136907
0.000464923546511
0.000481855902849
0.000489305670474
0.000493516161376
0.000496874081937
0.000500318894946
0.00050442805184
0.000510107410463
0.00040808184823
0.00042544826024
0.000467699895495
0.000484611159117
0.000491958601985
0.000496036003261
0.000499249444088
0.000502541996725
0.000506477151836
0.000511914783137
0.000410677877516
0.000427955719425
0.000470375703499
0.000487281433238
0.00049454443952
0.000498505920244
0.00050159163184
0.000504746876568
0.000508520088962
0.000513724456259
0.000413129141058
0.000430354998702
0.000472952529733
0.000489866063832
0.000497059639106
0.000500921297478
0.000503894136013
0.000506926041805
0.000510548046629
0.000515518646494
0.000415422608533
0.000432637089742
0.00047542185895
0.000492354467956
0.000499491571279
0.000503266574927
0.00050614059003
0.000509059223915
0.000512537172024
0.000517278129097
0.00041754055721
0.000434794865285
0.000477773966335
0.000494733674594
0.000501825333092
0.000505525179774
0.000508311700057
0.000511128452174
0.000514471328411
0.000518992204762
0.00041948310352
0.000436821502287
0.000479993637524
0.000496988387443
0.000504044585477
0.000507680372136
0.000510389594441
0.00051311565361
0.000516335015367
0.000520651765099
0.000421266031789
0.000438704903555
0.000482069737969
0.000499104899081
0.000506133613419
0.000509714952526
0.000512356394408
0.000515003815231
0.000518113528047
0.000522238590645
0.00042286668903
0.000440437099566
0.000483990265879
0.000501070094753
0.00050807879273
0.000511614325271
0.000514199763122
0.000424270325294
0.000442007571223
0.000485751385959
0.000502880688682
0.000509877094922
0.000487348735147
0.000504532750057
)
;
    }
    sides
    {
        lowReCorrection 0;
        blending        stepwise;
        n               2;
        type            epsilonWallFunction;
        value           nonuniform List<scalar> 8(0.000305148946346 0.000343474657505 0.00037039054627 0.000382375652173 0.000389138831487 0.000394217398344 0.000398880531746 0.000403669666424);
    }
    bottom
    {
        lowReCorrection 0;
        blending        stepwise;
        n               2;
        type            epsilonWallFunction;
        value           nonuniform List<scalar> 
18
(
0.000305148946346
0.000344373828927
0.00037257003515
0.000385077720437
0.000391643824393
0.000395954857434
0.000399393195822
0.000402466795359
0.000405349491581
0.00040808184823
0.000410677877516
0.000413129141058
0.000415422608533
0.00041754055721
0.00041948310352
0.000421266031789
0.00042286668903
0.000424270325294
)
;
    }
    front
    {
        lowReCorrection 0;
        blending        stepwise;
        n               2;
        type            epsilonWallFunction;
        value           nonuniform List<scalar> 
167
(
0.000305148946346
0.000343474657505
0.00037039054627
0.000382375652173
0.000389138831487
0.000394217398344
0.000398880531746
0.000403669666424
0.000344373828927
0.000352053947587
0.00038461274038
0.000398373498099
0.000405329788195
0.000409944947111
0.000413859269048
0.000417781203246
0.00037257003515
0.000386770404937
0.000424541906507
0.000440324244869
0.000448015758148
0.000452921901586
0.000457022988964
0.000461133711235
0.000385077720437
0.000401848477982
0.000441896031324
0.000458524268742
0.000466454336814
0.000471395484385
0.000475503987587
0.000479655783963
0.00048447901772
0.000391643824393
0.000409282545283
0.000450327770862
0.000467261977293
0.00047519292665
0.000480040337525
0.000484048733481
0.000488128373359
0.000492912085181
0.000499490169428
0.000395954857434
0.000413778270752
0.000455287297965
0.000472297179118
0.000480128763444
0.000484823895535
0.000488681168905
0.000492624425897
0.000497276403845
0.000503684016662
0.000399393195822
0.000417152393984
0.000458914868467
0.000475913698687
0.000483613784636
0.000488139647932
0.000491826680708
0.000495605358354
0.000500083686642
0.000506258001937
0.000402466795359
0.000420090061942
0.000462028243226
0.000478992601398
0.000486560557273
0.000490921842448
0.000494439067677
0.000498048096527
0.000502339640205
0.000508264611947
0.000405349491581
0.000422827136907
0.000464923546511
0.000481855902849
0.000489305670474
0.000493516161376
0.000496874081937
0.000500318894946
0.00050442805184
0.000510107410463
0.00040808184823
0.00042544826024
0.000467699895495
0.000484611159117
0.000491958601985
0.000496036003261
0.000499249444088
0.000502541996725
0.000506477151836
0.000511914783137
0.000410677877516
0.000427955719425
0.000470375703499
0.000487281433238
0.00049454443952
0.000498505920244
0.00050159163184
0.000504746876568
0.000508520088962
0.000513724456259
0.000413129141058
0.000430354998702
0.000472952529733
0.000489866063832
0.000497059639106
0.000500921297478
0.000503894136013
0.000506926041805
0.000510548046629
0.000515518646494
0.000415422608533
0.000432637089742
0.00047542185895
0.000492354467956
0.000499491571279
0.000503266574927
0.00050614059003
0.000509059223915
0.000512537172024
0.000517278129097
0.00041754055721
0.000434794865285
0.000477773966335
0.000494733674594
0.000501825333092
0.000505525179774
0.000508311700057
0.000511128452174
0.000514471328411
0.000518992204762
0.00041948310352
0.000436821502287
0.000479993637524
0.000496988387443
0.000504044585477
0.000507680372136
0.000510389594441
0.00051311565361
0.000516335015367
0.000520651765099
0.000421266031789
0.000438704903555
0.000482069737969
0.000499104899081
0.000506133613419
0.000509714952526
0.000512356394408
0.000515003815231
0.000518113528047
0.000522238590645
0.00042286668903
0.000440437099566
0.000483990265879
0.000501070094753
0.00050807879273
0.000511614325271
0.000514199763122
0.000424270325294
0.000442007571223
0.000485751385959
0.000502880688682
0.000509877094922
0.000487348735147
0.000504532750057
)
;
    }
    atmosphere
    {
        type            inletOutlet;
        inletValue      nonuniform List<scalar> 0();
        value           nonuniform List<scalar> 0();
    }
    floatingObject
    {
        lowReCorrection 0;
        blending        stepwise;
        n               2;
        type            epsilonWallFunction;
        value           nonuniform List<scalar> 0();
    }
    procBoundary2to0
    {
        type            processor;
        value           nonuniform List<scalar> 
14
(
0.000516777822783
0.000519788787715
0.000523737002524
0.000513377423747
0.000516777822783
0.000515915693065
0.000425474084575
0.000443415796555
0.000513377423747
0.000511524690918
0.000443415796555
0.000488771337588
0.000511524690918
0.000506016468669
)
;
    }
    procBoundary2to1
    {
        type            processor;
        value           nonuniform List<scalar> 
18
(
0.000409030653813
0.00042222231634
0.000465856588652
0.000465856588652
0.000491091257058
0.000491091257058
0.000510619301041
0.000514442548553
0.000516572316108
0.000518149153043
0.000519581842489
0.000520971056311
0.000522344840909
0.000523687906551
0.000524985807161
0.000526249596181
0.00052748000902
0.000528673097356
)
;
    }
}


// ************************************************************************* //
