/*--------------------------------*- C++ -*----------------------------------*\
| =========                 |                                                 |
| \\      /  F ield         | OpenFOAM: The Open Source CFD Toolbox           |
|  \\    /   O peration     | Version:  v2012                                 |
|   \\  /    A nd           | Website:  www.openfoam.com                      |
|    \\/     M anipulation  |                                                 |
\*---------------------------------------------------------------------------*/
FoamFile
{
    version     2.0;
    format      ascii;
    class       volScalarField;
    location    "2";
    object      ddt0(epsilon);
}
// * * * * * * * * * * * * * * * * * * * * * * * * * * * * * * * * * * * * * //

dimensions      [0 2 -4 0 0 0 0];


internalField   nonuniform List<scalar> 
1984
(
-0.00483521140687
-0.00528643290077
-0.00549609389242
-0.0055341493655
-0.00554803186284
-0.00556313657987
-0.00557953669516
-0.00559568133709
-0.00561102890491
-0.00562745540415
-0.00565539815493
-0.00573775231293
-0.00601556467883
-0.0068685103837
-0.00913072577211
-0.0144622990196
-0.0257272572752
-0.0481737271283
-0.0748114475724
0.521073587211
-0.00533016198601
-0.00533908512469
-0.00562978114529
-0.00568796317885
-0.00570361105973
-0.00571704722739
-0.0057318279875
-0.00574668044076
-0.00576123619146
-0.00577835387961
-0.00581233039307
-0.00591737915644
-0.00626059815047
-0.0072613527558
-0.0097377713328
-0.0149134503659
-0.0241493886004
-0.0393929892243
-0.0277892402906
1.01536402737
-0.0056714223228
-0.00579311881102
-0.0061417062087
-0.00621250486363
-0.00622976947725
-0.00624414513395
-0.00626080505031
-0.00627832798668
-0.00629623048406
-0.00631769314457
-0.00635842172984
-0.00647666349664
-0.00684823656073
-0.00790609059896
-0.010484079158
-0.0158513141609
-0.0254223083101
-0.0408816586497
-0.026238865105
0.440084768071
-0.00579163812027
-0.00596001841097
-0.00633360847022
-0.00640994632512
-0.00642792368729
-0.0064428553137
-0.00646074746576
-0.00648018651259
-0.00650048796469
-0.00652488194705
-0.00656907922805
-0.00669060006671
-0.00706255848899
-0.00810951851472
-0.0106555318426
-0.0159959247588
-0.0256588423499
-0.0414305021939
-0.0344314431531
0.206925022577
-0.00583813862223
-0.00602281448167
-0.00640594012502
-0.00648424763068
-0.00650209193931
-0.00651677971745
-0.00653484130308
-0.0065548550054
-0.00657618236581
-0.00660160175476
-0.00664638354737
-0.00676612005657
-0.00712739903923
-0.0081413013574
-0.0106128505777
-0.0158297772636
-0.0253601561862
-0.0409914599666
-0.0384887928505
0.212974522819
-0.00586151989833
-0.00605005453029
-0.00643690282165
-0.00651584382393
-0.00653314872596
-0.00654708253449
-0.00656455838852
-0.00658425254831
-0.00660549928601
-0.00663093979453
-0.00667463191968
-0.00678959935524
-0.00713459181615
-0.00810424150233
-0.0104796392984
-0.0155248794195
-0.0248185803725
-0.0401587961702
-0.0518722178957
-0.573164271671
-0.00587812923112
-0.0060659137317
-0.00645470692924
-0.00653406602501
-0.00655078725427
-0.00656380276504
-0.00658035784601
-0.00659929204151
-0.00661990749965
-0.00664461268927
-0.00668645822394
-0.0067952063902
-0.00712099638172
-0.00803974610843
-0.0103037583842
-0.0151449386781
-0.024128743834
-0.0390161470636
-0.053942825512
-0.579973135187
-0.00589299159298
-0.00607833306133
-0.0064688789298
-0.0065488345194
-0.00656514250685
-0.00657725202282
-0.00659282265748
-0.00661082829708
-0.00663061230141
-0.00665429713797
-0.00669393027512
-0.00679574850627
-0.00710059397909
-0.0079641162443
-0.0101066282257
-0.0147187895142
-0.0233298375392
-0.0376589326575
-0.057629021107
-0.504620916727
-0.0059075446056
-0.00608992193839
-0.00648234329918
-0.00656328986504
-0.00657940133874
-0.0065907378947
-0.00660536539397
-0.00662244716858
-0.00664134430688
-0.00666398175709
-0.00670127511917
-0.00679590132164
-0.00707885355873
-0.00788422841456
-0.00989662880028
-0.0142572240087
-0.0224513049958
-0.0363037688992
-0.0638836366919
-0.448989903338
-0.00592218252591
-0.00610150156078
-0.00649605946127
-0.00657827935684
-0.00659447508041
-0.00660520611043
-0.00661899178785
-0.00663522700631
-0.00665331340549
-0.006674924147
-0.00670997105016
-0.00679740411876
-0.00705809376251
-0.0078035900646
-0.00967976192708
-0.0137715167774
-0.0215129604421
-0.0348777732393
-0.0635831549304
-0.290566621786
-0.0059370056092
-0.0061132649503
-0.00651027860219
-0.00659406342674
-0.00661054909957
-0.00662084759938
-0.00663393593777
-0.00664943986405
-0.00666683449918
-0.00668755687238
-0.00672048726666
-0.00680095723827
-0.00703967567573
-0.00772500303595
-0.00946246187678
-0.0132750212943
-0.0205299545302
-0.0332105619452
-0.0576874257409
0.146808048314
-0.00595202774313
-0.00612533128321
-0.00652501838167
-0.00661062108438
-0.00662760283186
-0.0066376350422
-0.00665017958588
-0.00666510490271
-0.00668193444173
-0.00670194477929
-0.00673300573787
-0.00680687890046
-0.00702431084017
-0.00765037639443
-0.00924974772486
-0.012780852408
-0.0195407308892
-0.031214503436
-0.0350450663596
0.513163553045
-0.00596721718702
-0.00613767600139
-0.00654031638069
-0.00662791598197
-0.00664554421577
-0.00665546226057
-0.00666760816921
-0.0066820996964
-0.00669851030763
-0.00671798540507
-0.00674747936549
-0.00681529225549
-0.00701249474618
-0.00758134673827
-0.00904461295748
-0.0123009381081
-0.0185780815376
-0.0290634864957
-0.0235379508642
0.383614913989
-0.00598256578519
-0.00615040692688
-0.00655614067256
-0.00664587062138
-0.00666426611317
-0.00667418600836
-0.00668606191405
-0.00670024552786
-0.00671641057242
-0.00673554133843
-0.00676373614591
-0.0068260231965
-0.00700418400843
-0.00751824592509
-0.00885092520632
-0.0118440754394
-0.0176092152291
-0.0262506942475
-0.0116552622163
0.307191190679
-0.00599812709507
-0.00616342946657
-0.0065723459283
-0.00666438835204
-0.00668364441076
-0.00669366915404
-0.00670541282519
-0.00671940628737
-0.00673545882729
-0.00675439701423
-0.00678156952848
-0.00683892783283
-0.00699922782917
-0.00746063222881
-0.00866552654149
-0.0113922565654
-0.0165462269781
-0.0233316511403
-0.0374282124971
-0.0188149570989
-0.00601383716172
-0.00617657426615
-0.00658888058188
-0.00668330534074
-0.00670353420121
-0.00671379006782
-0.00672545127392
-0.00673938633059
-0.00675543109434
-0.00677434046754
-0.00680086044197
-0.00685420949093
-0.00699950699977
-0.00741618297596
-0.00851118371041
-0.010967946332
-0.0154704953618
-0.0210435743875
-0.0348628635367
-0.471120193619
-0.0060297469912
-0.00618964555222
-0.00660552705525
-0.00670248617248
-0.00672378878127
-0.00673432754827
-0.00674603538398
-0.00676005850951
-0.00677613753312
-0.00679520245495
-0.00682140193684
-0.00687247613055
-0.0070095235269
-0.00740609672921
-0.00846384305781
-0.0107433537644
-0.0145199080096
-0.0188958080444
-0.0182333387464
-0.00207754988323
-0.00604620144051
-0.00620259890764
-0.0066222725287
-0.00672186054363
-0.00674428009653
-0.0067552112978
-0.00676694345299
-0.00678083973926
-0.00679710412072
-0.00681638644321
-0.00684261557752
-0.00689230424448
-0.00702337322598
-0.00740390104091
-0.00836138464816
-0.0103529326642
-0.0135379640215
-0.0159278251562
-0.00577803011381
-0.322461763206
-0.00606266633563
-0.00621544380495
-0.00663900304167
-0.00674129066695
-0.00676488242697
-0.00677606558019
-0.00678786049745
-0.00680184943377
-0.00681822989578
-0.00683768850525
-0.0068638428826
-0.00691209050111
-0.00703662182589
-0.00738340802045
-0.00823023222593
-0.00998936829086
-0.0126374141856
-0.0172714636069
-0.0342933450333
-0.0157283121622
-0.00607962862936
-0.00622749093382
-0.00665557806627
-0.00676060702173
-0.00678545252185
-0.00679698055358
-0.00680881814861
-0.00682281766865
-0.00683923751842
-0.00685878397089
-0.00688471212745
-0.00693123890102
-0.00704560351895
-0.00735570750361
-0.00814088378703
-0.00972755836182
-0.01217236781
-0.0185586856197
-0.0462457363999
-0.0368867276914
-0.00609628421251
-0.00623881119405
-0.0066719903341
-0.00677976855394
-0.00680588707886
-0.00681780081099
-0.00682966974724
-0.00684364041813
-0.00686004128191
-0.00687950466052
-0.0069046705402
-0.00694779110067
-0.00705168806528
-0.00733935253331
-0.00807314164476
-0.00958948302467
-0.0123605820083
-0.0220678547209
-0.0591282523272
-0.0465569094962
-0.00611272416952
-0.00624935913489
-0.00668769285879
-0.00679871930024
-0.00682619425487
-0.00683842755807
-0.00685029227682
-0.00686416720252
-0.00688035894515
-0.00689941777939
-0.00692377337044
-0.00696388676007
-0.00705898577731
-0.00732513171555
-0.00801915833699
-0.00954139471639
-0.0129735632471
-0.0263525591925
-0.0714670828191
-0.0540816274836
-0.00612399345986
-0.00626024303761
-0.0067045899427
-0.00681844727372
-0.00684657771611
-0.00685890299036
-0.00687066558258
-0.00688433246371
-0.00690031540831
-0.0069190035798
-0.00694232651416
-0.00697933908964
-0.00706551838477
-0.00731041087457
-0.00797060065724
-0.00954106357291
-0.0137984122471
-0.0308290555677
-0.0819584134017
-0.0595860304693
-0.00613022543659
-0.00627253926299
-0.00672158059081
-0.00683779378332
-0.00686662847944
-0.00687903909273
-0.00689068969519
-0.0069041760557
-0.00691988400283
-0.00693807437134
-0.0069602103946
-0.00699388751105
-0.00707061746937
-0.00729210039547
-0.00791464370511
-0.00954444331126
-0.0145887725483
-0.0346996287129
-0.0892614214733
-0.0622243933836
-0.00613541040795
-0.00628392928512
-0.00673804007472
-0.00685670977214
-0.00688631610229
-0.00689885377822
-0.00691041955062
-0.00692371607735
-0.00693906864725
-0.0069567218541
-0.00697761796778
-0.00700775631975
-0.0070740518908
-0.00726828430708
-0.00783994656963
-0.0094803621547
-0.0150194683843
-0.0369393316943
-0.0916052101575
-0.0607860007877
-0.0061388055932
-0.0062942664338
-0.00675380974232
-0.0068750987267
-0.00690553429461
-0.00691821678
-0.00692972270908
-0.00694283846053
-0.00695783970834
-0.00697497426273
-0.00699456854913
-0.00702097817341
-0.00707589461584
-0.00723813817064
-0.00773622158243
-0.00926652420633
-0.014832586279
-0.0365600037133
-0.092139303339
-0.0667640500453
-0.00613983332985
-0.00630279633957
-0.00676851909041
-0.00689278983793
-0.00692422188092
-0.00693714139879
-0.00694865562003
-0.00696168369591
-0.00697646662534
-0.00699306391054
-0.0070114318255
-0.00703417161498
-0.00707728182748
-0.0072037201443
-0.00760547645241
-0.00889810411679
-0.0139626869383
-0.0346414215305
-0.0843823946028
-0.21132300078
-0.00614062261626
-0.0063092449042
-0.00678148284411
-0.00690932241643
-0.00694210038406
-0.00695544052852
-0.00696707232013
-0.00698007795889
-0.00699470828866
-0.00701083649831
-0.00702814152219
-0.00704753320555
-0.00707906380561
-0.00716915150682
-0.00746646133451
-0.00846184642755
-0.0125364461686
-0.0301257575929
-0.0843211185509
-0.225933662457
-0.00614152502607
-0.00631346190743
-0.00679243974361
-0.00692446880351
-0.00695900513392
-0.00697298192437
-0.00698487947287
-0.0069980097019
-0.00701269136501
-0.00702859283616
-0.0070450110705
-0.00706143279604
-0.00708225534046
-0.00713717182852
-0.00733511864533
-0.00805797879369
-0.0109623976365
-0.023301079917
-0.0660391276431
-0.274162082835
-0.00614125643925
-0.00631533637115
-0.00680116186238
-0.00693798735228
-0.00697471675431
-0.00698958609332
-0.00700192992278
-0.00701536460949
-0.0070302283123
-0.00704611184187
-0.00706199343168
-0.00707595968397
-0.00708686152357
-0.00710642807283
-0.00719506622092
-0.00757698458319
-0.00892169554838
-0.0112820578379
-0.0085711911386
-0.00909331797194
-0.00613968735611
-0.00631443660014
-0.00680738165703
-0.00694958204658
-0.00698895889356
-0.00700502093348
-0.00701805451325
-0.00703201608692
-0.00704728827966
-0.00706339263985
-0.00707908431579
-0.00709122603936
-0.0070932089225
-0.00707751116517
-0.00703932987708
-0.00691281933754
-0.00575346354161
0.00238566327616
0.0375370671375
0.0363889668247
-0.00613626172377
-0.00631055387088
-0.00681072252923
-0.00695886833316
-0.0070013740765
-0.00701896551313
-0.00703296077585
-0.00704771902668
-0.00706368906539
-0.00708040397663
-0.00709628851722
-0.00710709324232
-0.00710060550651
-0.00704455491225
-0.00682335581655
-0.00583136565557
-0.000743641807183
0.0193438395819
0.0794368456149
0.0587202364912
-0.00613096347808
-0.00630330457311
-0.00681074197101
-0.00696541620657
-0.00701157133822
-0.00703108013231
-0.00704633857935
-0.007062165013
-0.0070791786414
-0.00709687786926
-0.00711337605475
-0.00712331177603
-0.00710737473414
-0.00698984739078
-0.00642787889546
-0.00388343835708
0.00602668470323
0.0333608740631
0.0325148818318
0.0320639734083
-0.00612327035156
-0.00629232339964
-0.00680694837089
-0.00696868868377
-0.00701904960002
-0.00704091808656
-0.00705783156948
-0.00707516023755
-0.00709362308406
-0.00711263858163
-0.00713030352398
-0.00714032295251
-0.00711303395051
-0.00689911737752
-0.0057810997714
-0.00115897236446
0.0110011584003
0.0200752032262
-0.0906990514315
-0.698665855991
-0.00611293962715
-0.00627716542378
-0.00679882142044
-0.00696810997443
-0.00702325895424
-0.0070479666617
-0.00706697289349
-0.00708627236671
-0.00710668255183
-0.00712763389313
-0.00714697885878
-0.0071564020865
-0.00710792752006
-0.00671230434729
-0.00469742539663
0.00206246667364
0.0122115259079
-0.00144974527401
-0.0286343965577
-0.50808835869
-0.00609937119946
-0.00625742190471
-0.0067858094049
-0.00696302883088
-0.00702355792751
-0.00705168704835
-0.00707328161253
-0.00709503494442
-0.00711801478377
-0.00714156136971
-0.00716310014667
-0.00716863812147
-0.0070647669488
-0.00635252249208
-0.00399939083098
-0.00343570927671
-0.0263062968788
-0.0799155399756
-0.015669721856
0.351788907205
-0.00608225461955
-0.00623277423321
-0.00676736928488
-0.00695284441095
-0.00701932423478
-0.00705142795638
-0.00707618905871
-0.0071010168991
-0.00712730715599
-0.00715459512602
-0.00718113041292
-0.00719825898437
-0.00715560718293
-0.00675407894489
-0.00489839384042
0.000328192935339
0.0089987540405
0.0234326137348
-0.0678242044247
-0.168878175497
-0.00606058169556
-0.00620274699022
-0.00674299168246
-0.0069368647132
-0.00700982632126
-0.00704646600255
-0.00707494898653
-0.0071035174125
-0.00713374122196
-0.00716520861354
-0.00719611207992
-0.00722022315377
-0.0072100406397
-0.00699787599195
-0.005725179845
0.000573748975379
0.028237137157
0.0991643163746
-0.109441226807
-0.219092876291
-0.00603408871945
-0.00616708628278
-0.00671214627992
-0.00691445696734
-0.00699429000884
-0.00703606508569
-0.00706898564164
-0.00710198947662
-0.00713704770587
-0.00717373030657
-0.00720977603606
-0.00723929301332
-0.00723934743483
-0.00704969935587
-0.00563800075275
0.00272145001726
0.038042956135
0.113767309416
0.0729949585443
-0.114762830704
-0.00600211451569
-0.00612563661862
-0.00667457233179
-0.0068850655801
-0.00697210866281
-0.00701957768151
-0.00705759282998
-0.00709590372926
-0.00713698781222
-0.00718041658187
-0.00722326566712
-0.00725753624331
-0.0072447786958
-0.0068264601744
-0.00311443043502
0.0188754335458
0.0937488574296
0.223392023316
0.425212479767
0.00200247214069
-0.00596475453434
-0.00607856208308
-0.00663027303012
-0.00684834321587
-0.0069427071316
-0.00699621630771
-0.0070399284613
-0.00708450377276
-0.00713320366
-0.00718569579292
-0.00724013085442
-0.00729167252898
-0.0073215319667
-0.00719339486012
-0.00596455691956
0.000839965752137
0.0252124190477
0.0592540005293
-0.0632109585639
-0.10476988779
-0.00592116794214
-0.00602611429446
-0.00657940360157
-0.00680442990493
-0.00690568938523
-0.00696552927195
-0.00701549712167
-0.00706730906157
-0.00712492570502
-0.00718843035003
-0.00725617943473
-0.00732474372685
-0.00738413663978
-0.00738155726901
-0.00690349081596
-0.00379372902406
0.0106867612465
0.0432803900856
-0.113703995752
-0.213787805433
-0.00587169675567
-0.00596912450413
-0.00652294637415
-0.00675357241134
-0.00686139836377
-0.00692727651343
-0.00698388623224
-0.00704351799327
-0.0071116614204
-0.0071882726989
-0.0072707597102
-0.00735692310875
-0.00744132113407
-0.00749810111491
-0.00728060952062
-0.0054089123053
0.00375672324692
0.0219207087581
-0.0390218337612
-0.0927832610927
-0.00581708329152
-0.00590930275498
-0.00646237881941
-0.00669713464741
-0.00681010572082
-0.00688176073131
-0.00694512024549
-0.00701352567463
-0.00709441132986
-0.00718610129373
-0.00728415686015
-0.0073873709632
-0.00749698940017
-0.00759333346349
-0.00752398935065
-0.00629606884806
0.00127775120112
0.0201247360053
0.0048984614955
-0.0386574156844
-0.00575880604877
-0.00584926633634
-0.00640041804492
-0.00663710655416
-0.00675368561909
-0.00683038917273
-0.00690124153403
-0.00698029291277
-0.00707872546472
-0.00718626781049
-0.00729731409891
-0.00741499260128
-0.00755439370292
-0.00768099512189
-0.0077127383136
-0.00710991089615
-0.000130598807918
0.0363729393835
0.0345686441392
-0.0180670072579
-0.00569886129582
-0.00579274007965
-0.00634078759278
-0.0065768152331
-0.00669480061328
-0.00677627095606
-0.00685398410909
-0.00693692985017
-0.00705719492038
-0.00716342781906
-0.00727372555855
-0.00740255005402
-0.00761570262617
-0.00775449016185
-0.00783909053219
-0.00772481224272
-0.00475089561374
0.0198436028929
0.0784914646109
0.00667449421636
-0.00564040338702
-0.00574417593263
-0.0062879886904
-0.00652056601261
-0.00663694541223
-0.00671950997584
-0.00678292964261
-0.00678612565424
-0.00691368370441
-0.00700030984686
-0.0070471667731
-0.00716910183993
-0.00767028327698
-0.00768443416572
-0.00779929023345
-0.00751134787857
0.000411879674155
0.0816326846992
0.0804831008851
0.0807774312086
-0.00558760010889
-0.00570720703056
-0.00624597850105
-0.00647284104648
-0.00658359098521
-0.00665752345567
-0.00668433744022
-0.00652259440865
-0.00767147153821
-0.00734286414743
-0.00739821683943
-0.00738411688355
-0.00686544118171
-0.00714886106999
-0.00734354246613
-0.00676829370858
-0.000200260610262
-0.00595058323994
-0.0764101072618
-0.00808218592934
-0.00554472022852
-0.00568473990736
-0.00621912263123
-0.006437884145
-0.0065338824328
-0.00656793799364
-0.0063603876626
-0.00647219023891
-0.00724446309721
-0.00630566904427
-0.00698546484485
-0.00698264142379
-0.00343469814056
0.0099829043623
-0.0341387187479
-0.00355482936169
-0.0055191260089
-0.00567062866022
-0.00620430868166
-0.00642001001553
-0.00650924323143
-0.00652120374202
-0.00626070923042
-0.00617249029939
-0.0063331673031
-0.00603473237462
-0.0065569204324
-0.00682234389638
-0.0047071743372
0.0126186315623
0.0675632202599
0.0457590402181
-0.00551913909531
-0.00567064598259
-0.00620432322673
-0.00642001731777
-0.00650923915446
-0.0065211793104
-0.00626065925008
-0.00617249892113
-0.00633318710664
-0.006034881642
-0.00655727134076
-0.00682273436125
-0.00470743959829
0.0126186730279
0.0675676985783
0.0457186181742
-0.00554476051801
-0.00568478146269
-0.00621915714433
-0.00643790459921
-0.00653387508418
-0.00656789197105
-0.00636030700746
-0.00647220155118
-0.00724477897257
-0.00630619998104
-0.00698641769196
-0.00698382019502
-0.00343702953767
0.00997545224623
-0.0341756609865
-0.00367259050921
-0.00558766047304
-0.00570727643639
-0.00624603841122
-0.00647287614974
-0.00658358580768
-0.00665745521796
-0.00668421369925
-0.00652245228101
-0.00767126411736
-0.00734264674983
-0.00739805374652
-0.0073839396935
-0.00686542794552
-0.00714914274358
-0.00734416369757
-0.00676955773099
-0.000204755080243
-0.00597092758194
-0.076446582969
-0.00816600625278
-0.00564040889359
-0.0057442009566
-0.00628800726797
-0.00652057343805
-0.00663693377574
-0.00671946580997
-0.00678284832426
-0.00678603597678
-0.00691359550118
-0.00700023088916
-0.00704711225924
-0.00716917006181
-0.00767054506826
-0.00768497432547
-0.007800025372
-0.00751247116938
0.000409904242497
0.0816277602292
0.0804998196358
0.0807747676386
-0.00569886968158
-0.00579274943159
-0.00634079280024
-0.00657680996527
-0.00669477583394
-0.00677622186304
-0.00685390955709
-0.00693683419462
-0.00705710140198
-0.00716335775908
-0.00727370679039
-0.0074026019531
-0.00761590169834
-0.00775493421907
-0.00783980536472
-0.00772590363094
-0.00475195163569
0.0198457752342
0.07852639059
0.00664971079836
-0.00575883779204
-0.00584926510838
-0.00640041226426
-0.00663708526795
-0.00675363775689
-0.00683032773474
-0.00690117050219
-0.00698021486819
-0.00707865312076
-0.00718622082281
-0.00729732697436
-0.00741508865046
-0.00755459204547
-0.00768141273918
-0.0077134423725
-0.00711087150445
-0.000130673706885
0.0363806374151
0.0345895101973
-0.0180698344841
-0.0058171321569
-0.0059092968463
-0.00646236461937
-0.00669708719929
-0.00681006210374
-0.00688167241784
-0.00694503923793
-0.0070134573684
-0.0070943657853
-0.0071860897829
-0.00728420508009
-0.00738749872429
-0.00749720933107
-0.00759376271674
-0.00752473701994
-0.00629707772184
0.00127757028487
0.0201315449329
0.00491705363923
-0.0386697384892
-0.00587172591412
-0.00596913964796
-0.00652291794626
-0.00675359234544
-0.00686130945683
-0.0069272480725
-0.0069838264401
-0.00704346511645
-0.00711164687671
-0.00718829530143
-0.00727083493965
-0.00735707079788
-0.00744155007399
-0.00749853025075
-0.0072814387353
-0.00541019960658
0.00375659313947
0.0219279361237
-0.0390038892857
-0.0928058394832
-0.00592121522791
-0.00602614754324
-0.00657945520774
-0.00680441559513
-0.00690574307506
-0.00696551771624
-0.00701550611092
-0.00706733866249
-0.0071250004041
-0.0071885146819
-0.00725630260548
-0.00732490234856
-0.00738435374592
-0.00738195468515
-0.00690435055664
-0.00379538347137
0.0106837058503
0.043276982544
-0.113678645768
-0.213795852741
-0.00596483197759
-0.00607864404143
-0.0066303372577
-0.00684842226609
-0.00694275380635
-0.00699630747664
-0.00704001489932
-0.00708462164291
-0.00713333547854
-0.00718587484715
-0.00724033120335
-0.00729190847952
-0.00732182442116
-0.00719406375566
-0.00596665651646
0.000833869901528
0.0251901912246
0.0592392149754
-0.0632461092327
-0.104935178629
-0.00600220183324
-0.00612575083015
-0.00667468987378
-0.00688517686147
-0.00697222903659
-0.0070197036616
-0.00705774882869
-0.00709608561385
-0.00713724667745
-0.00718066264975
-0.00722360185328
-0.00725786127012
-0.00724514826861
-0.00682702787374
-0.00311567464141
0.0188721782114
0.0937307502658
0.223324752074
0.425142044939
0.00238365286185
-0.0060341745805
-0.00616722872683
-0.00671230259048
-0.00691461662919
-0.00699445576505
-0.00703624315837
-0.00706917896805
-0.00710223417944
-0.00713736958113
-0.00717406997339
-0.00721017395992
-0.00723972854977
-0.0072398093336
-0.00705016751799
-0.00563767759509
0.00272583964358
0.038069537716
0.1137532873
0.0728536856755
-0.115011080701
-0.00606067358697
-0.00620290577293
-0.00674317368683
-0.00693705505713
-0.00701002396272
-0.00704667554327
-0.0070751663819
-0.00710378761922
-0.00713409030052
-0.00716557444312
-0.00719658188221
-0.0072207294945
-0.00721060136744
-0.0069986150196
-0.00572557088059
0.000576004843045
0.028246252395
0.0991981820484
-0.109421057937
-0.219195707279
-0.006082314221
-0.00623290213474
-0.00676752386299
-0.00695301041559
-0.00701949792089
-0.00705160009734
-0.00707637204043
-0.00710122374776
-0.0071275968549
-0.00715494906682
-0.00718161534484
-0.00719876762806
-0.00715622084112
-0.0067548940025
-0.00489874082855
0.00033093615024
0.00900045762947
0.0234261655833
-0.067793092998
-0.168881019706
-0.00609948960084
-0.00625760254142
-0.0067860257679
-0.00696326426064
-0.0070238099267
-0.00705195482788
-0.00707356079878
-0.00709533253433
-0.0071182447644
-0.00714183008562
-0.00716345596839
-0.00716898780898
-0.00706536764993
-0.00635329159014
-0.00400021587688
-0.00343572926553
-0.0263065596646
-0.0799239198249
-0.0156735469896
0.351822951121
-0.00611309304415
-0.0062773719251
-0.00679906546511
-0.00696837576289
-0.00702354386498
-0.00704827006876
-0.00706729115174
-0.00708661248051
-0.00710706311314
-0.00712804362903
-0.00714744449192
-0.00715674385438
-0.00710828906257
-0.00671300351811
-0.00469861769286
0.00206057227054
0.012210631066
-0.00144328753008
-0.0286636157528
-0.508095856165
-0.00612345863002
-0.00629255703821
-0.00680721947818
-0.00696898116177
-0.0070193605934
-0.00704124740785
-0.00705817680101
-0.00707552631962
-0.00709402548255
-0.0071130783791
-0.00713082300444
-0.00714081626645
-0.00711359929396
-0.00689960176524
-0.00578182010548
-0.00116039034609
0.0109988308695
0.0200699725624
-0.0906955430263
-0.698653098058
-0.00613117837938
-0.00630356011068
-0.00681103440075
-0.00696572942748
-0.00701190175897
-0.00703142762779
-0.0070467018829
-0.00706254927367
-0.0070795954665
-0.00709733635136
-0.00711391860913
-0.00712384535159
-0.00710798099066
-0.00699055485979
-0.00642850473204
-0.00388393521634
0.00602471736516
0.0333559734887
0.0325097074667
0.0320668493408
-0.00613649474535
-0.00631082434012
-0.00681102921874
-0.00695919568281
-0.00700171855924
-0.00701932690499
-0.00703333842204
-0.00704811591475
-0.00706411539354
-0.00708087313666
-0.00709684385555
-0.00710765853257
-0.00710125387812
-0.0070453298997
-0.00682413434388
-0.00583175647408
-0.000743520539957
0.0193451034475
0.0794338556591
0.0587215044942
-0.00613992774751
-0.0063147147687
-0.00680769621648
-0.0069499178903
-0.00698931291597
-0.00700539325279
-0.00701844407243
-0.00703242366096
-0.00704772098365
-0.00706386963516
-0.00707965213648
-0.00709181507753
-0.0070938877995
-0.00707832819763
-0.00704022901062
-0.0069134798117
-0.00575299203686
0.00238869994762
0.0375396376777
0.0363863703331
-0.00614149427872
-0.0063156156096
-0.0068014789717
-0.00693832699682
-0.00697507656739
-0.00698996646456
-0.00700232921561
-0.00701578136135
-0.00703066558627
-0.00704659622923
-0.0070625782147
-0.00707656818559
-0.00708756012391
-0.00710725130236
-0.0071960057504
-0.00757786070157
-0.00892181015448
-0.0112788128307
-0.00857430490311
-0.00909978461423
-0.00614175848138
-0.00631373918803
-0.0067927561752
-0.00692480948052
-0.00695936826473
-0.00697336832569
-0.00698528688793
-0.00699843485101
-0.00701313312199
-0.00702908644981
-0.00704561965181
-0.00706205838345
-0.00708295973114
-0.00713798077722
-0.00733604130348
-0.00805894697041
-0.0109632130492
-0.0232997806024
-0.0660280523497
-0.274138655685
-0.0061408419409
-0.00630951110369
-0.00678178900331
-0.00690965425088
-0.00694245674704
-0.00695582417587
-0.00696748057626
-0.00698050672567
-0.00699521498628
-0.0070114059345
-0.00702877248885
-0.00704816157075
-0.0070797558877
-0.0071699204262
-0.00746730706311
-0.00846278648929
-0.0125374691254
-0.0301273309238
-0.0843204912328
-0.225945136756
-0.00614003762986
-0.00630304553969
-0.00676880708187
-0.00689310467425
-0.00692456377047
-0.00693751985196
-0.00694906882955
-0.00696213228151
-0.00697700347783
-0.00699359530041
-0.00701201418807
-0.00703478903292
-0.00707795192815
-0.00720445669354
-0.00760632661594
-0.00889913475347
-0.013963867258
-0.0346428192251
-0.0843903435578
-0.211332553338
-0.0061390351276
-0.00629454065322
-0.00675412733675
-0.00687544940324
-0.00690591974129
-0.00691864690793
-0.00693020020959
-0.00694337382439
-0.00695849092425
-0.0069756036425
-0.00699525062729
-0.00702171166869
-0.00707668364309
-0.00723898271522
-0.00773714506356
-0.00926772608606
-0.0148341036253
-0.0365612222531
-0.0921403496965
-0.0667651972279
-0.00613560043373
-0.00628415565122
-0.00673830312146
-0.00685700346376
-0.00688664324905
-0.00689921797115
-0.00691083822664
-0.00692417547884
-0.00693958152617
-0.00695725629594
-0.00697818872429
-0.00700837437446
-0.00707472192002
-0.00726899534339
-0.00784070512823
-0.00948117246687
-0.0150208036513
-0.0369424057906
-0.0916177290247
-0.0608036340119
-0.00613046377748
-0.00627281926943
-0.00672190095806
-0.00683814394706
-0.00686701016957
-0.00687945506706
-0.00689114288784
-0.00690467976863
-0.00692043735132
-0.00693866969266
-0.00696086200472
-0.00699459678882
-0.00707137486352
-0.00729288857228
-0.00791547938351
-0.00954546422532
-0.0145903658992
-0.0347022141494
-0.0892595479472
-0.0622170379027
-0.00612422847506
-0.0062605187955
-0.00670490332128
-0.00681878930242
-0.00684695060758
-0.00685930968563
-0.00687110858993
-0.00688481619667
-0.0069008446524
-0.00691958123414
-0.00694295759919
-0.00698002222773
-0.0070662408374
-0.00731115443992
-0.00797138434524
-0.00954207973297
-0.0138001750506
-0.0308322692378
-0.0819594067536
-0.059578776748
-0.00611295710636
-0.00624963327315
-0.00668800127204
-0.00679905473969
-0.00682656027497
-0.00683882784796
-0.00685072886296
-0.00686464662421
-0.00688088686467
-0.00689999961889
-0.00692441265634
-0.0069645781886
-0.00705971031534
-0.00732586784143
-0.0080199179563
-0.00954237893928
-0.0129754479975
-0.0263563780663
-0.0714721196295
-0.0540828891874
-0.00609650771498
-0.00623908399065
-0.0066722887257
-0.00678009133937
-0.0068062377281
-0.00681818766308
-0.00683009424441
-0.00684411192699
-0.00686056639907
-0.00688009131842
-0.00690532373515
-0.0069485015219
-0.00705242708572
-0.00734009639125
-0.00807389569782
-0.00959044025619
-0.0123625168125
-0.0220721212952
-0.0591349284517
-0.0465614852423
-0.00607984436856
-0.0062277699673
-0.00665591073465
-0.00676094743928
-0.00678578036111
-0.00679734285844
-0.00680921791768
-0.00682327163352
-0.00683975166786
-0.00685936917688
-0.00688537456022
-0.00693197687161
-0.00704636738368
-0.00735647085385
-0.00814165055166
-0.00972850561442
-0.0121742875339
-0.0185631071057
-0.0462549624286
-0.0369012000005
-0.00606289958899
-0.00621576077412
-0.00663939332453
-0.00674165170516
-0.00676520620159
-0.00677638575413
-0.00678821755912
-0.00680226631232
-0.00681871868195
-0.00683825268794
-0.0068645492415
-0.00691286993267
-0.00703741525817
-0.00738419206385
-0.00823103362269
-0.00999030399773
-0.0126391934732
-0.0172750303096
-0.0343080271521
-0.0157498931962
-0.0060464877234
-0.00620294923715
-0.00662264912889
-0.00672222323745
-0.00674458816635
-0.00675542399814
-0.00676717428272
-0.00678118498247
-0.00679752406392
-0.00681694910731
-0.0068432917916
-0.00689314453198
-0.00702417617682
-0.00740468166563
-0.00836218795352
-0.0103538244726
-0.013539332021
-0.0159306039941
-0.00578290052505
-0.322466482213
-0.0060300136164
-0.00618994261442
-0.00660584280258
-0.00670283214673
-0.00672406384985
-0.00673457627416
-0.00674626428867
-0.00676022440515
-0.00677645237281
-0.00679563526618
-0.00682213570052