/*--------------------------------*- C++ -*----------------------------------*\
| =========                 |                                                 |
| \\      /  F ield         | OpenFOAM: The Open Source CFD Toolbox           |
|  \\    /   O peration     | Version:  v2012                                 |
|   \\  /    A nd           | Website:  www.openfoam.com                      |
|    \\/     M anipulation  |                                                 |
\*---------------------------------------------------------------------------*/
FoamFile
{
    version     2.0;
    format      ascii;
    class       volScalarField;
    location    "2";
    object      nut;
}
// * * * * * * * * * * * * * * * * * * * * * * * * * * * * * * * * * * * * * //

dimensions      [0 2 -1 0 0 0 0];


internalField   nonuniform List<scalar> 
1984
(
0.000514687525221
0.000622460100279
0.000635120177095
0.000639567588698
0.000641770961588
0.000643446600448
0.000645041105803
0.000646663899509
0.000648355680074
0.000650188452212
0.000652413394885
0.000655865789381
0.000662888385929
0.000678662572997
0.000711158416449
0.000769595795423
0.000859447322865
0.000988648356231
0.00118237681552
0.00179631031531
0.000623794415381
0.000918069258157
0.000941602003532
0.000949453439742
0.000952758956778
0.000954889287775
0.000956777902698
0.000958663759534
0.000960631736915
0.000962825802114
0.000965727588087
0.000970835812057
0.000982054226767
0.00100733833691
0.00105776051648
0.00114231371196
0.00126039650786
0.00141966409
0.0017121706521
0.0029087525262
0.00063734739992
0.000943278504978
0.000969051731356
0.000977547054694
0.000980937400035
0.000982997125688
0.000984787797666
0.000986579251755
0.000988463988756
0.000990594333895
0.000993480083777
0.000998676281194
0.00101015091845
0.00103585288115
0.00108673098383
0.00117177650965
0.00129011898693
0.00144955152722
0.00175274222464
0.00287232414308
0.000642401452824
0.000952515105862
0.000979142174613
0.000987834773073
0.000991190673139
0.000993162766261
0.000994869244543
0.000996592077273
0.000998422237037
0.00100051088706
0.00100336053074
0.00100850559788
0.00101984670112
0.00104520773871
0.00109551887984
0.00118023722528
0.00129941326581
0.00146106996128
0.00176167231844
0.00265947707626
0.000644747024666
0.000956465055968
0.000983362963519
0.000992060604913
0.000995330699223
0.000997203107407
0.000998821276875
0.00100047139681
0.00100224275205
0.00100427926249
0.00100706949077
0.00101210717237
0.00102320678022
0.00104808043658
0.00109768188869
0.00118184034168
0.0013015165271
0.00146548277595
0.00177309329206
0.00289279040773
0.000646245151561
0.000958716000289
0.000985648410098
0.000994275099922
0.000997441442448
0.000999210151001
0.00100073536964
0.0010023054076
0.00100400754591
0.00100597936528
0.00100869023451
0.0010135892714
0.00102440072618
0.0010487347322
0.00109759691268
0.00118113141096
0.0013011329955
0.00146684775138
0.00175153765511
0.0023811051004
0.000647471084947
0.000960435904326
0.00098732119521
0.000995855693076
0.000998917752964
0.00100058650108
0.00100202016272
0.00100350778142
0.00100513516774
0.00100703366623
0.00100965306712
0.00101439411849
0.00102488890994
0.0010486443312
0.00109672102361
0.00117957907347
0.00129983397857
0.00146785451503
0.00175545988511
0.00231246474817
0.000648594366973
0.000961983290126
0.000988803609445
0.000997246200543
0.00100021170995
0.00100178767212
0.00100313505758
0.00100454219127
0.00100609399087
0.0010079158964
0.00101043737397
0.00101500814126
0.00102516259602
0.00104829948224
0.00109554157342
0.00117765926544
0.00129813512018
0.00146873901424
0.00176078129975
0.00231327748158
0.000649660719567
0.000963465793962
0.000990217457538
0.000998575644143
0.0010014540951
0.00100294635197
0.00100421390387
0.00100554511257
0.00100702360319
0.00100876895238
0.00101118988656
0.00101558251174
0.00102537723355
0.00104785483127
0.00109419508986
0.00117548312343
0.00129615451302
0.00146923349356
0.00176231172688
0.00239356080528
0.000650679278601
0.00096490593309
0.000991593356257
0.000999872526466
0.0010026738672
0.00100409168709
0.00100528678849
0.00100654772012
0.00100795681402
0.00100962692664
0.00101194698729
0.00101615632064
0.0010255750754
0.00104735398663
0.00109272162205
0.00117308869722
0.0012939087966
0.00146901262006
0.00176501413051
0.0027513103204
0.000651650097622
0.000966303063882
0.000992932461019
0.00100113994116
0.00100387168303
0.00100522310441
0.00100635330204
0.00100755000074
0.00100889437322
0.00101049245394
0.00101271198382
0.00101673471606
0.00102576526794
0.00104681091893
0.00109113909011
0.00117049671186
0.00129146118061
0.00146954377768
0.00178202790924
0.00290342797523
0.00065257179861
0.000967653944766
0.000994230006095
0.00100237218459
0.00100504169756
0.00100633403207
0.00100740619504
0.00100854453655
0.0010098278451
0.00101135735586
0.0010134790513
0.00101731460349
0.00102594694588
0.00104622956383
0.0010894540922
0.00116771332757
0.00128876727269
0.00147117596191
0.00182086056974
0.00291766727568
0.000653442959082
0.000968952063854
0.000995481382528
0.00100356404546
0.00100617732953
0.0010074167874
0.00100843657325
0.00100952155577
0.00101074840874
0.00101221303826
0.00101423998048
0.00101789091866
0.00102612435228
0.00104562502786
0.0010876839827
0.00116473207724
0.00128545436779
0.00147082098564
0.00184395485153
0.00294765170103
0.000654262353334
0.000970194146457
0.000996680097568
0.00100470957459
0.00100727298916
0.00100846532919
0.00100943807368
0.00101047416406
0.00101164969989
0.00101305338899
0.0010149886479
0.00101846069711
0.00102630428574
0.00104503836893
0.0010859360513
0.00116165936278
0.00128144634677
0.00147014937259
0.00187724031302
0.00298951496887
0.000655029578461
0.000971374817587
0.000997819350944
0.00100580409458
0.00100832404724
0.00100947522159
0.0010104061534
0.00101139861215
0.00101252676015
0.00101387333925
0.00101572240573
0.00101902785621
0.00102651280737
0.00104455955999
0.00108445098944
0.00115898371123
0.00127732230385
0.00146955726326
0.00191334725913
0.00297783124951
0.000655746472025
0.000972485451627
0.000998898966621
0.00100684494804
0.00100932746971
0.00101044319855
0.00101133756409
0.00101229055126
0.00101337492359
0.0010146686098
0.0010164398127
0.00101959849644
0.00102678857798
0.00104433231452
0.00108368406825
0.00115804698853
0.00127578497348
0.00145722772244
0.00180468224691
0.00246225291733
0.000656416946916
0.000973527500044
0.000999915513334
0.00100783057619
0.00101028204588
0.00101136715944
0.00101222952198
0.00101314759901
0.00101419194922
0.00101543803848
0.00101713855745
0.00102017101738
0.00102712962239
0.00104434793547
0.00108365811607
0.00115969047103
0.0012832067658
0.00146649277109
0.00173238842685
0.0020548245681
0.000657042119041
0.000974494065247
0.00100086743498
0.00100875940809
0.00101118630927
0.00101224575082
0.00101308018875
0.00101396735445
0.00101497707862
0.00101617939901
0.00101781440534
0.00102072261581
0.00102742661409
0.00104417565997
0.00108302100684
0.00116100044042
0.00129861992215
0.00153178598364
0.00192120961619
0.00247394355114
0.000657614762967
0.000975378275931
0.00100174940577
0.00100962833007
0.00101203866701
0.0010130775917
0.00101388941454
0.00101475096894
0.00101573072261
0.00101689376555
0.001018465755
0.00102124433745
0.00102764335035
0.00104369958212
0.00108141792736
0.00116031409629
0.00131463145747
0.00161191048058
0.00212983676389
0.00302747404538
0.000658138592124
0.000976187811925
0.00100256238958
0.00101043876875
0.0010128385157
0.00101386373438
0.00101465852284
0.00101549990129
0.00101645503596
0.00101758440186
0.00101909756279
0.00102174601022
0.00102782075987
0.00104312328763
0.0010795832853
0.00115863192869
0.001323749342
0.00165221733517
0.00219415534476
0.0030669287419
0.000658610357633
0.000976921057601
0.00100331154717
0.00101119319808
0.00101358856446
0.0010146046272
0.00101538788401
0.00101621523764
0.00101715266797
0.00101825445108
0.00101971565575
0.00102223760488
0.00102798614006
0.00104254074389
0.0010778304867
0.00115700734877
0.00132875199095
0.00166974654647
0.00221156290661
0.00306887469751
0.000659024766871
0.000977577483652
0.00100399335193
0.00101188867795
0.00101428711834
0.00101530060872
0.001016078246
0.00101689689079
0.00101782235261
0.00101890485281
0.00102032298232
0.00102272600247
0.00102815368663
0.00104196710141
0.00107609080206
0.00115511301153
0.00133055707426
0.00167591518809
0.00221197183968
0.0030651094943
0.000659377046261
0.000978152581745
0.00100460722624
0.00101252467281
0.00101493374686
0.0010159503352
0.00101672742098
0.00101754396112
0.0010184654661
0.00101953839424
0.00102092239728
0.00102321561155
0.00102832558189
0.00104139336498
0.00107430900505
0.00115269311968
0.00132970954142
0.00167341983805
0.00220233668602
0.0030598161863
0.000659677901546
0.000978642503778
0.00100514929267
0.00101310082787
0.00101552725175
0.00101655235497
0.00101733530507
0.00101815851074
0.00101908442995
0.0010201553779
0.00102151580007
0.00102371146825
0.0010285126625
0.00104081063694
0.00107242208608
0.00114962235504
0.00132603843138
0.00166504929485
0.00218577597452
0.00305129550962
0.000659910878994
0.000979041783556
0.00100561885356
0.00101361504099
0.00101606555042
0.00101710541422
0.00101790109971
0.00101873678624
0.00101967568659
0.00102075538813
0.00102210462812
0.0010242160604
0.00102872377437
0.00104026831616
0.00107040117107
0.00114578983483
0.0013193482801
0.00164955618767
0.00215747505243
0.00290830731923
0.00066006172955
0.000979351307483
0.00100601085613
0.0010140621575
0.00101654422882
0.00101760508552
0.00101841985761
0.00101927604225
0.00102023780574
0.00102133708436
0.00102268738137
0.00102472952879
0.00102896257666
0.00103976531648
0.00106842409232
0.00114130141329
0.00131000809617
0.00162519378727
0.00210391583981
0.0028549522295
0.000660140110817
0.000979558156048
0.00100631315699
0.0010144332921
0.0010169569014
0.00101804652454
0.00101888813182
0.00101977337261
0.001020766634
0.00102189722396
0.00102326332644
0.00102525619444
0.00102924342607
0.00103934283635
0.0010665801101
0.00113732172506
0.00130088080389
0.00159484789006
0.00197997970672
0.00237979749811
0.000660171833189
0.000979660791515
0.0010065155368
0.00101471988061
0.00101729724168
0.00101842434644
0.00101930018496
0.00102022254274
0.00102125756932
0.00102243196546
0.00102382987878
0.00102579710359
0.00102957692159
0.00103904740364
0.00106497069905
0.00113412240618
0.00129758630879
0.00159549504115
0.00199374502569
0.00232978731069
0.000660145785295
0.000979648520849
0.00100660864265
0.00101491320045
0.00101755755416
0.00101873156438
0.00101964969927
0.0010206179916
0.00102170505651
0.0010229359531
0.00102438271822
0.00102635009467
0.00102996278557
0.00103884497823
0.00106341684427
0.00113060790251
0.00129532119395
0.00161694537499
0.00209630743835
0.00253132422074
0.000660026585399
0.000979508133776
0.00100658215271
0.00101500450938
0.00101773031094
0.00101896161765
0.00101993082806
0.00102095368877
0.00102210237342
0.00102340204607
0.00102491499961
0.00102690790492
0.00103039055562
0.00103872145682
0.00106188252058
0.00112668377741
0.001293305856
0.00165595504245
0.00228124658988
0.00308708542092
0.000659838201389
0.000979228717271
0.00100642686339
0.0010149843552
0.00101780592346
0.00101910479415
0.00102013340374
0.0010212192752
0.00102243994897
0.00102382158419
0.00102541848093
0.00102746209147
0.00103085762197
0.00103870774653
0.00106057103377
0.00112346603887
0.00129463743126
0.00169118281146
0.00237796582264
0.00314209451913
0.000659548704392
0.000978803360844
0.00100613135334
0.00101484148358
0.00101777367743
0.00101915100242
0.00102024756645
0.00102140509743
0.0010227078377
0.00102418312869
0.0010258782728
0.00102799785878
0.00103135207677
0.0010388210306
0.00105978324835
0.00112286823619
0.00130593088253
0.00173672704143
0.00242240225159
0.00315933826144
0.000659158191635
0.000978215129742
0.00100568333659
0.00101456385676
0.00101762204044
0.0010190888473
0.00102026246357
0.0010215008162
0.00102289537014
0.0010244740778
0.00102628360981
0.00102850885522
0.00103189465547
0.00103928410358
0.00106097522961
0.00113086669911
0.00133522035026
0.001776666241
0.00239436377731
0.00313742154781
0.000658651734093
0.000977453506472
0.00100506873785
0.00101413761784
0.00101733818035
0.00101890685985
0.00102016734219
0.00102149524348
0.00102298859029
0.00102468198895
0.00102662247517
0.0010289795779
0.00103249046468
0.00104039196888
0.00106611669158
0.00115376954098
0.0013814845042
0.00176307701926
0.00221129991578
0.0027732833875
0.000658022799582
0.00097650172882
0.00100427426393
0.00101354958032
0.00101690933799
0.00101859265786
0.00101994989126
0.00102137475977
0.0010229762227
0.00102479390877
0.00102687052559
0.00102937529324
0.00103312091625
0.0010421933974
0.00107477642544
0.00118358767959
0.00142835997329
0.00179117745011
0.00228463246024
0.00258336799185
0.000657263344682
0.00097535118925
0.00100328594644
0.0010127849596
0.00101632227114
0.00101813416472
0.00101959849889
0.00102113003305
0.00102284733351
0.00102479461981
0.00102702279099
0.00102974772513
0.0010342464108
0.00104779805334
0.00109993421974
0.00124858341158
0.00150895356328
0.00187230207377
0.00247820205085
0.00314774173178
0.000656347768945
0.000973986459728
0.001002090709
0.00101182992113
0.00101556057019
0.00101751646441
0.00101910085484
0.00102074863934
0.0010225878192
0.00102466271994
0.00102700837486
0.00102976175997
0.00103368271093
0.00104288125137
0.00107628615525
0.00118816826056
0.00145619538282
0.00193572900044
0.0025428765013
0.00314902212418
0.000655293559259
0.000972396963892
0.00100067511408
0.00101066831157
0.00101461093427
0.00101672747199
0.00101844668248
0.00102022273718
0.00102219598454
0.00102441122568
0.00102689504406
0.00102973746595
0.00103336649049
0.00103996663521
0.00106084856151
0.00114246929872
0.00141668272843
0.00198046541162
0.00260497122865
0.00318791889486
0.000654073616815
0.000970581604299
0.000999031779974
0.00100929008199
0.0010134598198
0.00101575394008
0.00101762189828
0.00101954230793
0.00102166547853
0.00102403565647
0.00102667833015
0.0010296617565
0.00103329743692
0.00103938450722
0.00105908225543
0.00114558831375
0.00143775856496
0.00199274764534
0.00266525029127
0.00321439167884
0.000652689857373
0.000968536552179
0.000997157957235
0.00100768448072
0.00101209447251
0.00101458057149
0.00101661497316
0.00101869814255
0.00102098813808
0.00102353379902
0.00102635601996
0.00102952358725
0.00103343619781
0.00104127969654
0.00107781330214
0.00125083777465
0.00168436100519
0.00225515077529
0.00281258189515
0.00326755421533
0.000651130261927
0.000966264107566
0.000995050821238
0.00100584888822
0.00101050553081
0.00101319774771
0.00101541794567
0.00101768268376
0.00102016076287
0.001022899958
0.00102590704542
0.00102919957482
0.0010329744921
0.00103856375054
0.00105582860118
0.00113215362483
0.00138498914304
0.00187577120167
0.00248569966736
0.00316891594954
0.000649418708213
0.000963788915771
0.000992731393835
0.00100378752697
0.00100869144901
0.00101160014729
0.00101401996805
0.00101648663203
0.00101918070611
0.00102214924767
0.0010253788423
0.00102885533744
0.00103267326843
0.00103743644031
0.00104801632665
0.00109158150102
0.00127583640655
0.00176983280146
0.00250286381242
0.00319080830325
0.000647564600951
0.000961146339622
0.000990230560159
0.00100152338802
0.00100666170992
0.0010097842005
0.00101241725514
0.00101511106715
0.00101805547848
0.00102129492865
0.00102480227522
0.00102853371231
0.0010325193143
0.00103713242479
0.00104540264474
0.00107759905606
0.00123698216593
0.00174307449529
0.0025454844177
0.00323085991777
0.000645599353219
0.00095840219393
0.000987608240686
0.000999101005705
0.00100444073414
0.00100776065066
0.00101060302831
0.00101352640317
0.00101674739751
0.0010203057045
0.00102414827439
0.00102819786427
0.00103241843959
0.00103714381848
0.00104430986016
0.00106922414878
0.00121137985537
0.00172876186239
0.00259853810314
0.00328417438582
0.000643575949691
0.000955656109226
0.000984958821108
0.000996592141265
0.0010020710295
0.00100552507306
0.00100849168304
0.00101152019219
0.00101492087831
0.00101880351302
0.00102304344439
0.00102750569857
0.00103201987685
0.00103707288388
0.0010437856802
0.00106175675237
0.00117377450387
0.00167251518505
0.00267845347699
0.00335104774232
0.000641575548689
0.000953049074835
0.000982414937072
0.000994097008892
0.000999594680497
0.00100297110089
0.00100559900555
0.00100787755687
0.00101057525383
0.00101456300698
0.00101927159884
0.00102442871619
0.00102950527008
0.00103579800452
0.00104306981081
0.00105702174942
0.00113271831383
0.00156489531521
0.00271217120194
0.00343161565762
0.000639695791375
0.000950738633081
0.000980126027949
0.000991739116362
0.000997021636521
0.000999689704872
0.00100024871181
0.000997720903166
0.000993771882259
0.00099699949107
0.00100267393989
0.00100960558511
0.00101639226319
0.00102891498703
0.00103919368453
0.00105487715353
0.00115513067338
0.00170925664495
0.00254318490445
0.00334753440671
0.000638029756362
0.000948865628096
0.00097823274618
0.000989620949165
0.000994274759404
0.000994860501624
0.000988259104728
0.000965066810253
0.00068983174301
0.000685496009158
0.000690471395896
0.000702885727439
0.000975158416967
0.00100888896027
0.00102876733005
0.00105293649642
0.00118628832062
0.00172911539012
0.00270135986614
0.00347366032657
0.000636722391658
0.000947566665593
0.000976885857075
0.00098789790353
0.000991527354502
0.00098887821963
0.000971884973909
0.000673163710142
0.000691283704714
0.00098889009561
0.00101797986575
0.0010418966603
0.0011370136357
0.00162408145575
0.00272456658481
0.00351658367544
0.000635851212338
0.000946818587176
0.000976175355297
0.000987018583378
0.000990049124251
0.000985456356182
0.000962371230596
0.000654224001992
0.000694492317508
0.000992888268909
0.00101522412869
0.00103434434377
0.00109981075991
0.00146082814608
0.00250178839005
0.00335183803784
0.000635851414121
0.000946818878522
0.00097617560813
0.000987018776956
0.000990049229907
0.00098545638756
0.000962371294013
0.000654224582546
0.000694495452874
0.000992896818576
0.00101523730936
0.00103435920985
0.0010998240312
0.00146083015885
0.00250179865218
0.00335183355112
0.00063672290836
0.000947567472291
0.000976886570635
0.000987898465517
0.000991527719638
0.000988878438197
0.000971885438182
0.000673164654214
0.000691290418212
0.000988907673197
0.00101800604829
0.0010419275001
0.00113703690232
0.00162407817099
0.00272459863986
0.00351660304323
0.000638030765429
0.000948867126001
0.000978234144938
0.000989622165046
0.000994275712891
0.000994861197836
0.000988259743033
0.000965067455332
0.000689831964154
0.000685496589249
0.000690472520793
0.000702887599456
0.000975163831004
0.00100890012028
0.00102878817614
0.00105296532877
0.00118629453586
0.00172905767903
0.00270135801137
0.00347368678701
0.000639696651318
0.000950739937477
0.000980127207783
0.000991740145719
0.000997022508045
0.000999690449771
0.00100024948635
0.000997722051419
0.000993773349572
0.000997001779117
0.00100267765537
0.00100961135642
0.00101640066069
0.001028929292
0.00103921471286
0.00105490771724
0.00115515169958
0.0017092499984
0.0025432066953
0.00334754623879
0.000641576287313
0.000953050261758
0.000982416206448
0.000994098244933
0.000999595835891
0.00100297225578
0.00100560028505
0.00100787914647
0.00101057744586
0.00101456618554
0.001019276119
0.00102443461247
0.00102951363756
0.00103581191151
0.00104309017038
0.00105705087733
0.00113274421036
0.00156491176973
0.00271220501359
0.00343161400951
0.00064357649903
0.000955657144684
0.000984960192882
0.000996593531316
0.00100207227868
0.00100552646204
0.00100849339856
0.00101152237879
0.00101492376714
0.00101880738734
0.0010230486728
0.0010275122227
0.00103202849739
0.00103708678221
0.00104380571025
0.00106178395113
0.00117380022619
0.00167254500072
0.00267847486148
0.00335104450122
0.000645600023158
0.000958403721702
0.000987610152926
0.000999102708259
0.00100444207794
0.00100776215819
0.00101060502025
0.001013529011
0.00101675082218
0.00102031012095
0.00102415398558
0.00102820491269
0.00103242773778
0.00103715845002
0.00104433027364
0.00106924974597
0.00121140178541
0.00172878156927
0.00259855366908
0.00328417158633
0.000647566263525
0.000961149113405
0.00099023331767
0.00100152613325
0.00100666348601
0.00100978632037
0.00101241978049
0.00101511418052
0.00101805955061
0.00102129992664
0.00102480857105
0.00102854148808
0.00103252971161
0.00103714829581
0.00104542372923
0.00107762232503
0.00123700138431
0.00174309392601
0.00254550542062
0.00323086121764
0.00064942131698
0.000963793160239
0.000992735889393
0.00100379158952
0.00100869554438
0.00101160380111
0.00101402388526
0.00101649102825
0.00101918654694
0.00102215598042
0.00102538726806
0.00102886536258
0.00103268628589
0.00103745489406
0.0010480392598
0.0010916022419
0.00127584398706
0.00176984121152
0.00250289499543
0.00319081932306
0.000651133692526
0.000966269785692
0.000995056644445
0.00100585469096
0.00101051108204
0.00101320348706
0.0010154237448
0.00101768916806
0.00102016798486
0.00102290853606
0.00102591699872
0.00102921091254
0.00103298858356
0.00103858222812
0.00105584450591
0.00113215081159
0.00138495590952
0.00187576210472
0.00248565854691
0.00316889324224
0.000652694054932
0.000968543453992
0.000997165078156
0.00100769157007
0.00101210155985
0.00101458777871
0.00101662261209
0.00101870657692
0.00102099784978
0.00102354400995
0.00102636824798
0.00102953685872
0.0010334525335
0.00104130070329
0.0010778345467
0.00125084380013
0.00168433458281
0.00225510402454
0.00281256245188
0.00326755160016
0.000654078687641
0.000970589774371
0.00099904016106
0.00100929849364
0.00101346831129
0.00101576262525
0.00101763100053
0.001019552406
0.00102167687245
0.00102404758023
0.00102669167228
0.00102967660104
0.00103331525833
0.00103940823032
0.00105911466838
0.00114563613169
0.00143782840761
0.00199273973538
0.0026651990789
0.00321436615855
0.000655299106081
0.000972405936467
0.00100068439304
0.00101067770751
0.00101462050471
0.00101673730199
0.00101845696613
0.00102023407191
0.00102220861322
0.00102442434438
0.00102690977664
0.00102975387215
0.0010333855447
0.00103998996176
0.0010608753182
0.00114250130757
0.00141672483949
0.00198050802905
0.00260498992371
0.00318792664937
0.00065635358997
0.000973995738854
0.00100210041526
0.0010118398927
0.00101557081132
0.00101752698495
0.00101911178501
0.00102076053156
0.00102260101901
0.00102467643641
0.00102702398127
0.00102977917151
0.00103370281454
0.00104290431604
0.00107630858761
0.00118818861448
0.00145620126995
0.00193574045855
0.00254290698157
0.00314903552068
0.000657268690543
0.000975359866274
0.00100329510951
0.00101279442444
0.00101633207293
0.00101814438063
0.00101960932832
0.00102114187478
0.00102286018956
0.0010248080686
0.00102703794559
0.0010297648586
0.00103426705871
0.0010478221014
0.00109995737768
0.0012486031924
0.00150896889713
0.00187230177859
0.00247820466314
0.00314774511157
0.000658027786049
0.000976509987525
0.00100428317117
0.0010135588993
0.00101691907427
0.0010186028907
0.00101996075152
0.00102138649642
0.00102298891597
0.00102480752404
0.00102688569665
0.00102939187403
0.0010331402606
0.00104221723223
0.00107480079055
0.00118360697052
0.00142837349289
0.00179118876667
0.00228460223639
0.0025833534842
0.000658656475247
0.000977461578875
0.00100507759117
0.001014146958
0.00101734798281
0.0010189171968
0.00102017832515
0.00102150707194
0.00102300138204
0.00102469566891
0.00102663749306
0.00102899601213
0.00103250947961
0.00104041451527
0.00106614155414
0.00115378749473
0.00138148914689
0.00176307311164
0.00221130841142
0.00277330082862
0.00065916283415
0.000978223195777
0.001005692237
0.0010145732708
0.00101763192937
0.00101909928103
0.00102027353236
0.00102151271049
0.00102290821067
0.00102448781071
0.00102629862555
0.0010285251434
0.00103191317763
0.00103930589434
0.0010609992643
0.00113088661462
0.00133522370394
0.00177666008931
0.0023943665438
0.00313742773699
0.000659553334424
0.000978811491736
0.00100614033596
0.00101485097724
0.00101778364026
0.00101916149517
0.00102025866692
0.0010214169816
0.00102272063709
0.00102419683683
0.00102589327228
0.00102801415874
0.00103137037623
0.00103884219454
0.00105980595986
0.00112288887463
0.00130594028883
0.0017367293585
0.00242240495649
0.00315934116118
0.000659843018273
0.00097923701493
0.00100643596502
0.00101499394156
0.00101781595886
0.00101911533092
0.00102014450664
0.00102123109344
0.00102245262775
0.0010238352148
0.00102543347016
0.00102747847471
0.00103087587563
0.00103872854968
0.00106059277418
0.00112348623032
0.00129465190519
0.00169119174882
0.00237797319375
0.00314209664976
0.000660031635501
0.000979516573964
0.0010065913487
0.00101501417339
0.00101774041125
0.00101897219781
0.00101994192227
0.00102096540281
0.00102211487468
0.00102341558923
0.00102493003179
0.00102692443456
0.0010304088408
0.00103874196007
0.00106190368838
0.00112670385789
0.00129332207172
0.00165596772231
0.00228124762159
0.00308708301133
0.00066015087666
0.000979657022821
0.00100661789503
0.00101492292659
0.00101756771875
0.00101874219743
0.00101966078617
0.0010206295823
0.00102171736041
0.00102294946115
0.00102439788658
0.00102636686084
0.00102998128139
0.00103886537486
0.00106343772249
0.00113062782582
0.001295336257
0.0016169521087
0.00209630677613
0.00253131948304
0.000660176790937
0.00097966922921
0.00100652478853
0.00101472964408
0.00101730747496
0.00101843506283
0.00101931129764
0.00102023398018
0.00102126957662
0.00102244556699
0.00102384520042
0.00102581414252
0.00102959554235
0.00103906745176
0.00106499060259
0.00113414013382
0.00129759673614
0.00159549717237
0.00199374512472
0.00232979010211
0.000660144847148
0.000979566446196
0.00100632234834
0.00101444305459
0.00101696718539
0.00101805734413
0.0010188994255
0.00101978499892
0.00102077879959
0.00102191113429
0.00102327881938
0.00102527331886
0.00102926184647
0.00103936220903
0.00106659940845
0.00113733837416
0.00130088895503
0.00159484949933
0.00197998495893
0.00237981062504
0.000660066197411
0.000979359255439
0.00100601970714
0.00101407158235
0.00101655419422
0.00101761565336
0.00101843103743
0.00101928779855
0.00102025033937
0.00102135165169
0.00102270363854
0.00102474742177
0.00102898171269
0.00103978510374
0.00106844356949
0.00114131831819
0.00131001596326
0.00162519115594
0.00210391089495
0.00285495152512
0.000659915540553
0.000979049900989
0.0010056278937
0.00101362475533
0.00101607593217
0.00101711652394
0.0010179129771
0.00101874939776
0.00101968916028
0.00102077044684
0.00102212101577
0.00102423370192
0.00102874233672
0.00104028707078
0.00107041911977
0.00114580544701
0.00131935823903
0.00164955812454
0.00215747349807
0.00290830553625
0.000659682490963
0.000978650310703
0.00100515793653
0.00101311013038
0.00101553724894
0.00101656313475
0.00101734696863
0.00101817115782
0.00101909818075
0.00102017062784
0.00102153251167
0.00102372952394
0.00102853158811
0.00104082949759
0.0010724396784
0.00114963732367
0.00132604804652
0.00166505018709
0.00218577241734
0.00305129903498
0.000659381479814
0.000978160073783
0.00100461551025
0.00101253365376
0.00101494350407
0.00101596095562
0.00101673899152
0.00101755660054
0.00101847930752
0.00101955362363
0.00102093906957
0.00102323357136
0.00102834425093
0.00104141166728
0.00107432582752
0.00115270774647
0.00132972014157
0.00167342362008
0.00220233630485
0.00305981935579
0.000659028865138
0.000977584439157
0.00100400105858
0.00101189715348
0.00101429649364
0.00101531097204
0.00101608964357
0.00101690942782
0.00101783614094
0.00101892002375
0.00102033958322
0.00102274380363
0.00102817196151
0.00104198467051
0.00107610662865
0.00115512704412
0.0013305682589
0.00167592033505
0.00221197429573
0.00306511219136
0.000658614008791
0.000976927291379
0.00100331847754
0.00101120098314
0.00101359738065
0.0010146145874
0.00101539898783
0.00101622758338
0.00101716634093
0.00101826956992
0.00101973226828
0.00102225537599
0.00102800414869
0.0010425576822
0.00107784534957
0.00115702060879
0.00132876347782
0.00166975280516
0.00221156687809
0.00306887790528
0.000658141759949
0.000976193231754
0.00100256820204
0.00101044565138
0.00101284666806
0.00101387318379
0.00101466921546
0.00101551195314
0.00101646848968
0.00101759937215
0.00101911412697
0.00102176367118
0.00102783834174
0.00104313944145
0.00107959702622
0.00115864409581
0.00132376054357
0.00165222395002
0.00219416220643
0.00306693247076
0.000657617547376
0.000975383278292
0.00100175529273
0.00100963539242
0.0010120458579
0.00101308639787
0.00101389949173
0.00101476249496
0.00101574369886
0.00101690834459
0.00101848188062
0.00102126165644
0.00102766025233
0.00104371470624
0.00108143045073
0.00116032499748
0.00131464206383
0.00161192026726
0.00212984683276
0.00302747613992
0.000657045302104
0.000974500097812
0.00100087423577
0.00100876700643
0.00101119372624
0.00101225354197
0.00101308930666
0.00101397796981
0.00101498925218
0.00101619300706
0.00101783008475
0.00102073944216
0.00102744287481
0.00104418971055
0.00108303233013
0.00116100971517
0.00129862893673
0.0015317962714
0.00192122320875
0.0024739477404
0.000656420404147
0.000973534093803
0.000999922773672
0.00100783865986
0.00101028981232
0.00101137510438
0.00101223819275
0.00101315698388
0.00101420295116
0.00101545075558
0.00101715316706
0.00102018692583
0.00102714481202
0.0010443605819
0.00108366789617
0.00115969798457
0.00128321330191
0.00146649687289
0.00173239197684
0.00205481922509
0.000655749829239
0.000972492084197
0.000998905777643
0.00100685174191
0.00100933444416
0.00101045058366
0.0010113455994
0.00101229948494
0.00101338542362
0.00101468111157
0.00101645438061
0.00101961454092
0.00102680306566
0.00104434428258
0.00108369240183
0.00115805203529
0.00127578724007
0.00145722610477
0.00180466697523
0.00246224725479
0.000655032586873
0.000971380099103
0.000997824821674
0.00100580983944
0.0010083303207
0.0010094821877
0.0010104140162
0.00101140753966
0.00101253744209
0.00101388561706
0.00101573715101
0.00101904371092
0.00102652691734
0.00104457092697
0.00108445856433
0.00115898757999
0.00127732276002
0.00146955285294
0.00191334383313
0.00297783628025
0.00065426482244