/*--------------------------------*- C++ -*----------------------------------*\
| =========                 |                                                 |
| \\      /  F ield         | OpenFOAM: The Open Source CFD Toolbox           |
|  \\    /   O peration     | Version:  v2012                                 |
|   \\  /    A nd           | Website:  www.openfoam.com                      |
|    \\/     M anipulation  |                                                 |
\*---------------------------------------------------------------------------*/
FoamFile
{
    version     2.0;
    format      ascii;
    class       volScalarField;
    location    "1.6";
    object      ddt0(k);
}
// * * * * * * * * * * * * * * * * * * * * * * * * * * * * * * * * * * * * * //

dimensions      [0 2 -3 0 0 0 0];


internalField   nonuniform List<scalar> 
164
(
-0.00730787071053
-0.00874052397248
-0.00921602045138
-0.00939905910757
-0.00948541502511
-0.00954018925833
-0.00951123871366
-0.00910831188531
-0.00926080773635
-0.00916188500069
-0.00916665241653
-0.00931849576238
-0.00949690428472
-0.00993231335994
-0.00736801460127
-0.0087853034427
-0.00926148816488
-0.0094475821361
-0.00953904522411
-0.00960819939009
-0.00967698863934
-0.00971301661333
-0.0098746751031
-0.00994885532681
-0.0100494040893
-0.0101716021706
-0.0102761107165
-0.0104038543277
-0.00743166055409
-0.00883974189366
-0.00931619529925
-0.00950269883677
-0.00959407851868
-0.00966233721649
-0.0097348378826
-0.00982002477401
-0.00992061796314
-0.0100239768678
-0.0101300021253
-0.0102394866248
-0.0103484118639
-0.0104547670193
-0.00749620043611
-0.00890057537619
-0.00937628856518
-0.00956088864606
-0.00964977814695
-0.00971419208975
-0.00977988149841
-0.00985540423215
-0.00994099931316
-0.0100335363735
-0.0101303413544
-0.0102301061947
-0.0103315883865
-0.0104322268727
-0.00755939690104
-0.00896463104438
-0.00943841480328
-0.00961910563651
-0.00970384098596
-0.00976355235434
-0.00982277595925
-0.00988914363153
-0.00996365812359
-0.0100448496352
-0.0101309458856
-0.0102204924244
-0.010312585657
-0.010405337716
-0.0076195183182
-0.00902905616515
-0.0094997662921
-0.00967496457737
-0.00975440924593
-0.00980892176495
-0.00986212641334
-0.00992097597836
-0.00998659750515
-0.0100582207373
-0.0101345672578
-0.0102143900864
-0.0102966964239
-0.0103797578458
-0.0076754021092
-0.00909167189937
-0.00955831563017
-0.00972691220932
-0.00980044148434
-0.00984961266636
-0.00989717720418
-0.00994948779182
-0.0100075985228
-0.0100709817499
-0.0101386681656
-0.010209607109
-0.010282698267
-0.0103557749604
-0.00772638851328
-0.00915093305716
-0.00961273988851
-0.00977407544825
-0.00984148458353
-0.00988546212768
-0.0099278277385
-0.00997433767084
-0.0100259021335
-0.0100820730288
-0.0101420774004
-0.0102050698885
-0.0102701698038
-0.0103356168636
-0.00777222813656
-0.00920586992369
-0.00966228102892
-0.00981606855539
-0.0098774606345
-0.0099165790009
-0.00995423700661
-0.0099955996367
-0.0100414097079
-0.010091212441
-0.0101443556954
-0.0102000881091
-0.0102577224647
-0.0103169185401
-0.00781295940853
-0.00925597145632
-0.0097066037331
-0.00985283834627
-0.00990852055072
-0.00994321569365
-0.00997667516668
-0.0100134933414
-0.01005425477
-0.010098425863
-0.0101454575523
-0.0101945383627
-0.0102446776765
-0.010294730978
-0.0078487767568
-0.00930100804017
-0.00974563200911
-0.00988451607718
-0.00993491894564
-0.00996566652973
-0.00999542228203
-0.0100282504223
-0.0100645887318
-0.0101038568077
-0.010145555672
-0.0101887720708
-0.0102318424658
-0.0102700263384
-0.0100725840607
-0.0101076295045
-0.0101448164282
-0.0101832539228
-0.0102214420518
-0.0102494592189
-0.0101771170451
-0.0102091037262
-0.0102297634138
-0.0102135174627
)
;

boundaryField
{
    back
    {
        type            calculated;
        value           nonuniform List<scalar> 
164
(
-0.00730787071053
-0.00874052397248
-0.00921602045138
-0.00939905910757
-0.00948541502511
-0.00954018925833
-0.00951123871366
-0.00910831188531
-0.00926080773635
-0.00916188500069
-0.00916665241653
-0.00931849576238
-0.00949690428472
-0.00993231335994
-0.00736801460127
-0.0087853034427
-0.00926148816488
-0.0094475821361
-0.00953904522411
-0.00960819939009
-0.00967698863934
-0.00971301661333
-0.0098746751031
-0.00994885532681
-0.0100494040893
-0.0101716021706
-0.0102761107165
-0.0104038543277
-0.00743166055409
-0.00883974189366
-0.00931619529925
-0.00950269883677
-0.00959407851868
-0.00966233721649
-0.0097348378826
-0.00982002477401
-0.00992061796314
-0.0100239768678
-0.0101300021253
-0.0102394866248
-0.0103484118639
-0.0104547670193
-0.00749620043611
-0.00890057537619
-0.00937628856518
-0.00956088864606
-0.00964977814695
-0.00971419208975
-0.00977988149841
-0.00985540423215
-0.00994099931316
-0.0100335363735
-0.0101303413544
-0.0102301061947
-0.0103315883865
-0.0104322268727
-0.00755939690104
-0.00896463104438
-0.00943841480328
-0.00961910563651
-0.00970384098596
-0.00976355235434
-0.00982277595925
-0.00988914363153
-0.00996365812359
-0.0100448496352
-0.0101309458856
-0.0102204924244
-0.010312585657
-0.010405337716
-0.0076195183182
-0.00902905616515
-0.0094997662921
-0.00967496457737
-0.00975440924593
-0.00980892176495
-0.00986212641334
-0.00992097597836
-0.00998659750515
-0.0100582207373
-0.0101345672578
-0.0102143900864
-0.0102966964239
-0.0103797578458
-0.0076754021092
-0.00909167189937
-0.00955831563017
-0.00972691220932
-0.00980044148434
-0.00984961266636
-0.00989717720418
-0.00994948779182
-0.0100075985228
-0.0100709817499
-0.0101386681656
-0.010209607109
-0.010282698267
-0.0103557749604
-0.00772638851328
-0.00915093305716
-0.00961273988851
-0.00977407544825
-0.00984148458353
-0.00988546212768
-0.0099278277385
-0.00997433767084
-0.0100259021335
-0.0100820730288
-0.0101420774004
-0.0102050698885
-0.0102701698038
-0.0103356168636
-0.00777222813656
-0.00920586992369
-0.00966228102892
-0.00981606855539
-0.0098774606345
-0.0099165790009
-0.00995423700661
-0.0099955996367
-0.0100414097079
-0.010091212441
-0.0101443556954
-0.0102000881091
-0.0102577224647
-0.0103169185401
-0.00781295940853
-0.00925597145632
-0.0097066037331
-0.00985283834627
-0.00990852055072
-0.00994321569365
-0.00997667516668
-0.0100134933414
-0.01005425477
-0.010098425863
-0.0101454575523
-0.0101945383627
-0.0102446776765
-0.010294730978
-0.0078487767568
-0.00930100804017
-0.00974563200911
-0.00988451607718
-0.00993491894564
-0.00996566652973
-0.00999542228203
-0.0100282504223
-0.0100645887318
-0.0101038568077
-0.010145555672
-0.0101887720708
-0.0102318424658
-0.0102700263384
-0.0100725840607
-0.0101076295045
-0.0101448164282
-0.0101832539228
-0.0102214420518
-0.0102494592189
-0.0101771170451
-0.0102091037262
-0.0102297634138
-0.0102135174627
)
;
    }
    sides
    {
        type            calculated;
        value           nonuniform List<scalar> 0();
    }
    bottom
    {
        type            calculated;
        value           nonuniform List<scalar> 
11
(
-0.00730787071053
-0.00736801460127
-0.00743166055409
-0.00749620043611
-0.00755939690104
-0.0076195183182
-0.0076754021092
-0.00772638851328
-0.00777222813656
-0.00781295940853
-0.0078487767568
)
;
    }
    front
    {
        type            calculated;
        value           nonuniform List<scalar> 
164
(
-0.00730787071053
-0.00874052397248
-0.00921602045138
-0.00939905910757
-0.00948541502511
-0.00954018925833
-0.00951123871366
-0.00910831188531
-0.00926080773635
-0.00916188500069
-0.00916665241653
-0.00931849576238
-0.00949690428472
-0.00993231335994
-0.00736801460127
-0.0087853034427
-0.00926148816488
-0.0094475821361
-0.00953904522411
-0.00960819939009
-0.00967698863934
-0.00971301661333
-0.0098746751031
-0.00994885532681
-0.0100494040893
-0.0101716021706
-0.0102761107165
-0.0104038543277
-0.00743166055409
-0.00883974189366
-0.00931619529925
-0.00950269883677
-0.00959407851868
-0.00966233721649
-0.0097348378826
-0.00982002477401
-0.00992061796314
-0.0100239768678
-0.0101300021253
-0.0102394866248
-0.0103484118639
-0.0104547670193
-0.00749620043611
-0.00890057537619
-0.00937628856518
-0.00956088864606
-0.00964977814695
-0.00971419208975
-0.00977988149841
-0.00985540423215
-0.00994099931316
-0.0100335363735
-0.0101303413544
-0.0102301061947
-0.0103315883865
-0.0104322268727
-0.00755939690104
-0.00896463104438
-0.00943841480328
-0.00961910563651
-0.00970384098596
-0.00976355235434
-0.00982277595925
-0.00988914363153
-0.00996365812359
-0.0100448496352
-0.0101309458856
-0.0102204924244
-0.010312585657
-0.010405337716
-0.0076195183182
-0.00902905616515
-0.0094997662921
-0.00967496457737
-0.00975440924593
-0.00980892176495
-0.00986212641334
-0.00992097597836
-0.00998659750515
-0.0100582207373
-0.0101345672578
-0.0102143900864
-0.0102966964239
-0.0103797578458
-0.0076754021092
-0.00909167189937
-0.00955831563017
-0.00972691220932
-0.00980044148434
-0.00984961266636
-0.00989717720418
-0.00994948779182
-0.0100075985228
-0.0100709817499
-0.0101386681656
-0.010209607109
-0.010282698267
-0.0103557749604
-0.00772638851328
-0.00915093305716
-0.00961273988851
-0.00977407544825
-0.00984148458353
-0.00988546212768
-0.0099278277385
-0.00997433767084
-0.0100259021335
-0.0100820730288
-0.0101420774004
-0.0102050698885
-0.0102701698038
-0.0103356168636
-0.00777222813656
-0.00920586992369
-0.00966228102892
-0.00981606855539
-0.0098774606345
-0.0099165790009
-0.00995423700661
-0.0099955996367
-0.0100414097079
-0.010091212441
-0.0101443556954
-0.0102000881091
-0.0102577224647
-0.0103169185401
-0.00781295940853
-0.00925597145632
-0.0097066037331
-0.00985283834627
-0.00990852055072
-0.00994321569365
-0.00997667516668
-0.0100134933414
-0.01005425477
-0.010098425863
-0.0101454575523
-0.0101945383627
-0.0102446776765
-0.010294730978
-0.0078487767568
-0.00930100804017
-0.00974563200911
-0.00988451607718
-0.00993491894564
-0.00996566652973
-0.00999542228203
-0.0100282504223
-0.0100645887318
-0.0101038568077
-0.010145555672
-0.0101887720708
-0.0102318424658
-0.0102700263384
-0.0100725840607
-0.0101076295045
-0.0101448164282
-0.0101832539228
-0.0102214420518
-0.0102494592189
-0.0101771170451
-0.0102091037262
-0.0102297634138
-0.0102135174627
)
;
    }
    atmosphere
    {
        type            calculated;
        value           nonuniform List<scalar> 0();
    }
    floatingObject
    {
        type            calculated;
        value           nonuniform List<scalar> 4(-0.00926080773635 -0.00916188500069 -0.00916665241653 -0.00931849576238);
    }
    procBoundary8to3
    {
        type            processor;
        value           nonuniform List<scalar> 8(-0.00725436574127 -0.00870703844682 -0.00918277942078 -0.00935995687969 -0.00943007093331 -0.00943385181301 -0.00927156503336 -0.00817743849162);
    }
    procBoundary8to6
    {
        type            processor;
        value           nonuniform List<scalar> 
16
(
-0.00978823899912
-0.00963654819982
-0.0102291886888
-0.0105321091448
-0.0105581706793
-0.0105291332722
-0.0104934156811
-0.0104554888098
-0.0104187815591
-0.0103945765732
-0.0103771188782
-0.0103456362467
-0.0103053299429
-0.0102511842147
-0.0101781766718
-0.0101542434259
)
;
    }
    procBoundary8to7
    {
        type            processor;
        value           nonuniform List<scalar> 
17
(
-0.00787997009404
-0.00934096424902
-0.00977949163518
-0.0099113677696
-0.00995698352441
-0.00998425948065
-0.0100107760369
-0.0100401112233
-0.0100401112233
-0.0100783750971
-0.0101098084523
-0.0101430976709
-0.0101430976709
-0.0101688923305
-0.0101952482207
-0.0101952482207
-0.010179532104
)
;
    }
}


// ************************************************************************* //
