/*--------------------------------*- C++ -*----------------------------------*\
| =========                 |                                                 |
| \\      /  F ield         | OpenFOAM: The Open Source CFD Toolbox           |
|  \\    /   O peration     | Version:  v2012                                 |
|   \\  /    A nd           | Website:  www.openfoam.com                      |
|    \\/     M anipulation  |                                                 |
\*---------------------------------------------------------------------------*/
FoamFile
{
    version     2.0;
    format      ascii;
    class       volVectorField;
    location    "1.6";
    object      U_0;
}
// * * * * * * * * * * * * * * * * * * * * * * * * * * * * * * * * * * * * * //

dimensions      [0 1 -1 0 0 0 0];


internalField   nonuniform List<vector> 
164
(
(-0.00351371679203 0.00174900023527 2.36663304413e-21)
(-0.00470458447303 0.0025563549859 -5.30622968697e-22)
(-0.0047463448441 0.005667117378 1.78279878278e-22)
(-0.00382325514512 0.00855404335299 3.94357628909e-21)
(-0.00190791598205 0.0117372003513 2.80243521102e-20)
(0.00100733494223 0.0159741497343 1.55085725806e-19)
(0.00353314993008 0.0190984935499 8.55133182355e-19)
(0.010728125682 0.0236324702146 3.95491401766e-18)
(0.0109658827361 0.0250517471589 1.40347922414e-17)
(-2.79081646607e-06 0.0260587507758 2.30685772279e-17)
(-0.00971489898669 0.0354947849266 1.28961527523e-17)
(-0.0170108036704 0.0540719731565 1.98074110531e-17)
(-0.0216560798063 0.0752268733504 1.59034292838e-17)
(-0.0416543513833 0.0874087675476 7.59714404297e-18)
(-0.00569562904172 0.00195658632674 3.284163223e-21)
(-0.00735479532967 0.00299221118795 -1.75135624758e-21)
(-0.00774313676454 0.00632979566521 -1.06916385506e-21)
(-0.00734886191931 0.00948347956275 2.80799103577e-22)
(-0.0064035557414 0.0129852650797 5.30781078429e-21)
(-0.00503930847905 0.0172912128275 2.47125040191e-20)
(-0.00419134148017 0.0222314832626 1.57346969594e-19)
(-0.00112263769794 0.0303129182575 9.17916092635e-19)
(-0.00810887837411 0.0387264716958 1.86056472622e-18)
(-0.013149673906 0.0485066046542 4.12976291452e-18)
(-0.018725490971 0.0568573362558 3.63308380168e-18)
(-0.0232974768106 0.0675644257708 3.27783135273e-18)
(-0.0311614159001 0.0802805985789 3.60040613694e-19)
(-0.0465675158573 0.0912811040144 7.97431129399e-19)
(-0.00812176532335 0.00205483708799 6.135872503e-21)
(-0.010226023621 0.00326248047015 -1.43968969821e-21)
(-0.0109169281553 0.00675578853498 -4.53572933799e-22)
(-0.0109070149218 0.0101602215696 4.32405629295e-22)
(-0.0104941651731 0.0140311680478 1.25727532321e-21)
(-0.00983404427075 0.0187571158829 3.56020400109e-21)
(-0.00935936998841 0.024476222414 1.91684713146e-20)
(-0.00759773540646 0.0323914158592 1.14700946404e-19)
(-0.0106917922952 0.0409559495224 1.80686972023e-19)
(-0.0176321747822 0.0489445174099 2.96034604402e-19)
(-0.0261075537266 0.0561305508048 2.15948863795e-19)
(-0.0345672810844 0.0634830746262 1.24743511991e-19)
(-0.0439695311094 0.0715182432387 2.53415649617e-20)
(-0.0571420363935 0.0785964659381 -8.88359261912e-20)
(-0.0106430007967 0.00205368738961 5.56363239584e-21)
(-0.0132034594648 0.00333710851012 -1.36525211203e-21)
(-0.0141909773573 0.00683257539123 5.59939872966e-23)
(-0.0145954138876 0.0102431781202 6.85540334622e-22)
(-0.0148258351873 0.0140269974593 6.33040037127e-22)
(-0.0151700911931 0.0184345700211 4.36982644524e-22)
(-0.0160394557274 0.0235582897297 1.63905200481e-21)
(-0.0170566694058 0.0300366898618 6.71677827435e-21)
(-0.0206231748641 0.0372649260353 1.01554416291e-20)
(-0.0262643206418 0.0442504041722 1.4414661606e-20)
(-0.0333533688501 0.0503694474427 6.19769305573e-21)
(-0.0411793021653 0.0558768609324 -2.31639636344e-22)
(-0.0499585768736 0.0613355482402 -5.02245831521e-22)
(-0.0610276598213 0.0657113264232 2.61135421236e-20)
(-0.0131279464554 0.00198481221315 3.74842059267e-21)
(-0.0161343540389 0.00325225346015 -2.15935738594e-21)
(-0.0173789192861 0.00662334436934 -1.06418321094e-22)
(-0.0181130854211 0.00988668507372 1.23642925399e-21)
(-0.0188017318404 0.0134186621748 7.49973315354e-22)
(-0.01973369572 0.0173861382632 2.9631559599e-22)
(-0.0211995509168 0.0218720418071 4.83647780003e-22)
(-0.0232024562626 0.0271113856264 1.55271267305e-22)
(-0.0267011090267 0.0328120442711 6.41785624769e-22)
(-0.0317912103185 0.0383733896847 1.4297185722e-21)
(-0.0381512630173 0.043364616548 1.58245745143e-21)
(-0.045485313982 0.0476910017531 2.43157748432e-21)
(-0.0539055362413 0.0515037714154 1.33910227231e-21)
(-0.0639835056585 0.0543370135846 -3.88775764972e-21)
(-0.0154870415645 0.00186993047665 4.08417644093e-21)
(-0.0189101191511 0.00304793061101 -2.64046210606e-21)
(-0.0203721183035 0.00619985479113 -3.63379143867e-22)
(-0.0213541391718 0.009214683871 1.00879945575e-21)
(-0.0223639479927 0.0124096658048 5.95963645574e-22)
(-0.0236801678012 0.0158970941473 3.70668841464e-22)
(-0.0255255743374 0.0197401409735 4.82975006227e-22)
(-0.0280257185347 0.0239888813982 2.18330857232e-22)
(-0.0315894590886 0.0284750398875 3.05824156698e-22)
(-0.0363398862053 0.0328545742653 7.64517806989e-22)
(-0.0421512241751 0.0368239281695 5.12394255999e-22)
(-0.0488640513196 0.0401881572427 2.69517535793e-22)
(-0.0564518643996 0.0428314206613 -1.97481048941e-22)
(-0.0651055936457 0.0445874096297 1.02515749677e-21)
(-0.0176573553642 0.0017237667641 4.96994432595e-21)
(-0.0214531415083 0.00276160836709 -9.78486517596e-22)
(-0.0230957166027 0.00562586820226 5.65118023804e-22)
(-0.0242558971628 0.00832432518169 6.86501993447e-22)
(-0.0254833814082 0.0111330529026 4.71052783988e-22)
(-0.0270486810329 0.0141262807483 3.44188994877e-22)
(-0.02913317369 0.0173456549861 2.95248094907e-22)
(-0.0318665693512 0.0207746455813 1.67704302457e-22)
(-0.0354394489069 0.0242980095764 3.16528898284e-22)
(-0.0399321612161 0.0277121405343 3.86264837736e-22)
(-0.0452839911851 0.0308083901562 3.50270569049e-22)
(-0.0513615798691 0.033401010626 2.76756357119e-22)
(-0.0580221299912 0.0353179237457 -3.33519479399e-22)
(-0.0652325733518 0.036400709841 -7.57896401773e-22)
(-0.0195967424923 0.00155519118779 3.28234194449e-21)
(-0.0237123462081 0.00242215893813 -1.81599375984e-21)
(-0.025500218091 0.00495258730545 8.82881695585e-23)
(-0.0267808550702 0.00729252931978 8.0618680677e-22)
(-0.0281463823017 0.00968825684854 4.06593540256e-22)
(-0.029861488965 0.0121872378839 2.41203826103e-22)
(-0.032078630285 0.0148147948138 2.09989976603e-22)
(-0.0349037960405 0.0175360706492 1.2695027677e-22)
(-0.0384378157488 0.0202669906041 2.54093898596e-22)
(-0.042727720388 0.022883443782 3.46501472595e-22)
(-0.0477397491884 0.0252553865092 1.08346001914e-22)
(-0.0533636430114 0.0272607362167 2.89809189085e-23)
(-0.0593841221524 0.0287752278693 -2.40476877173e-22)
(-0.0654652129689 0.0296505545346 -8.39077682182e-22)
(-0.021277795736 0.0013688451955 9.2084463557e-22)
(-0.0256570400259 0.00204806077205 -2.94804055891e-21)
(-0.0275557049836 0.00421465389642 -7.98095310367e-22)
(-0.028909047786 0.00617267003147 3.4503359273e-22)
(-0.0303507330071 0.00814531548353 2.75722299683e-22)
(-0.032141871594 0.0101606264564 1.63777083866e-22)
(-0.0344139213427 0.0122323511172 1.51026056275e-22)
(-0.0372497205137 0.0143236220928 8.28880157575e-23)
(-0.0407115813696 0.0163719094033 1.42896971046e-22)
(-0.0448317629362 0.0182996252625 9.27811290676e-23)
(-0.0495987598324 0.0200337627511 -8.14197187968e-23)
(-0.0549533445658 0.0215299002631 5.31027148904e-23)
(-0.0607589427376 0.0228096710255 1.087814118e-22)
(-0.066744856055 0.0240407860596 8.47615151388e-22)
(-0.0226824605194 0.00116798252483 2.33771291392e-22)
(-0.0272704846687 0.00165169259421 -2.70336021259e-21)
(-0.0292467114516 0.00343801034975 -4.20173365007e-22)
(-0.0306336321148 0.00500540208555 4.08104519757e-22)
(-0.0321038097146 0.00655651187004 3.0218723842e-22)
(-0.0339160552467 0.00810487012058 1.99735118192e-22)
(-0.0361862930018 0.00965567363942 1.78803060051e-22)
(-0.0389804723868 0.0111735089456 1.52537381988e-22)
(-0.0423439240649 0.0126092409572 1.78513029671e-22)
(-0.0463064785728 0.0139103207308 1.28508432097e-22)
(-0.0508799227141 0.0150359458918 7.70201549694e-23)
(-0.0560635262268 0.0159884642429 8.31797513571e-23)
(-0.0618519618612 0.0168535541249 6.61426800053e-22)
(-0.068324231871 0.0181821883214 5.26673393529e-22)
(-0.0237995586988 0.000958024852108 3.71766609554e-22)
(-0.028545956295 0.00124489463246 -2.14431190836e-22)
(-0.0305687480813 0.00264540346452 2.2486068591e-22)
(-0.0319576249521 0.00382425219768 6.13960878055e-22)
(-0.0334194165944 0.0049637592879 3.07714487257e-22)
(-0.0352109274605 0.00606591079983 1.67151268478e-22)
(-0.0374360357082 0.0071286931114 1.37445848494e-22)
(-0.0401487956016 0.00811726721561 3.06658163853e-23)
(-0.0433862300019 0.00898840019509 1.40150592334e-22)
(-0.0471792210599 0.00969822893898 1.87710839646e-22)
(-0.0515566662272 0.0102101698565 -4.78383269933e-23)
(-0.0565618187178 0.0105182106749 8.00180203157e-23)
(-0.0623015224638 0.0106225667013 -6.59278288674e-22)
(-0.0693693111673 0.0116430448372 -1.44580048654e-21)
(-0.0438774147938 0.00553421562401 8.56533970926e-23)
(-0.0474713654738 0.00568714394914 1.23772831008e-22)
(-0.0516099816104 0.00559570469247 7.2175511507e-23)
(-0.0563349924606 0.00520030165833 5.85828132901e-23)
(-0.0616733144756 0.00408732191298 5.89919305787e-23)
(-0.0687613507795 0.00476935831407 -1.90351010835e-21)
(-0.0554469316911 0.000384746499405 2.71549441801e-23)
(-0.0603036083152 -0.00183507832396 7.13077105012e-23)
(-0.0658149359706 -0.00177567350564 3.9268119684e-22)
(-0.0625896098154 -0.00742352636034 -4.70274092918e-22)
)
;

boundaryField
{
    back
    {
        type            noSlip;
    }
    sides
    {
        type            noSlip;
    }
    bottom
    {
        type            noSlip;
    }
    front
    {
        type            noSlip;
    }
    atmosphere
    {
        type            pressureInletOutletVelocity;
        value           nonuniform List<vector> 0();
    }
    floatingObject
    {
        type            movingWallVelocity;
        value           nonuniform List<vector> 4((0 -4.4408920985e-15 5.55111512313e-16) (0 -4.4408920985e-15 5.55111512313e-16) (0 0 0) (0 -8.881784197e-15 5.55111512313e-16));
    }
    procBoundary8to3
    {
        type            processor;
        value           nonuniform List<vector> 8((-0.00182017989723 0.00140623825024 3.86946888965e-21) (-0.00255174355682 0.00190026383559 4.38449578687e-21) (-0.00245921123666 0.00447538783645 3.00906024605e-21) (-0.00157528114644 0.00632840346539 1.46319103176e-20) (0.000350137393526 0.00756696238046 1.06300884235e-19) (0.00346388774122 0.00894599323171 6.34185536842e-19) (0.00559200806205 0.00424240542181 2.6933993806e-18) (0.00750411568507 0.0107524464682 9.49411523002e-18));
    }
    procBoundary8to6
    {
        type            processor;
        value           nonuniform List<vector> 
16
(
(0.00981516568257 0.0473355370328 1.23480594283e-17)
(-0.0361213816924 0.0451359491643 8.02427571711e-18)
(-0.0575368811416 0.0903267207167 3.73308705682e-18)
(-0.0629519882917 0.0987127517039 4.92755323163e-19)
(-0.072016776343 0.0843146647328 -1.03872625619e-19)
(-0.0744136707595 0.0692291772588 2.56680930417e-20)
(-0.0756013091676 0.055306766805 -1.83580852684e-21)
(-0.0746925822851 0.0440414392129 -1.31927896985e-21)
(-0.0731704620965 0.0349630710414 5.64629918252e-22)
(-0.0715348586696 0.0281966692962 -3.98687239284e-21)
(-0.0720950091094 0.0244277712387 -1.24724338795e-20)
(-0.0747097000539 0.0188906882602 5.82121153244e-21)
(-0.0761398080527 0.00896648986868 -1.06763993368e-20)
(-0.0752291891386 -0.00398797620431 -4.01479561337e-21)
(-0.0722964631305 -0.0113772160142 -1.18170891362e-20)
(-0.0694106603635 -0.013860353927 2.21873240935e-21)
)
;
    }
    procBoundary8to7
    {
        type            processor;
        value           nonuniform List<vector> 
17
(
(-0.0246252827637 0.00074440116944 -3.35668407292e-22)
(-0.0294853381926 0.000838807433578 -2.22278364759e-21)
(-0.0315258985685 0.00185761213339 -2.67759790222e-22)
(-0.0328914360177 0.00265809453603 2.06347023796e-22)
(-0.0343161012308 0.00340195393693 1.4214714907e-22)
(-0.0360539176035 0.00408154362306 6.75028711424e-23)
(-0.0381988709271 0.00468816752142 5.55343687655e-23)
(-0.0407962666707 0.00518633994906 4.98158393946e-23)
(-0.0407962666707 0.00518633994906 4.98158393946e-23)
(-0.0438571992599 0.00227894513204 4.39475273706e-23)
(-0.0472192574599 0.00192294755457 6.0086849143e-24)
(-0.0510767506468 0.00129269578222 -9.17548720364e-23)
(-0.0510767506468 0.00129269578222 -9.17548720364e-23)
(-0.0540185755074 -0.00408750061245 6.79516158049e-23)
(-0.058512813555 -0.00634943289925 -6.09905277167e-22)
(-0.058512813555 -0.00634943289925 -6.09905277167e-22)
(-0.0601394005331 -0.0126983539388 8.98512989956e-23)
)
;
    }
}


// ************************************************************************* //
