/*--------------------------------*- C++ -*----------------------------------*\
| =========                 |                                                 |
| \\      /  F ield         | OpenFOAM: The Open Source CFD Toolbox           |
|  \\    /   O peration     | Version:  v2012                                 |
|   \\  /    A nd           | Website:  www.openfoam.com                      |
|    \\/     M anipulation  |                                                 |
\*---------------------------------------------------------------------------*/
FoamFile
{
    version     2.0;
    format      ascii;
    class       volScalarField;
    location    "2.1";
    object      alpha.water;
}
// * * * * * * * * * * * * * * * * * * * * * * * * * * * * * * * * * * * * * //

dimensions      [0 0 0 0 0 0 0];


internalField   nonuniform List<scalar> 
166
(
1.0000001203
1.00000018106
1.00000023684
1.00000029621
1.00000034112
1.00000035678
1.00000031988
1.0000002351
1.00000011929
0.999999965191
0.999999783576
0.999999594047
0.999999380592
0.999999146649
0.999999444959
0.999999954464
0.999999965788
0.511883672499
0.0019030277163
5.36245104486e-25
1.00000016602
1.00000021601
1.00000024758
1.00000027669
1.00000029477
1.00000029527
1.00000027248
1.00000022808
1.00000015963
1.00000006288
0.999999961633
0.999999850131
0.999999674924
0.999999256249
0.999999489474
0.999999967334
0.999999966974
0.487012007232
0.00135212435741
1.4771082367e-23
1.00000023444
1.00000028262
1.00000030331
1.00000031256
1.000000311
1.00000030045
1.00000027645
1.00000023778
1.00000018134
1.00000011128
1.0000000316
0.999999939879
0.999999775635
0.99999944926
0.999999538446
0.999999968427
0.999344359179
0.464046901857
0.000684059748527
3.5697500649e-06
1.00000031345
1.00000036295
1.00000037929
1.00000038002
1.00000036552
1.00000034529
1.00000031361
1.00000027047
1.00000021481
1.00000015453
1.00000008504
0.999999979393
0.999999772665
0.999999433088
0.999999598421
0.999999969483
0.997507794422
0.446271254164
0.000259316749877
1.85396936988e-05
1.00000039145
1.00000044379
1.00000045694
1.00000045613
1.00000043458
1.00000041102
1.00000037731
1.00000033318
1.00000028243
1.00000023498
1.00000017851
1.00000005269
0.999999805608
0.999999418933
0.999999559917
0.999999970398
0.996045506038
0.434046255072
0.000102785348496
3.42975350912e-05
1.00000046257
1.00000052018
1.00000052872
1.00000056697
1.0000005497
1.00000053471
1.00000050154
1.00000045696
1.00000040451
1.00000036339
1.00000031043
1.00000014557
0.999999822917
0.999999418913
0.999999536606
0.999999971927
0.995180516765
0.428243636645
6.61775068077e-05
4.94715456974e-05
1.00000052371
1.00000061506
1.00000072214
1.00000072611
1.00000072033
1.00000069305
1.00000067443
1.00000060264
1.00000054456
1.00000049425
1.00000041152
1.00000017298
0.999999762662
0.999999356941
0.999999637398
0.999999975516
0.994402685536
0.429656772474
7.12088575195e-05
6.21309369332e-05
1.00000066527
1.00000085799
1.00000077877
1.00000089416
1.00000082623
1.00000083366
1.00000078669
1.0000007319
1.0000006611
1.00000057808
1.00000048315
1.00000022332
0.999999731303
0.999999233451
0.999999641906
0.99999997926
0.993319434349
0.436799763506
9.61649603493e-05
5.41826748227e-05
1.0000007732
1.00000088334
1.00000087146
1.00000079261
1.00000078989
1.00000077993
)
;

boundaryField
{
    back
    {
        type            zeroGradient;
    }
    sides
    {
        type            zeroGradient;
    }
    bottom
    {
        type            zeroGradient;
    }
    front
    {
        type            zeroGradient;
    }
    atmosphere
    {
        type            inletOutlet;
        inletValue      uniform 0;
        value           nonuniform List<scalar> 8(0 1.4771082367e-23 3.5697500649e-06 1.85396936988e-05 3.42975350912e-05 4.94715456974e-05 6.21309369332e-05 5.41826748227e-05);
    }
    floatingObject
    {
        type            zeroGradient;
    }
    procBoundary9to6
    {
        type            processor;
        value           nonuniform List<scalar> 4(0.999999959477 0.535554106821 0.00184573948775 -1.11277592143e-18);
    }
    procBoundary9to7
    {
        type            processor;
        value           nonuniform List<scalar> 
16
(
1.00000004632
1.00000008064
1.00000010631
1.00000014014
1.00000018492
1.0000001955
1.00000017794
1.00000012992
1.00000008509
1.00000002842
0.999999970821
0.999999934215
0.999999858843
0.999999450666
0.999999618985
0.99999994749
)
;
    }
    procBoundary9to10
    {
        type            processor;
        value           nonuniform List<scalar> 
15
(
1.00000120818
1.00000103481
1.00000100626
1.00000096949
1.00000085518
1.00000072861
1.00000059545
1.00000042155
1.00000125692
1.00000120818
1.00000092737
1.00000125692
1.00000104776
1.00000086823
1.00000078492
)
;
    }
    procBoundary9to11
    {
        type            processor;
        value           nonuniform List<scalar> 9(0.999999858867 0.999999389057 0.999999233451 0.999999777934 0.999999981066 0.994090691005 0.449305391405 0.000209987439835 3.97169763166e-05);
    }
}


// ************************************************************************* //
