/*--------------------------------*- C++ -*----------------------------------*\
| =========                 |                                                 |
| \\      /  F ield         | OpenFOAM: The Open Source CFD Toolbox           |
|  \\    /   O peration     | Version:  v2012                                 |
|   \\  /    A nd           | Website:  www.openfoam.com                      |
|    \\/     M anipulation  |                                                 |
\*---------------------------------------------------------------------------*/
FoamFile
{
    version     2.0;
    format      ascii;
    class       volScalarField;
    location    "2.1";
    object      epsilon_0;
}
// * * * * * * * * * * * * * * * * * * * * * * * * * * * * * * * * * * * * * //

dimensions      [0 2 -3 0 0 0 0];


internalField   nonuniform List<scalar> 
166
(
0.00499269636552
0.00515945553803
0.00559284319343
0.00572840395583
0.0057705862903
0.00578858436106
0.00580235524331
0.0058168248036
0.00583311011222
0.00585189218188
0.00587539632938
0.00591216472262
0.00599068104933
0.00619411624049
0.00674640804235
0.00826624750849
0.0125660966217
0.0242893469433
0.0532315098102
0.118929909686
0.00498749675759
0.00515295695578
0.00558496532536
0.00571971989682
0.00576147201874
0.00577919767052
0.00579272412449
0.00580694636471
0.00582296645979
0.00584153850023
0.00586516179407
0.00590328065468
0.00598674084875
0.00620327749907
0.00678213475623
0.00834452128546
0.0127486171618
0.0249613837652
0.0553933349389
0.124514586994
0.00498085590866
0.00514499920394
0.0055758165544
0.00570994000297
0.00575139341222
0.00576896106527
0.00578236224901
0.00579643464329
0.00581233511363
0.00583087995979
0.00585483628737
0.00589453722284
0.00598314739511
0.00621275218847
0.00681598304395
0.00840700899881
0.0128493029329
0.0253151048292
0.0565645686725
0.126123441758
0.00497283916779
0.00513578145405
0.00556552622708
0.00569915450379
0.00574040433603
0.00575790217764
0.00577128591321
0.0057853578423
0.00580128035726
0.00581993204824
0.00584439911306
0.00588587366942
0.00597978847918
0.00622223062034
0.00684798936284
0.0084561370694
0.012869882882
0.0253854677812
0.057440199291
0.132644900305
0.00496339493714
0.00512527876844
0.00555408606232
0.00568736312881
0.00572852781854
0.00574604865648
0.00575950156722
0.00577368867766
0.00578977270763
0.0058087023873
0.00583383865786
0.00587725150582
0.00597653409081
0.00623181288023
0.00687946684336
0.00849479143518
0.0128127854804
0.0251146404384
0.0576778581949
0.139856131735
0.00495263887115
0.00511356722812
0.00554152596441
0.00567457189589
0.00571577497017
0.00573343018277
0.00574705389154
0.00576144915239
0.00577779676296
0.00579714964116
0.00582311329607
0.00586859632219
0.00597333686569
0.00624165666608
0.00691164010879
0.0085278537211
0.012668846169
0.0243820881635
0.0566375889098
0.146615022071
0.00494070072617
0.00510067399672
0.00552793216217
0.00566085678316
0.00570217663479
0.0057200464431
0.00573393451625
0.00574864439862
0.00576537669763
0.00578526414843
0.005812178313
0.00585980854091
0.00596999736495
0.00625146876024
0.00694568236691
0.00856045401169
0.0124124805874
0.0227658207245
0.0521256380765
0.139907782475
0.00492766953185
0.00508665274025
0.00551322288178
0.00564617190812
0.00568771777132
0.00570589049265
0.00572013957812
0.00573525842817
0.00575247213248
0.00577299155008
0.00580094549903
0.00585072381078
0.00596605079682
0.0062596345753
0.00697556631534
0.00857238805659
0.0119692673557
0.0196899822059
0.0387141102274
0.080576696572
0.00491345349938
0.00507135113917
0.00549736187015
0.00489821129114
0.00488193422436
0.00486454410826
)
;

boundaryField
{
    back
    {
        lowReCorrection 0;
        blending        stepwise;
        n               2;
        type            epsilonWallFunction;
        value           nonuniform List<scalar> 
166
(
0.00499269636552
0.00515945553803
0.00559284319343
0.00572840395583
0.0057705862903
0.00578858436106
0.00580235524331
0.0058168248036
0.00583311011222
0.00585189218188
0.00587539632938
0.00591216472262
0.00599068104933
0.00619411624049
0.00674640804235
0.00826624750849
0.0125660966217
0.0242893469433
0.0532315098102
0.118929909686
0.00498749675759
0.00515295695578
0.00558496532536
0.00571971989682
0.00576147201874
0.00577919767052
0.00579272412449
0.00580694636471
0.00582296645979
0.00584153850023
0.00586516179407
0.00590328065468
0.00598674084875
0.00620327749907
0.00678213475623
0.00834452128546
0.0127486171618
0.0249613837652
0.0553933349389
0.124514586994
0.00498085590866
0.00514499920394
0.0055758165544
0.00570994000297
0.00575139341222
0.00576896106527
0.00578236224901
0.00579643464329
0.00581233511363
0.00583087995979
0.00585483628737
0.00589453722284
0.00598314739511
0.00621275218847
0.00681598304395
0.00840700899881
0.0128493029329
0.0253151048292
0.0565645686725
0.126123441758
0.00497283916779
0.00513578145405
0.00556552622708
0.00569915450379
0.00574040433603
0.00575790217764
0.00577128591321
0.0057853578423
0.00580128035726
0.00581993204824
0.00584439911306
0.00588587366942
0.00597978847918
0.00622223062034
0.00684798936284
0.0084561370694
0.012869882882
0.0253854677812
0.057440199291
0.132644900305
0.00496339493714
0.00512527876844
0.00555408606232
0.00568736312881
0.00572852781854
0.00574604865648
0.00575950156722
0.00577368867766
0.00578977270763
0.0058087023873
0.00583383865786
0.00587725150582
0.00597653409081
0.00623181288023
0.00687946684336
0.00849479143518
0.0128127854804
0.0251146404384
0.0576778581949
0.139856131735
0.00495263887115
0.00511356722812
0.00554152596441
0.00567457189589
0.00571577497017
0.00573343018277
0.00574705389154
0.00576144915239
0.00577779676296
0.00579714964116
0.00582311329607
0.00586859632219
0.00597333686569
0.00624165666608
0.00691164010879
0.0085278537211
0.012668846169
0.0243820881635
0.0566375889098
0.146615022071
0.00494070072617
0.00510067399672
0.00552793216217
0.00566085678316
0.00570217663479
0.0057200464431
0.00573393451625
0.00574864439862
0.00576537669763
0.00578526414843
0.005812178313
0.00585980854091
0.00596999736495
0.00625146876024
0.00694568236691
0.00856045401169
0.0124124805874
0.0227658207245
0.0521256380765
0.139907782475
0.00492766953185
0.00508665274025
0.00551322288178
0.00564617190812
0.00568771777132
0.00570589049265
0.00572013957812
0.00573525842817
0.00575247213248
0.00577299155008
0.00580094549903
0.00585072381078
0.00596605079682
0.0062596345753
0.00697556631534
0.00857238805659
0.0119692673557
0.0196899822059
0.0387141102274
0.080576696572
0.00491345349938
0.00507135113917
0.00549736187015
0.00489821129114
0.00488193422436
0.00486454410826
)
;
    }
    sides
    {
        lowReCorrection 0;
        blending        stepwise;
        n               2;
        type            epsilonWallFunction;
        value           nonuniform List<scalar> 0();
    }
    bottom
    {
        lowReCorrection 0;
        blending        stepwise;
        n               2;
        type            epsilonWallFunction;
        value           nonuniform List<scalar> 
12
(
0.00499269636552
0.00498749675759
0.00498085590866
0.00497283916779
0.00496339493714
0.00495263887115
0.00494070072617
0.00492766953185
0.00491345349938
0.00489821129114
0.00488193422436
0.00486454410826
)
;
    }
    front
    {
        lowReCorrection 0;
        blending        stepwise;
        n               2;
        type            epsilonWallFunction;
        value           nonuniform List<scalar> 
166
(
0.00499269636552
0.00515945553803
0.00559284319343
0.00572840395583
0.0057705862903
0.00578858436106
0.00580235524331
0.0058168248036
0.00583311011222
0.00585189218188
0.00587539632938
0.00591216472262
0.00599068104933
0.00619411624049
0.00674640804235
0.00826624750849
0.0125660966217
0.0242893469433
0.0532315098102
0.118929909686
0.00498749675759
0.00515295695578
0.00558496532536
0.00571971989682
0.00576147201874
0.00577919767052
0.00579272412449
0.00580694636471
0.00582296645979
0.00584153850023
0.00586516179407
0.00590328065468
0.00598674084875
0.00620327749907
0.00678213475623
0.00834452128546
0.0127486171618
0.0249613837652
0.0553933349389
0.124514586994
0.00498085590866
0.00514499920394
0.0055758165544
0.00570994000297
0.00575139341222
0.00576896106527
0.00578236224901
0.00579643464329
0.00581233511363
0.00583087995979
0.00585483628737
0.00589453722284
0.00598314739511
0.00621275218847
0.00681598304395
0.00840700899881
0.0128493029329
0.0253151048292
0.0565645686725
0.126123441758
0.00497283916779
0.00513578145405
0.00556552622708
0.00569915450379
0.00574040433603
0.00575790217764
0.00577128591321
0.0057853578423
0.00580128035726
0.00581993204824
0.00584439911306
0.00588587366942
0.00597978847918
0.00622223062034
0.00684798936284
0.0084561370694
0.012869882882
0.0253854677812
0.057440199291
0.132644900305
0.00496339493714
0.00512527876844
0.00555408606232
0.00568736312881
0.00572852781854
0.00574604865648
0.00575950156722
0.00577368867766
0.00578977270763
0.0058087023873
0.00583383865786
0.00587725150582
0.00597653409081
0.00623181288023
0.00687946684336
0.00849479143518
0.0128127854804
0.0251146404384
0.0576778581949
0.139856131735
0.00495263887115
0.00511356722812
0.00554152596441
0.00567457189589
0.00571577497017
0.00573343018277
0.00574705389154
0.00576144915239
0.00577779676296
0.00579714964116
0.00582311329607
0.00586859632219
0.00597333686569
0.00624165666608
0.00691164010879
0.0085278537211
0.012668846169
0.0243820881635
0.0566375889098
0.146615022071
0.00494070072617
0.00510067399672
0.00552793216217
0.00566085678316
0.00570217663479
0.0057200464431
0.00573393451625
0.00574864439862
0.00576537669763
0.00578526414843
0.005812178313
0.00585980854091
0.00596999736495
0.00625146876024
0.00694568236691
0.00856045401169
0.0124124805874
0.0227658207245
0.0521256380765
0.139907782475
0.00492766953185
0.00508665274025
0.00551322288178
0.00564617190812
0.00568771777132
0.00570589049265
0.00572013957812
0.00573525842817
0.00575247213248
0.00577299155008
0.00580094549903
0.00585072381078
0.00596605079682
0.0062596345753
0.00697556631534
0.00857238805659
0.0119692673557
0.0196899822059
0.0387141102274
0.080576696572
0.00491345349938
0.00507135113917
0.00549736187015
0.00489821129114
0.00488193422436
0.00486454410826
)
;
    }
    atmosphere
    {
        type            inletOutlet;
        inletValue      uniform 0.1;
        value           nonuniform List<scalar> 8(0.118929909686 0.124514586994 0.126123441758 0.132644900305 0.139856131735 0.146615022071 0.139907782475 0.080576696572);
    }
    floatingObject
    {
        lowReCorrection 0;
        blending        stepwise;
        n               2;
        type            epsilonWallFunction;
        value           nonuniform List<scalar> 0();
    }
    procBoundary9to6
    {
        type            processor;
        value           nonuniform List<scalar> 4(0.0123208030371 0.0232780530175 0.0494454913245 0.114312003227);
    }
    procBoundary9to7
    {
        type            processor;
        value           nonuniform List<scalar> 
16
(
0.00499628429127
0.00516438582363
0.0055993349285
0.0057358916913
0.00577864302981
0.00579702526363
0.00581115092113
0.00582600550694
0.00584272777157
0.00586191237659
0.00588552207659
0.00592122387332
0.00599517375719
0.00618570740448
0.00671016599909
0.00817704012035
)
;
    }
    procBoundary9to10
    {
        type            processor;
        value           nonuniform List<scalar> 
15
(
0.00563048981566
0.00567239453796
0.00569097425311
0.0057056643823
0.00572127026556
0.00573904718827
0.00576028732034
0.0057893193582
0.00505487842594
0.00563048981566
0.00548043304822
0.00505487842594
0.00503733896836
0.0050187430685
0.0048460166737
)
;
    }
    procBoundary9to11
    {
        type            processor;
        value           nonuniform List<scalar> 9(0.00584116370708 0.00596076826815 0.00626254951912 0.00698739746383 0.00854385434921 0.0115490532782 0.017276572282 0.028671592776 0.0469525141546);
    }
}


// ************************************************************************* //
