/*--------------------------------*- C++ -*----------------------------------*\
| =========                 |                                                 |
| \\      /  F ield         | OpenFOAM: The Open Source CFD Toolbox           |
|  \\    /   O peration     | Version:  v2012                                 |
|   \\  /    A nd           | Website:  www.openfoam.com                      |
|    \\/     M anipulation  |                                                 |
\*---------------------------------------------------------------------------*/
FoamFile
{
    version     2.0;
    format      ascii;
    class       volVectorField;
    location    "2.1";
    object      U;
}
// * * * * * * * * * * * * * * * * * * * * * * * * * * * * * * * * * * * * * //

dimensions      [0 1 -1 0 0 0 0];


internalField   nonuniform List<vector> 
166
(
(0.0646012032188 -2.86585840978e-06 -7.67599016125e-22)
(0.0623661452726 0.000479318742087 -1.51235449832e-22)
(0.0615405286783 0.000480848217072 -2.04142811681e-22)
(0.0619239889807 0.00071445926419 6.81736784084e-23)
(0.0628501878447 0.000908925989406 1.95286844599e-24)
(0.0641016246865 0.00116267745526 -1.35100395073e-23)
(0.0656258275873 0.00148902345974 -1.17042826193e-23)
(0.0674250009847 0.00191140345483 -1.18077345007e-23)
(0.0694858743181 0.0024542717834 8.56927746338e-24)
(0.0718390231215 0.00315923884392 -1.06781331372e-23)
(0.0745198316122 0.00406252340683 -1.66108918306e-23)
(0.0775365632134 0.00522233470467 -2.29940844909e-23)
(0.0809384397326 0.00674511478084 -6.36622949146e-23)
(0.0849527228945 0.00876208224492 2.88820617789e-22)
(0.0898523173621 0.0112911864767 -1.73379670186e-22)
(0.0954380649426 0.0147083731795 -1.794524116e-21)
(0.102247006711 0.0180414842952 -4.27213206207e-21)
(0.105983307593 0.018899179839 -1.27077713171e-20)
(0.101800670352 0.0207443904328 -1.28392037649e-20)
(0.021221375196 0.000235677284401 -3.22220237843e-21)
(0.0642308498212 0.000129139360108 -8.85359687259e-22)
(0.0620553677779 0.000847225105918 -9.40616445357e-23)
(0.0612627340989 0.00107173749416 -4.23625115528e-23)
(0.0616269878946 0.00157525049292 4.51243918509e-23)
(0.0625065787907 0.00201171509407 6.53105497009e-24)
(0.0636929916623 0.00251446761841 1.8364975973e-23)
(0.0651290748927 0.00309848587923 1.63755532627e-23)
(0.066818686714 0.0037687127997 -6.20668908758e-24)
(0.0687392134716 0.004566954855 -2.1768086206e-24)
(0.0709119304521 0.0055576340495 2.35768446313e-23)
(0.0733331445274 0.0067658359846 -1.43704242584e-23)
(0.0760338807743 0.00823241208418 1.19953228702e-23)
(0.0790040471045 0.0101192088824 -6.13031203406e-23)
(0.0824316780611 0.0125579947812 -4.00779745e-22)
(0.0865983753842 0.0154871815291 -2.6406374128e-21)
(0.0913610202557 0.0201627872342 -5.2386601228e-21)
(0.0974816258405 0.0221729819415 -1.02803121759e-20)
(0.103546684387 0.0239289989638 -1.6712985959e-20)
(0.112969401468 0.0291880493633 -1.66678494317e-20)
(0.0353597145279 0.010701345306 -3.1514223451e-21)
(0.0635993647472 0.000246966780862 -7.77198848409e-22)
(0.0614942028707 0.00120646443725 1.48677106594e-22)
(0.0607422060606 0.00165683603986 -3.70723306482e-23)
(0.0610875166718 0.00239789340995 -6.24338737599e-23)
(0.0619248943337 0.00305611955522 -3.26879635495e-23)
(0.0630482469887 0.00378589770538 -4.45857679347e-26)
(0.064403172852 0.00459912178117 -1.04112656884e-24)
(0.0659630649632 0.00550201302318 3.78268927848e-25)
(0.0677429026852 0.00652761339019 -1.89011378581e-23)
(0.0697275091363 0.00773207354025 -9.84406007712e-24)
(0.0718949263835 0.00915786201636 -2.79510154118e-25)
(0.0742429808023 0.0108395919856 1.25471512194e-23)
(0.0767953636025 0.0129435377853 -1.15496011258e-22)
(0.079594234419 0.0156347946363 -9.55561356477e-22)
(0.0829742743894 0.0186559339676 -3.7467360748e-21)
(0.0869902990196 0.0240493505558 -8.47524179473e-21)
(0.0925061954901 0.0244961536468 -1.3877478052e-20)
(0.0998813344053 0.0264463828465 -1.09004791956e-20)
(0.116196475391 0.034400782742 -1.07911307891e-20)
(0.0584961101742 0.0218248707542 -3.09789977286e-21)
(0.0627454640707 0.000357770078368 -7.67065097366e-22)
(0.0607264959797 0.00154710102125 -7.39141347479e-23)
(0.0600096135668 0.00221415462287 -2.04630444269e-22)
(0.0603388140943 0.00318146479686 -8.79794279996e-23)
(0.0611262284719 0.00405242568626 -4.40137708367e-23)
(0.0621849342855 0.00499575156233 -1.68311969465e-23)
(0.0634607759538 0.00600278388868 -2.90395023632e-23)
(0.0649170240774 0.00709391258267 -1.41013278354e-23)
(0.0665613732583 0.00831296344732 3.45332107887e-23)
(0.0683539698359 0.00968881135908 2.09381903002e-23)
(0.0702828843115 0.0112563142785 -7.66081830032e-24)
(0.0723098379124 0.0130777433567 1.17334315864e-23)
(0.0744459779177 0.0152532096615 -9.74177735477e-23)
(0.0766630120228 0.0179428689429 -8.70614984924e-22)
(0.0792593491792 0.0208863375528 -3.75173850426e-21)
(0.0827241345108 0.0263930796551 -7.93457719546e-21)
(0.0879602872153 0.025420993705 -1.367572518e-20)
(0.0960649967027 0.027152733271 -1.32809276833e-20)
(0.113420095465 0.0370593372245 -1.25372637979e-20)
(0.0750668021722 0.0407392956779 -2.72324839216e-21)
(0.0616691684963 0.000467865403394 -8.48968464313e-22)
(0.0597447634732 0.00188093655081 1.20367568517e-22)
(0.0590539250716 0.00275628881309 -5.54115843356e-22)
(0.0593707141609 0.00392057302474 -1.89462965676e-22)
(0.0601183926865 0.0049817669984 -6.39379844111e-23)
(0.0611187065846 0.00612560568046 -5.76551757916e-24)
(0.0623168602439 0.00732078276486 -1.25551232709e-23)
(0.0636885105063 0.00858909172827 8.68910955114e-24)
(0.0652166620867 0.00995098897138 -2.24358448555e-23)
(0.0668558657117 0.0114374535495 -1.02004998481e-23)
(0.0685793701438 0.0130899472827 -1.60658661438e-23)
(0.0703405297186 0.0149451583652 -3.99834937996e-23)
(0.072089443517 0.0170651856103 -5.44548670916e-23)
(0.0738313458152 0.0195791906925 -7.62885062653e-22)
(0.0757903704335 0.0222358546197 -2.80428085359e-21)
(0.0788254154726 0.0273331576782 -5.56062194891e-21)
(0.0840503234124 0.025380381152 -1.26425388891e-20)
(0.0926541984023 0.0266140323231 -2.14419218394e-20)
(0.107233693524 0.0376775842875 -2.03650649303e-20)
(0.0752165517588 0.0508170666064 -4.69010783245e-21)
(0.0603779956506 0.000578530912364 -7.47911539834e-22)
(0.0585513476295 0.0021922497357 -3.69593301071e-22)
(0.0578811534556 0.00326359885646 -5.5779561532e-22)
(0.0581848706137 0.00463054208848 -9.72742683842e-23)
(0.0589141971469 0.00587583744021 -4.47000127259e-23)
(0.0598765708301 0.00720161200255 -4.72990004254e-24)
(0.0610159259772 0.00856544136633 -1.1276527097e-23)
(0.0623118136054 0.00998140294015 -9.35782142056e-24)
(0.0637392530532 0.0114657088158 -2.91092806369e-23)
(0.0652694815179 0.0130359681703 -1.55031740482e-23)
(0.0668491138302 0.0147185059448 -2.65113645468e-23)
(0.068420524096 0.0165282973181 -7.77132960318e-23)
(0.0699111080389 0.018499705925 -3.96865499488e-23)
(0.0713222195588 0.0206998015566 -2.42716702075e-22)
(0.0728580851598 0.0229333242252 -1.19092422689e-21)
(0.0756173828391 0.0270520210492 -2.78798734592e-21)
(0.0807226009715 0.0245565017173 -3.12615013555e-21)
(0.0894156638983 0.0252551639616 -1.05735639817e-20)
(0.0995317740175 0.0375680395961 -1.07822379809e-20)
(0.0639313137267 0.0556591607598 -1.97478013308e-21)
(0.0589086151834 0.000693172193218 -4.32889992282e-22)
(0.057167765268 0.00249078799412 1.7559673908e-22)
(0.0565429751258 0.00375064347079 1.99237328828e-22)
(0.0568330242091 0.00531804657087 9.08199274937e-23)
(0.0575358716183 0.00674319953642 6.14889105866e-24)
(0.0584647108485 0.00823313784041 -1.7403585955e-23)
(0.0595616625808 0.0097499921976 -1.33542632636e-23)
(0.0608104709684 0.0113038304555 -1.46660163013e-23)
(0.0621819430874 0.0128965487043 -1.64927082251e-23)
(0.0636444886282 0.0145317576579 -1.78025446013e-23)
(0.0651483390237 0.0162178394249 -1.76668839622e-23)
(0.0666205911256 0.0179449407201 -9.70346830454e-23)
(0.0680037101031 0.0197122830071 -5.00164098908e-23)
(0.0692761827879 0.0215210632745 -2.03877873893e-22)
(0.0706750025972 0.023201254011 -1.29394468106e-21)
(0.0733316566289 0.0258034371216 -3.65492662999e-21)
(0.0782255549 0.0229941392857 -2.74223158717e-21)
(0.0869459907696 0.0229942737846 -8.06040556477e-21)
(0.0903524840287 0.036287587837 -7.99350029114e-21)
(0.0398809236962 0.0657430539922 -3.17044887838e-22)
(0.0572300588287 0.000779246314779 -3.2636955581e-22)
(0.0555834121303 0.00277725367187 5.97457987112e-22)
(0.0550048572835 0.00422356423462 2.21276364076e-22)
(0.0552922983461 0.00596828729688 3.09790324033e-23)
(0.055978751932 0.00757427537119 -5.40700785001e-23)
(0.0568853108986 0.00923360138873 -1.01982522205e-23)
(0.0579649548903 0.0109053429452 -4.73276278698e-25)
(0.0591933031808 0.0125919809999 -5.29422880879e-24)
(0.0605423003679 0.0142880192025 -1.15540348425e-23)
(0.0619882927138 0.0159886780386 -6.98946544392e-24)
(0.0634850335548 0.0176731286919 -1.52824258414e-23)
(0.064969648063 0.0193212035144 -1.34982272186e-22)
(0.0664081647411 0.0208928733383 -3.02862551931e-23)
(0.0677986047766 0.0223102894763 -5.79563046711e-22)
(0.0694367292976 0.0234453351528 -2.90640851963e-21)
(0.0722689929685 0.0246789741687 -6.98095652333e-21)
(0.0765724977147 0.0216563885716 -1.32513749787e-20)
(0.0830901543411 0.020479389969 -8.96744694631e-21)
(0.0763412855212 0.0332517456038 -8.68076393113e-21)
(0.014482432517 0.0776968479635 -5.62781670603e-21)
(0.0553317332294 0.000881588057364 -2.8989734289e-22)
(0.0537988994026 0.0030605079942 6.51755759361e-22)
(0.0532589750659 0.00468656670355 8.94734724265e-23)
(0.0532611087589 0.000990592679382 -3.38163752167e-22)
(0.0510201195904 0.0010938378626 8.57912540869e-23)
(0.048590578435 0.00120920919769 -6.84699181709e-23)
)
;

boundaryField
{
    back
    {
        type            noSlip;
    }
    sides
    {
        type            noSlip;
    }
    bottom
    {
        type            noSlip;
    }
    front
    {
        type            noSlip;
    }
    atmosphere
    {
        type            pressureInletOutletVelocity;
        value           nonuniform List<vector> 8((0.021221375196 0.000235677284401 -3.22220237843e-21) (0.0353597145279 0.010701345306 -3.1514223451e-21) (0.0584961101742 0.0218248707542 -3.09789977286e-21) (0.0750668021722 0.0407392956779 -2.72324839216e-21) (0.0752165517588 0.0508170666064 -4.69010783245e-21) (0.0639313137267 0.0556591607598 -1.97478013308e-21) (0.0398809236962 0.0657430539922 -3.17044887838e-22) (0.014482432517 0.0776968479635 -5.62781670603e-21));
    }
    floatingObject
    {
        type            movingWallVelocity;
        value           nonuniform List<vector> 0();
    }
    procBoundary9to6
    {
        type            processor;
        value           nonuniform List<vector> 4((0.105914900258 0.0117570131514 -6.07713219172e-21) (0.106661533127 0.0108055384567 -7.50183641782e-21) (0.0835572015226 0.0101376557054 -7.49498750874e-21) (0.0145453365395 -0.0189699463392 3.54546268373e-21));
    }
    procBoundary9to7
    {
        type            processor;
        value           nonuniform List<vector> 
16
(
(0.0647102945417 -0.000135277560786 -6.24323147268e-22)
(0.0624108286873 8.99496535162e-05 -9.27266560018e-23)
(0.0615752432447 -0.000137258984239 -2.94301425037e-22)
(0.0619707109809 -0.000183456877404 6.07177729142e-23)
(0.0629385827336 -0.000243174104481 -3.54718897241e-25)
(0.0642486351653 -0.000255675672071 -4.0626651721e-24)
(0.0658504059326 -0.000204573689996 -8.556089651e-25)
(0.0677448390251 -6.97837517241e-05 -1.89096792111e-23)
(0.0699477317029 0.000174726238608 2.09165444648e-23)
(0.0724734418038 0.000547465543774 1.29376477879e-23)
(0.0753616872924 0.00109734461747 -1.05851004959e-23)
(0.0786422692165 0.00186525834409 5.31103368234e-23)
(0.082408726832 0.00288742158841 3.69748946735e-22)
(0.0868726908134 0.00427811569038 1.66506580872e-21)
(0.0923532382283 0.00619008125319 7.86834235003e-22)
(0.0986128697225 0.00796611979256 -5.58029730796e-22)
)
;
    }
    procBoundary9to10
    {
        type            processor;
        value           nonuniform List<vector> 
15
(
(0.0535592574332 0.00661491794939 -4.12907626693e-24)
(0.0542466865226 0.00839689935959 -6.29315508339e-23)
(0.0551487226965 0.0102240324493 -1.00597736305e-23)
(0.0562244649336 0.0120516484509 2.82126113031e-24)
(0.0574508563421 0.0138723606786 3.86270397123e-25)
(0.0588097204549 0.0156811496034 6.19705321456e-24)
(0.0602840852906 0.0174616984343 8.869483263e-24)
(0.0618316753797 0.0191761017398 2.10645963157e-23)
(0.0518355528134 0.00334172428513 6.19296824883e-22)
(0.0535592574332 0.00661491794939 -4.12907626693e-24)
(0.0513447948008 0.00514774287796 -3.14297115044e-22)
(0.0518355528134 0.00334172428513 6.19296824883e-22)
(0.0497023148585 0.00362066188725 1.29789370533e-22)
(0.047376415439 0.00389414275387 6.9002822259e-22)
(0.0459635468774 0.00130999353751 8.82350830851e-22)
)
;
    }
    procBoundary9to11
    {
        type            processor;
        value           nonuniform List<vector> 9((0.0634263820449 0.0207965853257 -3.68969084721e-23) (0.0650416223583 0.0222548345358 7.98469878122e-23) (0.0667452608556 0.0234584412052 -3.37846815262e-22) (0.068851821664 0.0244077989414 -2.3030421352e-21) (0.0717247646622 0.0251585384384 -7.4868209869e-21) (0.0752319491071 0.0225703305127 -1.7230916287e-20) (0.078317003084 0.0197612466161 -1.25092545335e-20) (0.0576077132438 0.0312498043005 -1.16726468755e-20) (-0.0291103715171 0.0742791479692 -2.09591747314e-20));
    }
}


// ************************************************************************* //
