/*--------------------------------*- C++ -*----------------------------------*\
| =========                 |                                                 |
| \\      /  F ield         | OpenFOAM: The Open Source CFD Toolbox           |
|  \\    /   O peration     | Version:  v2012                                 |
|   \\  /    A nd           | Website:  www.openfoam.com                      |
|    \\/     M anipulation  |                                                 |
\*---------------------------------------------------------------------------*/
FoamFile
{
    version     2.0;
    format      ascii;
    class       surfaceScalarField;
    location    "4.3";
    object      phi;
}
// * * * * * * * * * * * * * * * * * * * * * * * * * * * * * * * * * * * * * //

dimensions      [0 3 -1 0 0 0 0];
oriented        oriented;


internalField   nonuniform List<scalar> 
300
(
-5.24567429468e-06
-0.000254320129428
-1.07489377004e-05
-0.000249948599393
-1.66008845762e-05
-0.000246543995748
-2.28384625721e-05
-0.000246366785804
-2.95262004665e-05
-0.000248767962316
-3.6770090639e-05
-0.000252826957148
-4.47159467387e-05
-0.000257995719626
-0.00026404543488
-6.13619664378e-06
-0.000248183489337
-1.25415390574e-05
-0.000243542783286
-1.92785984639e-05
-0.000239806452281
-2.63963835625e-05
-0.000239248535189
-3.3951023625e-05
-0.000241212937041
-4.20390821425e-05
-0.00024473875693
-5.07885311991e-05
-0.000249246476543
-0.000254471535409
-6.96255235794e-06
-0.000241220496964
-1.41661989354e-05
-0.000236338675417
-2.16822748767e-05
-0.000232289892292
-2.95548275462e-05
-0.00023137548675
-3.78373108699e-05
-0.000232929986918
-4.66144253416e-05
-0.000235961279413
-5.59941969487e-05
-0.000239866505439
-6.61021461195e-05
-0.000244363893946
-7.70950970507e-05
-0.000249279994126
-0.000254433449332
-7.69340549421e-06
-0.000233526721938
-1.56195548571e-05
-0.000228412146323
-2.38240083126e-05
-0.000224085028669
-3.23518997734e-05
-0.000222847149276
-4.12508634158e-05
-0.00022403056071
-5.0595509993e-05
-0.000226616192279
-6.04679196081e-05
-0.00022999372262
-7.09742072326e-05
-0.000233857483074
-8.22094352395e-05
-0.000238044855512
-0.000242364104216
-8.32843005685e-06
-0.000225198052942
-1.69099689474e-05
-0.000219830368109
-2.57355892952e-05
-0.000215259134593
-3.48279317403e-05
-0.000213754478208
-4.42501283972e-05
-0.000214607976662
-5.40634089964e-05
-0.000216802474452
-6.43330604859e-05
-0.000219723605973
-7.51024665119e-05
-0.000223087591935
-8.64431560043e-05
-0.000226703538676
-0.000230433336814
-8.94704961902e-06
-0.000216250924589
-1.80872980567e-05
-0.000210690046315
-2.74353502981e-05
-0.000205910973011
-3.70307472015e-05
-0.000204158903082
-4.69068191965e-05
-0.000204731632068
-5.71066417736e-05
-0.000206602265786
-6.76846076037e-05
-0.000209145132558
-7.86748862592e-05
-0.000212096566471
-9.01062905357e-05
-0.000215270978784
-0.000218605907559
-9.51450975569e-06
-0.000206736487481
-1.91473953914e-05
-0.000201057237681
-2.89421485542e-05
-0.000196116258618
-3.89545912832e-05
-0.0001941464185
-4.92160149337e-05
-0.000194470040955
-5.97677991669e-05
-0.000196050143601
-7.06435118003e-05
-0.000198268874249
-8.18853949069e-05
-0.000200853728001
-9.34570663054e-05
-0.000203697728538
-0.000206739979771
-9.98275499998e-06
-0.000196753912762
-2.00668486183e-05
-0.000190973318908
-3.02683193664e-05
-0.000185914917948
-4.06474373723e-05
-0.00018376733611
-5.12488449248e-05
-0.000183868512212
-6.21085071008e-05
-0.000185190135156
-7.32721271734e-05
-0.000187104619917
-8.47546143868e-05
-0.000189370053728
-9.65870322186e-05
-0.000191863299532
-0.000194618095403
-1.03817623098e-05
-0.000186372369961
-2.08669975587e-05
-0.000180488278895
-3.1428936532e-05
-0.000175353116391
-4.21316160008e-05
-0.000173064680697
-5.30227734374e-05
-0.000172977187904
-6.41460284627e-05
-0.000174066433946
-7.56007074137e-05
-0.000175649132052
-8.73239943007e-05
-0.000177645271841
-9.94073741083e-05
-0.000179777402708
-0.000182109339431
-1.07545247751e-05
-0.000175618024752
-2.15687372924e-05
-0.000169674195979
-3.24374679752e-05
-0.000164484438785
-4.34169917065e-05
-0.000162085073863
-5.45560533943e-05
-0.000161837817629
-6.59581846746e-05
-0.00016266366589
-7.75266562059e-05
-0.000164079599289
-8.94706379969e-05
-0.000165699423029
-0.000101809117256
-0.000167435869851
-0.000169270685162
-1.110085474e-05
-0.000164517235095
-2.22064465241e-05
-0.000158568591518
-3.33149734242e-05
-0.000153375802834
-4.45429168422e-05
-0.000150856864787
-5.58863092659e-05
-0.000150493908434
-6.73820945231e-05
-0.000151167005928
-7.91418125077e-05
-0.000152318551358
-9.11946739481e-05
-0.000153644350407
-0.000103615139341
-0.000155011937326
-0.000156286028622
-1.14174778476e-05
-0.000153099652279
-2.27835201724e-05
-0.000147202342955
-3.4111630358e-05
-0.000142047376736
-4.5467255507e-05
-0.000139500758784
-5.69620852641e-05
-0.000138998343592
-6.8604429857e-05
-0.000139523577407
-8.04434484077e-05
-0.000140478016979
-9.2514763323e-05
-0.000141570653727
-0.000104851058517
-0.000142672090197
-0.000143355547642
-1.17083267395e-05
-0.000141391023826
-2.32806539946e-05
-0.000135629599974
-3.47766687141e-05
-0.000130550836709
-4.62841201695e-05
-0.00012799262917
-5.78878870693e-05
-0.000127393673195
-6.96092748204e-05
-0.000127800998347
-8.14811890368e-05
-0.00012860456946
-9.35095116901e-05
-0.000129540077841
-0.000105816296704
-0.000130362116872
-0.00013101667513
-1.1918930261e-05
-0.000129471599603
-2.37215633063e-05
-0.000123826359417
-3.53643115899e-05
-0.000118907384028
-4.69843601454e-05
-0.000116371751727
-5.8665199554e-05
-0.000115711828382
-7.04337292898e-05
-0.000116031270077
-8.22767198398e-05
-0.000116760215225
-9.42432444549e-05
-0.000117571530875
-0.000106276687918
-0.000118325938108
-0.000118957236507
-1.21822487213e-05
-0.000117288561443
-2.40950791584e-05
-0.000111912691799
-3.58601502731e-05
-0.000107141447499
-4.75721739344e-05
-0.000104658886747
-5.93247292312e-05
-0.000103958323079
-7.112356033e-05
-0.000104231465784
-8.29449079933e-05
-0.000104937223805
-9.485093955e-05
-0.000105663776807
-0.000106511294839
-0.000106662730608
-0.000107350464014
-1.22988358922e-05
-0.000104988689758
-2.43942455959e-05
-9.98162627913e-05
-3.62432030813e-05
-9.52916919254e-05
-4.80481390235e-05
-9.28526904865e-05
-5.98926341884e-05
-9.21133148008e-05
-7.1758573514e-05
-9.23637945027e-05
-8.37233602836e-05
-9.29714464827e-05
-9.5300367602e-05
-0.000106845934447
-1.24632634897e-05
-2.46175608863e-05
-3.65635856039e-05
-4.84689216596e-05
-6.03924504057e-05
-8.01874748245e-05
-7.24219812834e-05
)
;

boundaryField
{
    back
    {
        type            calculated;
        value           uniform 0;
    }
    sides
    {
        type            calculated;
        value           nonuniform List<scalar> 0();
    }
    bottom
    {
        type            calculated;
        value           uniform 0;
    }
    front
    {
        type            calculated;
        value           uniform 0;
    }
    atmosphere
    {
        type            calculated;
        value           nonuniform List<scalar> 0();
    }
    floatingObject
    {
        type            calculated;
        value           nonuniform List<scalar> 0();
    }
    procBoundary4to0
    {
        type            processor;
        value           nonuniform List<scalar> 8(0.000259566283925 0.000255452390742 0.000252396450619 0.000252604777509 0.000255455891861 0.00026007047516 0.000265940433315 0.000272871457068);
    }
    procBoundary4to3
    {
        type            processor;
        value           nonuniform List<scalar> 
13
(
-9.4084703579e-05
-9.5116010403e-05
-9.61514301005e-05
-9.25242969544e-05
-8.76609933132e-05
-8.33439228416e-05
-8.09470770823e-05
-8.03337560648e-05
-8.42949642488e-05
-8.10971257292e-05
4.85822054181e-05
-6.06813285903e-05
-6.80879064942e-05
)
;
    }
    procBoundary4to5
    {
        type            processor;
        value           nonuniform List<scalar> 
18
(
-5.35444162315e-05
-6.03631734426e-05
0.000260271226677
0.000266527502954
-8.91921423744e-05
-9.42791772895e-05
-9.83733459884e-05
-0.000101932399932
-0.000105321068052
-0.000108706401188
-0.00011191298907
-0.000114644037678
-0.000116595684239
-0.000117777472378
-0.000118151655061
-0.000118333099706
-0.000118116601485
-0.000118041993466
)
;
    }
}


// ************************************************************************* //
