/*--------------------------------*- C++ -*----------------------------------*\
| =========                 |                                                 |
| \\      /  F ield         | OpenFOAM: The Open Source CFD Toolbox           |
|  \\    /   O peration     | Version:  v2012                                 |
|   \\  /    A nd           | Website:  www.openfoam.com                      |
|    \\/     M anipulation  |                                                 |
\*---------------------------------------------------------------------------*/
FoamFile
{
    version     2.0;
    format      ascii;
    class       surfaceVectorField;
    location    "4.3";
    object      Uf_0;
}
// * * * * * * * * * * * * * * * * * * * * * * * * * * * * * * * * * * * * * //

dimensions      [0 1 -1 0 0 0 0];


internalField   nonuniform List<vector> 
300
(
(-0.0527118134689 -0.000957240330865 -1.42266328343e-22)
(-0.0526659062624 -0.00049228136012 -1.82103220212e-22)
(-0.0519661586661 -0.00196499335658 -4.69595882269e-23)
(-0.0517659393268 -0.00160560576259 -7.14922166344e-23)
(-0.0516755159729 -0.0030413025428 9.81346050638e-24)
(-0.0511074313778 -0.00274294894391 -3.09633006833e-23)
(-0.0519853940389 -0.00419263993841 3.46972313167e-23)
(-0.0511117403525 -0.00394850289215 2.75782001952e-23)
(-0.0527422463122 -0.00543125051904 1.19347766675e-23)
(-0.0516461751127 -0.00524125523625 1.28576527932e-23)
(-0.0538042661277 -0.00677778992475 -1.43737127509e-24)
(-0.0525272728703 -0.00662863254226 1.55547341415e-24)
(-0.0550998323334 -0.00826118555311 -4.40603687239e-24)
(-0.0536471971271 -0.00813516510485 -5.37170619818e-24)
(-0.0549627468797 -0.00979297578008 -1.88292728736e-24)
(-0.0516345902784 -0.00114812488746 -1.11329108503e-22)
(-0.0515178409514 -0.0005911130486 -1.40929627837e-22)
(-0.0508287652085 -0.00234917277067 -5.54959290907e-23)
(-0.0505648987314 -0.00188374366076 -4.62120975154e-23)
(-0.0504669657193 -0.00361583018428 -1.31985609944e-23)
(-0.0498407111325 -0.00319993858918 -3.97731299995e-24)
(-0.0506962941691 -0.0049573770501 5.73862167174e-24)
(-0.0497700506555 -0.00458492208655 2.04580749922e-23)
(-0.0513568069279 -0.00638465880481 2.47834953984e-24)
(-0.0502186729045 -0.00605414077858 8.30285838848e-24)
(-0.0522986624449 -0.00791701097045 -2.37886150894e-24)
(-0.0509945872463 -0.00761393356388 4.05685023207e-24)
(-0.0534425246322 -0.00958059934771 -2.84859661315e-24)
(-0.0519831939024 -0.00928671173566 -3.7708507816e-24)
(-0.0531334483065 -0.0111006061044 2.44940175976e-24)
(-0.0503748070661 -0.00132673309266 -7.58126168488e-23)
(-0.0501910888181 -0.000684044253268 -9.61637873525e-23)
(-0.0495101571162 -0.0027008138471 5.30651857535e-24)
(-0.0491907549992 -0.00213823485238 2.77543681168e-23)
(-0.0490792039829 -0.00413710223586 2.96793229867e-23)
(-0.0484043038359 -0.00361384973731 6.52830510315e-23)
(-0.049230387065 -0.00564406292595 2.3022311709e-23)
(-0.0482629100166 -0.00515752090929 6.79400418032e-23)
(-0.0497980913309 -0.00723232915 9.88135908071e-24)
(-0.0486301716373 -0.00677936681897 2.88943467308e-23)
(-0.0506258221828 -0.00891922459912 2.6648609594e-24)
(-0.0493074064106 -0.00848462229841 1.4389528138e-23)
(-0.0516283384473 -0.0107273450802 1.52714759131e-24)
(-0.0501747416782 -0.0102930625923 9.78229802679e-25)
(-0.052763709219 -0.0126835473673 1.62990831361e-23)
(-0.0511768396975 -0.012228399332 4.17979090076e-24)
(-0.0540031319061 -0.0148220227953 2.61621309972e-23)
(-0.0522802203679 -0.0143164466016 2.75153981901e-23)
(-0.053450413636 -0.0165897810043 2.6498754307e-23)
(-0.0489460534723 -0.00148665240317 7.40319761313e-24)
(-0.0487043644654 -0.000765715175658 3.27284110956e-23)
(-0.0480288412151 -0.00301893733861 8.77309005729e-23)
(-0.0476583632304 -0.00236789478363 9.19598874852e-23)
(-0.0475344973468 -0.00460683675571 1.03543769848e-22)
(-0.0468162530969 -0.00398680113662 1.45386606722e-22)
(-0.0476126575559 -0.00625923973029 7.3812076825e-23)
(-0.0466103091285 -0.00567128662432 1.22829646111e-22)
(-0.0480945364962 -0.00798574275789 3.34025157882e-23)
(-0.0469034331978 -0.00742596358712 6.05699009006e-23)
(-0.0488185695728 -0.00980183400966 1.27028969813e-23)
(-0.0474910584148 -0.00925476675062 3.3578882371e-23)
(-0.0496947011313 -0.0117250238399 3.63087311214e-24)
(-0.0482512868261 -0.0111740858988 8.7251786611e-24)
(-0.0506772922775 -0.0137785278949 1.53961059547e-23)
(-0.049123060553 -0.0132029938716 7.53539625677e-24)
(-0.0517319241858 -0.0159846260265 2.78520214998e-23)
(-0.0500738778735 -0.0153595086724 2.12374960237e-23)
(-0.0510648145953 -0.0176607204079 2.69074257387e-23)
(-0.0473633189537 -0.00162741223311 1.17285100968e-22)
(-0.0470768566888 -0.000841807825322 1.61392803488e-22)
(-0.0463988894463 -0.00330479128743 1.49615593634e-22)
(-0.0459808638985 -0.00257655828299 1.73760267017e-22)
(-0.0458497322658 -0.00503102440166 1.64672482985e-22)
(-0.0450898650233 -0.00432444400837 2.01241028464e-22)
(-0.0458633827684 -0.00681043361521 1.09587470186e-22)
(-0.0448307094431 -0.00613301113856 1.6429962135e-22)
(-0.0462695785624 -0.00865590189745 6.07462674833e-23)
(-0.0450577496476 -0.00800370318756 8.87290739794e-23)
(-0.0469034555511 -0.0105802326969 2.96011640508e-23)
(-0.0455665062997 -0.00993834982298 5.45356830971e-23)
(-0.0476709777148 -0.0125975435792 1.26297018057e-23)
(-0.0462337673835 -0.0119486974053 2.53058764212e-23)
(-0.0485256147443 -0.0147182521262 1.33767863257e-23)
(-0.0470021716599 -0.0140502881888 1.72453084365e-23)
(-0.0494348181868 -0.0169597957924 2.02929002626e-23)
(-0.047832203738 -0.0162545388141 1.59157077502e-23)
(-0.0486939976218 -0.0185653119872 2.82356743442e-23)
(-0.045643264209 -0.00176527767561 2.17867969538e-22)
(-0.0453114895426 -0.000917309609056 1.98331620327e-22)
(-0.0446358148466 -0.00356839783856 2.25385701847e-22)
(-0.0441776397567 -0.00276803530507 1.98084522267e-22)
(-0.0440388432896 -0.00541309590005 2.00868166829e-22)
(-0.0432450367138 -0.00463226847101 2.0715283726e-22)
(-0.0439968127943 -0.00730712262204 1.43441225143e-22)
(-0.0429365252834 -0.00654982120452 1.80971620657e-22)
(-0.0443366609611 -0.00925714956574 8.25184895931e-23)
(-0.0431075481483 -0.00852055619975 1.12198983695e-22)
(-0.0448922235791 -0.0112720926612 5.02403954676e-23)
(-0.0435513886686 -0.0105468011561 8.59928326068e-23)
(-0.0455707326654 -0.0133636576258 2.9921483052e-23)
(-0.0441420461534 -0.0126366095429 5.72426779e-23)
(-0.046326459943 -0.0155400254883 1.9784229861e-23)
(-0.0448256836093 -0.0148013004796 3.78950360715e-23)
(-0.0471312979817 -0.0178092870532 2.38584818319e-23)
(-0.0455628570449 -0.0170487684274 2.54834110051e-23)
(-0.0463380191143 -0.0193744486285 4.10899369091e-23)
(-0.0437965886202 -0.00189329617134 1.78548173057e-22)
(-0.043418136049 -0.000984940621551 2.00742237328e-22)
(-0.0427559256054 -0.00380904371279 1.7985165768e-22)
(-0.0422618296849 -0.00294051322388 1.4593587999e-22)
(-0.0421178587795 -0.00575700635893 1.87256291088e-22)
(-0.0412969925762 -0.00490993755528 1.84954189782e-22)
(-0.0420268491467 -0.0077481695087 1.49729379209e-22)
(-0.0409452599346 -0.00692500858847 1.78801524583e-22)
(-0.0423088031699 -0.00978857305204 1.15673326709e-22)
(-0.0410670293671 -0.00898269988969 1.37814763681e-22)
(-0.0427973400199 -0.0118864950688 9.29951150393e-23)
(-0.0414533506865 -0.0110895211789 1.13828781385e-22)
(-0.0434032559322 -0.0140488680962 6.52162309196e-23)
(-0.04197956896 -0.0132531911856 8.50069984594e-23)
(-0.0440845878609 -0.016284733317 4.35942172156e-23)
(-0.042589731525 -0.01548038397 6.65256687054e-23)
(-0.0448191538557 -0.0185876544705 4.27148660824e-23)
(-0.0432598399229 -0.0177771335478 5.43805496087e-23)
(-0.0439739111036 -0.0201359638491 6.96282106922e-23)
(-0.0418392830971 -0.00200160318169 1.68129944262e-22)
(-0.0414165264448 -0.00104308287501 1.9465086006e-22)
(-0.04077294755 -0.00402201457196 1.51038412093e-22)
(-0.0402414146517 -0.00309378211689 6.96829840328e-23)
(-0.0401010014492 -0.00606550967362 1.76499423277e-22)
(-0.0392534818995 -0.00515671576583 1.60038635245e-22)
(-0.039967417225 -0.00814384015438 1.66886909054e-22)
(-0.0388668993287 -0.0072595643926 1.74508097854e-22)
(-0.0401997287873 -0.0102655054594 1.35970218358e-22)
(-0.0389453234009 -0.00939526458549 1.45344814099e-22)
(-0.0406322408344 -0.0124372591589 1.05840664805e-22)
(-0.0392815511222 -0.011575466962 1.11640799785e-22)
(-0.0411765864172 -0.0146678167837 8.63164362452e-23)
(-0.0397489635606 -0.0138080873657 1.02530359456e-22)
(-0.0417940039285 -0.0169597504888 7.73120010986e-23)
(-0.0402977310375 -0.0160965128387 1.01987046918e-22)
(-0.042466625765 -0.0193188913619 8.12938942186e-23)
(-0.0409005639874 -0.0184466989288 1.14302331466e-22)
(-0.0415608406696 -0.0208581979589 8.9917470522e-23)
(-0.0397814550598 -0.00209621825232 9.62038998317e-23)
(-0.0393203617454 -0.00110063480941 2.20563852763e-22)
(-0.0386962685895 -0.00421169989568 7.86832071854e-23)
(-0.0381259959968 -0.00323292514377 5.9376846325e-23)
(-0.0379977184794 -0.0063419056004 1.58047309821e-22)
(-0.037123334952 -0.00537608994968 1.41693891937e-22)
(-0.0378287874113 -0.00849918352623 1.52966002898e-22)
(-0.0367096731248 -0.00755765302264 1.54573027003e-22)
(-0.0380194865221 -0.0106923573338 1.21015395526e-22)
(-0.0367521941391 -0.00976483199337 1.32655725496e-22)
(-0.0384041809803 -0.0129293475182 1.08330494436e-22)
(-0.0370445955746 -0.0120124399892 1.05793058283e-22)
(-0.0388898023225 -0.0152293686545 1.18200970129e-22)
(-0.0374489594332 -0.01430352889 1.2064388672e-22)
(-0.0394389960716 -0.0175779193619 1.38977377285e-22)
(-0.0379491366366 -0.0166444347119 1.05734379685e-22)
(-0.0400425782889 -0.0199916779902 1.22925907769e-22)
(-0.0384866372903 -0.0190471421209 1.41855069179e-22)
(-0.0390716982646 -0.0215200121778 8.94700993899e-23)
(-0.0376321843415 -0.00218597976045 1.83736799256e-22)
(-0.0371344940374 -0.00115793856796 2.23859903543e-22)
(-0.0365355009472 -0.00438245051607 1.22387531077e-22)
(-0.0359296520401 -0.00336184358517 3.03850337404e-23)
(-0.0358193952439 -0.00658910776811 1.38219609118e-22)
(-0.0349168092331 -0.00557479191861 7.39091516658e-23)
(-0.0356223946315 -0.00881657588021 1.34262749601e-22)
(-0.0344823395158 -0.007826331328 1.10774468325e-22)
(-0.0357768421203 -0.0110737307008 1.17433388252e-22)
(-0.034495172799 -0.0100974465591 1.2615661661e-22)
(-0.0361122966908 -0.0133804689407 1.18106450567e-22)
(-0.0347379790567 -0.0123996042599 1.06562542106e-22)
(-0.0365370019162 -0.0157150455478 1.08177296276e-22)
(-0.0351144740698 -0.0147373545865 1.11981303388e-22)
(-0.0370179531664 -0.0181181871244 1.08612071579e-22)
(-0.0355459907893 -0.0171224783667 8.65669885526e-23)
(-0.0375442995113 -0.0205905845264 1.08399260799e-22)
(-0.0360140745759 -0.0195674302425 1.05001916728e-22)
(-0.0365134033505 -0.0220884317629 8.97715262895e-23)
(-0.0354002712407 -0.00227103780262 7.05081380269e-23)
(-0.0348636150075 -0.00120931268867 1.26073190298e-22)
(-0.0342993866751 -0.00454141538874 -1.80933456703e-23)
(-0.0336594520036 -0.00348054768212 -2.09438041903e-22)
(-0.0335747138209 -0.00681158875544 4.64640108728e-23)
(-0.0326468284636 -0.0057587203064 -1.02728402496e-22)
(-0.0333541073553 -0.00910454700372 1.02668335335e-22)
(-0.0321895895228 -0.00806880554689 3.93121390378e-23)
(-0.0334706067439 -0.0114181043576 1.15285770463e-22)
(-0.0321818325017 -0.0103910767629 1.29632749931e-22)
(-0.0337593211516 -0.0137582123423 1.00437394927e-22)
(-0.0323980792064 -0.012738869742 1.35229356993e-22)
(-0.0341335721498 -0.0161457762437 9.03709956651e-23)
(-0.0327270810198 -0.0151181460432 1.11541185783e-22)
(-0.0345545831852 -0.0185838841096 8.29568337023e-23)
(-0.0331079392207 -0.0175375740302 1.03690190688e-22)
(-0.0350020732775 -0.0210839608501 8.63741822184e-23)
(-0.0335138852722 -0.0200072708094 1.00718651098e-22)
(-0.0339171773814 -0.0225459439694 1.39512498316e-22)
(-0.0330910323469 -0.00235067358236 -1.53872989632e-22)
(-0.0325131265504 -0.00125973137351 6.14008139717e-23)
(-0.0319945002398 -0.00468923259791 -2.94073098729e-22)
(-0.0313211002625 -0.00358964291066 -4.30807678555e-22)
(-0.0312643851525 -0.00701966032977 -1.09880274331e-22)
(-0.0303166346086 -0.00592572799053 -3.15617317254e-22)
(-0.0310240839253 -0.0093543621298 6.62765536336e-23)
(-0.0298551521536 -0.00828711417525 -5.19642612987e-23)
(-0.0311108537825 -0.0117149790303 1.49576336461e-22)
(-0.0298215018531 -0.0106528477319 1.25983455649e-22)
(-0.0313661941629 -0.0141015715673 1.46333147849e-22)
(-0.0300117711099 -0.0130423780867 1.56945376278e-22)
(-0.0317014908964 -0.0165219524029 1.24860380806e-22)
(-0.0303069464622 -0.0154572678212 1.37514290676e-22)
(-0.0320742644483 -0.0189804318728 1.21452008083e-22)
(-0.0306495900189 -0.0179022456521 1.23597861758e-22)
(-0.032462087569 -0.0214796101151 1.53856967195e-22)
(-0.0310146873834 -0.020385574876 1.52487033652e-22)
(-0.0313157843765 -0.0229049009269 2.05591477905e-22)
(-0.0307134450459 -0.00242531856311 -2.15533874951e-22)
(-0.0300879950436 -0.00131101426824 1.21448554279e-22)
(-0.0296295301933 -0.00482153657014 -4.5235189708e-22)
(-0.0289250959002 -0.00369042921419 -5.35354959882e-22)
(-0.0289000645368 -0.00720238759463 -2.57701304222e-22)
(-0.0279360371428 -0.00607630306571 -4.71725650283e-22)
(-0.0286471370884 -0.00958500892972 7.74264071702e-24)
(-0.0274728311681 -0.00848548679638 -1.49306554716e-22)
(-0.0287144838559 -0.0119856141831 1.33352495467e-22)
(-0.0274212334011 -0.0108921448641 1.01835968637e-22)
(-0.02894412393 -0.0144070043394 1.48126519105e-22)
(-0.0275907240395 -0.0133165913464 1.60042695258e-22)
(-0.0292487931067 -0.0168538123368 1.36251771628e-22)
(-0.0278604439398 -0.0157599202495 1.71572275629e-22)
(-0.0295880412633 -0.019324391751 1.54632887327e-22)
(-0.0281792079087 -0.01822491518 1.57542305508e-22)
(-0.0299310261482 -0.0218397292475 2.04221544362e-22)
(-0.0284994317164 -0.0207085384732 2.2352312493e-22)
(-0.0288126661294 -0.023195595974 2.12565358373e-22)
(-0.0282750592434 -0.00248332000669 -1.98372530652e-22)
(-0.0276048438946 -0.00135398635127 3.6725446029e-22)
(-0.0272129323202 -0.00494276077241 -5.54728713086e-22)
(-0.0264658590093 -0.00378072241017 -4.74314896895e-22)
(-0.0264948467456 -0.0073703397666 -3.63330900778e-22)
(-0.0255087175756 -0.00621420684844 -4.77463390971e-22)
(-0.026234756945 -0.00979380984274 -5.52132267963e-23)
(-0.0250496846061 -0.00866500703046 -1.79308492728e-22)
(-0.0262852829735 -0.0122293848288 1.28526168428e-22)
(-0.0249860325996 -0.0111082727691 9.05316338642e-23)
(-0.0264957549999 -0.0146812801607 1.83488451782e-22)
(-0.0251392142157 -0.0135651606938 1.71138320183e-22)
(-0.0267822127554 -0.0171448992411 1.92862809508e-22)
(-0.0253971621035 -0.0160363703786 2.04162685604e-22)
(-0.0271002375273 -0.0196276114938 2.26432543111e-22)
(-0.0256967962172 -0.0185167699218 2.33725618146e-22)
(-0.0274147989013 -0.0221141864958 2.31866938941e-22)
(-0.0260130620787 -0.0209883130329 3.11745216941e-22)
(-0.0263359736845 -0.0234433572011 2.92352052729e-22)
(-0.0257779395853 -0.00255289578448 9.13120940478e-23)
(-0.0250521114424 -0.00139132335803 9.44551796466e-22)
(-0.0247505053219 -0.00505019363504 -3.9704957478e-22)
(-0.0239687755249 -0.00385858645643 -1.2425857931e-22)
(-0.0240502526933 -0.00751962933429 -2.93440982921e-22)
(-0.0230395804633 -0.00633421285836 -2.80637166539e-22)
(-0.0237870004649 -0.00998033055178 -3.35636320673e-23)
(-0.022589374056 -0.00882268495405 -8.87506476733e-23)
(-0.0238251688769 -0.0124509478332 1.33143785619e-22)
(-0.0225158235161 -0.0113018344812 1.3028135587e-22)
(-0.0240272892558 -0.0149317200555 1.91812554005e-22)
(-0.0226589018136 -0.013797370895 2.25954514136e-22)
(-0.024314788374 -0.0174163371208 2.45025494241e-22)
(-0.0229131477134 -0.0163056227386 3.65140327599e-22)
(-0.0246318376275 -0.0199153173303 3.19038291975e-22)
(-0.0231982049068 -0.0187979628147 6.11745523541e-22)
(-0.0249469492619 -0.0223576319521 3.72230330728e-22)
(-0.0235710793513 -0.0212588988822 8.40941204014e-22)
(-0.0239145159128 -0.0236918428547 9.2636375945e-22)
(-0.0232286062456 -0.00259075640052 7.28981123109e-22)
(-0.0224615365845 -0.00142526138034 1.444606096e-21)
(-0.0222461028954 -0.00514115820638 -7.84617106878e-24)
(-0.0214186550906 -0.00392122052899 2.53508570235e-22)
(-0.0215677254581 -0.00764443907565 -7.59468312914e-23)
(-0.0205367016419 -0.00643044029707 -3.6199652179e-23)
(-0.0213032041972 -0.0101427678671 7.5094340264e-23)
(-0.0200915834673 -0.00895299737583 5.72616080751e-23)
(-0.0213325912031 -0.0126532993978 2.23092084387e-22)
(-0.0200060033592 -0.0114725418981 2.81428219682e-22)
(-0.0215343890551 -0.0151721755452 3.9928228773e-22)
(-0.0201409149543 -0.0140176616084 6.3386083519e-22)
(-0.0218276469968 -0.017713842153 7.31860356899e-22)
(-0.0203720510383 -0.0165673984073 1.50012196973e-21)
(-0.0221609942084 -0.0201764212069 1.13364843558e-21)
(-0.022518583675 -0.0226301480879 1.39507463274e-21)
(-0.0206382339205 -0.00263819538134 9.69133543123e-22)
(-0.0197057770687 -0.00521452103545 2.25155089125e-22)
(-0.0190489303846 -0.00775352039758 9.70087871875e-23)
(-0.0187822600242 -0.0102904099343 2.63595487493e-22)
(-0.0188006497768 -0.0128386470019 6.92196970486e-22)
(-0.0174588676142 -0.0116091898532 9.81033552778e-22)
(-0.0189914483119 -0.0154160848655 1.73470051719e-21)
)
;

boundaryField
{
    back
    {
        type            calculated;
        value           uniform (0 0 0);
    }
    sides
    {
        type            calculated;
        value           nonuniform List<vector> 0();
    }
    bottom
    {
        type            calculated;
        value           uniform (0 0 0);
    }
    front
    {
        type            calculated;
        value           uniform (0 0 0);
    }
    atmosphere
    {
        type            calculated;
        value           nonuniform List<vector> 0();
    }
    floatingObject
    {
        type            calculated;
        value           nonuniform List<vector> 0();
    }
    procBoundary4to0
    {
        type            processor;
        value           nonuniform List<vector> 8((-0.0536228443118 -0.000388929578754 -2.25374043755e-22) (-0.0527734721408 -0.00130240589714 -7.20833412719e-23) (-0.0521836515594 -0.00223955053572 -6.75395858939e-24) (-0.0522631484934 -0.00324396028809 6.49013521857e-23) (-0.0528850235161 -0.00433619529173 2.93100384792e-23) (-0.0538742439802 -0.0055236698229 3.50696942013e-24) (-0.0551312263159 -0.00683142321293 -6.57269640429e-24) (-0.0566199822891 -0.00829370361909 -7.10210411309e-24));
    }
    procBoundary4to3
    {
        type            processor;
        value           nonuniform List<vector> 
13
(
(-0.0207362057927 -0.0190840648949 2.99711148932e-21)
(-0.021117527084 -0.0215727889092 4.44319644324e-21)
(-0.0215357921232 -0.0240530603573 4.99562908224e-21)
(-0.0198235623056 -0.00145136564958 1.50788128576e-21)
(-0.0188426794653 -0.00396134826188 4.12424369341e-22)
(-0.0179983762945 -0.00649368433091 1.30894670326e-22)
(-0.0175555789463 -0.009048142863 2.98974770101e-22)
(-0.0175643262042 -0.0142068502281 2.95757987102e-21)
(-0.0192905351244 -0.017967909667 3.76537310216e-21)
(-0.0178210381836 -0.0168173594206 7.97214715711e-21)
(-0.016224015772 -0.0103684858254 1.01641283539e-21)
(-0.0162175931392 -0.0129729506852 3.24641645332e-21)
(-0.0148558958571 -0.0116940703609 4.30298262241e-21)
)
;
    }
    procBoundary4to5
    {
        type            processor;
        value           nonuniform List<vector> 
18
(
(-0.0566033826476 -0.00991755895505 -1.09975397647e-24)
(-0.0547538716156 -0.0114093848349 7.4619636902e-24)
(-0.0544194329107 -0.0130891330689 2.13116450665e-23)
(-0.0558204093675 -0.015297212689 2.44102266291e-23)
(-0.0553178151467 -0.017191273566 3.2252764196e-23)
(-0.0528190811673 -0.0183700086041 3.54182230678e-23)
(-0.0503582738112 -0.0193305159575 3.88616749478e-23)
(-0.0479554604093 -0.0201651994233 4.75853457951e-23)
(-0.045588011236 -0.0209516534232 5.2831028666e-23)
(-0.0431888527664 -0.0217317728091 2.87267255672e-23)
(-0.0407042758241 -0.0224805598302 6.68977736795e-23)
(-0.0381163160374 -0.0231485953584 9.81829424151e-23)
(-0.0354648190813 -0.023679946912 1.79135086313e-22)
(-0.0328251933668 -0.0240808636693 2.97388834366e-22)
(-0.0302390087785 -0.0243428224452 1.80971983677e-22)
(-0.0277047394386 -0.0245909733826 2.83123861499e-22)
(-0.0252504943636 -0.024779025256 3.92787469864e-22)
(-0.02291041205 -0.02500901931 1.5508860368e-21)
)
;
    }
}


// ************************************************************************* //
