/*--------------------------------*- C++ -*----------------------------------*\
| =========                 |                                                 |
| \\      /  F ield         | OpenFOAM: The Open Source CFD Toolbox           |
|  \\    /   O peration     | Version:  v2012                                 |
|   \\  /    A nd           | Website:  www.openfoam.com                      |
|    \\/     M anipulation  |                                                 |
\*---------------------------------------------------------------------------*/
FoamFile
{
    version     2.0;
    format      ascii;
    class       volScalarField;
    location    "5.7";
    object      ddt0(epsilon);
}
// * * * * * * * * * * * * * * * * * * * * * * * * * * * * * * * * * * * * * //

dimensions      [0 2 -4 0 0 0 0];


internalField   nonuniform List<scalar> 
166
(
-0.000249990938164
-0.00025579132067
-0.000281321580063
-0.000291086642415
-0.000294900292481
-0.000296672784776
-0.00029786111009
-0.000298967854241
-0.000300150534814
-0.000301435067129
-0.000302715702187
-0.000303396052742
-0.000300409072517
-0.000281204875566
-0.000211442168442
-5.57520696933e-05
0.00058033235435
0.0111946574007
0.103792437669
0.15183959125
-0.000250015948222
-0.000255919080034
-0.000281433492801
-0.000291181978553
-0.000294973136708
-0.000296721699444
-0.000297882802598
-0.000298956176073
-0.000300096468071
-0.000301323454807
-0.000302516085637
-0.000302999094834
-0.00029941896373
-0.000277677544751
-0.000192378120476
7.25872010901e-05
0.00134074554741
0.0135864100554
0.0875119235699
0.0794180554085
-0.00024995963404
-0.000255943341283
-0.000281421041412
-0.000291148314651
-0.000294917865108
-0.000296645883082
-0.000297784412606
-0.000298829441588
-0.000299932750058
-0.000301108062769
-0.000302219273214
-0.000302522723861
-0.000298396914046
-0.000274460112356
-0.000174003765717
0.000199338615599
0.00192056873935
0.01475229524
0.0862070197358
0.0650406968161
-0.0002498175012
-0.000255848024702
-0.000281278923689
-0.000290979809089
-0.000294729406921
-0.00029643972683
-0.000297559979712
-0.000298584309975
-0.000299659398044
-0.000300794422974
-0.000301829750884
-0.000301968954007
-0.000297373670197
-0.000271621535258
-0.000158489068272
0.000305536456599
0.00232433687707
0.0148069936307
0.0795281869953
0.0544753397501
-0.000249614804126
-0.000255628951967
-0.000280998220342
-0.000290669908829
-0.000294402375141
-0.000296097818262
-0.000297202467504
-0.000298210036039
-0.000299261526227
-0.000300358983682
-0.000301327196827
-0.00030129219462
-0.000296134946346
-0.000268216876704
-0.000142383337751
0.000404691108548
0.00268323840058
0.0128691749314
0.000661349914379
-0.0232202539636
-0.000249383773182
-0.000255275043791
-0.000280565592871
-0.000290207970717
-0.000293929071656
-0.00029561703654
-0.000296711331048
-0.000297704769007
-0.000298736140189
-0.000299801209603
-0.000300709504138
-0.000300503425055
-0.00029473961207
-0.000264168540392
-0.000122473802782
0.000525211095262
0.00314563990845
0.00920831990266
-0.0342156191521
-0.646201007026
-0.000249140435369
-0.00025477459074
-0.000279970857329
-0.000289586951046
-0.00029330260354
-0.000294992628947
-0.000296087442061
-0.000297078704156
-0.00029810244814
-0.000299154922244
-0.000300014330015
-0.000299652454787
-0.000293187918705
-0.000259150528195
-9.6462069275e-05
0.000678629929222
0.00364221236548
0.00628588230016
-0.0505466208191
-0.427357897336
-0.000248852106286
-0.000254134181177
-0.000279220825625
-0.000288807645958
-0.000292524498724
-0.000294219703315
-0.000295326359984
-0.000296326631022
-0.000297365338319
-0.000298413680975
-0.000299283564223
-0.000298785706886
-0.00029160550405
-0.000253538064665
-6.58779885897e-05
0.000853870748912
0.0041671407077
0.0061383875122
-0.00412059819661
0.359183646844
-0.000248426155345
-0.000253371304248
-0.000278326468111
-0.000247834400981
-0.0002469558578
-0.00024550608002
)
;

boundaryField
{
    back
    {
        type            calculated;
        value           nonuniform List<scalar> 
166
(
-0.000249990938164
-0.00025579132067
-0.000281321580063
-0.000291086642415
-0.000294900292481
-0.000296672784776
-0.00029786111009
-0.000298967854241
-0.000300150534814
-0.000301435067129
-0.000302715702187
-0.000303396052742
-0.000300409072517
-0.000281204875566
-0.000211442168442
-5.57520696933e-05
0.00058033235435
0.0111946574007
0.103792437669
0.15183959125
-0.000250015948222
-0.000255919080034
-0.000281433492801
-0.000291181978553
-0.000294973136708
-0.000296721699444
-0.000297882802598
-0.000298956176073
-0.000300096468071
-0.000301323454807
-0.000302516085637
-0.000302999094834
-0.00029941896373
-0.000277677544751
-0.000192378120476
7.25872010901e-05
0.00134074554741
0.0135864100554
0.0875119235699
0.0794180554085
-0.00024995963404
-0.000255943341283
-0.000281421041412
-0.000291148314651
-0.000294917865108
-0.000296645883082
-0.000297784412606
-0.000298829441588
-0.000299932750058
-0.000301108062769
-0.000302219273214
-0.000302522723861
-0.000298396914046
-0.000274460112356
-0.000174003765717
0.000199338615599
0.00192056873935
0.01475229524
0.0862070197358
0.0650406968161
-0.0002498175012
-0.000255848024702
-0.000281278923689
-0.000290979809089
-0.000294729406921
-0.00029643972683
-0.000297559979712
-0.000298584309975
-0.000299659398044
-0.000300794422974
-0.000301829750884
-0.000301968954007
-0.000297373670197
-0.000271621535258
-0.000158489068272
0.000305536456599
0.00232433687707
0.0148069936307
0.0795281869953
0.0544753397501
-0.000249614804126
-0.000255628951967
-0.000280998220342
-0.000290669908829
-0.000294402375141
-0.000296097818262
-0.000297202467504
-0.000298210036039
-0.000299261526227
-0.000300358983682
-0.000301327196827
-0.00030129219462
-0.000296134946346
-0.000268216876704
-0.000142383337751
0.000404691108548
0.00268323840058
0.0128691749314
0.000661349914379
-0.0232202539636
-0.000249383773182
-0.000255275043791
-0.000280565592871
-0.000290207970717
-0.000293929071656
-0.00029561703654
-0.000296711331048
-0.000297704769007
-0.000298736140189
-0.000299801209603
-0.000300709504138
-0.000300503425055
-0.00029473961207
-0.000264168540392
-0.000122473802782
0.000525211095262
0.00314563990845
0.00920831990266
-0.0342156191521
-0.646201007026
-0.000249140435369
-0.00025477459074
-0.000279970857329
-0.000289586951046
-0.00029330260354
-0.000294992628947
-0.000296087442061
-0.000297078704156
-0.00029810244814
-0.000299154922244
-0.000300014330015
-0.000299652454787
-0.000293187918705
-0.000259150528195
-9.64620692749e-05
0.000678629929222
0.00364221236548
0.00628588230016
-0.0505466208191
-0.427357897336
-0.000248852106286
-0.000254134181177
-0.000279220825626
-0.000288807645958
-0.000292524498724
-0.000294219703315
-0.000295326359984
-0.000296326631022
-0.000297365338319
-0.000298413680975
-0.000299283564223
-0.000298785706886
-0.00029160550405
-0.000253538064665
-6.58779885897e-05
0.000853870748912
0.0041671407077
0.0061383875122
-0.00412059819661
0.359183646844
-0.000248426155345
-0.000253371304248
-0.000278326468111
-0.000247834400981
-0.0002469558578
-0.00024550608002
)
;
    }
    sides
    {
        type            calculated;
        value           nonuniform List<scalar> 0();
    }
    bottom
    {
        type            calculated;
        value           nonuniform List<scalar> 
12
(
-0.000249990938164
-0.000250015948222
-0.00024995963404
-0.0002498175012
-0.000249614804126
-0.000249383773182
-0.000249140435369
-0.000248852106286
-0.000248426155345
-0.000247834400981
-0.0002469558578
-0.00024550608002
)
;
    }
    front
    {
        type            calculated;
        value           nonuniform List<scalar> 
166
(
-0.000249990938164
-0.00025579132067
-0.000281321580063
-0.000291086642415
-0.000294900292481
-0.000296672784776
-0.00029786111009
-0.000298967854241
-0.000300150534814
-0.000301435067129
-0.000302715702187
-0.000303396052742
-0.000300409072517
-0.000281204875566
-0.000211442168442
-5.57520696933e-05
0.00058033235435
0.0111946574007
0.103792437669
0.15183959125
-0.000250015948222
-0.000255919080034
-0.000281433492801
-0.000291181978553
-0.000294973136708
-0.000296721699444
-0.000297882802598
-0.000298956176073
-0.000300096468071
-0.000301323454807
-0.000302516085637
-0.000302999094834
-0.00029941896373
-0.000277677544751
-0.000192378120476
7.25872010901e-05
0.00134074554741
0.0135864100554
0.0875119235699
0.0794180554085
-0.00024995963404
-0.000255943341283
-0.000281421041412
-0.000291148314651
-0.000294917865108
-0.000296645883082
-0.000297784412606
-0.000298829441588
-0.000299932750058
-0.000301108062769
-0.000302219273214
-0.000302522723861
-0.000298396914046
-0.000274460112356
-0.000174003765717
0.000199338615599
0.00192056873935
0.01475229524
0.0862070197358
0.0650406968161
-0.0002498175012
-0.000255848024702
-0.000281278923689
-0.000290979809089
-0.000294729406921
-0.00029643972683
-0.000297559979712
-0.000298584309975
-0.000299659398044
-0.000300794422974
-0.000301829750884
-0.000301968954007
-0.000297373670197
-0.000271621535258
-0.000158489068272
0.000305536456599
0.00232433687707
0.0148069936307
0.0795281869953
0.0544753397501
-0.000249614804126
-0.000255628951967
-0.000280998220342
-0.000290669908829
-0.000294402375141
-0.000296097818262
-0.000297202467504
-0.000298210036039
-0.000299261526227
-0.000300358983682
-0.000301327196827
-0.00030129219462
-0.000296134946346
-0.000268216876704
-0.000142383337751
0.000404691108548
0.00268323840058
0.0128691749314
0.000661349914379
-0.0232202539636
-0.000249383773182
-0.000255275043791
-0.000280565592871
-0.000290207970717
-0.000293929071656
-0.00029561703654
-0.000296711331048
-0.000297704769007
-0.000298736140189
-0.000299801209603
-0.000300709504138
-0.000300503425055
-0.00029473961207
-0.000264168540392
-0.000122473802782
0.000525211095262
0.00314563990845
0.00920831990266
-0.0342156191521
-0.646201007026
-0.000249140435369
-0.00025477459074
-0.000279970857329
-0.000289586951046
-0.00029330260354
-0.000294992628947
-0.000296087442061
-0.000297078704156
-0.00029810244814
-0.000299154922244
-0.000300014330015
-0.000299652454787
-0.000293187918705
-0.000259150528195
-9.64620692749e-05
0.000678629929222
0.00364221236548
0.00628588230016
-0.0505466208191
-0.427357897336
-0.000248852106286
-0.000254134181177
-0.000279220825626
-0.000288807645958
-0.000292524498724
-0.000294219703315
-0.000295326359984
-0.000296326631022
-0.000297365338319
-0.000298413680975
-0.000299283564223
-0.000298785706886
-0.00029160550405
-0.000253538064665
-6.58779885897e-05
0.000853870748912
0.0041671407077
0.0061383875122
-0.00412059819661
0.359183646844
-0.000248426155345
-0.000253371304248
-0.000278326468111
-0.000247834400981
-0.0002469558578
-0.00024550608002
)
;
    }
    atmosphere
    {
        type            calculated;
        value           nonuniform List<scalar> 8(-0.00361088942344 0.000913019136784 0.000368188823093 0.000415652829536 2.60725735235 0.221614061039 -0.205584963334 -0.593822200785);
    }
    floatingObject
    {
        type            calculated;
        value           nonuniform List<scalar> 0();
    }
    procBoundary9to6
    {
        type            processor;
        value           nonuniform List<scalar> 4(0.000112221676527 0.00799148761625 0.0972060880125 0.215449951253);
    }
    procBoundary9to7
    {
        type            processor;
        value           nonuniform List<scalar> 
16
(
-0.000249867767108
-0.000255557379902
-0.000281090660901
-0.000290863756579
-0.000294696385722
-0.000296492794554
-0.000297709370083
-0.000298850163379
-0.000300074523072
-0.000301412802248
-0.000302776239925
-0.000303654454056
-0.000301325928862
-0.000284664174041
-0.000226543724494
-0.000132185909893
)
;
    }
    procBoundary9to10
    {
        type            processor;
        value           nonuniform List<scalar> 
15
(
-0.000287884507017
-0.000291595253033
-0.000293303420619
-0.000294425121527
-0.000295450301142
-0.000296510247973
-0.000297605171206
-0.000298473628382
-0.000252480821789
-0.000287884507017
-0.000277283495693
-0.000252480821789
-0.000251421006744
-0.000250162281587
-0.00024385641018
)
;
    }
    procBoundary9to11
    {
        type            processor;
        value           nonuniform List<scalar> 9(-0.000297942891032 -0.000290001126506 -0.000247428450688 -3.44620911058e-05 0.00101152026705 0.00484317416461 0.0107505966397 0.0255751167076 0.0115790847508);
    }
}


// ************************************************************************* //
