/*--------------------------------*- C++ -*----------------------------------*\
| =========                 |                                                 |
| \\      /  F ield         | OpenFOAM: The Open Source CFD Toolbox           |
|  \\    /   O peration     | Version:  v2012                                 |
|   \\  /    A nd           | Website:  www.openfoam.com                      |
|    \\/     M anipulation  |                                                 |
\*---------------------------------------------------------------------------*/
FoamFile
{
    version     2.0;
    format      ascii;
    class       volVectorField;
    location    "5.7";
    object      U;
}
// * * * * * * * * * * * * * * * * * * * * * * * * * * * * * * * * * * * * * //

dimensions      [0 1 -1 0 0 0 0];


internalField   nonuniform List<vector> 
166
(
(0.00189301581981 -0.000364542005651 -3.45681305276e-22)
(0.000815408994724 -0.00115953222097 -2.30559323315e-22)
(-7.9334011726e-06 -0.00197373496717 -1.04657091325e-22)
(-0.000573328856745 -0.0028481696057 -1.3594815905e-24)
(-0.000880998917527 -0.00377543725016 1.05159088108e-23)
(-0.00105313334487 -0.00475618975712 2.2943127493e-24)
(-0.0011870749389 -0.00579792414019 -2.65314303293e-26)
(-0.00133163139196 -0.00690984377082 1.55029841529e-25)
(-0.00150845943687 -0.00810021606346 8.78829591334e-24)
(-0.00172428337525 -0.00938091925984 6.40323733171e-24)
(-0.00198427452837 -0.0107828767816 1.14095578676e-23)
(-0.00227617313626 -0.0123028481291 -2.93754879289e-23)
(-0.00258325764311 -0.0139693183224 -2.02418856506e-22)
(-0.00290111970798 -0.0158269758124 -5.82833829606e-22)
(-0.0033315594562 -0.0180726329769 -9.12487518296e-22)
(-0.00413862763766 -0.0210590880642 -1.41137891266e-21)
(-0.00484344356456 -0.0240480150362 -5.34308858191e-21)
(-0.00256540736383 -0.0197047851169 -5.06105291928e-21)
(0.0953825749441 -0.0340335796872 -4.73742567688e-21)
(0.0334715816141 -0.0656270838454 -1.10201198009e-21)
(0.00265546082623 -0.00036935772168 -3.48541867262e-22)
(0.00161666474224 -0.00116817190627 -2.27112468446e-22)
(0.000843587478823 -0.00199295533925 -1.09462819306e-22)
(0.000330757291904 -0.00287778904508 -2.63041237404e-23)
(7.82698429208e-05 -0.00381910378344 -7.35398865474e-24)
(-3.43455725299e-05 -0.00481855064428 -5.65423762141e-24)
(-9.87261166711e-05 -0.00588476259953 -4.35153477981e-26)
(-0.000163275550219 -0.00703107036465 1.19223173709e-25)
(-0.000251020270645 -0.00826768745992 9.21655575884e-24)
(-0.000366032380697 -0.00960781303448 -7.80422955961e-24)
(-0.00050461621449 -0.0110765277831 -1.68939244675e-23)
(-0.000647143950693 -0.0126656620781 -1.21492227553e-22)
(-0.000781670430231 -0.0143825544782 -3.95606958599e-22)
(-0.000842162776121 -0.0162690307371 -1.14748494728e-21)
(-0.00084296506777 -0.0186194787214 -1.1769499073e-21)
(-0.00123827109257 -0.021684522575 -2.19388239627e-21)
(-0.00195309298441 -0.0247422010653 -5.43333149841e-21)
(0.0026065075698 -0.0208777971265 -7.14759947506e-21)
(0.120575052033 -0.0346886629642 -7.19225537087e-21)
(0.0369156462174 -0.0678652758878 -8.76941163817e-21)
(0.00341852415652 -0.00037159952503 -3.43759501753e-22)
(0.00241901577584 -0.00116013715471 -2.44949114735e-22)
(0.00169850074372 -0.00198096196191 -1.28730322412e-22)
(0.00124060684289 -0.00286587971704 -5.73653669051e-23)
(0.00104668743568 -0.00381028876002 -2.82964019642e-23)
(0.00099913929763 -0.00481603269846 -1.2315494351e-23)
(0.0010115864734 -0.00589254404078 -3.78124226864e-24)
(0.00103644437041 -0.00705869049044 -1.70894835677e-24)
(0.00105066577223 -0.00832430073658 1.62605998551e-23)
(0.00104865563465 -0.00970058985616 1.19094176948e-23)
(0.00103870505148 -0.0112082085003 -4.01427469917e-23)
(0.0010308603581 -0.0128548329867 -2.30662974011e-22)
(0.00106521479424 -0.0146462432677 -5.58327420916e-22)
(0.00125962973739 -0.0165759974514 -1.38159549811e-21)
(0.00172048623019 -0.018998150566 -1.50319727397e-21)
(0.00180727634479 -0.0219489432894 -1.86224739524e-21)
(0.00102803788308 -0.0251065432964 -2.33160666315e-21)
(0.00770173461192 -0.0220304463657 -1.10895402698e-20)
(0.145700502667 -0.0340366111556 -1.14887827122e-20)
(0.0379656349904 -0.0595183360966 -6.14596794385e-21)
(0.00416904802148 -0.000368322707323 -3.66816375373e-22)
(0.00321222399092 -0.00113176401335 -2.55920426375e-22)
(0.00254543865791 -0.00193612789914 -1.62444695154e-22)
(0.0021452451781 -0.00281011045216 -8.65348435838e-23)
(0.00201148361927 -0.00374505762562 -4.93033684574e-23)
(0.00203358606002 -0.00474352673287 -1.43970158286e-23)
(0.00212529845748 -0.00581482364472 -1.0371698152e-23)
(0.00224328996617 -0.00697895000501 1.38412579637e-23)
(0.00237228575129 -0.00824666145117 2.49360751647e-23)
(0.00249673901811 -0.00963189974505 1.31213653005e-23)
(0.00262258517141 -0.0111668623527 -2.07352649315e-23)
(0.00275844389241 -0.0128604007713 -2.73410057565e-22)
(0.0029685848093 -0.0147136853787 -7.42282619417e-22)
(0.00339289083689 -0.0166970606777 -1.93323928273e-21)
(0.00426250734883 -0.0192115747597 -2.41171547826e-21)
(0.00489705879811 -0.0220724398375 -1.55566831893e-21)
(0.00426480377935 -0.0253773912028 -1.23577596503e-21)
(0.01208745609 -0.0234009869842 -1.22566000852e-20)
(0.147278885159 -0.0249351996092 -1.55714952901e-20)
(0.0477264768977 0.0159155865729 -3.30176037722e-21)
(0.00489546449639 -0.000358683684731 -3.63769183226e-22)
(0.00398455046325 -0.00108416954607 -2.72062902479e-22)
(0.00337284976989 -0.0018608350178 -1.7242189557e-22)
(0.00303268962553 -0.0027140529111 -9.30683316077e-23)
(0.0029596630516 -0.00362572730675 -4.40583407692e-23)
(0.00305541921336 -0.0046039332044 -1.14550971678e-23)
(0.00322944572932 -0.00566012894113 -5.92190949058e-24)
(0.0034439856623 -0.00680836380054 8.85971041633e-24)
(0.00369151073835 -0.00806671389822 1.08474230126e-23)
(0.00395397682396 -0.00945337909607 -1.24835833075e-24)
(0.00422694096525 -0.0109999889698 3.30822041547e-25)
(0.00453620743306 -0.0127231598603 -2.43739064059e-22)
(0.00493757685922 -0.0146345064422 -8.70428672722e-22)
(0.00559729791573 -0.0166928233141 -2.25827246808e-21)
(0.00681572843844 -0.019338217842 -2.8983078143e-21)
(0.00802505745188 -0.0222807561244 -1.67070738519e-21)
(0.00798264624583 -0.0257508629164 -1.25646225917e-21)
(0.0136085709032 -0.0251409629595 -1.47851555057e-20)
(0.0641373427377 -0.0206308916501 -1.50484346934e-20)
(0.0652241308412 0.0813712091471 1.42873847298e-20)
(0.00558377686911 -0.000340649845279 -3.08901489404e-22)
(0.0047248725982 -0.00102042310618 -1.91503862594e-22)
(0.00417056945043 -0.00175921786572 -1.16481088374e-22)
(0.00389245557765 -0.00257924799163 -4.49834490848e-23)
(0.00388544758072 -0.00345304044278 -1.89824468011e-23)
(0.00405179696754 -0.0043951570381 -7.22796764026e-24)
(0.00431363856563 -0.00542359573265 -6.83313347335e-24)
(0.00463492497595 -0.00654653167481 -5.94592972986e-25)
(0.0050015965639 -0.00778577097502 -1.00014377234e-23)
(0.00540556053911 -0.00916205887417 -1.77252971253e-23)
(0.00584775692863 -0.0106997559364 -7.67299862185e-23)
(0.00634509106823 -0.0124294213425 -1.73103228554e-22)
(0.00696966333595 -0.0143807923855 -5.23572521544e-22)
(0.00792208688228 -0.0165283204271 -1.02689002764e-21)
(0.00946426375723 -0.0192941504497 -2.1665749036e-21)
(0.0112222453988 -0.0223101629621 -2.56999748591e-21)
(0.0119926662021 -0.025909636427 -7.2028291466e-21)
(0.01379516761 -0.0262605142842 -1.09961115974e-20)
(0.0191420491205 -0.0319984475678 -1.12056516917e-20)
(0.0426733669649 0.0288636435218 -2.03754526613e-20)
(0.00622319505153 -0.000323387863582 -1.69197169954e-22)
(0.00542020702669 -0.000943584832661 -6.01944372837e-23)
(0.00492497852893 -0.00163048212569 -1.14957859064e-23)
(0.00471049349266 -0.00239981937536 1.77968991895e-23)
(0.00477085652274 -0.00322391925371 -1.11652379074e-24)
(0.00500741252287 -0.00411414688526 2.35024515769e-24)
(0.00535673654202 -0.00508753766217 -3.91901777344e-24)
(0.0057858475692 -0.00616235993285 1.60874800366e-23)
(0.00627843972631 -0.0073592589061 1.98673333654e-23)
(0.00683887479763 -0.00869343062054 5.57880740397e-24)
(0.00746479736521 -0.0101976806705 -5.07638286025e-23)
(0.0081724449614 -0.0119158399575 -1.295159425e-22)
(0.00905634371637 -0.0138728937513 -4.05882568725e-22)
(0.0103241675974 -0.0160912942198 -1.05545945485e-21)
(0.01215359907 -0.0188838628004 -2.06725712273e-21)
(0.0144374287278 -0.0218483470413 -3.62257111734e-21)
(0.0158936633525 -0.0255365042249 -7.58308843295e-21)
(0.0149462177276 -0.0263998959056 -9.2273562155e-21)
(0.00758824831385 -0.0306166689373 -9.10853739392e-21)
(0.00653953311659 -0.0168177913456 6.72183246037e-21)
(0.0068107014125 -0.000301913314085 -5.56227004534e-23)
(0.0060582581688 -0.00084939824131 4.71129767215e-23)
(0.00562160003186 -0.00147007891189 7.40178039189e-23)
(0.00546858871991 -0.00217448896105 4.79125539302e-23)
(0.0055929413465 -0.00293338425028 9.16062385988e-24)
(0.00590404266596 -0.00375566831847 -1.09480736607e-24)
(0.00633827423821 -0.00465703828299 7.35792899029e-25)
(0.00687004611362 -0.00565780060503 6.68509878174e-24)
(0.00749531254739 -0.00677633614243 3.1485142686e-23)
(0.00822048396401 -0.00803889938381 1.34545931785e-23)
(0.00903677272048 -0.00947990236051 -2.82991589121e-23)
(0.00998673910832 -0.0111412051822 -1.36815768486e-22)
(0.0111609785833 -0.0130573387015 -5.65115032041e-22)
(0.0127169410007 -0.015283481326 -1.84621337438e-21)
(0.0147973775509 -0.0179498162461 -3.26459864346e-21)
(0.0175608593072 -0.0208776593736 -4.77963343828e-21)
(0.0194497409228 -0.0249302785028 -3.18697805405e-21)
(0.0176745860166 -0.025861028262 -9.28452464081e-21)
(0.0106756277056 -0.0277468410565 -9.10810637256e-21)
(-0.0112361486833 -0.0316865670805 -1.45415916251e-21)
(0.0073231216815 -0.000266373665568 3.47302054221e-24)
(0.00662543201924 -0.000733398879414 7.45921804783e-23)
(0.00624700238182 -0.00127503467664 7.73881450029e-23)
(0.00775235017854 -0.000226052508079 3.52130447443e-23)
(0.00809041652764 -0.000182371664779 1.44639829191e-22)
(0.00832462934794 -0.000129978944252 3.05628484724e-22)
)
;

boundaryField
{
    back
    {
        type            noSlip;
    }
    sides
    {
        type            noSlip;
    }
    bottom
    {
        type            noSlip;
    }
    front
    {
        type            noSlip;
    }
    atmosphere
    {
        type            pressureInletOutletVelocity;
        value           nonuniform List<vector> 8((0 -0.0656270838454 0) (0 -0.0678652758878 0) (0 -0.0595183360966 0) (0 0.0159155865729 0) (0.0652241308412 0.0813712091471 1.42873847298e-20) (0.0426733669649 0.0288636435218 -2.03754526613e-20) (0 -0.0168177913456 0) (0 -0.0316865670805 0));
    }
    floatingObject
    {
        type            movingWallVelocity;
        value           nonuniform List<vector> 0();
    }
    procBoundary9to6
    {
        type            processor;
        value           nonuniform List<vector> 4((-0.00769274973974 -0.0233149900154 1.37731408884e-21) (-0.00749732370203 -0.0186576974767 -3.90982319372e-21) (0.0723414063635 -0.0326989749598 -4.54828700252e-21) (0.0277938145128 -0.0618161345061 2.59941254149e-21));
    }
    procBoundary9to7
    {
        type            processor;
        value           nonuniform List<vector> 
16
(
(0.00114530262291 -0.000351239996397 -3.10087329275e-22)
(2.65868872463e-05 -0.00113039036292 -2.22384137798e-22)
(-0.000843677653066 -0.00192214078194 -9.65416645069e-23)
(-0.00145973491323 -0.00277308127606 1.01906368737e-23)
(-0.00181921582974 -0.00367521738893 1.40017761457e-23)
(-0.00204663316379 -0.00462818052116 4.01818892248e-24)
(-0.00224360676796 -0.00563799635201 -2.4158995391e-24)
(-0.00245993278189 -0.00671378840553 -2.18914492759e-24)
(-0.00271757986627 -0.00786359649655 2.81174300056e-24)
(-0.00302644678316 -0.00909881052922 -1.48130324314e-23)
(-0.00339750368798 -0.0104476024433 4.35566349619e-23)
(-0.00383927218535 -0.0119068151423 6.20268996266e-23)
(-0.00432087472622 -0.0135046888232 -1.10611868641e-24)
(-0.00489179863569 -0.0152971266527 -2.9420691816e-22)
(-0.0057080942208 -0.017405530871 -9.53826154384e-22)
(-0.00687569441197 -0.0201690513259 -2.34096664493e-22)
)
;
    }
    procBoundary9to10
    {
        type            processor;
        value           nonuniform List<vector> 
15
(
(0.00615336849938 -0.00190102589256 2.91556631225e-23)
(0.00633972168858 -0.00257801679715 -3.36781979427e-24)
(0.00672244774704 -0.00331566557557 -4.69472617951e-24)
(0.00724282011369 -0.00412821037306 3.24978648795e-24)
(0.00787953146908 -0.00503312905998 2.61472845673e-23)
(0.00863368665702 -0.00605053436026 5.46132092576e-23)
(0.00951498428544 -0.00721548308204 7.31834431611e-24)
(0.0105332129429 -0.00855471276688 -3.92977115938e-23)
(0.00710934345534 -0.000600227189895 9.65453790816e-23)
(0.00615336849938 -0.00190102589256 2.91556631225e-23)
(0.00678732120725 -0.00104915136775 8.22892277921e-23)
(0.00710934345534 -0.000600227189895 9.65453790816e-23)
(0.00750065743125 -0.000452281744232 1.72297150184e-22)
(0.00778716532874 -0.00028620166292 3.09741463686e-22)
(0.00844289330246 -7.01856017094e-05 4.89624976114e-22)
)
;
    }
    procBoundary9to11
    {
        type            processor;
        value           nonuniform List<vector> 9((0.0117266557726 -0.0101073314119 -1.7222043731e-22) (0.0131840606652 -0.0119153651739 -6.3261725152e-22) (0.0150105693625 -0.0140314768142 -2.1344881134e-21) (0.0173548482161 -0.0164510230396 -4.55446320418e-21) (0.0205435055195 -0.0193591005227 -4.52773647499e-21) (0.0227786651026 -0.0239621982938 -4.83413829503e-21) (0.0217941267388 -0.024930318127 -1.19716428033e-20) (0.0163886238104 -0.0249970386522 -1.19250884551e-20) (-0.0107073847465 -0.0382225558575 -4.70103313292e-21));
    }
}


// ************************************************************************* //
