/*--------------------------------*- C++ -*----------------------------------*\
| =========                 |                                                 |
| \\      /  F ield         | OpenFOAM: The Open Source CFD Toolbox           |
|  \\    /   O peration     | Version:  v2012                                 |
|   \\  /    A nd           | Website:  www.openfoam.com                      |
|    \\/     M anipulation  |                                                 |
\*---------------------------------------------------------------------------*/
FoamFile
{
    version     2.0;
    format      ascii;
    class       volScalarField;
    location    "5.6";
    object      p;
}
// * * * * * * * * * * * * * * * * * * * * * * * * * * * * * * * * * * * * * //

dimensions      [1 -1 -2 0 0 0 0];


internalField   nonuniform List<scalar> 
166
(
8401.36676505
7911.84460205
7422.42529527
6933.1121167
6443.91035718
5954.82888585
5465.87957515
4977.0774328
4488.44131272
3999.99457125
3511.76614062
3023.79136071
2536.11229415
2048.77890548
1561.84521031
1075.3638989
589.523243864
178.963794717
-0.20393630885
-9.57790036302
8394.21776383
7904.66746067
7415.19285895
6925.79687073
6436.48475073
5947.26533283
5458.15049638
4969.15534667
4480.29875796
3991.60390642
3503.09935343
3014.81958361
2526.80653575
2039.10910116
1551.77402291
1064.8478469
578.519672477
171.524413722
-1.9473601656
-9.5747870615
8386.99571531
7897.41529693
7407.88127724
6918.39610962
6428.96468608
5939.59548961
5450.29995445
4961.09271564
4471.99205396
3983.02032235
3494.20474466
3005.57890825
2517.1830201
2029.06170436
1541.26172382
1053.82515755
566.93340853
163.632894421
-3.79653644094
-9.56897874997
8379.73024905
7890.11782246
7400.52042116
6910.93988796
6421.38051227
5931.85013541
5442.35918662
4952.92121203
4463.55341495
3974.276864
3485.11667296
2996.10402148
2507.27774012
2018.68026913
1530.35976651
1042.35679426
554.831164405
155.397245225
-5.65294760888
-9.56296421559
8372.45302766
7882.80678499
7393.14235362
6903.46075516
6413.76546916
5924.06334005
5434.36346364
4944.67771484
4455.02135955
3965.41310875
3475.87572525
2986.43726446
2497.135035
2008.00966811
1519.11123449
1030.48373382
542.304948352
147.058719521
-7.36997945707
-9.55919273164
8365.19752769
7875.51581681
7385.78114522
6895.9934648
6406.15530253
5916.27208462
5426.35132594
4936.40266028
4446.43841156
3956.47423563
3466.52972513
2976.6288522
2486.80586381
1997.09888782
1507.55750006
1018.23935823
529.397096325
138.799087423
-8.75950259478
-9.5580054433
8357.9986599
7868.28025655
7378.47265513
6888.57481943
6398.58794833
5908.5159194
5418.36416637
4928.13972238
4437.8514919
3947.51114185
3457.13332624
2966.73743797
2476.35110545
1986.00459219
1495.7413715
1005.61219301
515.930960439
131.445980031
-9.11362010774
-9.59449975932
8350.89283199
7861.13675793
7371.25442611
6881.24331963
6391.10350229
5900.83690332
5410.44664488
4919.93666353
4429.31223067
3938.57983882
3447.74868389
2956.8306914
2465.84368435
1974.80599637
1483.74648975
992.682756338
502.051337639
124.088001053
-9.12513055465
-9.57577703012
8343.91760852
7854.12325002
7364.16494434
8337.11088596
8330.51060037
8324.15369068
)
;

boundaryField
{
    back
    {
        type            calculated;
        value           nonuniform List<scalar> 
166
(
8401.36676505
7911.84460205
7422.42529527
6933.1121167
6443.91035718
5954.82888585
5465.87957515
4977.0774328
4488.44131272
3999.99457125
3511.76614062
3023.79136071
2536.11229415
2048.77890548
1561.84521031
1075.3638989
589.523243864
178.963794717
-0.20393630885
-9.57790036302
8394.21776383
7904.66746067
7415.19285895
6925.79687073
6436.48475073
5947.26533283
5458.15049638
4969.15534667
4480.29875796
3991.60390642
3503.09935343
3014.81958361
2526.80653575
2039.10910116
1551.77402291
1064.8478469
578.519672477
171.524413722
-1.9473601656
-9.5747870615
8386.99571531
7897.41529693
7407.88127724
6918.39610962
6428.96468608
5939.59548961
5450.29995445
4961.09271564
4471.99205396
3983.02032235
3494.20474466
3005.57890825
2517.1830201
2029.06170436
1541.26172382
1053.82515755
566.93340853
163.632894421
-3.79653644094
-9.56897874997
8379.73024905
7890.11782246
7400.52042116
6910.93988796
6421.38051227
5931.85013541
5442.35918662
4952.92121203
4463.55341495
3974.276864
3485.11667296
2996.10402148
2507.27774012
2018.68026913
1530.35976651
1042.35679426
554.831164405
155.397245225
-5.65294760888
-9.56296421559
8372.45302766
7882.80678499
7393.14235362
6903.46075516
6413.76546916
5924.06334005
5434.36346364
4944.67771484
4455.02135955
3965.41310875
3475.87572525
2986.43726446
2497.135035
2008.00966811
1519.11123449
1030.48373382
542.304948352
147.058719521
-7.36997945707
-9.55919273164
8365.19752769
7875.51581681
7385.78114522
6895.9934648
6406.15530253
5916.27208462
5426.35132594
4936.40266028
4446.43841156
3956.47423563
3466.52972513
2976.6288522
2486.80586381
1997.09888782
1507.55750006
1018.23935823
529.397096325
138.799087423
-8.75950259478
-9.5580054433
8357.9986599
7868.28025655
7378.47265513
6888.57481943
6398.58794833
5908.5159194
5418.36416637
4928.13972238
4437.8514919
3947.51114185
3457.13332624
2966.73743797
2476.35110545
1986.00459219
1495.7413715
1005.61219301
515.930960439
131.445980031
-9.11362010774
-9.59449975932
8350.89283199
7861.13675793
7371.25442611
6881.24331963
6391.10350229
5900.83690332
5410.44664488
4919.93666353
4429.31223067
3938.57983882
3447.74868389
2956.8306914
2465.84368435
1974.80599637
1483.74648975
992.682756338
502.051337639
124.088001053
-9.12513055465
-9.57577703012
8343.91760852
7854.12325002
7364.16494434
8337.11088596
8330.51060037
8324.15369068
)
;
    }
    sides
    {
        type            calculated;
        value           nonuniform List<scalar> 0();
    }
    bottom
    {
        type            calculated;
        value           nonuniform List<scalar> 
12
(
8646.17532246
8639.02640987
8631.80441829
8624.53896755
8617.26172125
8610.00618463
8602.80729693
8595.70147603
8588.72635645
8581.91971088
8575.31938386
8568.96272244
)
;
    }
    front
    {
        type            calculated;
        value           nonuniform List<scalar> 
166
(
8401.36676505
7911.84460205
7422.42529527
6933.1121167
6443.91035718
5954.82888585
5465.87957515
4977.0774328
4488.44131272
3999.99457125
3511.76614062
3023.79136071
2536.11229415
2048.77890548
1561.84521031
1075.3638989
589.523243864
178.963794717
-0.20393630885
-9.57790036302
8394.21776383
7904.66746067
7415.19285895
6925.79687073
6436.48475073
5947.26533283
5458.15049638
4969.15534667
4480.29875796
3991.60390642
3503.09935343
3014.81958361
2526.80653575
2039.10910116
1551.77402291
1064.8478469
578.519672477
171.524413722
-1.9473601656
-9.5747870615
8386.99571531
7897.41529693
7407.88127724
6918.39610962
6428.96468608
5939.59548961
5450.29995445
4961.09271564
4471.99205396
3983.02032235
3494.20474466
3005.57890825
2517.1830201
2029.06170436
1541.26172382
1053.82515755
566.93340853
163.632894421
-3.79653644094
-9.56897874997
8379.73024905
7890.11782246
7400.52042116
6910.93988796
6421.38051227
5931.85013541
5442.35918662
4952.92121203
4463.55341495
3974.276864
3485.11667296
2996.10402148
2507.27774012
2018.68026913
1530.35976651
1042.35679426
554.831164405
155.397245225
-5.65294760888
-9.56296421559
8372.45302766
7882.80678499
7393.14235362
6903.46075516
6413.76546916
5924.06334005
5434.36346364
4944.67771484
4455.02135955
3965.41310875
3475.87572525
2986.43726446
2497.135035
2008.00966811
1519.11123449
1030.48373382
542.304948352
147.058719521
-7.36997945707
-9.55919273164
8365.19752769
7875.51581681
7385.78114522
6895.9934648
6406.15530253
5916.27208462
5426.35132594
4936.40266028
4446.43841156
3956.47423563
3466.52972513
2976.6288522
2486.80586381
1997.09888782
1507.55750006
1018.23935823
529.397096325
138.799087423
-8.75950259478
-9.5580054433
8357.9986599
7868.28025655
7378.47265513
6888.57481943
6398.58794833
5908.5159194
5418.36416637
4928.13972238
4437.8514919
3947.51114185
3457.13332624
2966.73743797
2476.35110545
1986.00459219
1495.7413715
1005.61219301
515.930960439
131.445980031
-9.11362010774
-9.59449975932
8350.89283199
7861.13675793
7371.25442611
6881.24331963
6391.10350229
5900.83690332
5410.44664488
4919.93666353
4429.31223067
3938.57983882
3447.74868389
2956.8306914
2465.84368435
1974.80599637
1483.74648975
992.682756338
502.051337639
124.088001053
-9.12513055465
-9.57577703012
8343.91760852
7854.12325002
7364.16494434
8337.11088596
8330.51060037
8324.15369068
)
;
    }
    atmosphere
    {
        type            calculated;
        value           nonuniform List<scalar> 8(-9.8114327124 -9.81166421527 -9.81170772234 -9.81148947579 -9.8108727386 -9.80999998567 -9.81 -9.81000404701);
    }
    floatingObject
    {
        type            calculated;
        value           nonuniform List<scalar> 0();
    }
    procBoundary9to6
    {
        type            processor;
        value           nonuniform List<scalar> 4(599.851592812 185.851665963 1.39623312576 -9.57770917451);
    }
    procBoundary9to7
    {
        type            processor;
        value           nonuniform List<scalar> 
16
(
8408.41493158
7918.91889038
7429.55086181
6940.31415767
6451.21394605
5962.25882654
5473.46021464
4984.8325642
4496.39404301
4008.1672735
3520.17991004
3032.46620721
2545.06854736
2058.03803856
1571.43337765
1085.31457269
)
;
    }
    procBoundary9to10
    {
        type            processor;
        value           nonuniform List<scalar> 
15
(
6874.03875679
6383.74348924
5893.27896457
5402.64569132
4911.84445194
4420.8760922
3929.74195125
3438.44353121
7847.27783801
6874.03875679
7357.243507
7847.27783801
7840.63943763
7834.2454022
8318.07705711
)
;
    }
    procBoundary9to11
    {
        type            processor;
        value           nonuniform List<scalar> 9(2946.98516119 2455.37086638 1963.6063586 1471.69854759 979.630779289 488.108556363 116.814466532 -9.09742865575 -9.5562662205);
    }
}


// ************************************************************************* //
